<event>
 8    1  0.1261983E-006  0.9118800E+02  0.7816164E-02  0.1184000E+00
        -11   -1    0    0    0    0  0.00000000000E+00  0.00000000000E+00  0.45593999997E+02  0.45594000000E+02  0.51100000000E-03 0.  1.
         11   -1    0    0    0    0 -0.00000000000E+00 -0.00000000000E+00 -0.45593999997E+02  0.45594000000E+02  0.51100000000E-03 0. -1.
         23    2    1    2    0    0  0.35527136788E-14 -0.35527136788E-14 -0.22204460493E-15  0.91188000000E+02  0.91188000000E+02 0.  0.
    9900012    2    3    3    0    0  0.27245019760E+02 -0.24698225419E+02  0.18671751132E+01  0.54367084972E+02  0.40000001811E+02 0.  0.
         12    1    3    3    0    0 -0.27245019760E+02  0.24698225419E+02 -0.18671751132E+01  0.36820915028E+02  0.00000000000E+00 0. -1.
         11    1    4    4    0    0  0.18155148062E+02  0.91056452656E+00  0.24012186383E+01  0.18335876858E+02  0.51100000000E-03 0.  1.
        -11    1    4    4    0    0 -0.20580879868E+01  0.14049017983E+00  0.67368015241E+01  0.70455630498E+01  0.51100000000E-03 0. -1.
         12    1    4    4    0    0  0.11147959685E+02 -0.25749280125E+02 -0.72708450493E+01  0.28985645065E+02  0.00000000000E+00 0. -1.
</event>
<event>
 8    1  0.1261983E-006  0.9118800E+02  0.7816164E-02  0.1184000E+00
        -11   -1    0    0    0    0  0.00000000000E+00  0.00000000000E+00  0.45593999997E+02  0.45594000000E+02  0.51100000000E-03 0.  1.
         11   -1    0    0    0    0 -0.00000000000E+00 -0.00000000000E+00 -0.45593999997E+02  0.45594000000E+02  0.51100000000E-03 0. -1.
         23    2    1    2    0    0  0.00000000000E+00  0.88817841970E-15 -0.35527136788E-14  0.91188000000E+02  0.91188000000E+02 0.  0.
    9900012    2    3    3    0    0  0.21292427787E+02 -0.35669141684E+01 -0.29827762756E+02  0.54367003425E+02  0.39999815907E+02 0.  0.
        -12    1    3    3    0    0 -0.21292427787E+02  0.35669141684E+01  0.29827762756E+02  0.36820996575E+02  0.00000000000E+00 0.  1.
         11    1    4    4    0    0  0.80584042972E+01  0.83123018957E+01 -0.64472526358E+01  0.13251388962E+02  0.51100000000E-03 0. -1.
        -11    1    4    4    0    0  0.22085983768E+02 -0.80695547631E+01 -0.12679186119E+02  0.26714605631E+02  0.51100000000E-03 0.  1.
         12    1    4    4    0    0 -0.88519602786E+01 -0.38096613009E+01 -0.10701324001E+02  0.14401008832E+02  0.00000000000E+00 0. -1.
</event>
<event>
 8    1  0.1261983E-006  0.9118800E+02  0.7816164E-02  0.1184000E+00
        -11   -1    0    0    0    0  0.00000000000E+00  0.00000000000E+00  0.45593999997E+02  0.45594000000E+02  0.51100000000E-03 0.  1.
         11   -1    0    0    0    0 -0.00000000000E+00 -0.00000000000E+00 -0.45593999997E+02  0.45594000000E+02  0.51100000000E-03 0. -1.
         23    2    1    2    0    0  0.66613381478E-15  0.00000000000E+00  0.00000000000E+00  0.91188000000E+02  0.91188000000E+02 0.  0.
    9900012    2    3    3    0    0 -0.86400072430E+00  0.18783004249E+02 -0.31658056023E+02  0.54367078542E+02  0.39999987151E+02 0.  0.
        -12    1    3    3    0    0  0.86400072430E+00 -0.18783004249E+02  0.31658056023E+02  0.36820921458E+02  0.00000000000E+00 0.  1.
         11    1    4    4    0    0  0.69673641693E+01  0.19139038992E+02 -0.28380983744E+02  0.34933182156E+02  0.51100000000E-03 0. -1.
        -11    1    4    4    0    0 -0.13268273044E+02  0.15265049376E+01 -0.29063558105E+01  0.13668364616E+02  0.51100000000E-03 0.  1.
         12    1    4    4    0    0  0.54369081508E+01 -0.18825396804E+01 -0.37071646856E+00  0.57655317698E+01  0.00000000000E+00 0. -1.
</event>
<event>
 8    1  0.1261983E-006  0.9118800E+02  0.7816164E-02  0.1184000E+00
        -11   -1    0    0    0    0  0.00000000000E+00  0.00000000000E+00  0.45593999997E+02  0.45594000000E+02  0.51100000000E-03 0.  1.
         11   -1    0    0    0    0 -0.00000000000E+00 -0.00000000000E+00 -0.45593999997E+02  0.45594000000E+02  0.51100000000E-03 0. -1.
         23    2    1    2    0    0  0.00000000000E+00  0.71054273576E-14  0.49960036108E-15  0.91188000000E+02  0.91188000000E+02 0.  0.
    9900012    2    3    3    0    0  0.11592954013E+02 -0.34947342450E+02 -0.27087589607E+00  0.54366991041E+02  0.39999787675E+02 0.  0.
         12    1    3    3    0    0 -0.11592954013E+02  0.34947342450E+02  0.27087589607E+00  0.36821008959E+02  0.00000000000E+00 0. -1.
         11    1    4    4    0    0  0.98216178858E+00  0.52363714001E+01 -0.10432429045E+01  0.54288657413E+01  0.51100000000E-03 0. -1.
        -11    1    4    4    0    0 -0.36302632412E+01 -0.49707865971E+01  0.81817210336E+01  0.10238558977E+02  0.51100000000E-03 0.  1.
         12    1    4    4    0    0  0.14241055465E+02 -0.35212927253E+02 -0.74093540252E+01  0.38699566322E+02  0.00000000000E+00 0. -1.
</event>
<event>
 8    1  0.1261983E-006  0.9118800E+02  0.7816164E-02  0.1184000E+00
        -11   -1    0    0    0    0  0.00000000000E+00  0.00000000000E+00  0.45593999997E+02  0.45594000000E+02  0.51100000000E-03 0. -1.
         11   -1    0    0    0    0 -0.00000000000E+00 -0.00000000000E+00 -0.45593999997E+02  0.45594000000E+02  0.51100000000E-03 0.  1.
         23    2    1    2    0    0  0.35527136788E-14  0.00000000000E+00  0.00000000000E+00  0.91188000000E+02  0.91188000000E+02 0.  0.
    9900012    2    3    3    0    0  0.27393805554E+02  0.18763063370E+02 -0.15915618592E+02  0.54367081422E+02  0.39999993717E+02 0.  0.
        -12    1    3    3    0    0 -0.27393805554E+02 -0.18763063370E+02  0.15915618592E+02  0.36820918578E+02  0.00000000000E+00 0.  1.
         11    1    4    4    0    0  0.54446509332E+00  0.15323728803E+01  0.10829925766E+02  0.10951342440E+02  0.51100000000E-03 0. -1.
        -11    1    4    4    0    0  0.20973870335E+02  0.73926920074E+01 -0.14009476031E+02  0.26283465351E+02  0.51100000000E-03 0.  1.
         12    1    4    4    0    0  0.58754701258E+01  0.98379984828E+01 -0.12736068326E+02  0.17132273631E+02  0.00000000000E+00 0. -1.
</event>
<event>
 8    1  0.1261983E-006  0.9118800E+02  0.7816164E-02  0.1184000E+00
        -11   -1    0    0    0    0  0.00000000000E+00  0.00000000000E+00  0.45593999997E+02  0.45594000000E+02  0.51100000000E-03 0.  1.
         11   -1    0    0    0    0 -0.00000000000E+00 -0.00000000000E+00 -0.45593999997E+02  0.45594000000E+02  0.51100000000E-03 0. -1.
         23    2    1    2    0    0  0.00000000000E+00  0.00000000000E+00  0.00000000000E+00  0.91188000000E+02  0.91188000000E+02 0.  0.
    9900012    2    3    3    0    0  0.25602990969E+02  0.21706911476E+02  0.15135243037E+02  0.54367099221E+02  0.40000034295E+02 0.  0.
         12    1    3    3    0    0 -0.25602990969E+02 -0.21706911476E+02 -0.15135243037E+02  0.36820900779E+02  0.00000000000E+00 0. -1.
         11    1    4    4    0    0 -0.67953405421E+01  0.41649352771E+01 -0.25014344028E+01  0.83534731267E+01  0.51100000000E-03 0. -1.
        -11    1    4    4    0    0  0.31362696699E+02  0.74833387651E+01  0.15013066623E+02  0.35566996964E+02  0.51100000000E-03 0.  1.
        -12    1    4    4    0    0  0.10356348120E+01  0.10058637434E+02  0.26236108162E+01  0.10446629131E+02  0.00000000000E+00 0.  1.
</event>
<event>
 8    1  0.1261983E-006  0.9118800E+02  0.7816164E-02  0.1184000E+00
        -11   -1    0    0    0    0  0.00000000000E+00  0.00000000000E+00  0.45593999997E+02  0.45594000000E+02  0.51100000000E-03 0. -1.
         11   -1    0    0    0    0 -0.00000000000E+00 -0.00000000000E+00 -0.45593999997E+02  0.45594000000E+02  0.51100000000E-03 0.  1.
         23    2    1    2    0    0  0.00000000000E+00 -0.17763568394E-14  0.00000000000E+00  0.91188000000E+02  0.91188000000E+02 0.  0.
    9900012    2    3    3    0    0  0.18093125574E+02 -0.12149822485E+02 -0.29678273781E+02  0.54367091346E+02  0.40000016342E+02 0.  0.
         12    1    3    3    0    0 -0.18093125574E+02  0.12149822485E+02  0.29678273781E+02  0.36820908654E+02  0.00000000000E+00 0. -1.
         11    1    4    4    0    0  0.11007959517E+02  0.49066248174E+00  0.27045518347E+01  0.11345947439E+02  0.51100000000E-03 0. -1.
        -11    1    4    4    0    0 -0.58232622607E+01 -0.12266500693E+02 -0.89418413241E+01  0.16258350136E+02  0.51100000000E-03 0.  1.
        -12    1    4    4    0    0  0.12908428319E+02 -0.37398427280E+00 -0.23440984292E+02  0.26762793772E+02  0.00000000000E+00 0.  1.
</event>
<event>
 8    1  0.1261983E-006  0.9118800E+02  0.7816164E-02  0.1184000E+00
        -11   -1    0    0    0    0  0.00000000000E+00  0.00000000000E+00  0.45593999997E+02  0.45594000000E+02  0.51100000000E-03 0. -1.
         11   -1    0    0    0    0 -0.00000000000E+00 -0.00000000000E+00 -0.45593999997E+02  0.45594000000E+02  0.51100000000E-03 0.  1.
         23    2    1    2    0    0  0.17763568394E-14  0.17763568394E-14  0.35527136788E-14  0.91188000000E+02  0.91188000000E+02 0.  0.
    9900012    2    3    3    0    0  0.13753949937E+02  0.13094993545E+02  0.31545719298E+02  0.54367049430E+02  0.39999920787E+02 0.  0.
        -12    1    3    3    0    0 -0.13753949937E+02 -0.13094993545E+02 -0.31545719298E+02  0.36820950570E+02  0.00000000000E+00 0.  1.
         11    1    4    4    0    0  0.96445582563E+01 -0.11844850402E+02  0.12143127489E+02  0.19513419241E+02  0.51100000000E-03 0. -1.
        -11    1    4    4    0    0  0.46129041799E+01  0.25519570383E+02  0.14144379887E+02  0.29539648613E+02  0.51100000000E-03 0.  1.
        -12    1    4    4    0    0 -0.50351249932E+00 -0.57972643587E+00  0.52582119224E+01  0.53139815768E+01  0.00000000000E+00 0.  1.
</event>
<event>
 8    1  0.1261983E-006  0.9118800E+02  0.7816164E-02  0.1184000E+00
        -11   -1    0    0    0    0  0.00000000000E+00  0.00000000000E+00  0.45593999997E+02  0.45594000000E+02  0.51100000000E-03 0. -1.
         11   -1    0    0    0    0 -0.00000000000E+00 -0.00000000000E+00 -0.45593999997E+02  0.45594000000E+02  0.51100000000E-03 0.  1.
         23    2    1    2    0    0  0.00000000000E+00 -0.71054273576E-14  0.00000000000E+00  0.91188000000E+02  0.91188000000E+02 0.  0.
    9900012    2    3    3    0    0 -0.51886268924E+01  0.36434093296E+02  0.11902523554E+01  0.54367058893E+02  0.39999942359E+02 0.  0.
         12    1    3    3    0    0  0.51886268924E+01 -0.36434093296E+02 -0.11902523554E+01  0.36820941107E+02  0.00000000000E+00 0. -1.
         11    1    4    4    0    0 -0.11991096547E+02  0.44039842472E+01  0.82212417056E+01  0.15191125340E+02  0.51100000000E-03 0. -1.
        -11    1    4    4    0    0  0.73973746641E+00  0.32443699906E+02 -0.55813364236E+01  0.32928592312E+02  0.51100000000E-03 0.  1.
         12    1    4    4    0    0  0.60627321882E+01 -0.41359085707E+00 -0.14496529265E+01  0.62473412417E+01  0.00000000000E+00 0. -1.
</event>
<event>
 8    1  0.1261983E-006  0.9118800E+02  0.7816164E-02  0.1184000E+00
        -11   -1    0    0    0    0  0.00000000000E+00  0.00000000000E+00  0.45593999997E+02  0.45594000000E+02  0.51100000000E-03 0.  1.
         11   -1    0    0    0    0 -0.00000000000E+00 -0.00000000000E+00 -0.45593999997E+02  0.45594000000E+02  0.51100000000E-03 0. -1.
         23    2    1    2    0    0  0.88817841970E-15 -0.88817841970E-15  0.00000000000E+00  0.91188000000E+02  0.91188000000E+02 0.  0.
    9900012    2    3    3    0    0 -0.61939054576E+01  0.75076430851E+01 -0.35511277445E+02  0.54367082096E+02  0.39999995255E+02 0.  0.
        -12    1    3    3    0    0  0.61939054576E+01 -0.75076430851E+01  0.35511277445E+02  0.36820917904E+02  0.00000000000E+00 0.  1.
         11    1    4    4    0    0  0.60808928721E+01 -0.76660433093E+01 -0.56503613605E+01  0.11299206251E+02  0.51100000000E-03 0. -1.
        -11    1    4    4    0    0 -0.16797153453E+01  0.91520474659E+01 -0.29438283077E+02  0.30873838881E+02  0.51100000000E-03 0.  1.
        -12    1    4    4    0    0 -0.10595082984E+02  0.60216389285E+01 -0.42263300759E+00  0.12194036964E+02  0.00000000000E+00 0.  1.
</event>
<event>
 8    1  0.1261983E-006  0.9118800E+02  0.7816164E-02  0.1184000E+00
        -11   -1    0    0    0    0  0.00000000000E+00  0.00000000000E+00  0.45593999997E+02  0.45594000000E+02  0.51100000000E-03 0. -1.
         11   -1    0    0    0    0 -0.00000000000E+00 -0.00000000000E+00 -0.45593999997E+02  0.45594000000E+02  0.51100000000E-03 0.  1.
         23    2    1    2    0    0  0.00000000000E+00  0.17763568394E-14  0.00000000000E+00  0.91188000000E+02  0.91188000000E+02 0.  0.
    9900012    2    3    3    0    0 -0.29117816072E+02 -0.98654882490E+01  0.20263388179E+02  0.54367082416E+02  0.39999995985E+02 0.  0.
        -12    1    3    3    0    0  0.29117816072E+02  0.98654882490E+01 -0.20263388179E+02  0.36820917584E+02  0.00000000000E+00 0.  1.
         11    1    4    4    0    0  0.25366707075E+01 -0.82464577122E+01  0.18114714327E+02  0.20064437158E+02  0.51100000000E-03 0. -1.
        -11    1    4    4    0    0 -0.20495664250E+02  0.31676518977E+01 -0.32895785969E+01  0.20998276101E+02  0.51100000000E-03 0.  1.
         12    1    4    4    0    0 -0.11158822529E+02 -0.47866824345E+01  0.54382524498E+01  0.13304369157E+02  0.00000000000E+00 0. -1.
</event>
<event>
 8    1  0.1261983E-006  0.9118800E+02  0.7816164E-02  0.1184000E+00
        -11   -1    0    0    0    0  0.00000000000E+00  0.00000000000E+00  0.45593999997E+02  0.45594000000E+02  0.51100000000E-03 0. -1.
         11   -1    0    0    0    0 -0.00000000000E+00 -0.00000000000E+00 -0.45593999997E+02  0.45594000000E+02  0.51100000000E-03 0.  1.
         23    2    1    2    0    0 -0.35527136788E-14  0.00000000000E+00 -0.71054273576E-14  0.91188000000E+02  0.91188000000E+02 0.  0.
    9900012    2    3    3    0    0  0.17332920153E+02 -0.13954104202E+01  0.32456152946E+02  0.54367093503E+02  0.40000021258E+02 0.  0.
        -12    1    3    3    0    0 -0.17332920153E+02  0.13954104202E+01 -0.32456152946E+02  0.36820906497E+02  0.00000000000E+00 0.  1.
         11    1    4    4    0    0  0.10478328545E+02 -0.11740503510E+02  0.16224558920E+02  0.22602457923E+02  0.51100000000E-03 0. -1.
        -11    1    4    4    0    0  0.11431326647E+02  0.23662021810E+01  0.18875689575E+02  0.22193823440E+02  0.51100000000E-03 0.  1.
        -12    1    4    4    0    0 -0.45767350392E+01  0.79788909086E+01 -0.26440955491E+01  0.95708121402E+01  0.00000000000E+00 0.  1.
</event>
<event>
 8    1  0.1261983E-006  0.9118800E+02  0.7816164E-02  0.1184000E+00
        -11   -1    0    0    0    0  0.00000000000E+00  0.00000000000E+00  0.45593999997E+02  0.45594000000E+02  0.51100000000E-03 0. -1.
         11   -1    0    0    0    0 -0.00000000000E+00 -0.00000000000E+00 -0.45593999997E+02  0.45594000000E+02  0.51100000000E-03 0.  1.
         23    2    1    2    0    0  0.00000000000E+00 -0.44408920985E-15  0.17763568394E-14  0.91188000000E+02  0.91188000000E+02 0.  0.
    9900012    2    3    3    0    0 -0.34824732368E+02 -0.17875506096E+01 -0.11824643842E+02  0.54367088500E+02  0.40000009853E+02 0.  0.
         12    1    3    3    0    0  0.34824732368E+02  0.17875506096E+01  0.11824643842E+02  0.36820911500E+02  0.00000000000E+00 0. -1.
         11    1    4    4    0    0 -0.25683043788E+02 -0.30997570397E+01 -0.39588124955E+01  0.26170583268E+02  0.51100000000E-03 0. -1.
        -11    1    4    4    0    0 -0.16846408763E+02 -0.23992489078E+01 -0.95015681517E+01  0.19489424854E+02  0.51100000000E-03 0.  1.
         12    1    4    4    0    0  0.77047201829E+01  0.37114553379E+01  0.16357368051E+01  0.87070803785E+01  0.00000000000E+00 0. -1.
</event>
<event>
 8    1  0.1261983E-006  0.9118800E+02  0.7816164E-02  0.1184000E+00
        -11   -1    0    0    0    0  0.00000000000E+00  0.00000000000E+00  0.45593999997E+02  0.45594000000E+02  0.51100000000E-03 0. -1.
         11   -1    0    0    0    0 -0.00000000000E+00 -0.00000000000E+00 -0.45593999997E+02  0.45594000000E+02  0.51100000000E-03 0.  1.
         23    2    1    2    0    0  0.35527136788E-14 -0.17763568394E-14  0.00000000000E+00  0.91188000000E+02  0.91188000000E+02 0.  0.
    9900012    2    3    3    0    0 -0.29322902479E+02 -0.11185523080E+02  0.19256984026E+02  0.54367082437E+02  0.39999996033E+02 0.  0.
        -12    1    3    3    0    0  0.29322902479E+02  0.11185523080E+02 -0.19256984026E+02  0.36820917563E+02  0.00000000000E+00 0.  1.
         11    1    4    4    0    0 -0.28795341935E+02 -0.13728452878E+02  0.15892570592E+02  0.35640088887E+02  0.51100000000E-03 0. -1.
        -11    1    4    4    0    0  0.25921515826E+01  0.87567845098E+00 -0.71382515645E+01  0.76446516098E+01  0.51100000000E-03 0.  1.
         12    1    4    4    0    0 -0.31197121260E+01  0.16672513473E+01  0.10502664999E+02  0.11082341940E+02  0.00000000000E+00 0. -1.
</event>
<event>
 8    1  0.1261983E-006  0.9118800E+02  0.7816164E-02  0.1184000E+00
        -11   -1    0    0    0    0  0.00000000000E+00  0.00000000000E+00  0.45593999997E+02  0.45594000000E+02  0.51100000000E-03 0.  1.
         11   -1    0    0    0    0 -0.00000000000E+00 -0.00000000000E+00 -0.45593999997E+02  0.45594000000E+02  0.51100000000E-03 0. -1.
         23    2    1    2    0    0 -0.44408920985E-15 -0.66613381478E-15  0.71054273576E-14  0.91188000000E+02  0.91188000000E+02 0.  0.
    9900012    2    3    3    0    0  0.23058363730E+01 -0.10951770094E+01  0.36732321797E+02  0.54367085309E+02  0.40000002579E+02 0.  0.
         12    1    3    3    0    0 -0.23058363730E+01  0.10951770094E+01 -0.36732321797E+02  0.36820914691E+02  0.00000000000E+00 0. -1.
         11    1    4    4    0    0  0.15487068574E+02 -0.11372868526E+02  0.13567441841E+02  0.23521626429E+02  0.51100000000E-03 0. -1.
        -11    1    4    4    0    0 -0.58519373183E+01 -0.74067620181E+00  0.27296804951E+01  0.64996097944E+01  0.51100000000E-03 0.  1.
         12    1    4    4    0    0 -0.73292948825E+01  0.11018367718E+02  0.20435199461E+02  0.24345849085E+02  0.00000000000E+00 0. -1.
</event>
<event>
 8    1  0.1261983E-006  0.9118800E+02  0.7816164E-02  0.1184000E+00
        -11   -1    0    0    0    0  0.00000000000E+00  0.00000000000E+00  0.45593999997E+02  0.45594000000E+02  0.51100000000E-03 0. -1.
         11   -1    0    0    0    0 -0.00000000000E+00 -0.00000000000E+00 -0.45593999997E+02  0.45594000000E+02  0.51100000000E-03 0.  1.
         23    2    1    2    0    0 -0.17763568394E-14 -0.35527136788E-14  0.00000000000E+00  0.91188000000E+02  0.91188000000E+02 0.  0.
    9900012    2    3    3    0    0 -0.13021253482E+02 -0.27560778918E+02 -0.20654945179E+02  0.54367131771E+02  0.40000108498E+02 0.  0.
         12    1    3    3    0    0  0.13021253482E+02  0.27560778918E+02  0.20654945179E+02  0.36820868229E+02  0.00000000000E+00 0. -1.
         11    1    4    4    0    0  0.10912527818E+02 -0.32288011403E+01 -0.77767679733E+00  0.11406717391E+02  0.51100000000E-03 0. -1.
        -11    1    4    4    0    0 -0.10906887225E+02 -0.65322992359E+00 -0.41249437070E+01  0.11679129211E+02  0.51100000000E-03 0.  1.
        -12    1    4    4    0    0 -0.13026894075E+02 -0.23678747854E+02 -0.15752324675E+02  0.31281285169E+02  0.00000000000E+00 0.  1.
</event>
<event>
 8    1  0.1261983E-006  0.9118800E+02  0.7816164E-02  0.1184000E+00
        -11   -1    0    0    0    0  0.00000000000E+00  0.00000000000E+00  0.45593999997E+02  0.45594000000E+02  0.51100000000E-03 0.  1.
         11   -1    0    0    0    0 -0.00000000000E+00 -0.00000000000E+00 -0.45593999997E+02  0.45594000000E+02  0.51100000000E-03 0. -1.
         23    2    1    2    0    0  0.35527136788E-14  0.35527136788E-14  0.00000000000E+00  0.91188000000E+02  0.91188000000E+02 0.  0.
    9900012    2    3    3    0    0 -0.23797451851E+02 -0.20824719373E+02 -0.18862447564E+02  0.54367087739E+02  0.40000008119E+02 0.  0.
        -12    1    3    3    0    0  0.23797451851E+02  0.20824719373E+02  0.18862447564E+02  0.36820912261E+02  0.00000000000E+00 0.  1.
         11    1    4    4    0    0 -0.16593873213E+02 -0.28995612627E+01 -0.14912104478E+02  0.22497443054E+02  0.51100000000E-03 0. -1.
        -11    1    4    4    0    0 -0.90700569089E+01 -0.23654908633E+02 -0.47971021992E+01  0.25784352319E+02  0.51100000000E-03 0.  1.
         12    1    4    4    0    0  0.18664782708E+01  0.57297505224E+01  0.84675911327E+00  0.60852923660E+01  0.00000000000E+00 0. -1.
</event>
<event>
 8    1  0.1261983E-006  0.9118800E+02  0.7816164E-02  0.1184000E+00
        -11   -1    0    0    0    0  0.00000000000E+00  0.00000000000E+00  0.45593999997E+02  0.45594000000E+02  0.51100000000E-03 0.  1.
         11   -1    0    0    0    0 -0.00000000000E+00 -0.00000000000E+00 -0.45593999997E+02  0.45594000000E+02  0.51100000000E-03 0. -1.
         23    2    1    2    0    0 -0.17763568394E-14  0.35527136788E-14  0.35527136788E-14  0.91188000000E+02  0.91188000000E+02 0.  0.
    9900012    2    3    3    0    0  0.11188910549E+02 -0.29043188137E+02 -0.19674362508E+02  0.54367095115E+02  0.40000024935E+02 0.  0.
        -12    1    3    3    0    0 -0.11188910549E+02  0.29043188137E+02  0.19674362508E+02  0.36820904885E+02  0.00000000000E+00 0.  1.
         11    1    4    4    0    0  0.84717895843E+00 -0.11618876039E+01 -0.78333518786E+01  0.79642386270E+01  0.51100000000E-03 0. -1.
        -11    1    4    4    0    0  0.17480067022E+02 -0.19868295735E+02 -0.19792894354E+02  0.33046339974E+02  0.51100000000E-03 0.  1.
        -12    1    4    4    0    0 -0.71383354322E+01 -0.80130047976E+01  0.79518837242E+01  0.13356516514E+02  0.00000000000E+00 0.  1.
</event>
<event>
 8    1  0.1261983E-006  0.9118800E+02  0.7816164E-02  0.1184000E+00
        -11   -1    0    0    0    0  0.00000000000E+00  0.00000000000E+00  0.45593999997E+02  0.45594000000E+02  0.51100000000E-03 0.  1.
         11   -1    0    0    0    0 -0.00000000000E+00 -0.00000000000E+00 -0.45593999997E+02  0.45594000000E+02  0.51100000000E-03 0. -1.
         23    2    1    2    0    0  0.17763568394E-14 -0.88817841970E-15 -0.71054273576E-14  0.91188000000E+02  0.91188000000E+02 0.  0.
    9900012    2    3    3    0    0 -0.15632896491E+02 -0.46800643421E+01  0.33007415910E+02  0.54367082575E+02  0.39999996347E+02 0.  0.
         12    1    3    3    0    0  0.15632896491E+02  0.46800643421E+01 -0.33007415910E+02  0.36820917425E+02  0.00000000000E+00 0. -1.
         11    1    4    4    0    0 -0.58510160075E+01  0.70608560001E+01  0.15221301287E+02  0.17770146001E+02  0.51100000000E-03 0. -1.
        -11    1    4    4    0    0 -0.11387601921E+00  0.86188498398E+01  0.88427471021E+01  0.12348753657E+02  0.51100000000E-03 0.  1.
         12    1    4    4    0    0 -0.96680044639E+01 -0.20359770182E+02  0.89433675215E+01  0.24248182917E+02  0.00000000000E+00 0. -1.
</event>
<event>
 8    1  0.1261983E-006  0.9118800E+02  0.7816164E-02  0.1184000E+00
        -11   -1    0    0    0    0  0.00000000000E+00  0.00000000000E+00  0.45593999997E+02  0.45594000000E+02  0.51100000000E-03 0. -1.
         11   -1    0    0    0    0 -0.00000000000E+00 -0.00000000000E+00 -0.45593999997E+02  0.45594000000E+02  0.51100000000E-03 0.  1.
         23    2    1    2    0    0  0.35527136788E-14  0.35527136788E-14  0.00000000000E+00  0.91188000000E+02  0.91188000000E+02 0.  0.
    9900012    2    3    3    0    0 -0.24892837383E+02  0.20861363061E+02 -0.17347320597E+02  0.54367090809E+02  0.40000015118E+02 0.  0.
         12    1    3    3    0    0  0.24892837383E+02 -0.20861363061E+02  0.17347320597E+02  0.36820909191E+02  0.00000000000E+00 0. -1.
         11    1    4    4    0    0 -0.16382177824E+02  0.79642154081E+00 -0.33848836182E+01  0.16747163189E+02  0.51100000000E-03 0. -1.
        -11    1    4    4    0    0 -0.12308272956E+02 -0.64390699085E+00 -0.10685610072E+02  0.16312279493E+02  0.51100000000E-03 0.  1.
        -12    1    4    4    0    0  0.37976133964E+01  0.20708848511E+02 -0.32768269066E+01  0.21307648128E+02  0.00000000000E+00 0.  1.
</event>
<event>
 8    1  0.1261983E-006  0.9118800E+02  0.7816164E-02  0.1184000E+00
        -11   -1    0    0    0    0  0.00000000000E+00  0.00000000000E+00  0.45593999997E+02  0.45594000000E+02  0.51100000000E-03 0. -1.
         11   -1    0    0    0    0 -0.00000000000E+00 -0.00000000000E+00 -0.45593999997E+02  0.45594000000E+02  0.51100000000E-03 0.  1.
         23    2    1    2    0    0  0.00000000000E+00  0.33306690739E-15  0.71054273576E-14  0.91188000000E+02  0.91188000000E+02 0.  0.
    9900012    2    3    3    0    0  0.14000498921E+02 -0.92267058663E+00 -0.34042842833E+02  0.54367076068E+02  0.39999981513E+02 0.  0.
         12    1    3    3    0    0 -0.14000498921E+02  0.92267058663E+00  0.34042842833E+02  0.36820923932E+02  0.00000000000E+00 0. -1.
         11    1    4    4    0    0  0.14955933417E+02 -0.26382291512E+01  0.40331418566E+01  0.15713256535E+02  0.51100000000E-03 0. -1.
        -11    1    4    4    0    0 -0.27549755715E+01  0.25949336395E+01 -0.14257390309E+02  0.14751160961E+02  0.51100000000E-03 0.  1.
         12    1    4    4    0    0  0.17995410758E+01 -0.87937507496E+00 -0.23818594380E+02  0.23902658573E+02  0.00000000000E+00 0. -1.
</event>
<event>
 8    1  0.1261983E-006  0.9118800E+02  0.7816164E-02  0.1184000E+00
        -11   -1    0    0    0    0  0.00000000000E+00  0.00000000000E+00  0.45593999997E+02  0.45594000000E+02  0.51100000000E-03 0.  1.
         11   -1    0    0    0    0 -0.00000000000E+00 -0.00000000000E+00 -0.45593999997E+02  0.45594000000E+02  0.51100000000E-03 0. -1.
         23    2    1    2    0    0 -0.88817841970E-15 -0.35527136788E-14  0.00000000000E+00  0.91188000000E+02  0.91188000000E+02 0.  0.
    9900012    2    3    3    0    0 -0.32524071791E+01  0.29139253081E+02  0.22273424156E+02  0.54367086836E+02  0.40000006060E+02 0.  0.
         12    1    3    3    0    0  0.32524071791E+01 -0.29139253081E+02 -0.22273424156E+02  0.36820913164E+02  0.00000000000E+00 0. -1.
         11    1    4    4    0    0 -0.82980450906E+01  0.14762033058E-01  0.54407521183E+01  0.99226787773E+01  0.51100000000E-03 0. -1.
        -11    1    4    4    0    0  0.11794757331E+02  0.29809757756E+02  0.19069585037E+02  0.37301300670E+02  0.51100000000E-03 0.  1.
        -12    1    4    4    0    0 -0.67491194195E+01 -0.68526670759E+00 -0.22369129991E+01  0.71431073886E+01  0.00000000000E+00 0.  1.
</event>
<event>
 8    1  0.1261983E-006  0.9118800E+02  0.7816164E-02  0.1184000E+00
        -11   -1    0    0    0    0  0.00000000000E+00  0.00000000000E+00  0.45593999997E+02  0.45594000000E+02  0.51100000000E-03 0. -1.
         11   -1    0    0    0    0 -0.00000000000E+00 -0.00000000000E+00 -0.45593999997E+02  0.45594000000E+02  0.51100000000E-03 0.  1.
         23    2    1    2    0    0  0.00000000000E+00  0.00000000000E+00  0.35527136788E-14  0.91188000000E+02  0.91188000000E+02 0.  0.
    9900012    2    3    3    0    0 -0.28769309500E+02 -0.12383715665E+02 -0.19358539610E+02  0.54367046201E+02  0.39999913425E+02 0.  0.
         12    1    3    3    0    0  0.28769309500E+02  0.12383715665E+02  0.19358539610E+02  0.36820953799E+02  0.00000000000E+00 0. -1.
         11    1    4    4    0    0 -0.24358939522E+02 -0.15389477873E+01 -0.11784877672E+02  0.27103683088E+02  0.51100000000E-03 0. -1.
        -11    1    4    4    0    0 -0.62827013730E+01 -0.21936689677E+01 -0.14545820195E+02  0.15995793369E+02  0.51100000000E-03 0.  1.
         12    1    4    4    0    0  0.18723313946E+01 -0.86510989098E+01  0.69721582569E+01  0.11267569745E+02  0.00000000000E+00 0. -1.
</event>
<event>
 8    1  0.1261983E-006  0.9118800E+02  0.7816164E-02  0.1184000E+00
        -11   -1    0    0    0    0  0.00000000000E+00  0.00000000000E+00  0.45593999997E+02  0.45594000000E+02  0.51100000000E-03 0.  1.
         11   -1    0    0    0    0 -0.00000000000E+00 -0.00000000000E+00 -0.45593999997E+02  0.45594000000E+02  0.51100000000E-03 0. -1.
         23    2    1    2    0    0 -0.44408920985E-15  0.35527136788E-14  0.35527136788E-14  0.91188000000E+02  0.91188000000E+02 0.  0.
    9900012    2    3    3    0    0  0.30900618826E+01 -0.31190217930E+02 -0.19323598142E+02  0.54367087164E+02  0.40000006807E+02 0.  0.
        -12    1    3    3    0    0 -0.30900618826E+01  0.31190217930E+02  0.19323598142E+02  0.36820912836E+02  0.00000000000E+00 0.  1.
         11    1    4    4    0    0  0.43233772198E+01  0.52629820027E+01  0.35182016106E+00  0.68201428014E+01  0.51100000000E-03 0. -1.
        -11    1    4    4    0    0 -0.25763247103E+01  0.10403854333E+01  0.26912078727E+01  0.38681327456E+01  0.51100000000E-03 0.  1.
        -12    1    4    4    0    0  0.13430093731E+01 -0.37493585366E+02 -0.22366626175E+02  0.43678811617E+02  0.00000000000E+00 0.  1.
</event>
<event>
 8    1  0.1261983E-006  0.9118800E+02  0.7816164E-02  0.1184000E+00
        -11   -1    0    0    0    0  0.00000000000E+00  0.00000000000E+00  0.45593999997E+02  0.45594000000E+02  0.51100000000E-03 0.  1.
         11   -1    0    0    0    0 -0.00000000000E+00 -0.00000000000E+00 -0.45593999997E+02  0.45594000000E+02  0.51100000000E-03 0. -1.
         23    2    1    2    0    0  0.00000000000E+00 -0.17763568394E-14  0.00000000000E+00  0.91188000000E+02  0.91188000000E+02 0.  0.
    9900012    2    3    3    0    0 -0.24237701815E+01 -0.11204729989E+02  0.34990729814E+02  0.54367193261E+02  0.40000248676E+02 0.  0.
         12    1    3    3    0    0  0.24237701815E+01  0.11204729989E+02 -0.34990729814E+02  0.36820806739E+02  0.00000000000E+00 0. -1.
         11    1    4    4    0    0 -0.13927855305E+01 -0.10306422151E+02 -0.55735038047E+01  0.11799412443E+02  0.51100000000E-03 0. -1.
        -11    1    4    4    0    0 -0.17041204872E+01  0.58315687632E+01  0.21366989476E+02  0.22213947430E+02  0.51100000000E-03 0.  1.
         12    1    4    4    0    0  0.67313583615E+00 -0.67298766019E+01  0.19197244142E+02  0.20353833388E+02  0.00000000000E+00 0. -1.
</event>
<event>
 8    1  0.1261983E-006  0.9118800E+02  0.7816164E-02  0.1184000E+00
        -11   -1    0    0    0    0  0.00000000000E+00  0.00000000000E+00  0.45593999997E+02  0.45594000000E+02  0.51100000000E-03 0. -1.
         11   -1    0    0    0    0 -0.00000000000E+00 -0.00000000000E+00 -0.45593999997E+02  0.45594000000E+02  0.51100000000E-03 0.  1.
         23    2    1    2    0    0  0.00000000000E+00 -0.35527136788E-14  0.35527136788E-14  0.91188000000E+02  0.91188000000E+02 0.  0.
    9900012    2    3    3    0    0  0.52505751058E+01 -0.26242282362E+02  0.25289105491E+02  0.54367288721E+02  0.40000466295E+02 0.  0.
        -12    1    3    3    0    0 -0.52505751058E+01  0.26242282362E+02 -0.25289105491E+02  0.36820711279E+02  0.00000000000E+00 0.  1.
         11    1    4    4    0    0 -0.70953230069E+00 -0.23497457684E+02 -0.39506727570E+01  0.23837822241E+02  0.51100000000E-03 0. -1.
        -11    1    4    4    0    0  0.50641791721E+01 -0.37166860062E+00  0.11015795501E+02  0.12129789735E+02  0.51100000000E-03 0.  1.
         12    1    4    4    0    0  0.89592823437E+00 -0.23731560782E+01  0.18223982747E+02  0.18399676745E+02  0.00000000000E+00 0. -1.
</event>
<event>
 8    1  0.1261983E-006  0.9118800E+02  0.7816164E-02  0.1184000E+00
        -11   -1    0    0    0    0  0.00000000000E+00  0.00000000000E+00  0.45593999997E+02  0.45594000000E+02  0.51100000000E-03 0.  1.
         11   -1    0    0    0    0 -0.00000000000E+00 -0.00000000000E+00 -0.45593999997E+02  0.45594000000E+02  0.51100000000E-03 0. -1.
         23    2    1    2    0    0 -0.35527136788E-14  0.00000000000E+00  0.35527136788E-14  0.91188000000E+02  0.91188000000E+02 0.  0.
    9900012    2    3    3    0    0 -0.28394395207E+02  0.17115545224E+02  0.16018620977E+02  0.54367084945E+02  0.40000001748E+02 0.  0.
         12    1    3    3    0    0  0.28394395207E+02 -0.17115545224E+02 -0.16018620977E+02  0.36820915055E+02  0.00000000000E+00 0. -1.
         11    1    4    4    0    0 -0.17444931282E+02  0.52003101561E+01 -0.61493274665E+01  0.19214137548E+02  0.51100000000E-03 0. -1.
        -11    1    4    4    0    0 -0.68298763224E+01  0.15898938308E+02  0.65248009633E+01  0.18493146779E+02  0.51100000000E-03 0.  1.
        -12    1    4    4    0    0 -0.41195876028E+01 -0.39837032408E+01  0.15643147480E+02  0.16659800618E+02  0.00000000000E+00 0.  1.
</event>
<event>
 8    1  0.1261983E-006  0.9118800E+02  0.7816164E-02  0.1184000E+00
        -11   -1    0    0    0    0  0.00000000000E+00  0.00000000000E+00  0.45593999997E+02  0.45594000000E+02  0.51100000000E-03 0.  1.
         11   -1    0    0    0    0 -0.00000000000E+00 -0.00000000000E+00 -0.45593999997E+02  0.45594000000E+02  0.51100000000E-03 0. -1.
         23    2    1    2    0    0  0.00000000000E+00  0.17763568394E-14 -0.17763568394E-14  0.91188000000E+02  0.91188000000E+02 0.  0.
    9900012    2    3    3    0    0 -0.35607117467E+02 -0.82692339168E+01  0.44197606390E+01  0.54367063999E+02  0.39999953998E+02 0.  0.
         12    1    3    3    0    0  0.35607117467E+02  0.82692339168E+01 -0.44197606390E+01  0.36820936001E+02  0.00000000000E+00 0. -1.
         11    1    4    4    0    0 -0.11068871125E+01  0.53274507476E+01 -0.57290366830E+01  0.79011892854E+01  0.51100000000E-03 0. -1.
        -11    1    4    4    0    0 -0.25992877300E+02 -0.14348363534E+02  0.18120543626E+02  0.34783031898E+02  0.51100000000E-03 0.  1.
         12    1    4    4    0    0 -0.85073530548E+01  0.75167886982E+00 -0.79717463039E+01  0.11682842816E+02  0.00000000000E+00 0. -1.
</event>
<event>
 8    1  0.1261983E-006  0.9118800E+02  0.7816164E-02  0.1184000E+00
        -11   -1    0    0    0    0  0.00000000000E+00  0.00000000000E+00  0.45593999997E+02  0.45594000000E+02  0.51100000000E-03 0. -1.
         11   -1    0    0    0    0 -0.00000000000E+00 -0.00000000000E+00 -0.45593999997E+02  0.45594000000E+02  0.51100000000E-03 0.  1.
         23    2    1    2    0    0  0.00000000000E+00  0.00000000000E+00  0.71054273576E-14  0.91188000000E+02  0.91188000000E+02 0.  0.
    9900012    2    3    3    0    0  0.19199928064E+02  0.19597591885E+02  0.24557652623E+02  0.54367066447E+02  0.39999959579E+02 0.  0.
        -12    1    3    3    0    0 -0.19199928064E+02 -0.19597591885E+02 -0.24557652623E+02  0.36820933553E+02  0.00000000000E+00 0.  1.
         11    1    4    4    0    0 -0.41482405233E+01  0.63824220340E+01 -0.83105910182E+00  0.76572756220E+01  0.51100000000E-03 0. -1.
        -11    1    4    4    0    0 -0.64284468643E+01 -0.28767518361E+00  0.52973701625E+01  0.83348555475E+01  0.51100000000E-03 0.  1.
         12    1    4    4    0    0  0.29776615451E+02  0.13502845035E+02  0.20091341562E+02  0.38374935277E+02  0.00000000000E+00 0. -1.
</event>
<event>
 8    1  0.1261983E-006  0.9118800E+02  0.7816164E-02  0.1184000E+00
        -11   -1    0    0    0    0  0.00000000000E+00  0.00000000000E+00  0.45593999997E+02  0.45594000000E+02  0.51100000000E-03 0.  1.
         11   -1    0    0    0    0 -0.00000000000E+00 -0.00000000000E+00 -0.45593999997E+02  0.45594000000E+02  0.51100000000E-03 0. -1.
         23    2    1    2    0    0  0.00000000000E+00 -0.71054273576E-14  0.44408920985E-15  0.91188000000E+02  0.91188000000E+02 0.  0.
    9900012    2    3    3    0    0  0.16332158034E+01 -0.36631580079E+02  0.33525525434E+01  0.54367086628E+02  0.40000005587E+02 0.  0.
        -12    1    3    3    0    0 -0.16332158034E+01  0.36631580079E+02 -0.33525525434E+01  0.36820913372E+02  0.00000000000E+00 0.  1.
         11    1    4    4    0    0 -0.78628723713E+01 -0.22646296696E+02 -0.15598417286E+02  0.28600526884E+02  0.51100000000E-03 0. -1.
        -11    1    4    4    0    0  0.14242638792E+01 -0.25486851679E+01  0.61056534474E+01  0.67678155976E+01  0.51100000000E-03 0.  1.
         12    1    4    4    0    0  0.80718242955E+01 -0.11436598216E+02  0.12845316382E+02  0.18998744147E+02  0.00000000000E+00 0. -1.
</event>
<event>
 8    1  0.1261983E-006  0.9118800E+02  0.7816164E-02  0.1184000E+00
        -11   -1    0    0    0    0  0.00000000000E+00  0.00000000000E+00  0.45593999997E+02  0.45594000000E+02  0.51100000000E-03 0. -1.
         11   -1    0    0    0    0 -0.00000000000E+00 -0.00000000000E+00 -0.45593999997E+02  0.45594000000E+02  0.51100000000E-03 0.  1.
         23    2    1    2    0    0  0.00000000000E+00  0.17763568394E-14 -0.44408920985E-15  0.91188000000E+02  0.91188000000E+02 0.  0.
    9900012    2    3    3    0    0 -0.33344899503E+02 -0.15607923461E+02  0.53671234130E+00  0.54367113838E+02  0.40000067616E+02 0.  0.
         12    1    3    3    0    0  0.33344899503E+02  0.15607923461E+02 -0.53671234130E+00  0.36820886162E+02  0.00000000000E+00 0. -1.
         11    1    4    4    0    0 -0.55045944577E+01  0.54364633365E+01 -0.58122092984E+01  0.96766456452E+01  0.51100000000E-03 0. -1.
        -11    1    4    4    0    0 -0.20511027112E+02  0.97636874029E+00  0.63103366066E+01  0.21481989606E+02  0.51100000000E-03 0.  1.
         12    1    4    4    0    0 -0.73292779336E+01 -0.22020755538E+02  0.38585033044E-01  0.23208478586E+02  0.00000000000E+00 0. -1.
</event>
<event>
 8    1  0.1261983E-006  0.9118800E+02  0.7816164E-02  0.1184000E+00
        -11   -1    0    0    0    0  0.00000000000E+00  0.00000000000E+00  0.45593999997E+02  0.45594000000E+02  0.51100000000E-03 0.  1.
         11   -1    0    0    0    0 -0.00000000000E+00 -0.00000000000E+00 -0.45593999997E+02  0.45594000000E+02  0.51100000000E-03 0. -1.
         23    2    1    2    0    0  0.88817841970E-15  0.00000000000E+00  0.00000000000E+00  0.91188000000E+02  0.91188000000E+02 0.  0.
    9900012    2    3    3    0    0  0.70924874072E+01  0.35501717538E+02  0.67161179142E+01  0.54367060772E+02  0.39999946642E+02 0.  0.
         12    1    3    3    0    0 -0.70924874072E+01 -0.35501717538E+02 -0.67161179142E+01  0.36820939228E+02  0.00000000000E+00 0. -1.
         11    1    4    4    0    0  0.30274423332E+01 -0.36416755647E+01 -0.46766569827E+01  0.66556989711E+01  0.51100000000E-03 0. -1.
        -11    1    4    4    0    0  0.81737622482E+00  0.41014151164E+02  0.64780821103E+01  0.41530642274E+02  0.51100000000E-03 0.  1.
        -12    1    4    4    0    0  0.32476688492E+01 -0.18707580614E+01  0.49146927866E+01  0.61807195264E+01  0.00000000000E+00 0.  1.
</event>
<event>
 8    1  0.1261983E-006  0.9118800E+02  0.7816164E-02  0.1184000E+00
        -11   -1    0    0    0    0  0.00000000000E+00  0.00000000000E+00  0.45593999997E+02  0.45594000000E+02  0.51100000000E-03 0. -1.
         11   -1    0    0    0    0 -0.00000000000E+00 -0.00000000000E+00 -0.45593999997E+02  0.45594000000E+02  0.51100000000E-03 0.  1.
         23    2    1    2    0    0  0.17763568394E-14  0.71054273576E-14 -0.35527136788E-14  0.91188000000E+02  0.91188000000E+02 0.  0.
    9900012    2    3    3    0    0 -0.10720119977E+02 -0.21704480302E+02  0.27744828389E+02  0.54367069270E+02  0.39999966015E+02 0.  0.
        -12    1    3    3    0    0  0.10720119977E+02  0.21704480302E+02 -0.27744828389E+02  0.36820930730E+02  0.00000000000E+00 0.  1.
         11    1    4    4    0    0 -0.90183295458E+01 -0.71311942542E+00  0.33622700689E+00  0.90527264387E+01  0.51100000000E-03 0. -1.
        -11    1    4    4    0    0 -0.33482436505E+01 -0.19656734031E+02  0.22497462365E+01  0.20066372037E+02  0.51100000000E-03 0.  1.
         12    1    4    4    0    0  0.16464532190E+01 -0.13346268449E+01  0.25158855146E+02  0.25247970795E+02  0.00000000000E+00 0. -1.
</event>
<event>
 8    1  0.1261983E-006  0.9118800E+02  0.7816164E-02  0.1184000E+00
        -11   -1    0    0    0    0  0.00000000000E+00  0.00000000000E+00  0.45593999997E+02  0.45594000000E+02  0.51100000000E-03 0.  1.
         11   -1    0    0    0    0 -0.00000000000E+00 -0.00000000000E+00 -0.45593999997E+02  0.45594000000E+02  0.51100000000E-03 0. -1.
         23    2    1    2    0    0  0.35527136788E-14  0.00000000000E+00  0.35527136788E-14  0.91188000000E+02  0.91188000000E+02 0.  0.
    9900012    2    3    3    0    0 -0.81548454801E+01  0.18204928460E+02 -0.30949305641E+02  0.54367075993E+02  0.39999981342E+02 0.  0.
        -12    1    3    3    0    0  0.81548454801E+01 -0.18204928460E+02  0.30949305641E+02  0.36820924007E+02  0.00000000000E+00 0.  1.
         11    1    4    4    0    0 -0.21140170259E+02  0.69944551885E+01 -0.24883514721E+02  0.33391892835E+02  0.51100000000E-03 0. -1.
        -11    1    4    4    0    0 -0.88915956268E-01 -0.16832887588E+01 -0.19472339789E+00  0.16968454719E+01  0.51100000000E-03 0.  1.
        -12    1    4    4    0    0  0.13074240735E+02  0.12893762030E+02 -0.58710675225E+01  0.19278337686E+02  0.00000000000E+00 0.  1.
</event>
<event>
 8    1  0.1261983E-006  0.9118800E+02  0.7816164E-02  0.1184000E+00
        -11   -1    0    0    0    0  0.00000000000E+00  0.00000000000E+00  0.45593999997E+02  0.45594000000E+02  0.51100000000E-03 0. -1.
         11   -1    0    0    0    0 -0.00000000000E+00 -0.00000000000E+00 -0.45593999997E+02  0.45594000000E+02  0.51100000000E-03 0.  1.
         23    2    1    2    0    0  0.71054273576E-14 -0.35527136788E-14 -0.71054273576E-14  0.91188000000E+02  0.91188000000E+02 0.  0.
    9900012    2    3    3    0    0 -0.20478964092E+02  0.18836156439E+02  0.24116285005E+02  0.54367028230E+02  0.39999872456E+02 0.  0.
        -12    1    3    3    0    0  0.20478964092E+02 -0.18836156439E+02 -0.24116285005E+02  0.36820971770E+02  0.00000000000E+00 0.  1.
         11    1    4    4    0    0  0.41773689648E+01  0.24787219243E+01  0.58892316605E+01  0.76339716832E+01  0.51100000000E-03 0. -1.
        -11    1    4    4    0    0 -0.86189085771E+01  0.18548433025E+02 -0.23110140998E+01  0.20583263569E+02  0.51100000000E-03 0.  1.
         12    1    4    4    0    0 -0.16037424480E+02 -0.21909985107E+01  0.20538067444E+02  0.26149792977E+02  0.00000000000E+00 0. -1.
</event>
<event>
 8    1  0.1261983E-006  0.9118800E+02  0.7816164E-02  0.1184000E+00
        -11   -1    0    0    0    0  0.00000000000E+00  0.00000000000E+00  0.45593999997E+02  0.45594000000E+02  0.51100000000E-03 0.  1.
         11   -1    0    0    0    0 -0.00000000000E+00 -0.00000000000E+00 -0.45593999997E+02  0.45594000000E+02  0.51100000000E-03 0. -1.
         23    2    1    2    0    0  0.00000000000E+00  0.88817841970E-15  0.00000000000E+00  0.91188000000E+02  0.91188000000E+02 0.  0.
    9900012    2    3    3    0    0  0.35861482302E+02 -0.57964373816E+01  0.60112333874E+01  0.54367088468E+02  0.40000009780E+02 0.  0.
        -12    1    3    3    0    0 -0.35861482302E+02  0.57964373816E+01 -0.60112333874E+01  0.36820911532E+02  0.00000000000E+00 0.  1.
         11    1    4    4    0    0  0.49735140877E+01 -0.78692761118E+00  0.83837089395E+01  0.97796560926E+01  0.51100000000E-03 0. -1.
        -11    1    4    4    0    0  0.25131264774E+02  0.11056974428E+02 -0.16406164023E+01  0.27505068171E+02  0.51100000000E-03 0.  1.
        -12    1    4    4    0    0  0.57567034404E+01 -0.16066484198E+02 -0.73185914975E+00  0.17082364204E+02  0.00000000000E+00 0.  1.
</event>
<event>
 8    1  0.1261983E-006  0.9118800E+02  0.7816164E-02  0.1184000E+00
        -11   -1    0    0    0    0  0.00000000000E+00  0.00000000000E+00  0.45593999997E+02  0.45594000000E+02  0.51100000000E-03 0.  1.
         11   -1    0    0    0    0 -0.00000000000E+00 -0.00000000000E+00 -0.45593999997E+02  0.45594000000E+02  0.51100000000E-03 0. -1.
         23    2    1    2    0    0  0.00000000000E+00 -0.35527136788E-14 -0.35527136788E-14  0.91188000000E+02  0.91188000000E+02 0.  0.
    9900012    2    3    3    0    0  0.27780106123E+02 -0.98673044674E+01 -0.22060887635E+02  0.54367071754E+02  0.39999971678E+02 0.  0.
        -12    1    3    3    0    0 -0.27780106123E+02  0.98673044674E+01  0.22060887635E+02  0.36820928246E+02  0.00000000000E+00 0.  1.
         11    1    4    4    0    0  0.11120140675E+02  0.77974264901E+01 -0.40015903047E+01  0.14158746898E+02  0.51100000000E-03 0. -1.
        -11    1    4    4    0    0 -0.21112905829E+01 -0.16933076168E+02 -0.98932486504E+01  0.19724679606E+02  0.51100000000E-03 0.  1.
        -12    1    4    4    0    0  0.18771256030E+02 -0.73165478940E+00 -0.81660486795E+01  0.20483645250E+02  0.00000000000E+00 0.  1.
</event>
<event>
 8    1  0.1261983E-006  0.9118800E+02  0.7816164E-02  0.1184000E+00
        -11   -1    0    0    0    0  0.00000000000E+00  0.00000000000E+00  0.45593999997E+02  0.45594000000E+02  0.51100000000E-03 0.  1.
         11   -1    0    0    0    0 -0.00000000000E+00 -0.00000000000E+00 -0.45593999997E+02  0.45594000000E+02  0.51100000000E-03 0. -1.
         23    2    1    2    0    0  0.35527136788E-14  0.00000000000E+00  0.17763568394E-14  0.91188000000E+02  0.91188000000E+02 0.  0.
    9900012    2    3    3    0    0  0.27597578256E+02  0.19002297657E+02  0.15266474676E+02  0.54367097093E+02  0.40000029443E+02 0.  0.
        -12    1    3    3    0    0 -0.27597578256E+02 -0.19002297657E+02 -0.15266474676E+02  0.36820902907E+02  0.00000000000E+00 0.  1.
         11    1    4    4    0    0  0.17063149552E+02  0.17741435072E+02 -0.27303230676E+01  0.24766191781E+02  0.51100000000E-03 0. -1.
        -11    1    4    4    0    0 -0.37091698827E+01  0.44268447910E+01 -0.77290552601E+00  0.58268584362E+01  0.51100000000E-03 0.  1.
        -12    1    4    4    0    0  0.14243598587E+02 -0.31659822057E+01  0.18769703269E+02  0.23774046876E+02  0.00000000000E+00 0.  1.
</event>
<event>
 8    1  0.1261983E-006  0.9118800E+02  0.7816164E-02  0.1184000E+00
        -11   -1    0    0    0    0  0.00000000000E+00  0.00000000000E+00  0.45593999997E+02  0.45594000000E+02  0.51100000000E-03 0.  1.
         11   -1    0    0    0    0 -0.00000000000E+00 -0.00000000000E+00 -0.45593999997E+02  0.45594000000E+02  0.51100000000E-03 0. -1.
         23    2    1    2    0    0 -0.88817841970E-15  0.00000000000E+00  0.00000000000E+00  0.91188000000E+02  0.91188000000E+02 0.  0.
    9900012    2    3    3    0    0  0.66667108527E+01  0.35490531741E+02  0.71941872577E+01  0.54367092799E+02  0.40000019653E+02 0.  0.
         12    1    3    3    0    0 -0.66667108527E+01 -0.35490531741E+02 -0.71941872577E+01  0.36820907201E+02  0.00000000000E+00 0. -1.
         11    1    4    4    0    0  0.99202093729E+01  0.29134072982E+00  0.60141040460E+01  0.11604519859E+02  0.51100000000E-03 0. -1.
        -11    1    4    4    0    0  0.69352483468E+01  0.29404865057E+02  0.45834244066E+01  0.30557348351E+02  0.51100000000E-03 0.  1.
        -12    1    4    4    0    0 -0.10188746867E+02  0.57943259537E+01 -0.34033411949E+01  0.12205224589E+02  0.00000000000E+00 0.  1.
</event>
<event>
 8    1  0.1261983E-006  0.9118800E+02  0.7816164E-02  0.1184000E+00
        -11   -1    0    0    0    0  0.00000000000E+00  0.00000000000E+00  0.45593999997E+02  0.45594000000E+02  0.51100000000E-03 0. -1.
         11   -1    0    0    0    0 -0.00000000000E+00 -0.00000000000E+00 -0.45593999997E+02  0.45594000000E+02  0.51100000000E-03 0.  1.
         23    2    1    2    0    0  0.71054273576E-14 -0.88817841970E-15 -0.88817841970E-15  0.91188000000E+02  0.91188000000E+02 0.  0.
    9900012    2    3    3    0    0  0.36547315147E+02 -0.41959741907E+01 -0.15708043457E+01  0.54367083795E+02  0.39999999129E+02 0.  0.
        -12    1    3    3    0    0 -0.36547315147E+02  0.41959741907E+01  0.15708043457E+01  0.36820916205E+02  0.00000000000E+00 0.  1.
         11    1    4    4    0    0  0.10878050179E+02  0.92930769465E+01  0.67743035696E+01  0.15829859252E+02  0.51100000000E-03 0. -1.
        -11    1    4    4    0    0  0.89424834400E+01  0.52628275226E+01 -0.84928987157E+01  0.13408754322E+02  0.51100000000E-03 0.  1.
         12    1    4    4    0    0  0.16726781528E+02 -0.18751878660E+02  0.14779080045E+00  0.25128470222E+02  0.00000000000E+00 0. -1.
</event>
<event>
 8    1  0.1261983E-006  0.9118800E+02  0.7816164E-02  0.1184000E+00
        -11   -1    0    0    0    0  0.00000000000E+00  0.00000000000E+00  0.45593999997E+02  0.45594000000E+02  0.51100000000E-03 0.  1.
         11   -1    0    0    0    0 -0.00000000000E+00 -0.00000000000E+00 -0.45593999997E+02  0.45594000000E+02  0.51100000000E-03 0. -1.
         23    2    1    2    0    0 -0.44408920985E-15  0.71054273576E-14  0.00000000000E+00  0.91188000000E+02  0.91188000000E+02 0.  0.
    9900012    2    3    3    0    0  0.28849069950E+01 -0.35765073915E+02  0.82653566950E+01  0.54367091241E+02  0.40000016102E+02 0.  0.
         12    1    3    3    0    0 -0.28849069950E+01  0.35765073915E+02 -0.82653566950E+01  0.36820908759E+02  0.00000000000E+00 0. -1.
         11    1    4    4    0    0 -0.21732834511E+01  0.59713960368E+00  0.97497424301E+01  0.10006858367E+02  0.51100000000E-03 0. -1.
        -11    1    4    4    0    0  0.40491050336E+01 -0.39718583360E+02  0.12048243626E+01  0.39942617813E+02  0.51100000000E-03 0.  1.
        -12    1    4    4    0    0  0.10090854125E+01  0.33563698413E+01 -0.26892100977E+01  0.44176150614E+01  0.00000000000E+00 0.  1.
</event>
<event>
 8    1  0.1261983E-006  0.9118800E+02  0.7816164E-02  0.1184000E+00
        -11   -1    0    0    0    0  0.00000000000E+00  0.00000000000E+00  0.45593999997E+02  0.45594000000E+02  0.51100000000E-03 0.  1.
         11   -1    0    0    0    0 -0.00000000000E+00 -0.00000000000E+00 -0.45593999997E+02  0.45594000000E+02  0.51100000000E-03 0. -1.
         23    2    1    2    0    0  0.00000000000E+00 -0.88817841970E-15  0.18873791419E-14  0.91188000000E+02  0.91188000000E+02 0.  0.
    9900012    2    3    3    0    0  0.36401557742E+02  0.55137850761E+01 -0.55124440955E+00  0.54367094222E+02  0.40000022897E+02 0.  0.
        -12    1    3    3    0    0 -0.36401557742E+02 -0.55137850761E+01  0.55124440955E+00  0.36820905778E+02  0.00000000000E+00 0.  1.
         11    1    4    4    0    0  0.64417917466E+01  0.15879275878E+01  0.10045193937E+02  0.12038443273E+02  0.51100000000E-03 0. -1.
        -11    1    4    4    0    0  0.90917533559E+01 -0.16539818628E+01  0.91917306257E+01  0.13033938286E+02  0.51100000000E-03 0.  1.
         12    1    4    4    0    0  0.20868012640E+02  0.55798393511E+01 -0.19788168972E+02  0.29294712663E+02  0.00000000000E+00 0. -1.
</event>
<event>
 8    1  0.1261983E-006  0.9118800E+02  0.7816164E-02  0.1184000E+00
        -11   -1    0    0    0    0  0.00000000000E+00  0.00000000000E+00  0.45593999997E+02  0.45594000000E+02  0.51100000000E-03 0.  1.
         11   -1    0    0    0    0 -0.00000000000E+00 -0.00000000000E+00 -0.45593999997E+02  0.45594000000E+02  0.51100000000E-03 0. -1.
         23    2    1    2    0    0 -0.11102230246E-15 -0.88817841970E-15  0.00000000000E+00  0.91188000000E+02  0.91188000000E+02 0.  0.
    9900012    2    3    3    0    0  0.97283869673E+00  0.20686272844E+01  0.36749921302E+02  0.54367050125E+02  0.39999922370E+02 0.  0.
         12    1    3    3    0    0 -0.97283869673E+00 -0.20686272844E+01 -0.36749921302E+02  0.36820949875E+02  0.00000000000E+00 0. -1.
         11    1    4    4    0    0 -0.96995728620E+00  0.17717964121E+02  0.16447390297E+02  0.24194704329E+02  0.51100000000E-03 0. -1.
        -11    1    4    4    0    0 -0.81111700575E+00  0.16319602182E+01 -0.13967309399E+01  0.22960972389E+01  0.51100000000E-03 0.  1.
        -12    1    4    4    0    0  0.27539129887E+01 -0.17281297055E+02  0.21699261945E+02  0.27876248557E+02  0.00000000000E+00 0.  1.
</event>
<event>
 8    1  0.1261983E-006  0.9118800E+02  0.7816164E-02  0.1184000E+00
        -11   -1    0    0    0    0  0.00000000000E+00  0.00000000000E+00  0.45593999997E+02  0.45594000000E+02  0.51100000000E-03 0.  1.
         11   -1    0    0    0    0 -0.00000000000E+00 -0.00000000000E+00 -0.45593999997E+02  0.45594000000E+02  0.51100000000E-03 0. -1.
         23    2    1    2    0    0  0.00000000000E+00  0.00000000000E+00 -0.88817841970E-15  0.91188000000E+02  0.91188000000E+02 0.  0.
    9900012    2    3    3    0    0  0.31644714741E+02  0.18392185965E+02 -0.40149250469E+01  0.54367080692E+02  0.39999992053E+02 0.  0.
        -12    1    3    3    0    0 -0.31644714741E+02 -0.18392185965E+02  0.40149250469E+01  0.36820919308E+02  0.00000000000E+00 0.  1.
         11    1    4    4    0    0  0.14421624455E+02 -0.27132662970E+01 -0.85566686440E+01  0.16987102297E+02  0.51100000000E-03 0. -1.
        -11    1    4    4    0    0  0.78342146548E+01  0.58412401603E+01 -0.10236378544E+02  0.14151976958E+02  0.51100000000E-03 0.  1.
        -12    1    4    4    0    0  0.93888756309E+01  0.15264212101E+02  0.14778122141E+02  0.23228001436E+02  0.00000000000E+00 0.  1.
</event>
<event>
 8    1  0.1261983E-006  0.9118800E+02  0.7816164E-02  0.1184000E+00
        -11   -1    0    0    0    0  0.00000000000E+00  0.00000000000E+00  0.45593999997E+02  0.45594000000E+02  0.51100000000E-03 0.  1.
         11   -1    0    0    0    0 -0.00000000000E+00 -0.00000000000E+00 -0.45593999997E+02  0.45594000000E+02  0.51100000000E-03 0. -1.
         23    2    1    2    0    0  0.22204460493E-14 -0.17763568394E-14  0.00000000000E+00  0.91188000000E+02  0.91188000000E+02 0.  0.
    9900012    2    3    3    0    0 -0.26457176385E+01  0.98676856708E+01  0.35375292849E+02  0.54367049626E+02  0.39999921232E+02 0.  0.
         12    1    3    3    0    0  0.26457176385E+01 -0.98676856708E+01 -0.35375292849E+02  0.36820950374E+02  0.00000000000E+00 0. -1.
         11    1    4    4    0    0 -0.13846438079E+02  0.33055125672E+01  0.17826694056E+02  0.22813182198E+02  0.51100000000E-03 0. -1.
        -11    1    4    4    0    0  0.17446437540E+02  0.86044782814E+01  0.14744968891E+02  0.24409615670E+02  0.51100000000E-03 0.  1.
        -12    1    4    4    0    0 -0.62457171001E+01 -0.20423051778E+01  0.28036299026E+01  0.71442517568E+01  0.00000000000E+00 0.  1.
</event>
<event>
 8    1  0.1261983E-006  0.9118800E+02  0.7816164E-02  0.1184000E+00
        -11   -1    0    0    0    0  0.00000000000E+00  0.00000000000E+00  0.45593999997E+02  0.45594000000E+02  0.51100000000E-03 0.  1.
         11   -1    0    0    0    0 -0.00000000000E+00 -0.00000000000E+00 -0.45593999997E+02  0.45594000000E+02  0.51100000000E-03 0. -1.
         23    2    1    2    0    0 -0.35527136788E-14  0.00000000000E+00  0.00000000000E+00  0.91188000000E+02  0.91188000000E+02 0.  0.
    9900012    2    3    3    0    0  0.28630531117E+02 -0.22367969895E+02 -0.59788014043E+01  0.54367089426E+02  0.40000011965E+02 0.  0.
         12    1    3    3    0    0 -0.28630531117E+02  0.22367969895E+02  0.59788014043E+01  0.36820910574E+02  0.00000000000E+00 0. -1.
         11    1    4    4    0    0  0.83253562706E+01 -0.14162877958E+02  0.60440168895E+01  0.17505108097E+02  0.51100000000E-03 0. -1.
        -11    1    4    4    0    0  0.25711740193E+02 -0.10703804452E+02 -0.61999865738E+01  0.28532522624E+02  0.51100000000E-03 0.  1.
         12    1    4    4    0    0 -0.54065653467E+01  0.24987125150E+01 -0.58228317200E+01  0.83294587052E+01  0.00000000000E+00 0. -1.
</event>
<event>
 8    1  0.1261983E-006  0.9118800E+02  0.7816164E-02  0.1184000E+00
        -11   -1    0    0    0    0  0.00000000000E+00  0.00000000000E+00  0.45593999997E+02  0.45594000000E+02  0.51100000000E-03 0.  1.
         11   -1    0    0    0    0 -0.00000000000E+00 -0.00000000000E+00 -0.45593999997E+02  0.45594000000E+02  0.51100000000E-03 0. -1.
         23    2    1    2    0    0  0.00000000000E+00 -0.35527136788E-14  0.00000000000E+00  0.91188000000E+02  0.91188000000E+02 0.  0.
    9900012    2    3    3    0    0 -0.22861993916E+02 -0.22958306799E+02  0.17493576822E+02  0.54367084111E+02  0.39999999847E+02 0.  0.
        -12    1    3    3    0    0  0.22861993916E+02  0.22958306799E+02 -0.17493576822E+02  0.36820915889E+02  0.00000000000E+00 0.  1.
         11    1    4    4    0    0  0.89028854483E+01 -0.75316859665E+01 -0.42072125615E+00  0.11668961798E+02  0.51100000000E-03 0. -1.
        -11    1    4    4    0    0 -0.16097426375E+02 -0.92825284635E+01  0.65724668768E+00  0.18593666773E+02  0.51100000000E-03 0.  1.
        -12    1    4    4    0    0 -0.15667452989E+02 -0.61440923694E+01  0.17257051391E+02  0.24104455540E+02  0.00000000000E+00 0.  1.
</event>
<event>
 8    1  0.1261983E-006  0.9118800E+02  0.7816164E-02  0.1184000E+00
        -11   -1    0    0    0    0  0.00000000000E+00  0.00000000000E+00  0.45593999997E+02  0.45594000000E+02  0.51100000000E-03 0.  1.
         11   -1    0    0    0    0 -0.00000000000E+00 -0.00000000000E+00 -0.45593999997E+02  0.45594000000E+02  0.51100000000E-03 0. -1.
         23    2    1    2    0    0  0.00000000000E+00  0.35527136788E-14  0.35527136788E-14  0.91188000000E+02  0.91188000000E+02 0.  0.
    9900012    2    3    3    0    0 -0.12845197487E+02 -0.27943651874E+02  0.20246947208E+02  0.54367005312E+02  0.39999820210E+02 0.  0.
         12    1    3    3    0    0  0.12845197487E+02  0.27943651874E+02 -0.20246947208E+02  0.36820994688E+02  0.00000000000E+00 0. -1.
         11    1    4    4    0    0  0.27380601632E+01  0.70825337862E+01 -0.30578732661E+01  0.81859542793E+01  0.51100000000E-03 0.  1.
        -11    1    4    4    0    0 -0.29424099512E+01 -0.44062062254E+00  0.10496054389E+01  0.31549318047E+01  0.51100000000E-03 0. -1.
        -12    1    4    4    0    0 -0.12640847699E+02 -0.34585565038E+02  0.22255215035E+02  0.43026119228E+02  0.00000000000E+00 0.  1.
</event>
<event>
 8    1  0.1261983E-006  0.9118800E+02  0.7816164E-02  0.1184000E+00
        -11   -1    0    0    0    0  0.00000000000E+00  0.00000000000E+00  0.45593999997E+02  0.45594000000E+02  0.51100000000E-03 0.  1.
         11   -1    0    0    0    0 -0.00000000000E+00 -0.00000000000E+00 -0.45593999997E+02  0.45594000000E+02  0.51100000000E-03 0. -1.
         23    2    1    2    0    0  0.00000000000E+00  0.00000000000E+00 -0.35527136788E-14  0.91188000000E+02  0.91188000000E+02 0.  0.
    9900012    2    3    3    0    0  0.17796252951E+02  0.24856606792E+02  0.20523806988E+02  0.54367025358E+02  0.39999865909E+02 0.  0.
         12    1    3    3    0    0 -0.17796252951E+02 -0.24856606792E+02 -0.20523806988E+02  0.36820974642E+02  0.00000000000E+00 0. -1.
         11    1    4    4    0    0  0.16020960371E+02 -0.14335805200E+01  0.17227513931E+01  0.16176965010E+02  0.51100000000E-03 0. -1.
        -11    1    4    4    0    0  0.21484849882E+01 -0.31398318145E+01  0.23570824611E+01  0.44755300867E+01  0.51100000000E-03 0.  1.
        -12    1    4    4    0    0 -0.37319240733E+00  0.29430019126E+02  0.16443973133E+02  0.33714530262E+02  0.00000000000E+00 0.  1.
</event>
<event>
 8    1  0.1261983E-006  0.9118800E+02  0.7816164E-02  0.1184000E+00
        -11   -1    0    0    0    0  0.00000000000E+00  0.00000000000E+00  0.45593999997E+02  0.45594000000E+02  0.51100000000E-03 0. -1.
         11   -1    0    0    0    0 -0.00000000000E+00 -0.00000000000E+00 -0.45593999997E+02  0.45594000000E+02  0.51100000000E-03 0.  1.
         23    2    1    2    0    0  0.00000000000E+00  0.88817841970E-15  0.00000000000E+00  0.91188000000E+02  0.91188000000E+02 0.  0.
    9900012    2    3    3    0    0  0.35971433434E+02  0.42354607543E+01 -0.66254076809E+01  0.54367093193E+02  0.40000020553E+02 0.  0.
         12    1    3    3    0    0 -0.35971433434E+02 -0.42354607543E+01  0.66254076809E+01  0.36820906807E+02  0.00000000000E+00 0. -1.
         11    1    4    4    0    0  0.16871645005E+02 -0.82844017395E+01 -0.13021243606E+02  0.22865618353E+02  0.51100000000E-03 0.  1.
        -11    1    4    4    0    0  0.26821201657E+01  0.54465604597E+01 -0.69236236147E+01  0.92084392621E+01  0.51100000000E-03 0. -1.
         12    1    4    4    0    0  0.16417668263E+02  0.70733020341E+01  0.13319459540E+02  0.22293035578E+02  0.00000000000E+00 0. -1.
</event>
<event>
 8    1  0.1261983E-006  0.9118800E+02  0.7816164E-02  0.1184000E+00
        -11   -1    0    0    0    0  0.00000000000E+00  0.00000000000E+00  0.45593999997E+02  0.45594000000E+02  0.51100000000E-03 0.  1.
         11   -1    0    0    0    0 -0.00000000000E+00 -0.00000000000E+00 -0.45593999997E+02  0.45594000000E+02  0.51100000000E-03 0. -1.
         23    2    1    2    0    0 -0.35527136788E-14  0.88817841970E-15  0.00000000000E+00  0.91188000000E+02  0.91188000000E+02 0.  0.
    9900012    2    3    3    0    0 -0.16212020534E+02  0.53238565856E+01 -0.32628288401E+02  0.54367105623E+02  0.40000048888E+02 0.  0.
        -12    1    3    3    0    0  0.16212020534E+02 -0.53238565856E+01  0.32628288401E+02  0.36820894377E+02  0.00000000000E+00 0.  1.
         11    1    4    4    0    0 -0.68357806790E+01  0.87459480395E+00 -0.34072986416E+02  0.34762928776E+02  0.51100000000E-03 0. -1.
        -11    1    4    4    0    0 -0.29787343465E+01  0.46839745221E+01  0.84526527631E+01  0.10112359498E+02  0.51100000000E-03 0.  1.
         12    1    4    4    0    0 -0.63975055089E+01 -0.23471274037E+00 -0.70079547485E+01  0.94918173478E+01  0.00000000000E+00 0. -1.
</event>
<event>
 8    1  0.1261983E-006  0.9118800E+02  0.7816164E-02  0.1184000E+00
        -11   -1    0    0    0    0  0.00000000000E+00  0.00000000000E+00  0.45593999997E+02  0.45594000000E+02  0.51100000000E-03 0.  1.
         11   -1    0    0    0    0 -0.00000000000E+00 -0.00000000000E+00 -0.45593999997E+02  0.45594000000E+02  0.51100000000E-03 0. -1.
         23    2    1    2    0    0  0.00000000000E+00  0.44408920985E-15  0.00000000000E+00  0.91188000000E+02  0.91188000000E+02 0.  0.
    9900012    2    3    3    0    0  0.25429399953E+02  0.26538989695E+01  0.26496817272E+02  0.54367097142E+02  0.40000029555E+02 0.  0.
         12    1    3    3    0    0 -0.25429399953E+02 -0.26538989695E+01 -0.26496817272E+02  0.36820902858E+02  0.00000000000E+00 0. -1.
         11    1    4    4    0    0  0.20293683219E+02 -0.60822124378E+01  0.88570103070E+01  0.22962437122E+02  0.51100000000E-03 0. -1.
        -11    1    4    4    0    0  0.10045194053E+02 -0.23179165985E+01  0.36395899624E+00  0.10315576927E+02  0.51100000000E-03 0.  1.
        -12    1    4    4    0    0 -0.49094773187E+01  0.11054028006E+02  0.17275847968E+02  0.21089083094E+02  0.00000000000E+00 0.  1.
</event>
<event>
 8    1  0.1261983E-006  0.9118800E+02  0.7816164E-02  0.1184000E+00
        -11   -1    0    0    0    0  0.00000000000E+00  0.00000000000E+00  0.45593999997E+02  0.45594000000E+02  0.51100000000E-03 0. -1.
         11   -1    0    0    0    0 -0.00000000000E+00 -0.00000000000E+00 -0.45593999997E+02  0.45594000000E+02  0.51100000000E-03 0.  1.
         23    2    1    2    0    0  0.35527136788E-14  0.00000000000E+00  0.00000000000E+00  0.91188000000E+02  0.91188000000E+02 0.  0.
    9900012    2    3    3    0    0 -0.28524439592E+02 -0.22775163812E+02  0.48401515134E+01  0.54367098227E+02  0.40000032028E+02 0.  0.
         12    1    3    3    0    0  0.28524439592E+02  0.22775163812E+02 -0.48401515134E+01  0.36820901773E+02  0.00000000000E+00 0. -1.
         11    1    4    4    0    0 -0.50895033960E+01 -0.36720320028E+00  0.10110374031E+02  0.11325084826E+02  0.51100000000E-03 0. -1.
        -11    1    4    4    0    0 -0.18365025590E+02 -0.26823453199E+02  0.26940070158E+01  0.32619464749E+02  0.51100000000E-03 0.  1.
        -12    1    4    4    0    0 -0.50699106056E+01  0.44154925873E+01 -0.79642295337E+01  0.10422548652E+02  0.00000000000E+00 0.  1.
</event>
<event>
 8    1  0.1261983E-006  0.9118800E+02  0.7816164E-02  0.1184000E+00
        -11   -1    0    0    0    0  0.00000000000E+00  0.00000000000E+00  0.45593999997E+02  0.45594000000E+02  0.51100000000E-03 0. -1.
         11   -1    0    0    0    0 -0.00000000000E+00 -0.00000000000E+00 -0.45593999997E+02  0.45594000000E+02  0.51100000000E-03 0.  1.
         23    2    1    2    0    0  0.00000000000E+00  0.00000000000E+00  0.13322676296E-14  0.91188000000E+02  0.91188000000E+02 0.  0.
    9900012    2    3    3    0    0 -0.13377537364E+02 -0.34279874041E+02 -0.13080573171E+01  0.54367091753E+02  0.40000017269E+02 0.  0.
         12    1    3    3    0    0  0.13377537364E+02  0.34279874041E+02  0.13080573171E+01  0.36820908247E+02  0.00000000000E+00 0. -1.
         11    1    4    4    0    0 -0.66260046830E+01 -0.29013528061E+02  0.10712983464E+02  0.31629997843E+02  0.51100000000E-03 0. -1.
        -11    1    4    4    0    0  0.26310840195E+01 -0.42954347960E+01  0.23408500483E+01  0.55545425027E+01  0.51100000000E-03 0.  1.
        -12    1    4    4    0    0 -0.93826167005E+01 -0.97091118395E+00 -0.14361890829E+02  0.17182551407E+02  0.00000000000E+00 0.  1.
</event>
<event>
 8    1  0.1261983E-006  0.9118800E+02  0.7816164E-02  0.1184000E+00
        -11   -1    0    0    0    0  0.00000000000E+00  0.00000000000E+00  0.45593999997E+02  0.45594000000E+02  0.51100000000E-03 0.  1.
         11   -1    0    0    0    0 -0.00000000000E+00 -0.00000000000E+00 -0.45593999997E+02  0.45594000000E+02  0.51100000000E-03 0. -1.
         23    2    1    2    0    0  0.00000000000E+00  0.00000000000E+00 -0.35527136788E-14  0.91188000000E+02  0.91188000000E+02 0.  0.
    9900012    2    3    3    0    0  0.14687512788E+02 -0.25406532815E+02 -0.22238836272E+02  0.54367071436E+02  0.39999970954E+02 0.  0.
        -12    1    3    3    0    0 -0.14687512788E+02  0.25406532815E+02  0.22238836272E+02  0.36820928564E+02  0.00000000000E+00 0.  1.
         11    1    4    4    0    0  0.14394922271E+02 -0.29117973343E+02 -0.20982609815E+02  0.38669627277E+02  0.51100000000E-03 0. -1.
        -11    1    4    4    0    0 -0.58767933100E+01 -0.67517814122E+00 -0.45292086481E+01  0.74502547856E+01  0.51100000000E-03 0.  1.
         12    1    4    4    0    0  0.61693838266E+01  0.43866186695E+01  0.32729821912E+01  0.82471893743E+01  0.00000000000E+00 0. -1.
</event>
<event>
 8    1  0.1261983E-006  0.9118800E+02  0.7816164E-02  0.1184000E+00
        -11   -1    0    0    0    0  0.00000000000E+00  0.00000000000E+00  0.45593999997E+02  0.45594000000E+02  0.51100000000E-03 0. -1.
         11   -1    0    0    0    0 -0.00000000000E+00 -0.00000000000E+00 -0.45593999997E+02  0.45594000000E+02  0.51100000000E-03 0.  1.
         23    2    1    2    0    0  0.26645352591E-14  0.71054273576E-14 -0.17763568394E-14  0.91188000000E+02  0.91188000000E+02 0.  0.
    9900012    2    3    3    0    0 -0.65821224131E+01 -0.34052080369E+02  0.12365793822E+02  0.54367063432E+02  0.39999952705E+02 0.  0.
        -12    1    3    3    0    0  0.65821224131E+01  0.34052080369E+02 -0.12365793822E+02  0.36820936568E+02  0.00000000000E+00 0.  1.
         11    1    4    4    0    0  0.97271642367E+01 -0.22187606638E+02  0.11645401805E+02  0.26879787869E+02  0.51100000000E-03 0. -1.
        -11    1    4    4    0    0  0.69017796558E+00 -0.40631608310E+00 -0.58924243833E+01  0.59466043889E+01  0.51100000000E-03 0.  1.
        -12    1    4    4    0    0 -0.16999464615E+02 -0.11458157648E+02  0.66128163998E+01  0.21540671174E+02  0.00000000000E+00 0.  1.
</event>
<event>
 8    1  0.1261983E-006  0.9118800E+02  0.7816164E-02  0.1184000E+00
        -11   -1    0    0    0    0  0.00000000000E+00  0.00000000000E+00  0.45593999997E+02  0.45594000000E+02  0.51100000000E-03 0. -1.
         11   -1    0    0    0    0 -0.00000000000E+00 -0.00000000000E+00 -0.45593999997E+02  0.45594000000E+02  0.51100000000E-03 0.  1.
         23    2    1    2    0    0 -0.35527136788E-14 -0.15543122345E-14  0.00000000000E+00  0.91188000000E+02  0.91188000000E+02 0.  0.
    9900012    2    3    3    0    0  0.30071908659E+02 -0.18062526973E+01 -0.21170688424E+02  0.54367078128E+02  0.39999986208E+02 0.  0.
         12    1    3    3    0    0 -0.30071908659E+02  0.18062526973E+01  0.21170688424E+02  0.36820921872E+02  0.00000000000E+00 0. -1.
         11    1    4    4    0    0 -0.74214512811E+01  0.58110030425E+01 -0.10732649711E+02  0.14284098346E+02  0.51100000000E-03 0. -1.
        -11    1    4    4    0    0  0.32309589909E+02 -0.46999377736E+01 -0.98634952174E+01  0.34107001529E+02  0.51100000000E-03 0.  1.
         12    1    4    4    0    0  0.51837700310E+01 -0.29173179661E+01 -0.57454349627E+00  0.59759782529E+01  0.00000000000E+00 0. -1.
</event>
<event>
 8    1  0.1261983E-006  0.9118800E+02  0.7816164E-02  0.1184000E+00
        -11   -1    0    0    0    0  0.00000000000E+00  0.00000000000E+00  0.45593999997E+02  0.45594000000E+02  0.51100000000E-03 0.  1.
         11   -1    0    0    0    0 -0.00000000000E+00 -0.00000000000E+00 -0.45593999997E+02  0.45594000000E+02  0.51100000000E-03 0. -1.
         23    2    1    2    0    0  0.35527136788E-14  0.00000000000E+00  0.00000000000E+00  0.91188000000E+02  0.91188000000E+02 0.  0.
    9900012    2    3    3    0    0 -0.19085000628E+02 -0.24468175575E+02 -0.19820275908E+02  0.54367187923E+02  0.40000236509E+02 0.  0.
        -12    1    3    3    0    0  0.19085000628E+02  0.24468175575E+02  0.19820275908E+02  0.36820812077E+02  0.00000000000E+00 0.  1.
         11    1    4    4    0    0 -0.22986624009E+02 -0.14305686420E+02 -0.12850134712E+02  0.29969376197E+02  0.51100000000E-03 0. -1.
        -11    1    4    4    0    0 -0.19187994929E+01 -0.12015084021E+02 -0.11539914713E+02  0.16769426566E+02  0.51100000000E-03 0.  1.
         12    1    4    4    0    0  0.58204228738E+01  0.18525948659E+01  0.45697735165E+01  0.76283851606E+01  0.00000000000E+00 0. -1.
</event>
<event>
 8    1  0.1261983E-006  0.9118800E+02  0.7816164E-02  0.1184000E+00
        -11   -1    0    0    0    0  0.00000000000E+00  0.00000000000E+00  0.45593999997E+02  0.45594000000E+02  0.51100000000E-03 0.  1.
         11   -1    0    0    0    0 -0.00000000000E+00 -0.00000000000E+00 -0.45593999997E+02  0.45594000000E+02  0.51100000000E-03 0. -1.
         23    2    1    2    0    0  0.26645352591E-14  0.71054273576E-14  0.13322676296E-14  0.91188000000E+02  0.91188000000E+02 0.  0.
    9900012    2    3    3    0    0 -0.52922443689E+01 -0.36220579058E+02 -0.39801776866E+01  0.54367081867E+02  0.39999994731E+02 0.  0.
         12    1    3    3    0    0  0.52922443689E+01  0.36220579058E+02  0.39801776866E+01  0.36820918133E+02  0.00000000000E+00 0. -1.
         11    1    4    4    0    0  0.10270606426E+02 -0.23749669347E+02 -0.12865448685E+02  0.28897264933E+02  0.51100000000E-03 0. -1.
        -11    1    4    4    0    0 -0.68017044072E+01 -0.95067985117E+01 -0.12413598978E+01  0.11755142510E+02  0.51100000000E-03 0.  1.
        -12    1    4    4    0    0 -0.87611463874E+01 -0.29641111992E+01  0.10126630896E+02  0.13714674423E+02  0.00000000000E+00 0.  1.
</event>
<event>
 8    1  0.1261983E-006  0.9118800E+02  0.7816164E-02  0.1184000E+00
        -11   -1    0    0    0    0  0.00000000000E+00  0.00000000000E+00  0.45593999997E+02  0.45594000000E+02  0.51100000000E-03 0.  1.
         11   -1    0    0    0    0 -0.00000000000E+00 -0.00000000000E+00 -0.45593999997E+02  0.45594000000E+02  0.51100000000E-03 0. -1.
         23    2    1    2    0    0  0.17763568394E-14  0.00000000000E+00  0.00000000000E+00  0.91188000000E+02  0.91188000000E+02 0.  0.
    9900012    2    3    3    0    0 -0.13371666428E+02 -0.51069847756E+01  0.33924868383E+02  0.54367089482E+02  0.40000012093E+02 0.  0.
         12    1    3    3    0    0  0.13371666428E+02  0.51069847756E+01 -0.33924868383E+02  0.36820910518E+02  0.00000000000E+00 0. -1.
         11    1    4    4    0    0  0.72564533869E+01 -0.21243778784E+01  0.36294909834E+01  0.83870317864E+01  0.51100000000E-03 0. -1.
        -11    1    4    4    0    0 -0.78247656290E+01  0.10614162691E+02  0.41011915669E+01  0.13809677017E+02  0.51100000000E-03 0.  1.
        -12    1    4    4    0    0 -0.12803354186E+02 -0.13596769588E+02  0.26194185832E+02  0.32170380679E+02  0.00000000000E+00 0.  1.
</event>
<event>
 8    1  0.1261983E-006  0.9118800E+02  0.7816164E-02  0.1184000E+00
        -11   -1    0    0    0    0  0.00000000000E+00  0.00000000000E+00  0.45593999997E+02  0.45594000000E+02  0.51100000000E-03 0.  1.
         11   -1    0    0    0    0 -0.00000000000E+00 -0.00000000000E+00 -0.45593999997E+02  0.45594000000E+02  0.51100000000E-03 0. -1.
         23    2    1    2    0    0  0.00000000000E+00  0.00000000000E+00  0.00000000000E+00  0.91188000000E+02  0.91188000000E+02 0.  0.
    9900012    2    3    3    0    0  0.32522279569E+02 -0.16036822187E+02  0.63955109220E+01  0.54367069889E+02  0.39999967427E+02 0.  0.
         12    1    3    3    0    0 -0.32522279569E+02  0.16036822187E+02 -0.63955109220E+01  0.36820930111E+02  0.00000000000E+00 0. -1.
         11    1    4    4    0    0  0.17644121237E+02  0.63726772931E+01 -0.17744996634E+01  0.18843430670E+02  0.51100000000E-03 0. -1.
        -11    1    4    4    0    0  0.88647937610E+01  0.14532002120E+01  0.60358324876E+01  0.10822552072E+02  0.51100000000E-03 0.  1.
        -12    1    4    4    0    0  0.60133645713E+01 -0.23862699692E+02  0.21341780979E+01  0.24701087147E+02  0.00000000000E+00 0.  1.
</event>
<event>
 8    1  0.1261983E-006  0.9118800E+02  0.7816164E-02  0.1184000E+00
        -11   -1    0    0    0    0  0.00000000000E+00  0.00000000000E+00  0.45593999997E+02  0.45594000000E+02  0.51100000000E-03 0.  1.
         11   -1    0    0    0    0 -0.00000000000E+00 -0.00000000000E+00 -0.45593999997E+02  0.45594000000E+02  0.51100000000E-03 0. -1.
         23    2    1    2    0    0  0.00000000000E+00  0.00000000000E+00  0.00000000000E+00  0.91188000000E+02  0.91188000000E+02 0.  0.
    9900012    2    3    3    0    0 -0.34472987562E+02 -0.96257845419E+01  0.86450945952E+01  0.54367078500E+02  0.39999987057E+02 0.  0.
         12    1    3    3    0    0  0.34472987562E+02  0.96257845419E+01 -0.86450945952E+01  0.36820921500E+02  0.00000000000E+00 0. -1.
         11    1    4    4    0    0 -0.35501680697E+02 -0.97982526718E+01  0.22191770422E+01  0.36895796979E+02  0.51100000000E-03 0. -1.
        -11    1    4    4    0    0 -0.53523294937E+01 -0.54457929007E+01  0.20339134556E+01  0.79019551715E+01  0.51100000000E-03 0.  1.
         12    1    4    4    0    0  0.63810226283E+01  0.56182610306E+01  0.43920040974E+01  0.95693263495E+01  0.00000000000E+00 0. -1.
</event>
<event>
 8    1  0.1261983E-006  0.9118800E+02  0.7816164E-02  0.1184000E+00
        -11   -1    0    0    0    0  0.00000000000E+00  0.00000000000E+00  0.45593999997E+02  0.45594000000E+02  0.51100000000E-03 0.  1.
         11   -1    0    0    0    0 -0.00000000000E+00 -0.00000000000E+00 -0.45593999997E+02  0.45594000000E+02  0.51100000000E-03 0. -1.
         23    2    1    2    0    0 -0.34174052477E-15 -0.38857805862E-15  0.00000000000E+00  0.91188000000E+02  0.91188000000E+02 0.  0.
    9900012    2    3    3    0    0 -0.87752857322E-02 -0.24606881809E+00  0.36820085234E+02  0.54367091490E+02  0.40000016669E+02 0.  0.
         12    1    3    3    0    0  0.87752857322E-02  0.24606881809E+00 -0.36820085234E+02  0.36820908510E+02  0.00000000000E+00 0. -1.
         11    1    4    4    0    0 -0.19167005510E+01 -0.56182521957E+00  0.23375275302E+01  0.30746420597E+01  0.51100000000E-03 0. -1.
        -11    1    4    4    0    0  0.67304392411E+01  0.82814574797E+01  0.39359728275E+02  0.40780749877E+02  0.51100000000E-03 0.  1.
        -12    1    4    4    0    0 -0.48225139758E+01 -0.79657010782E+01 -0.48771705711E+01  0.10511699553E+02  0.00000000000E+00 0.  1.
</event>
<event>
 8    1  0.1261983E-006  0.9118800E+02  0.7816164E-02  0.1184000E+00
        -11   -1    0    0    0    0  0.00000000000E+00  0.00000000000E+00  0.45593999997E+02  0.45594000000E+02  0.51100000000E-03 0. -1.
         11   -1    0    0    0    0 -0.00000000000E+00 -0.00000000000E+00 -0.45593999997E+02  0.45594000000E+02  0.51100000000E-03 0.  1.
         23    2    1    2    0    0  0.00000000000E+00  0.00000000000E+00  0.00000000000E+00  0.91188000000E+02  0.91188000000E+02 0.  0.
    9900012    2    3    3    0    0 -0.34950426841E+02  0.10785761500E+02  0.42326091843E+01  0.54367082466E+02  0.39999996099E+02 0.  0.
        -12    1    3    3    0    0  0.34950426841E+02 -0.10785761500E+02 -0.42326091843E+01  0.36820917534E+02  0.00000000000E+00 0.  1.
         11    1    4    4    0    0  0.23248401458E+01  0.12836914568E+01 -0.59957481054E+01  0.65575712778E+01  0.51100000000E-03 0. -1.
        -11    1    4    4    0    0 -0.12890053733E+02 -0.88567049765E+01  0.68875153832E-01  0.15639675582E+02  0.51100000000E-03 0.  1.
         12    1    4    4    0    0 -0.24385213254E+02  0.18358775019E+02  0.10159482136E+02  0.32169835606E+02  0.00000000000E+00 0. -1.
</event>
<event>
 8    1  0.1261983E-006  0.9118800E+02  0.7816164E-02  0.1184000E+00
        -11   -1    0    0    0    0  0.00000000000E+00  0.00000000000E+00  0.45593999997E+02  0.45594000000E+02  0.51100000000E-03 0. -1.
         11   -1    0    0    0    0 -0.00000000000E+00 -0.00000000000E+00 -0.45593999997E+02  0.45594000000E+02  0.51100000000E-03 0.  1.
         23    2    1    2    0    0  0.35527136788E-14  0.00000000000E+00 -0.35527136788E-14  0.91188000000E+02  0.91188000000E+02 0.  0.
    9900012    2    3    3    0    0  0.17348822087E+02 -0.19711569312E+02 -0.25811815930E+02  0.54367116874E+02  0.40000074538E+02 0.  0.
         12    1    3    3    0    0 -0.17348822087E+02  0.19711569312E+02  0.25811815930E+02  0.36820883126E+02  0.00000000000E+00 0. -1.
         11    1    4    4    0    0  0.96217349008E+01 -0.10817819030E+02 -0.18018424362E+02  0.23114207921E+02  0.51100000000E-03 0. -1.
        -11    1    4    4    0    0 -0.88736014620E+01 -0.93933094952E+01 -0.68322138212E+01  0.14616915274E+02  0.51100000000E-03 0.  1.
         12    1    4    4    0    0  0.16600688649E+02  0.49955921334E+00 -0.96117774676E+00  0.16635993679E+02  0.00000000000E+00 0. -1.
</event>
<event>
 8    1  0.1261983E-006  0.9118800E+02  0.7816164E-02  0.1184000E+00
        -11   -1    0    0    0    0  0.00000000000E+00  0.00000000000E+00  0.45593999997E+02  0.45594000000E+02  0.51100000000E-03 0.  1.
         11   -1    0    0    0    0 -0.00000000000E+00 -0.00000000000E+00 -0.45593999997E+02  0.45594000000E+02  0.51100000000E-03 0. -1.
         23    2    1    2    0    0 -0.35527136788E-14 -0.13322676296E-14  0.00000000000E+00  0.91188000000E+02  0.91188000000E+02 0.  0.
    9900012    2    3    3    0    0 -0.23554854509E+02 -0.24168390637E+01  0.28197585064E+02  0.54367135188E+02  0.40000116289E+02 0.  0.
         12    1    3    3    0    0  0.23554854509E+02  0.24168390637E+01 -0.28197585064E+02  0.36820864812E+02  0.00000000000E+00 0. -1.
         11    1    4    4    0    0 -0.14919928027E+02 -0.11640783382E+02  0.54376066135E+01  0.19689582424E+02  0.51100000000E-03 0. -1.
        -11    1    4    4    0    0  0.38208908252E+01 -0.31170129422E+01  0.14460993386E+02  0.15278589802E+02  0.51100000000E-03 0.  1.
         12    1    4    4    0    0 -0.12455817307E+02  0.12340957260E+02  0.82989850651E+01  0.19398962962E+02  0.00000000000E+00 0. -1.
</event>
<event>
 8    1  0.1261983E-006  0.9118800E+02  0.7816164E-02  0.1184000E+00
        -11   -1    0    0    0    0  0.00000000000E+00  0.00000000000E+00  0.45593999997E+02  0.45594000000E+02  0.51100000000E-03 0.  1.
         11   -1    0    0    0    0 -0.00000000000E+00 -0.00000000000E+00 -0.45593999997E+02  0.45594000000E+02  0.51100000000E-03 0. -1.
         23    2    1    2    0    0 -0.35527136788E-14  0.00000000000E+00  0.00000000000E+00  0.91188000000E+02  0.91188000000E+02 0.  0.
    9900012    2    3    3    0    0 -0.26684677391E+02  0.20557040634E+02  0.14869959357E+02  0.54367087214E+02  0.40000006923E+02 0.  0.
         12    1    3    3    0    0  0.26684677391E+02 -0.20557040634E+02 -0.14869959357E+02  0.36820912786E+02  0.00000000000E+00 0. -1.
         11    1    4    4    0    0 -0.11829144954E+01  0.10731173181E+02  0.17441828620E+02  0.20512794797E+02  0.51100000000E-03 0. -1.
        -11    1    4    4    0    0 -0.20946507700E+02  0.93460217569E+01  0.63721193834E+01  0.23805634065E+02  0.51100000000E-03 0.  1.
         12    1    4    4    0    0 -0.45552551949E+01  0.47984569661E+00 -0.89439886461E+01  0.10048658352E+02  0.00000000000E+00 0. -1.
</event>
<event>
 8    1  0.1261983E-006  0.9118800E+02  0.7816164E-02  0.1184000E+00
        -11   -1    0    0    0    0  0.00000000000E+00  0.00000000000E+00  0.45593999997E+02  0.45594000000E+02  0.51100000000E-03 0.  1.
         11   -1    0    0    0    0 -0.00000000000E+00 -0.00000000000E+00 -0.45593999997E+02  0.45594000000E+02  0.51100000000E-03 0. -1.
         23    2    1    2    0    0  0.00000000000E+00  0.00000000000E+00 -0.17763568394E-14  0.91188000000E+02  0.91188000000E+02 0.  0.
    9900012    2    3    3    0    0  0.33227293006E+02  0.63565341005E+01  0.14536878517E+02  0.54367090678E+02  0.40000014819E+02 0.  0.
        -12    1    3    3    0    0 -0.33227293006E+02 -0.63565341005E+01 -0.14536878517E+02  0.36820909322E+02  0.00000000000E+00 0.  1.
         11    1    4    4    0    0  0.83069390466E+01  0.13028328004E+02  0.10965508504E+02  0.18946898003E+02  0.51100000000E-03 0. -1.
        -11    1    4    4    0    0  0.24330868217E+02  0.29352778895E+00 -0.44972143129E+01  0.24744741737E+02  0.51100000000E-03 0.  1.
        -12    1    4    4    0    0  0.58948574217E+00 -0.69653216929E+01  0.80685843254E+01  0.10675450939E+02  0.00000000000E+00 0.  1.
</event>
<event>
 8    1  0.1261983E-006  0.9118800E+02  0.7816164E-02  0.1184000E+00
        -11   -1    0    0    0    0  0.00000000000E+00  0.00000000000E+00  0.45593999997E+02  0.45594000000E+02  0.51100000000E-03 0. -1.
         11   -1    0    0    0    0 -0.00000000000E+00 -0.00000000000E+00 -0.45593999997E+02  0.45594000000E+02  0.51100000000E-03 0.  1.
         23    2    1    2    0    0  0.35527136788E-14  0.00000000000E+00 -0.35527136788E-14  0.91188000000E+02  0.91188000000E+02 0.  0.
    9900012    2    3    3    0    0  0.21487272083E+02 -0.24785512145E+02 -0.16725920414E+02  0.54367069980E+02  0.39999967634E+02 0.  0.
         12    1    3    3    0    0 -0.21487272083E+02  0.24785512145E+02  0.16725920414E+02  0.36820930020E+02  0.00000000000E+00 0. -1.
         11    1    4    4    0    0  0.11489738427E+01 -0.34604715827E+01 -0.10163870800E+01  0.37852407352E+01  0.51100000000E-03 0. -1.
        -11    1    4    4    0    0  0.21908504581E+02 -0.29758743622E+02 -0.56859244421E+01  0.37388435805E+02  0.51100000000E-03 0.  1.
         12    1    4    4    0    0 -0.15702063406E+01  0.84337030598E+01 -0.10023608892E+02  0.13193393440E+02  0.00000000000E+00 0. -1.
</event>
<event>
 8    1  0.1261983E-006  0.9118800E+02  0.7816164E-02  0.1184000E+00
        -11   -1    0    0    0    0  0.00000000000E+00  0.00000000000E+00  0.45593999997E+02  0.45594000000E+02  0.51100000000E-03 0.  1.
         11   -1    0    0    0    0 -0.00000000000E+00 -0.00000000000E+00 -0.45593999997E+02  0.45594000000E+02  0.51100000000E-03 0. -1.
         23    2    1    2    0    0  0.00000000000E+00 -0.17763568394E-14  0.00000000000E+00  0.91188000000E+02  0.91188000000E+02 0.  0.
    9900012    2    3    3    0    0  0.28657015820E+02  0.67072753858E+01  0.22126169923E+02  0.54367088899E+02  0.40000010764E+02 0.  0.
         12    1    3    3    0    0 -0.28657015820E+02 -0.67072753858E+01 -0.22126169923E+02  0.36820911101E+02  0.00000000000E+00 0. -1.
         11    1    4    4    0    0  0.89823332571E+01  0.18407722907E+02  0.13372111192E+02  0.24460987947E+02  0.51100000000E-03 0. -1.
        -11    1    4    4    0    0  0.12979336794E+02 -0.30094729569E+01 -0.31775555118E+01  0.13697334426E+02  0.51100000000E-03 0.  1.
         12    1    4    4    0    0  0.66953457683E+01 -0.86909745643E+01  0.11931614244E+02  0.16208766526E+02  0.00000000000E+00 0. -1.
</event>
<event>
 8    1  0.1261983E-006  0.9118800E+02  0.7816164E-02  0.1184000E+00
        -11   -1    0    0    0    0  0.00000000000E+00  0.00000000000E+00  0.45593999997E+02  0.45594000000E+02  0.51100000000E-03 0.  1.
         11   -1    0    0    0    0 -0.00000000000E+00 -0.00000000000E+00 -0.45593999997E+02  0.45594000000E+02  0.51100000000E-03 0. -1.
         23    2    1    2    0    0 -0.17763568394E-14  0.00000000000E+00  0.88817841970E-15  0.91188000000E+02  0.91188000000E+02 0.  0.
    9900012    2    3    3    0    0  0.13361210590E+02 -0.34146599818E+02  0.33569535931E+01  0.54367063496E+02  0.39999952853E+02 0.  0.
        -12    1    3    3    0    0 -0.13361210590E+02  0.34146599818E+02 -0.33569535931E+01  0.36820936504E+02  0.00000000000E+00 0.  1.
         11    1    4    4    0    0 -0.94824279072E+01 -0.75125224761E+00 -0.26528733451E+01  0.98751484142E+01  0.51100000000E-03 0. -1.
        -11    1    4    4    0    0  0.53145821863E+01 -0.22250658524E+01  0.65543533368E+01  0.87266975304E+01  0.51100000000E-03 0.  1.
         12    1    4    4    0    0  0.17529056311E+02 -0.31170281718E+02 -0.54452639862E+00  0.35765217552E+02  0.00000000000E+00 0. -1.
</event>
<event>
 8    1  0.1261983E-006  0.9118800E+02  0.7816164E-02  0.1184000E+00
        -11   -1    0    0    0    0  0.00000000000E+00  0.00000000000E+00  0.45593999997E+02  0.45594000000E+02  0.51100000000E-03 0. -1.
         11   -1    0    0    0    0 -0.00000000000E+00 -0.00000000000E+00 -0.45593999997E+02  0.45594000000E+02  0.51100000000E-03 0.  1.
         23    2    1    2    0    0 -0.35527136788E-14  0.00000000000E+00 -0.88817841970E-15  0.91188000000E+02  0.91188000000E+02 0.  0.
    9900012    2    3    3    0    0  0.28742719751E+02  0.21955955800E+02 -0.68972570345E+01  0.54367080832E+02  0.39999992373E+02 0.  0.
         12    1    3    3    0    0 -0.28742719751E+02 -0.21955955800E+02  0.68972570345E+01  0.36820919168E+02  0.00000000000E+00 0. -1.
         11    1    4    4    0    0  0.11472829707E+02  0.12690499780E+02 -0.12025065720E+02  0.20911164769E+02  0.51100000000E-03 0. -1.
        -11    1    4    4    0    0 -0.60430993912E+01  0.36608591195E+01 -0.36123791408E+01  0.79353779408E+01  0.51100000000E-03 0.  1.
         12    1    4    4    0    0  0.23312989435E+02  0.56045969004E+01  0.87401878262E+01  0.25520538122E+02  0.00000000000E+00 0. -1.
</event>
<event>
 8    1  0.1261983E-006  0.9118800E+02  0.7816164E-02  0.1184000E+00
        -11   -1    0    0    0    0  0.00000000000E+00  0.00000000000E+00  0.45593999997E+02  0.45594000000E+02  0.51100000000E-03 0.  1.
         11   -1    0    0    0    0 -0.00000000000E+00 -0.00000000000E+00 -0.45593999997E+02  0.45594000000E+02  0.51100000000E-03 0. -1.
         23    2    1    2    0    0  0.71054273576E-14  0.00000000000E+00 -0.35527136788E-14  0.91188000000E+02  0.91188000000E+02 0.  0.
    9900012    2    3    3    0    0  0.31340580612E+02 -0.40910509438E+01  0.18889471997E+02  0.54367070582E+02  0.39999969006E+02 0.  0.
         12    1    3    3    0    0 -0.31340580612E+02  0.40910509438E+01 -0.18889471997E+02  0.36820929418E+02  0.00000000000E+00 0. -1.
         11    1    4    4    0    0  0.19941806319E+02  0.43226387247E+01 -0.52071940403E+01  0.21058863095E+02  0.51100000000E-03 0. -1.
        -11    1    4    4    0    0 -0.15872348329E+01 -0.62744529810E+01  0.17351726881E+02  0.18519462753E+02  0.51100000000E-03 0.  1.
        -12    1    4    4    0    0  0.12986009125E+02 -0.21392366876E+01  0.67449391557E+01  0.14788744735E+02  0.00000000000E+00 0.  1.
</event>
<event>
 8    1  0.1261983E-006  0.9118800E+02  0.7816164E-02  0.1184000E+00
        -11   -1    0    0    0    0  0.00000000000E+00  0.00000000000E+00  0.45593999997E+02  0.45594000000E+02  0.51100000000E-03 0.  1.
         11   -1    0    0    0    0 -0.00000000000E+00 -0.00000000000E+00 -0.45593999997E+02  0.45594000000E+02  0.51100000000E-03 0. -1.
         23    2    1    2    0    0  0.35527136788E-14  0.00000000000E+00  0.00000000000E+00  0.91188000000E+02  0.91188000000E+02 0.  0.
    9900012    2    3    3    0    0 -0.29875087424E+02  0.21517450366E+02  0.51252637636E+00  0.54367024970E+02  0.39999865024E+02 0.  0.
         12    1    3    3    0    0  0.29875087424E+02 -0.21517450366E+02 -0.51252637636E+00  0.36820975030E+02  0.00000000000E+00 0. -1.
         11    1    4    4    0    0  0.50820450726E+01 -0.52290214084E+01 -0.32248763448E+00  0.72988934466E+01  0.51100000000E-03 0. -1.
        -11    1    4    4    0    0 -0.19657867552E+02  0.17636489120E+02 -0.74332326587E+01  0.27435933613E+02  0.51100000000E-03 0.  1.
         12    1    4    4    0    0 -0.15299264945E+02  0.91099826544E+01  0.82682466695E+01  0.19632197911E+02  0.00000000000E+00 0. -1.
</event>
<event>
 8    1  0.1261983E-006  0.9118800E+02  0.7816164E-02  0.1184000E+00
        -11   -1    0    0    0    0  0.00000000000E+00  0.00000000000E+00  0.45593999997E+02  0.45594000000E+02  0.51100000000E-03 0. -1.
         11   -1    0    0    0    0 -0.00000000000E+00 -0.00000000000E+00 -0.45593999997E+02  0.45594000000E+02  0.51100000000E-03 0.  1.
         23    2    1    2    0    0  0.35527136788E-14  0.00000000000E+00  0.00000000000E+00  0.91188000000E+02  0.91188000000E+02 0.  0.
    9900012    2    3    3    0    0  0.23386000518E+02  0.79253146917E+01 -0.27314175382E+02  0.54367084612E+02  0.40000000991E+02 0.  0.
         12    1    3    3    0    0 -0.23386000518E+02 -0.79253146917E+01  0.27314175382E+02  0.36820915388E+02  0.00000000000E+00 0. -1.
         11    1    4    4    0    0 -0.39714432091E+01  0.78344034719E+01  0.60809472793E+01  0.10683078161E+02  0.51100000000E-03 0. -1.
        -11    1    4    4    0    0  0.78807173450E+01  0.29282683998E+01 -0.86008707163E+01  0.12027278954E+02  0.51100000000E-03 0.  1.
         12    1    4    4    0    0  0.19476726382E+02 -0.28373571801E+01 -0.24794251945E+02  0.31656727497E+02  0.00000000000E+00 0. -1.
</event>
<event>
 8    1  0.1261983E-006  0.9118800E+02  0.7816164E-02  0.1184000E+00
        -11   -1    0    0    0    0  0.00000000000E+00  0.00000000000E+00  0.45593999997E+02  0.45594000000E+02  0.51100000000E-03 0.  1.
         11   -1    0    0    0    0 -0.00000000000E+00 -0.00000000000E+00 -0.45593999997E+02  0.45594000000E+02  0.51100000000E-03 0. -1.
         23    2    1    2    0    0  0.35527136788E-14  0.00000000000E+00  0.00000000000E+00  0.91188000000E+02  0.91188000000E+02 0.  0.
    9900012    2    3    3    0    0 -0.23016891360E+02  0.20016782607E+02 -0.20623514042E+02  0.54367106403E+02  0.40000050666E+02 0.  0.
        -12    1    3    3    0    0  0.23016891360E+02 -0.20016782607E+02  0.20623514042E+02  0.36820893597E+02  0.00000000000E+00 0.  1.
         11    1    4    4    0    0  0.40430828086E+01  0.14538110113E+02 -0.15083901614E+02  0.21336055222E+02  0.51100000000E-03 0. -1.
        -11    1    4    4    0    0 -0.17615644033E+02 -0.34436647959E+01 -0.82574169097E+01  0.19757395481E+02  0.51100000000E-03 0.  1.
         12    1    4    4    0    0 -0.94443301359E+01  0.89223372901E+01  0.27178044815E+01  0.13273655700E+02  0.00000000000E+00 0. -1.
</event>
<event>
 8    1  0.1261983E-006  0.9118800E+02  0.7816164E-02  0.1184000E+00
        -11   -1    0    0    0    0  0.00000000000E+00  0.00000000000E+00  0.45593999997E+02  0.45594000000E+02  0.51100000000E-03 0. -1.
         11   -1    0    0    0    0 -0.00000000000E+00 -0.00000000000E+00 -0.45593999997E+02  0.45594000000E+02  0.51100000000E-03 0.  1.
         23    2    1    2    0    0  0.00000000000E+00  0.00000000000E+00  0.13322676296E-14  0.91188000000E+02  0.91188000000E+02 0.  0.
    9900012    2    3    3    0    0 -0.34031249179E+02  0.13866977900E+02 -0.23127005405E+01  0.54367250679E+02  0.40000379571E+02 0.  0.
         12    1    3    3    0    0  0.34031249179E+02 -0.13866977900E+02  0.23127005405E+01  0.36820749321E+02  0.00000000000E+00 0. -1.
         11    1    4    4    0    0  0.18319316387E+01 -0.45155906748E+01  0.48269407636E+01  0.68590006611E+01  0.51100000000E-03 0. -1.
        -11    1    4    4    0    0 -0.75314755031E+01  0.44916678209E+01  0.85687802765E+01  0.12260595367E+02  0.51100000000E-03 0.  1.
        -12    1    4    4    0    0 -0.28331705315E+02  0.13890900754E+02 -0.15708421581E+02  0.35247654651E+02  0.00000000000E+00 0.  1.
</event>
<event>
 8    1  0.1261983E-006  0.9118800E+02  0.7816164E-02  0.1184000E+00
        -11   -1    0    0    0    0  0.00000000000E+00  0.00000000000E+00  0.45593999997E+02  0.45594000000E+02  0.51100000000E-03 0. -1.
         11   -1    0    0    0    0 -0.00000000000E+00 -0.00000000000E+00 -0.45593999997E+02  0.45594000000E+02  0.51100000000E-03 0.  1.
         23    2    1    2    0    0 -0.35527136788E-14 -0.17763568394E-14  0.35527136788E-14  0.91188000000E+02  0.91188000000E+02 0.  0.
    9900012    2    3    3    0    0 -0.23177118369E+02 -0.79576819492E+01  0.27482289881E+02  0.54367085087E+02  0.40000002073E+02 0.  0.
        -12    1    3    3    0    0  0.23177118369E+02  0.79576819492E+01 -0.27482289881E+02  0.36820914913E+02  0.00000000000E+00 0.  1.
         11    1    4    4    0    0 -0.10202187000E+02 -0.56046798734E+01  0.18166010334E+02  0.21575471901E+02  0.51100000000E-03 0. -1.
        -11    1    4    4    0    0 -0.15952311744E+02  0.64868216213E+01  0.14147525373E+02  0.22286937411E+02  0.51100000000E-03 0.  1.
        -12    1    4    4    0    0  0.29773803749E+01 -0.88398236972E+01 -0.48312458257E+01  0.10504675774E+02  0.00000000000E+00 0.  1.
</event>
<event>
 8    1  0.1261983E-006  0.9118800E+02  0.7816164E-02  0.1184000E+00
        -11   -1    0    0    0    0  0.00000000000E+00  0.00000000000E+00  0.45593999997E+02  0.45594000000E+02  0.51100000000E-03 0.  1.
         11   -1    0    0    0    0 -0.00000000000E+00 -0.00000000000E+00 -0.45593999997E+02  0.45594000000E+02  0.51100000000E-03 0. -1.
         23    2    1    2    0    0 -0.35527136788E-14  0.35527136788E-14 -0.17763568394E-14  0.91188000000E+02  0.91188000000E+02 0.  0.
    9900012    2    3    3    0    0 -0.26441925512E+02  0.20215574853E+02 -0.15745949517E+02  0.54367084509E+02  0.40000000756E+02 0.  0.
        -12    1    3    3    0    0  0.26441925512E+02 -0.20215574853E+02  0.15745949517E+02  0.36820915491E+02  0.00000000000E+00 0.  1.
         11    1    4    4    0    0  0.56086495025E+00  0.42359539505E+01 -0.78433083140E+01  0.89317053765E+01  0.51100000000E-03 0. -1.
        -11    1    4    4    0    0  0.26964176007E+01  0.19924097548E+01  0.82085833837E+01  0.88668599818E+01  0.51100000000E-03 0.  1.
        -12    1    4    4    0    0 -0.29699208063E+02  0.13987211147E+02 -0.16111224586E+02  0.36568519151E+02  0.00000000000E+00 0.  1.
</event>
<event>
 8    1  0.1261983E-006  0.9118800E+02  0.7816164E-02  0.1184000E+00
        -11   -1    0    0    0    0  0.00000000000E+00  0.00000000000E+00  0.45593999997E+02  0.45594000000E+02  0.51100000000E-03 0. -1.
         11   -1    0    0    0    0 -0.00000000000E+00 -0.00000000000E+00 -0.45593999997E+02  0.45594000000E+02  0.51100000000E-03 0.  1.
         23    2    1    2    0    0  0.00000000000E+00  0.00000000000E+00  0.88817841970E-15  0.91188000000E+02  0.91188000000E+02 0.  0.
    9900012    2    3    3    0    0 -0.35107014415E+02  0.93557536402E+01  0.59788991707E+01  0.54367084441E+02  0.40000000601E+02 0.  0.
        -12    1    3    3    0    0  0.35107014415E+02 -0.93557536402E+01 -0.59788991707E+01  0.36820915559E+02  0.00000000000E+00 0.  1.
         11    1    4    4    0    0 -0.20293471717E+02  0.88113791496E+01  0.34148238951E+01  0.22385853108E+02  0.51100000000E-03 0. -1.
        -11    1    4    4    0    0 -0.83441720037E+01  0.25342086866E+01  0.15270168647E+02  0.17584807956E+02  0.51100000000E-03 0.  1.
        -12    1    4    4    0    0 -0.64693706935E+01 -0.19898341961E+01 -0.12706093371E+02  0.14396423377E+02  0.00000000000E+00 0.  1.
</event>
<event>
 8    1  0.1261983E-006  0.9118800E+02  0.7816164E-02  0.1184000E+00
        -11   -1    0    0    0    0  0.00000000000E+00  0.00000000000E+00  0.45593999997E+02  0.45594000000E+02  0.51100000000E-03 0.  1.
         11   -1    0    0    0    0 -0.00000000000E+00 -0.00000000000E+00 -0.45593999997E+02  0.45594000000E+02  0.51100000000E-03 0. -1.
         23    2    1    2    0    0  0.17763568394E-14 -0.13322676296E-14  0.00000000000E+00  0.91188000000E+02  0.91188000000E+02 0.  0.
    9900012    2    3    3    0    0  0.97854094335E+01 -0.35419992169E+01  0.35319667105E+02  0.54367097232E+02  0.40000029760E+02 0.  0.
         12    1    3    3    0    0 -0.97854094335E+01  0.35419992169E+01 -0.35319667105E+02  0.36820902768E+02  0.00000000000E+00 0. -1.
         11    1    4    4    0    0  0.46426800858E+01 -0.21559975510E+01 -0.54458552493E+01  0.74739643748E+01  0.51100000000E-03 0. -1.
        -11    1    4    4    0    0  0.92487770649E+00 -0.99803681507E+01  0.82014489516E+01  0.12950942528E+02  0.51100000000E-03 0.  1.
         12    1    4    4    0    0  0.42178516412E+01  0.85943664849E+01  0.32564073403E+02  0.33942190329E+02  0.00000000000E+00 0. -1.
</event>
<event>
 8    1  0.1261983E-006  0.9118800E+02  0.7816164E-02  0.1184000E+00
        -11   -1    0    0    0    0  0.00000000000E+00  0.00000000000E+00  0.45593999997E+02  0.45594000000E+02  0.51100000000E-03 0.  1.
         11   -1    0    0    0    0 -0.00000000000E+00 -0.00000000000E+00 -0.45593999997E+02  0.45594000000E+02  0.51100000000E-03 0. -1.
         23    2    1    2    0    0 -0.35527136788E-14  0.35527136788E-14  0.00000000000E+00  0.91188000000E+02  0.91188000000E+02 0.  0.
    9900012    2    3    3    0    0  0.18077174272E+02 -0.20619210885E+02  0.24572913271E+02  0.54367297212E+02  0.40000485651E+02 0.  0.
         12    1    3    3    0    0 -0.18077174272E+02  0.20619210885E+02 -0.24572913271E+02  0.36820702788E+02  0.00000000000E+00 0. -1.
         11    1    4    4    0    0 -0.20156403938E+01 -0.14597777737E+01 -0.11394937596E+00  0.24913333914E+01  0.51100000000E-03 0. -1.
        -11    1    4    4    0    0 -0.82594703209E+01 -0.50371901320E+01  0.16554277091E+02  0.19173842199E+02  0.51100000000E-03 0.  1.
         12    1    4    4    0    0  0.28352284987E+02 -0.14122242979E+02  0.81325855558E+01  0.32702121621E+02  0.00000000000E+00 0. -1.
</event>
<event>
 8    1  0.1261983E-006  0.9118800E+02  0.7816164E-02  0.1184000E+00
        -11   -1    0    0    0    0  0.00000000000E+00  0.00000000000E+00  0.45593999997E+02  0.45594000000E+02  0.51100000000E-03 0. -1.
         11   -1    0    0    0    0 -0.00000000000E+00 -0.00000000000E+00 -0.45593999997E+02  0.45594000000E+02  0.51100000000E-03 0.  1.
         23    2    1    2    0    0  0.00000000000E+00 -0.35527136788E-14  0.00000000000E+00  0.91188000000E+02  0.91188000000E+02 0.  0.
    9900012    2    3    3    0    0 -0.32408722941E+02 -0.14716193961E+02  0.94280665094E+01  0.54367080328E+02  0.39999991224E+02 0.  0.
        -12    1    3    3    0    0  0.32408722941E+02  0.14716193961E+02 -0.94280665094E+01  0.36820919672E+02  0.00000000000E+00 0.  1.
         11    1    4    4    0    0 -0.33771533133E+02  0.36529676039E+01  0.84237165117E+01  0.34997423085E+02  0.51100000000E-03 0. -1.
        -11    1    4    4    0    0 -0.18972352526E+01 -0.92237432280E+01 -0.95394197656E+00  0.94650381032E+01  0.51100000000E-03 0.  1.
         12    1    4    4    0    0  0.32600454442E+01 -0.91454183369E+01  0.19582919743E+01  0.99046191402E+01  0.00000000000E+00 0. -1.
</event>
<event>
 8    1  0.1261983E-006  0.9118800E+02  0.7816164E-02  0.1184000E+00
        -11   -1    0    0    0    0  0.00000000000E+00  0.00000000000E+00  0.45593999997E+02  0.45594000000E+02  0.51100000000E-03 0.  1.
         11   -1    0    0    0    0 -0.00000000000E+00 -0.00000000000E+00 -0.45593999997E+02  0.45594000000E+02  0.51100000000E-03 0. -1.
         23    2    1    2    0    0 -0.35527136788E-14  0.17763568394E-14  0.00000000000E+00  0.91188000000E+02  0.91188000000E+02 0.  0.
    9900012    2    3    3    0    0  0.28089342065E+02 -0.75334438421E+01 -0.22583510523E+02  0.54367097494E+02  0.40000030358E+02 0.  0.
        -12    1    3    3    0    0 -0.28089342065E+02  0.75334438421E+01  0.22583510523E+02  0.36820902506E+02  0.00000000000E+00 0.  1.
         11    1    4    4    0    0  0.12228102388E+02 -0.65306127529E+01 -0.69564207192E+01  0.15510228252E+02  0.51100000000E-03 0. -1.
        -11    1    4    4    0    0 -0.88439370981E+00 -0.22365588461E+01 -0.21069143075E+02  0.21205969393E+02  0.51100000000E-03 0.  1.
        -12    1    4    4    0    0  0.16745633387E+02  0.12337277569E+01  0.54420532711E+01  0.17650899850E+02  0.00000000000E+00 0.  1.
</event>
<event>
 8    1  0.1261983E-006  0.9118800E+02  0.7816164E-02  0.1184000E+00
        -11   -1    0    0    0    0  0.00000000000E+00  0.00000000000E+00  0.45593999997E+02  0.45594000000E+02  0.51100000000E-03 0.  1.
         11   -1    0    0    0    0 -0.00000000000E+00 -0.00000000000E+00 -0.45593999997E+02  0.45594000000E+02  0.51100000000E-03 0. -1.
         23    2    1    2    0    0  0.00000000000E+00  0.00000000000E+00  0.35527136788E-14  0.91188000000E+02  0.91188000000E+02 0.  0.
    9900012    2    3    3    0    0 -0.90575985707E+01  0.25143854696E+02 -0.25328335172E+02  0.54367108058E+02  0.40000054440E+02 0.  0.
        -12    1    3    3    0    0  0.90575985707E+01 -0.25143854696E+02  0.25328335172E+02  0.36820891942E+02  0.00000000000E+00 0.  1.
         11    1    4    4    0    0  0.37819862042E+01  0.10740874099E+02 -0.13384654110E+02  0.17573239939E+02  0.51100000000E-03 0. -1.
        -11    1    4    4    0    0 -0.63891896422E+01 -0.32624178777E+01 -0.16018226243E+02  0.17551315817E+02  0.51100000000E-03 0.  1.
        -12    1    4    4    0    0 -0.64503951327E+01  0.17665398475E+02  0.40745451813E+01  0.19242552301E+02  0.00000000000E+00 0.  1.
</event>
<event>
 8    1  0.1261983E-006  0.9118800E+02  0.7816164E-02  0.1184000E+00
        -11   -1    0    0    0    0  0.00000000000E+00  0.00000000000E+00  0.45593999997E+02  0.45594000000E+02  0.51100000000E-03 0.  1.
         11   -1    0    0    0    0 -0.00000000000E+00 -0.00000000000E+00 -0.45593999997E+02  0.45594000000E+02  0.51100000000E-03 0. -1.
         23    2    1    2    0    0  0.00000000000E+00  0.00000000000E+00  0.71054273576E-14  0.91188000000E+02  0.91188000000E+02 0.  0.
    9900012    2    3    3    0    0 -0.80669150862E+01  0.12944791889E+02  0.33513222741E+02  0.54367097587E+02  0.40000030568E+02 0.  0.
         12    1    3    3    0    0  0.80669150862E+01 -0.12944791889E+02 -0.33513222741E+02  0.36820902413E+02  0.00000000000E+00 0. -1.
         11    1    4    4    0    0  0.14967745262E+02  0.76753331292E+01  0.18834166610E+02  0.25252128010E+02  0.51100000000E-03 0. -1.
        -11    1    4    4    0    0 -0.86181560859E+00  0.50711371290E+00  0.38609985171E+01  0.39883831650E+01  0.51100000000E-03 0.  1.
         12    1    4    4    0    0 -0.22172844739E+02  0.47623450467E+01  0.10818057614E+02  0.25126586412E+02  0.00000000000E+00 0. -1.
</event>
<event>
 8    1  0.1261983E-006  0.9118800E+02  0.7816164E-02  0.1184000E+00
        -11   -1    0    0    0    0  0.00000000000E+00  0.00000000000E+00  0.45593999997E+02  0.45594000000E+02  0.51100000000E-03 0. -1.
         11   -1    0    0    0    0 -0.00000000000E+00 -0.00000000000E+00 -0.45593999997E+02  0.45594000000E+02  0.51100000000E-03 0.  1.
         23    2    1    2    0    0 -0.17763568394E-14 -0.44408920985E-15  0.71054273576E-14  0.91188000000E+02  0.91188000000E+02 0.  0.
    9900012    2    3    3    0    0 -0.97986554168E+01  0.36747988058E+01  0.35302439414E+02  0.54367081722E+02  0.39999994403E+02 0.  0.
        -12    1    3    3    0    0  0.97986554168E+01 -0.36747988058E+01 -0.35302439414E+02  0.36820918278E+02  0.00000000000E+00 0.  1.
         11    1    4    4    0    0  0.48447418930E+01  0.73897285107E+01  0.57348297003E+00  0.88548571106E+01  0.51100000000E-03 0. -1.
        -11    1    4    4    0    0 -0.10323584779E+02  0.47626094898E+01  0.21479354794E+01  0.11570327520E+02  0.51100000000E-03 0.  1.
         12    1    4    4    0    0 -0.43198125307E+01 -0.84775391947E+01  0.32581020964E+02  0.33941897092E+02  0.00000000000E+00 0. -1.
</event>
<event>
 8    1  0.1261983E-006  0.9118800E+02  0.7816164E-02  0.1184000E+00
        -11   -1    0    0    0    0  0.00000000000E+00  0.00000000000E+00  0.45593999997E+02  0.45594000000E+02  0.51100000000E-03 0. -1.
         11   -1    0    0    0    0 -0.00000000000E+00 -0.00000000000E+00 -0.45593999997E+02  0.45594000000E+02  0.51100000000E-03 0.  1.
         23    2    1    2    0    0  0.00000000000E+00  0.35527136788E-14  0.00000000000E+00  0.91188000000E+02  0.91188000000E+02 0.  0.
    9900012    2    3    3    0    0 -0.31713844394E+02  0.17345021508E+02 -0.70115954298E+01  0.54367079753E+02  0.39999989912E+02 0.  0.
        -12    1    3    3    0    0  0.31713844394E+02 -0.17345021508E+02  0.70115954298E+01  0.36820920247E+02  0.00000000000E+00 0.  1.
         11    1    4    4    0    0  0.32743299842E+01  0.29315601884E+01  0.38270736047E+01  0.58276731738E+01  0.51100000000E-03 0. -1.
        -11    1    4    4    0    0 -0.23892381835E+02 -0.51094222034E+01 -0.23990553798E+01  0.24550103299E+02  0.51100000000E-03 0.  1.
        -12    1    4    4    0    0 -0.11095792543E+02  0.19522883523E+02 -0.84396136547E+01  0.23989303280E+02  0.00000000000E+00 0.  1.
</event>
<event>
 8    1  0.1261983E-006  0.9118800E+02  0.7816164E-02  0.1184000E+00
        -11   -1    0    0    0    0  0.00000000000E+00  0.00000000000E+00  0.45593999997E+02  0.45594000000E+02  0.51100000000E-03 0.  1.
         11   -1    0    0    0    0 -0.00000000000E+00 -0.00000000000E+00 -0.45593999997E+02  0.45594000000E+02  0.51100000000E-03 0. -1.
         23    2    1    2    0    0 -0.35527136788E-14  0.00000000000E+00  0.35527136788E-14  0.91188000000E+02  0.91188000000E+02 0.  0.
    9900012    2    3    3    0    0  0.16257319112E+02 -0.18800664495E+02  0.27166403342E+02  0.54367097231E+02  0.40000029758E+02 0.  0.
         12    1    3    3    0    0 -0.16257319112E+02  0.18800664495E+02 -0.27166403342E+02  0.36820902769E+02  0.00000000000E+00 0. -1.
         11    1    4    4    0    0 -0.55066531723E+01 -0.96141277703E+01  0.12650957727E+02  0.16816700438E+02  0.51100000000E-03 0. -1.
        -11    1    4    4    0    0  0.26275955445E+02 -0.11599255393E+02  0.91693054314E+01  0.30150368532E+02  0.51100000000E-03 0.  1.
        -12    1    4    4    0    0 -0.45119831608E+01  0.24127186683E+01  0.53461401837E+01  0.74000282621E+01  0.00000000000E+00 0.  1.
</event>
<event>
 8    1  0.1261983E-006  0.9118800E+02  0.7816164E-02  0.1184000E+00
        -11   -1    0    0    0    0  0.00000000000E+00  0.00000000000E+00  0.45593999997E+02  0.45594000000E+02  0.51100000000E-03 0.  1.
         11   -1    0    0    0    0 -0.00000000000E+00 -0.00000000000E+00 -0.45593999997E+02  0.45594000000E+02  0.51100000000E-03 0. -1.
         23    2    1    2    0    0  0.17763568394E-14  0.00000000000E+00  0.00000000000E+00  0.91188000000E+02  0.91188000000E+02 0.  0.
    9900012    2    3    3    0    0  0.15254503212E+02 -0.63273815422E+01 -0.32909624908E+02  0.54367095109E+02  0.40000024920E+02 0.  0.
        -12    1    3    3    0    0 -0.15254503212E+02  0.63273815422E+01  0.32909624908E+02  0.36820904891E+02  0.00000000000E+00 0.  1.
         11    1    4    4    0    0  0.19505178724E+02 -0.30036413110E+01 -0.87700401663E+01  0.21596005718E+02  0.51100000000E-03 0. -1.
        -11    1    4    4    0    0 -0.64239966983E+01  0.63309555068E+01 -0.31293216714E+01  0.95467997566E+01  0.51100000000E-03 0.  1.
         12    1    4    4    0    0  0.21733211866E+01 -0.96546957379E+01 -0.21010263070E+02  0.23224289635E+02  0.00000000000E+00 0. -1.
</event>
<event>
 8    1  0.1261983E-006  0.9118800E+02  0.7816164E-02  0.1184000E+00
        -11   -1    0    0    0    0  0.00000000000E+00  0.00000000000E+00  0.45593999997E+02  0.45594000000E+02  0.51100000000E-03 0.  1.
         11   -1    0    0    0    0 -0.00000000000E+00 -0.00000000000E+00 -0.45593999997E+02  0.45594000000E+02  0.51100000000E-03 0. -1.
         23    2    1    2    0    0 -0.35527136788E-14 -0.35527136788E-14 -0.17763568394E-14  0.91188000000E+02  0.91188000000E+02 0.  0.
    9900012    2    3    3    0    0 -0.26094224866E+02 -0.21240662022E+02 -0.14956762594E+02  0.54367095044E+02  0.40000024773E+02 0.  0.
        -12    1    3    3    0    0  0.26094224866E+02  0.21240662022E+02  0.14956762594E+02  0.36820904956E+02  0.00000000000E+00 0.  1.
         11    1    4    4    0    0 -0.12752027905E+02 -0.66881510814E+01 -0.15176201282E+02  0.20920388768E+02  0.51100000000E-03 0. -1.
        -11    1    4    4    0    0  0.60298402204E+01  0.30072761312E+01  0.25326740754E+01  0.71984110084E+01  0.51100000000E-03 0.  1.
        -12    1    4    4    0    0 -0.19372037181E+02 -0.17559787071E+02 -0.23132353871E+01  0.26248295268E+02  0.00000000000E+00 0.  1.
</event>
<event>
 8    1  0.1261983E-006  0.9118800E+02  0.7816164E-02  0.1184000E+00
        -11   -1    0    0    0    0  0.00000000000E+00  0.00000000000E+00  0.45593999997E+02  0.45594000000E+02  0.51100000000E-03 0.  1.
         11   -1    0    0    0    0 -0.00000000000E+00 -0.00000000000E+00 -0.45593999997E+02  0.45594000000E+02  0.51100000000E-03 0. -1.
         23    2    1    2    0    0 -0.35527136788E-14  0.17763568394E-14  0.00000000000E+00  0.91188000000E+02  0.91188000000E+02 0.  0.
    9900012    2    3    3    0    0 -0.31366317233E+02  0.13912911371E+02 -0.13355211131E+02  0.54367127876E+02  0.40000099619E+02 0.  0.
        -12    1    3    3    0    0  0.31366317233E+02 -0.13912911371E+02  0.13355211131E+02  0.36820872124E+02  0.00000000000E+00 0.  1.
         11    1    4    4    0    0 -0.80721521924E+01  0.30703920132E+01 -0.97143530784E+01  0.12998292354E+02  0.51100000000E-03 0. -1.
        -11    1    4    4    0    0 -0.50776731512E+01  0.19599801078E+02 -0.57485269179E+01  0.21047102625E+02  0.51100000000E-03 0.  1.
         12    1    4    4    0    0 -0.18216491890E+02 -0.87572817198E+01  0.21076688654E+01  0.20321732897E+02  0.00000000000E+00 0. -1.
</event>
<event>
 8    1  0.1261983E-006  0.9118800E+02  0.7816164E-02  0.1184000E+00
        -11   -1    0    0    0    0  0.00000000000E+00  0.00000000000E+00  0.45593999997E+02  0.45594000000E+02  0.51100000000E-03 0. -1.
         11   -1    0    0    0    0 -0.00000000000E+00 -0.00000000000E+00 -0.45593999997E+02  0.45594000000E+02  0.51100000000E-03 0.  1.
         23    2    1    2    0    0  0.00000000000E+00 -0.17763568394E-14  0.71054273576E-14  0.91188000000E+02  0.91188000000E+02 0.  0.
    9900012    2    3    3    0    0  0.11052853381E+02  0.93233058500E+01 -0.33862814757E+02  0.54367084434E+02  0.40000000585E+02 0.  0.
         12    1    3    3    0    0 -0.11052853381E+02 -0.93233058500E+01  0.33862814757E+02  0.36820915566E+02  0.00000000000E+00 0. -1.
         11    1    4    4    0    0 -0.62266620279E+00  0.14679190370E+02 -0.11813143793E+02  0.18852498764E+02  0.51100000000E-03 0. -1.
        -11    1    4    4    0    0 -0.76639219010E+01 -0.33169816866E+01 -0.75428109904E+01  0.11253091322E+02  0.51100000000E-03 0.  1.
         12    1    4    4    0    0  0.19339441485E+02 -0.20389028334E+01 -0.14506859973E+02  0.24261494348E+02  0.00000000000E+00 0. -1.
</event>
<event>
 8    1  0.1261983E-006  0.9118800E+02  0.7816164E-02  0.1184000E+00
        -11   -1    0    0    0    0  0.00000000000E+00  0.00000000000E+00  0.45593999997E+02  0.45594000000E+02  0.51100000000E-03 0.  1.
         11   -1    0    0    0    0 -0.00000000000E+00 -0.00000000000E+00 -0.45593999997E+02  0.45594000000E+02  0.51100000000E-03 0. -1.
         23    2    1    2    0    0  0.35527136788E-14  0.35527136788E-14 -0.17763568394E-14  0.91188000000E+02  0.91188000000E+02 0.  0.
    9900012    2    3    3    0    0  0.15551164848E+02  0.31942426674E+02 -0.96759197755E+01  0.54367071529E+02  0.39999971166E+02 0.  0.
         12    1    3    3    0    0 -0.15551164848E+02 -0.31942426674E+02  0.96759197755E+01  0.36820928471E+02  0.00000000000E+00 0. -1.
         11    1    4    4    0    0  0.61653211930E+00 -0.11316065053E+01  0.11381480017E+01  0.17193098242E+01  0.51100000000E-03 0. -1.
        -11    1    4    4    0    0  0.25493745189E+01  0.26910411309E+01  0.12082333255E+02  0.12638187764E+02  0.51100000000E-03 0.  1.
         12    1    4    4    0    0  0.12385258210E+02  0.30382992048E+02 -0.22896401032E+02  0.40009573941E+02  0.00000000000E+00 0. -1.
</event>
<event>
 8    1  0.1261983E-006  0.9118800E+02  0.7816164E-02  0.1184000E+00
        -11   -1    0    0    0    0  0.00000000000E+00  0.00000000000E+00  0.45593999997E+02  0.45594000000E+02  0.51100000000E-03 0.  1.
         11   -1    0    0    0    0 -0.00000000000E+00 -0.00000000000E+00 -0.45593999997E+02  0.45594000000E+02  0.51100000000E-03 0. -1.
         23    2    1    2    0    0  0.00000000000E+00 -0.17763568394E-14  0.35527136788E-14  0.91188000000E+02  0.91188000000E+02 0.  0.
    9900012    2    3    3    0    0  0.20816378650E+02  0.13138859066E+02  0.27382986585E+02  0.54367093005E+02  0.40000020123E+02 0.  0.
         12    1    3    3    0    0 -0.20816378650E+02 -0.13138859066E+02 -0.27382986585E+02  0.36820906995E+02  0.00000000000E+00 0. -1.
         11    1    4    4    0    0  0.11846287793E+02 -0.88768238918E+00 -0.18445567034E+01  0.12021851114E+02  0.51100000000E-03 0. -1.
        -11    1    4    4    0    0  0.87337142654E+01 -0.56609674875E+01  0.64800215551E+01  0.12260301684E+02  0.51100000000E-03 0.  1.
        -12    1    4    4    0    0  0.23637659121E+00  0.19687508943E+02  0.22747521733E+02  0.30084940207E+02  0.00000000000E+00 0.  1.
</event>
<event>
 8    1  0.1261983E-006  0.9118800E+02  0.7816164E-02  0.1184000E+00
        -11   -1    0    0    0    0  0.00000000000E+00  0.00000000000E+00  0.45593999997E+02  0.45594000000E+02  0.51100000000E-03 0.  1.
         11   -1    0    0    0    0 -0.00000000000E+00 -0.00000000000E+00 -0.45593999997E+02  0.45594000000E+02  0.51100000000E-03 0. -1.
         23    2    1    2    0    0  0.00000000000E+00  0.00000000000E+00  0.17763568394E-14  0.91188000000E+02  0.91188000000E+02 0.  0.
    9900012    2    3    3    0    0  0.27324168233E+02 -0.20903342231E+02  0.13123557221E+02  0.54366978285E+02  0.39999758595E+02 0.  0.
         12    1    3    3    0    0 -0.27324168233E+02  0.20903342231E+02 -0.13123557221E+02  0.36821021715E+02  0.00000000000E+00 0. -1.
         11    1    4    4    0    0  0.10369699190E+01 -0.12019757425E+01 -0.10408041499E+02  0.10528408256E+02  0.51100000000E-03 0. -1.
        -11    1    4    4    0    0  0.13103721438E+02 -0.14373713769E+02  0.42977988032E+01  0.19919393512E+02  0.51100000000E-03 0.  1.
        -12    1    4    4    0    0  0.13183476876E+02 -0.53276527188E+01  0.19233799917E+02  0.23919176517E+02  0.00000000000E+00 0.  1.
</event>
<event>
 8    1  0.1261983E-006  0.9118800E+02  0.7816164E-02  0.1184000E+00
        -11   -1    0    0    0    0  0.00000000000E+00  0.00000000000E+00  0.45593999997E+02  0.45594000000E+02  0.51100000000E-03 0. -1.
         11   -1    0    0    0    0 -0.00000000000E+00 -0.00000000000E+00 -0.45593999997E+02  0.45594000000E+02  0.51100000000E-03 0.  1.
         23    2    1    2    0    0 -0.35527136788E-14  0.00000000000E+00 -0.35527136788E-14  0.91188000000E+02  0.91188000000E+02 0.  0.
    9900012    2    3    3    0    0  0.23993125338E+02 -0.16117171084E+02  0.22811105817E+02  0.54367084533E+02  0.40000000810E+02 0.  0.
        -12    1    3    3    0    0 -0.23993125338E+02  0.16117171084E+02 -0.22811105817E+02  0.36820915467E+02  0.00000000000E+00 0.  1.
         11    1    4    4    0    0  0.16658692011E+02 -0.20673565599E+01  0.48524640195E+01  0.17473762903E+02  0.51100000000E-03 0. -1.
        -11    1    4    4    0    0  0.12064468935E+02 -0.15012766393E+02  0.10269778297E+01  0.19287022818E+02  0.51100000000E-03 0.  1.
         12    1    4    4    0    0 -0.47300356078E+01  0.96295186885E+00  0.16931663968E+02  0.17606298812E+02  0.00000000000E+00 0. -1.
</event>
<event>
 8    1  0.1261983E-006  0.9118800E+02  0.7816164E-02  0.1184000E+00
        -11   -1    0    0    0    0  0.00000000000E+00  0.00000000000E+00  0.45593999997E+02  0.45594000000E+02  0.51100000000E-03 0. -1.
         11   -1    0    0    0    0 -0.00000000000E+00 -0.00000000000E+00 -0.45593999997E+02  0.45594000000E+02  0.51100000000E-03 0.  1.
         23    2    1    2    0    0  0.00000000000E+00  0.35527136788E-14  0.00000000000E+00  0.91188000000E+02  0.91188000000E+02 0.  0.
    9900012    2    3    3    0    0 -0.52180932734E+01 -0.27069231155E+02  0.24409176578E+02  0.54367086460E+02  0.40000005202E+02 0.  0.
        -12    1    3    3    0    0  0.52180932734E+01  0.27069231155E+02 -0.24409176578E+02  0.36820913540E+02  0.00000000000E+00 0.  1.
         11    1    4    4    0    0  0.88725373427E+00 -0.74505433271E+01  0.12113456619E+02  0.14248987563E+02  0.51100000000E-03 0. -1.
        -11    1    4    4    0    0  0.45372028982E+01 -0.18017912021E+02 -0.54506046461E+01  0.19363379225E+02  0.51100000000E-03 0.  1.
        -12    1    4    4    0    0 -0.10642549906E+02 -0.16007758073E+01  0.17746324605E+02  0.20754719672E+02  0.00000000000E+00 0.  1.
</event>
<event>
 8    1  0.1261983E-006  0.9118800E+02  0.7816164E-02  0.1184000E+00
        -11   -1    0    0    0    0  0.00000000000E+00  0.00000000000E+00  0.45593999997E+02  0.45594000000E+02  0.51100000000E-03 0.  1.
         11   -1    0    0    0    0 -0.00000000000E+00 -0.00000000000E+00 -0.45593999997E+02  0.45594000000E+02  0.51100000000E-03 0. -1.
         23    2    1    2    0    0  0.00000000000E+00  0.00000000000E+00  0.00000000000E+00  0.91188000000E+02  0.91188000000E+02 0.  0.
    9900012    2    3    3    0    0  0.29451298971E+02 -0.10641617760E+02 -0.19368924394E+02  0.54367105500E+02  0.40000048608E+02 0.  0.
        -12    1    3    3    0    0 -0.29451298971E+02  0.10641617760E+02  0.19368924394E+02  0.36820894500E+02  0.00000000000E+00 0.  1.
         11    1    4    4    0    0  0.29493462064E+02 -0.11400339017E+02 -0.17754194537E+02  0.36263527933E+02  0.51100000000E-03 0. -1.
        -11    1    4    4    0    0  0.80275504059E+01  0.10465796875E+01 -0.48132809829E+01  0.94183102860E+01  0.51100000000E-03 0.  1.
        -12    1    4    4    0    0 -0.80697134993E+01 -0.28785843029E+00  0.31985511258E+01  0.86852672809E+01  0.00000000000E+00 0.  1.
</event>
<event>
 8    1  0.1261983E-006  0.9118800E+02  0.7816164E-02  0.1184000E+00
        -11   -1    0    0    0    0  0.00000000000E+00  0.00000000000E+00  0.45593999997E+02  0.45594000000E+02  0.51100000000E-03 0.  1.
         11   -1    0    0    0    0 -0.00000000000E+00 -0.00000000000E+00 -0.45593999997E+02  0.45594000000E+02  0.51100000000E-03 0. -1.
         23    2    1    2    0    0  0.71054273576E-14  0.00000000000E+00 -0.88817841970E-15  0.91188000000E+02  0.91188000000E+02 0.  0.
    9900012    2    3    3    0    0  0.34908778212E+02  0.93045878963E+01  0.71120720250E+01  0.54367085826E+02  0.40000003757E+02 0.  0.
        -12    1    3    3    0    0 -0.34908778212E+02 -0.93045878963E+01 -0.71120720250E+01  0.36820914174E+02  0.00000000000E+00 0.  1.
         11    1    4    4    0    0 -0.79639302611E+00 -0.37358117000E+00  0.48457918280E+01  0.49249876593E+01  0.51100000000E-03 0. -1.
        -11    1    4    4    0    0  0.11193275244E+02  0.19232217581E+02 -0.34554138396E+01  0.22519047246E+02  0.51100000000E-03 0.  1.
         12    1    4    4    0    0  0.24511895994E+02 -0.95540485152E+01  0.57216940366E+01  0.26923050921E+02  0.00000000000E+00 0. -1.
</event>
<event>
 8    1  0.1261983E-006  0.9118800E+02  0.7816164E-02  0.1184000E+00
        -11   -1    0    0    0    0  0.00000000000E+00  0.00000000000E+00  0.45593999997E+02  0.45594000000E+02  0.51100000000E-03 0. -1.
         11   -1    0    0    0    0 -0.00000000000E+00 -0.00000000000E+00 -0.45593999997E+02  0.45594000000E+02  0.51100000000E-03 0.  1.
         23    2    1    2    0    0 -0.13322676296E-14 -0.35527136788E-14  0.00000000000E+00  0.91188000000E+02  0.91188000000E+02 0.  0.
    9900012    2    3    3    0    0 -0.25398602206E+01 -0.24841786534E+02  0.27059612222E+02  0.54366975275E+02  0.39999751735E+02 0.  0.
        -12    1    3    3    0    0  0.25398602206E+01  0.24841786534E+02 -0.27059612222E+02  0.36821024725E+02  0.00000000000E+00 0.  1.
         11    1    4    4    0    0 -0.11559899425E+02 -0.13636846355E+02  0.96173728430E+01  0.20299968322E+02  0.51100000000E-03 0. -1.
        -11    1    4    4    0    0 -0.42058197478E+01 -0.31894405162E+01 -0.46939608241E+01  0.70636194006E+01  0.51100000000E-03 0.  1.
        -12    1    4    4    0    0  0.13225858952E+02 -0.80154996629E+01  0.22136200203E+02  0.27003387552E+02  0.00000000000E+00 0.  1.
</event>
<event>
 8    1  0.1261983E-006  0.9118800E+02  0.7816164E-02  0.1184000E+00
        -11   -1    0    0    0    0  0.00000000000E+00  0.00000000000E+00  0.45593999997E+02  0.45594000000E+02  0.51100000000E-03 0.  1.
         11   -1    0    0    0    0 -0.00000000000E+00 -0.00000000000E+00 -0.45593999997E+02  0.45594000000E+02  0.51100000000E-03 0. -1.
         23    2    1    2    0    0  0.00000000000E+00  0.00000000000E+00  0.00000000000E+00  0.91188000000E+02  0.91188000000E+02 0.  0.
    9900012    2    3    3    0    0 -0.24465597998E+02  0.16919640839E+02  0.21701157638E+02  0.54367082380E+02  0.39999995902E+02 0.  0.
         12    1    3    3    0    0  0.24465597998E+02 -0.16919640839E+02 -0.21701157638E+02  0.36820917620E+02  0.00000000000E+00 0. -1.
         11    1    4    4    0    0 -0.22035299055E+00  0.51137008153E+01 -0.19604113709E+01  0.54810313330E+01  0.51100000000E-03 0. -1.
        -11    1    4    4    0    0 -0.10387096571E+02  0.11230629055E+02 -0.57702393520E+01  0.16349754328E+02  0.51100000000E-03 0.  1.
        -12    1    4    4    0    0 -0.13858148437E+02  0.57531096896E+00  0.29431808361E+02  0.32536296719E+02  0.00000000000E+00 0.  1.
</event>
<event>
 8    1  0.1261983E-006  0.9118800E+02  0.7816164E-02  0.1184000E+00
        -11   -1    0    0    0    0  0.00000000000E+00  0.00000000000E+00  0.45593999997E+02  0.45594000000E+02  0.51100000000E-03 0. -1.
         11   -1    0    0    0    0 -0.00000000000E+00 -0.00000000000E+00 -0.45593999997E+02  0.45594000000E+02  0.51100000000E-03 0.  1.
         23    2    1    2    0    0 -0.88817841970E-15  0.00000000000E+00 -0.27755575616E-16  0.91188000000E+02  0.91188000000E+02 0.  0.
    9900012    2    3    3    0    0 -0.57747021175E+01  0.36364992520E+02 -0.14255565440E+00  0.54367079484E+02  0.39999989299E+02 0.  0.
        -12    1    3    3    0    0  0.57747021175E+01 -0.36364992520E+02  0.14255565440E+00  0.36820920516E+02  0.00000000000E+00 0.  1.
         11    1    4    4    0    0 -0.27184452300E+01  0.52072271335E+01  0.30596886899E+01  0.66232057214E+01  0.51100000000E-03 0. -1.
        -11    1    4    4    0    0  0.10725529730E+02  0.29198637431E+02 -0.94153005210E+01  0.32499927692E+02  0.51100000000E-03 0.  1.
        -12    1    4    4    0    0 -0.13781786618E+02  0.19591279555E+01  0.62130561767E+01  0.15243946070E+02  0.00000000000E+00 0.  1.
</event>
<event>
 8    1  0.1261983E-006  0.9118800E+02  0.7816164E-02  0.1184000E+00
        -11   -1    0    0    0    0  0.00000000000E+00  0.00000000000E+00  0.45593999997E+02  0.45594000000E+02  0.51100000000E-03 0.  1.
         11   -1    0    0    0    0 -0.00000000000E+00 -0.00000000000E+00 -0.45593999997E+02  0.45594000000E+02  0.51100000000E-03 0. -1.
         23    2    1    2    0    0  0.35527136788E-14  0.17763568394E-14  0.00000000000E+00  0.91188000000E+02  0.91188000000E+02 0.  0.
    9900012    2    3    3    0    0 -0.28923762271E+02  0.10722081938E+02 -0.20105543037E+02  0.54367083039E+02  0.39999997405E+02 0.  0.
        -12    1    3    3    0    0  0.28923762271E+02 -0.10722081938E+02  0.20105543037E+02  0.36820916961E+02  0.00000000000E+00 0.  1.
         11    1    4    4    0    0 -0.20959844118E+02  0.10174550018E+02 -0.17107154879E+02  0.28904866058E+02  0.51100000000E-03 0. -1.
        -11    1    4    4    0    0 -0.79400900286E+01  0.48728117291E+01  0.88496489111E+01  0.12849342782E+02  0.51100000000E-03 0.  1.
        -12    1    4    4    0    0 -0.23828124778E-01 -0.43252798083E+01 -0.11848037069E+02  0.12612874200E+02  0.00000000000E+00 0.  1.
</event>
<event>
 8    1  0.1261983E-006  0.9118800E+02  0.7816164E-02  0.1184000E+00
        -11   -1    0    0    0    0  0.00000000000E+00  0.00000000000E+00  0.45593999997E+02  0.45594000000E+02  0.51100000000E-03 0.  1.
         11   -1    0    0    0    0 -0.00000000000E+00 -0.00000000000E+00 -0.45593999997E+02  0.45594000000E+02  0.51100000000E-03 0. -1.
         23    2    1    2    0    0  0.00000000000E+00  0.00000000000E+00  0.00000000000E+00  0.91188000000E+02  0.91188000000E+02 0.  0.
    9900012    2    3    3    0    0  0.24765630573E+02 -0.11597033447E+02  0.24656687508E+02  0.54367083644E+02  0.39999998782E+02 0.  0.
         12    1    3    3    0    0 -0.24765630573E+02  0.11597033447E+02 -0.24656687508E+02  0.36820916356E+02  0.00000000000E+00 0. -1.
         11    1    4    4    0    0 -0.66964680765E+01  0.73616597547E+00  0.48176008679E+01  0.82821436492E+01  0.51100000000E-03 0. -1.
        -11    1    4    4    0    0  0.28731743022E+02 -0.77699580570E+01  0.24853374825E+02  0.38775966084E+02  0.51100000000E-03 0.  1.
        -12    1    4    4    0    0  0.27303556277E+01 -0.45632413656E+01 -0.50142881853E+01  0.73089739102E+01  0.00000000000E+00 0.  1.
</event>
<event>
 8    1  0.1261983E-006  0.9118800E+02  0.7816164E-02  0.1184000E+00
        -11   -1    0    0    0    0  0.00000000000E+00  0.00000000000E+00  0.45593999997E+02  0.45594000000E+02  0.51100000000E-03 0. -1.
         11   -1    0    0    0    0 -0.00000000000E+00 -0.00000000000E+00 -0.45593999997E+02  0.45594000000E+02  0.51100000000E-03 0.  1.
         23    2    1    2    0    0  0.00000000000E+00  0.00000000000E+00 -0.35527136788E-14  0.91188000000E+02  0.91188000000E+02 0.  0.
    9900012    2    3    3    0    0  0.21654645223E+02 -0.13000122659E+02  0.26792669587E+02  0.54367163610E+02  0.40000181081E+02 0.  0.
        -12    1    3    3    0    0 -0.21654645223E+02  0.13000122659E+02 -0.26792669587E+02  0.36820836390E+02  0.00000000000E+00 0.  1.
         11    1    4    4    0    0 -0.50431795593E+00 -0.33286572056E+01 -0.36409976106E+01  0.49589473938E+01  0.51100000000E-03 0. -1.
        -11    1    4    4    0    0 -0.46293160320E+01  0.37372893732E+01  0.14063934766E+02  0.15270630640E+02  0.51100000000E-03 0.  1.
         12    1    4    4    0    0  0.26788279211E+02 -0.13408754827E+02  0.16369732432E+02  0.34137585576E+02  0.00000000000E+00 0. -1.
</event>
<event>
 8    1  0.1261983E-006  0.9118800E+02  0.7816164E-02  0.1184000E+00
        -11   -1    0    0    0    0  0.00000000000E+00  0.00000000000E+00  0.45593999997E+02  0.45594000000E+02  0.51100000000E-03 0.  1.
         11   -1    0    0    0    0 -0.00000000000E+00 -0.00000000000E+00 -0.45593999997E+02  0.45594000000E+02  0.51100000000E-03 0. -1.
         23    2    1    2    0    0  0.00000000000E+00  0.44408920985E-15  0.00000000000E+00  0.91188000000E+02  0.91188000000E+02 0.  0.
    9900012    2    3    3    0    0  0.22829519274E+02  0.12422776922E+01  0.28862573557E+02  0.54367104349E+02  0.40000045985E+02 0.  0.
         12    1    3    3    0    0 -0.22829519274E+02 -0.12422776922E+01 -0.28862573557E+02  0.36820895651E+02  0.00000000000E+00 0. -1.
         11    1    4    4    0    0  0.16408951593E+02  0.72728010848E+01  0.81091167371E+00  0.17966772276E+02  0.51100000000E-03 0. -1.
        -11    1    4    4    0    0  0.14136805484E+02 -0.29887226532E+01  0.14222662801E+02  0.20274759427E+02  0.51100000000E-03 0.  1.
         12    1    4    4    0    0 -0.77162378027E+01 -0.30418007393E+01  0.13828999082E+02  0.16125572647E+02  0.00000000000E+00 0. -1.
</event>
<event>
 8    1  0.1261983E-006  0.9118800E+02  0.7816164E-02  0.1184000E+00
        -11   -1    0    0    0    0  0.00000000000E+00  0.00000000000E+00  0.45593999997E+02  0.45594000000E+02  0.51100000000E-03 0.  1.
         11   -1    0    0    0    0 -0.00000000000E+00 -0.00000000000E+00 -0.45593999997E+02  0.45594000000E+02  0.51100000000E-03 0. -1.
         23    2    1    2    0    0  0.71054273576E-14  0.17763568394E-14  0.88817841970E-15  0.91188000000E+02  0.91188000000E+02 0.  0.
    9900012    2    3    3    0    0  0.36514701734E+02 -0.11046957695E+00  0.47393254382E+01  0.54366853197E+02  0.39999473431E+02 0.  0.
        -12    1    3    3    0    0 -0.36514701734E+02  0.11046957695E+00 -0.47393254382E+01  0.36821146803E+02  0.00000000000E+00 0.  1.
         11    1    4    4    0    0  0.72818674760E+01 -0.21024849355E+01 -0.38269577325E+01  0.84906797483E+01  0.51100000000E-03 0. -1.
        -11    1    4    4    0    0  0.73984056506E+01 -0.15399338665E+02  0.45026125237E+01  0.17667754732E+02  0.51100000000E-03 0.  1.
         12    1    4    4    0    0  0.21834428607E+02  0.17391354023E+02  0.40636706470E+01  0.28208418717E+02  0.00000000000E+00 0. -1.
</event>
<event>
 8    1  0.1261983E-006  0.9118800E+02  0.7816164E-02  0.1184000E+00
        -11   -1    0    0    0    0  0.00000000000E+00  0.00000000000E+00  0.45593999997E+02  0.45594000000E+02  0.51100000000E-03 0. -1.
         11   -1    0    0    0    0 -0.00000000000E+00 -0.00000000000E+00 -0.45593999997E+02  0.45594000000E+02  0.51100000000E-03 0.  1.
         23    2    1    2    0    0  0.00000000000E+00  0.35527136788E-14 -0.35527136788E-14  0.91188000000E+02  0.91188000000E+02 0.  0.
    9900012    2    3    3    0    0  0.22044657548E+02  0.14519597597E+02 -0.25670879247E+02  0.54367086349E+02  0.40000004950E+02 0.  0.
         12    1    3    3    0    0 -0.22044657548E+02 -0.14519597597E+02  0.25670879247E+02  0.36820913651E+02  0.00000000000E+00 0. -1.
         11    1    4    4    0    0  0.18192996759E+02  0.17439234106E+00  0.45035256129E+01  0.18742926318E+02  0.51100000000E-03 0.  1.
        -11    1    4    4    0    0 -0.12384129050E+01 -0.13271003923E+01 -0.67137053338E+01  0.69547610703E+01  0.51100000000E-03 0. -1.
        -12    1    4    4    0    0  0.50900736943E+01  0.15672305648E+02 -0.23460699526E+02  0.28669398961E+02  0.00000000000E+00 0.  1.
</event>
<event>
 8    1  0.1261983E-006  0.9118800E+02  0.7816164E-02  0.1184000E+00
        -11   -1    0    0    0    0  0.00000000000E+00  0.00000000000E+00  0.45593999997E+02  0.45594000000E+02  0.51100000000E-03 0.  1.
         11   -1    0    0    0    0 -0.00000000000E+00 -0.00000000000E+00 -0.45593999997E+02  0.45594000000E+02  0.51100000000E-03 0. -1.
         23    2    1    2    0    0  0.00000000000E+00  0.00000000000E+00 -0.17763568394E-14  0.91188000000E+02  0.91188000000E+02 0.  0.
    9900012    2    3    3    0    0 -0.23103897974E+02  0.24511700101E+02 -0.14871552951E+02  0.54367127786E+02  0.40000099414E+02 0.  0.
        -12    1    3    3    0    0  0.23103897974E+02 -0.24511700101E+02  0.14871552951E+02  0.36820872214E+02  0.00000000000E+00 0.  1.
         11    1    4    4    0    0 -0.10633310972E+02  0.15651409919E+02 -0.67219282623E+00  0.18933720663E+02  0.51100000000E-03 0. -1.
        -11    1    4    4    0    0 -0.18620154634E+02  0.14810447357E+02 -0.11734973012E+02  0.26528646806E+02  0.51100000000E-03 0.  1.
        -12    1    4    4    0    0  0.61495676318E+01 -0.59501571753E+01 -0.24643871120E+01  0.89047603172E+01  0.00000000000E+00 0.  1.
</event>
<event>
 8    1  0.1261983E-006  0.9118800E+02  0.7816164E-02  0.1184000E+00
        -11   -1    0    0    0    0  0.00000000000E+00  0.00000000000E+00  0.45593999997E+02  0.45594000000E+02  0.51100000000E-03 0. -1.
         11   -1    0    0    0    0 -0.00000000000E+00 -0.00000000000E+00 -0.45593999997E+02  0.45594000000E+02  0.51100000000E-03 0.  1.
         23    2    1    2    0    0 -0.17763568394E-14  0.00000000000E+00  0.35527136788E-14  0.91188000000E+02  0.91188000000E+02 0.  0.
    9900012    2    3    3    0    0  0.10363116511E+02  0.16716774010E+02  0.31127724622E+02  0.54367082613E+02  0.39999996432E+02 0.  0.
        -12    1    3    3    0    0 -0.10363116511E+02 -0.16716774010E+02 -0.31127724622E+02  0.36820917387E+02  0.00000000000E+00 0.  1.
         11    1    4    4    0    0 -0.11266248692E+02  0.53287034053E+01  0.16802158414E+02  0.20919750649E+02  0.51100000000E-03 0. -1.
        -11    1    4    4    0    0  0.36764194131E+01 -0.47970279651E+01  0.31910119199E+01  0.68344783512E+01  0.51100000000E-03 0.  1.
        -12    1    4    4    0    0  0.17952945789E+02  0.16185098569E+02  0.11134554287E+02  0.26612853613E+02  0.00000000000E+00 0.  1.
</event>
<event>
 8    1  0.1261983E-006  0.9118800E+02  0.7816164E-02  0.1184000E+00
        -11   -1    0    0    0    0  0.00000000000E+00  0.00000000000E+00  0.45593999997E+02  0.45594000000E+02  0.51100000000E-03 0. -1.
         11   -1    0    0    0    0 -0.00000000000E+00 -0.00000000000E+00 -0.45593999997E+02  0.45594000000E+02  0.51100000000E-03 0.  1.
         23    2    1    2    0    0  0.11102230246E-14  0.35527136788E-14  0.00000000000E+00  0.91188000000E+02  0.91188000000E+02 0.  0.
    9900012    2    3    3    0    0  0.75857140720E+00  0.22172561158E+02  0.29386775808E+02  0.54367075361E+02  0.39999979901E+02 0.  0.
        -12    1    3    3    0    0 -0.75857140720E+00 -0.22172561158E+02 -0.29386775808E+02  0.36820924639E+02  0.00000000000E+00 0.  1.
         11    1    4    4    0    0 -0.79504651489E+01  0.96572927933E+01  0.63539815086E+01  0.14030191782E+02  0.51100000000E-03 0. -1.
        -11    1    4    4    0    0 -0.19787012959E+01  0.37071232851E+01  0.25862088327E+02  0.26201252542E+02  0.51100000000E-03 0.  1.
        -12    1    4    4    0    0  0.10687737852E+02  0.88081450794E+01 -0.28292940276E+01  0.14135631037E+02  0.00000000000E+00 0.  1.
</event>
<event>
 8    1  0.1261983E-006  0.9118800E+02  0.7816164E-02  0.1184000E+00
        -11   -1    0    0    0    0  0.00000000000E+00  0.00000000000E+00  0.45593999997E+02  0.45594000000E+02  0.51100000000E-03 0.  1.
         11   -1    0    0    0    0 -0.00000000000E+00 -0.00000000000E+00 -0.45593999997E+02  0.45594000000E+02  0.51100000000E-03 0. -1.
         23    2    1    2    0    0  0.00000000000E+00  0.26645352591E-14  0.00000000000E+00  0.91188000000E+02  0.91188000000E+02 0.  0.
    9900012    2    3    3    0    0 -0.34087611493E+02 -0.49855249367E+01 -0.12998480216E+02  0.54367065682E+02  0.39999957834E+02 0.  0.
        -12    1    3    3    0    0  0.34087611493E+02  0.49855249367E+01  0.12998480216E+02  0.36820934318E+02  0.00000000000E+00 0.  1.
         11    1    4    4    0    0 -0.17804186127E+02 -0.40128134787E+01 -0.83014487745E+01  0.20050081488E+02  0.51100000000E-03 0. -1.
        -11    1    4    4    0    0 -0.22078938937E+02  0.41041301573E+01 -0.10383097404E+02  0.24741304349E+02  0.51100000000E-03 0.  1.
        -12    1    4    4    0    0  0.57955135720E+01 -0.50768416153E+01  0.56860659624E+01  0.95756798442E+01  0.00000000000E+00 0.  1.
</event>
<event>
 8    1  0.1261983E-006  0.9118800E+02  0.7816164E-02  0.1184000E+00
        -11   -1    0    0    0    0  0.00000000000E+00  0.00000000000E+00  0.45593999997E+02  0.45594000000E+02  0.51100000000E-03 0.  1.
         11   -1    0    0    0    0 -0.00000000000E+00 -0.00000000000E+00 -0.45593999997E+02  0.45594000000E+02  0.51100000000E-03 0. -1.
         23    2    1    2    0    0  0.00000000000E+00 -0.35527136788E-14  0.00000000000E+00  0.91188000000E+02  0.91188000000E+02 0.  0.
    9900012    2    3    3    0    0 -0.25575257903E+02 -0.25248434243E+02 -0.80127514926E+01  0.54367062546E+02  0.39999950685E+02 0.  0.
        -12    1    3    3    0    0  0.25575257903E+02  0.25248434243E+02  0.80127514926E+01  0.36820937454E+02  0.00000000000E+00 0.  1.
         11    1    4    4    0    0 -0.11110353612E+02 -0.29550808793E+02 -0.12130461112E+02  0.33820679247E+02  0.51100000000E-03 0. -1.
        -11    1    4    4    0    0 -0.10607513603E+02  0.73611483666E+01 -0.15899029540E+01  0.13008983119E+02  0.51100000000E-03 0.  1.
        -12    1    4    4    0    0 -0.38573906873E+01 -0.30587738174E+01  0.57076125735E+01  0.75374001798E+01  0.00000000000E+00 0.  1.
</event>
<event>
 8    1  0.1261983E-006  0.9118800E+02  0.7816164E-02  0.1184000E+00
        -11   -1    0    0    0    0  0.00000000000E+00  0.00000000000E+00  0.45593999997E+02  0.45594000000E+02  0.51100000000E-03 0. -1.
         11   -1    0    0    0    0 -0.00000000000E+00 -0.00000000000E+00 -0.45593999997E+02  0.45594000000E+02  0.51100000000E-03 0.  1.
         23    2    1    2    0    0  0.71054273576E-14 -0.17763568394E-14 -0.17763568394E-14  0.91188000000E+02  0.91188000000E+02 0.  0.
    9900012    2    3    3    0    0 -0.32371851711E+02 -0.11996366705E+02 -0.12803478621E+02  0.54367100200E+02  0.40000036525E+02 0.  0.
         12    1    3    3    0    0  0.32371851711E+02  0.11996366705E+02  0.12803478621E+02  0.36820899800E+02  0.00000000000E+00 0. -1.
         11    1    4    4    0    0 -0.11975027672E+02 -0.57327267932E+01  0.98942315961E+01  0.16557815779E+02  0.51100000000E-03 0. -1.
        -11    1    4    4    0    0  0.18251132046E+01  0.38839124191E+01 -0.85819041028E+01  0.95950451891E+01  0.51100000000E-03 0.  1.
        -12    1    4    4    0    0 -0.22221937243E+02 -0.10147552331E+02 -0.14115806115E+02  0.28214239232E+02  0.00000000000E+00 0.  1.
</event>
<event>
 8    1  0.1261983E-006  0.9118800E+02  0.7816164E-02  0.1184000E+00
        -11   -1    0    0    0    0  0.00000000000E+00  0.00000000000E+00  0.45593999997E+02  0.45594000000E+02  0.51100000000E-03 0.  1.
         11   -1    0    0    0    0 -0.00000000000E+00 -0.00000000000E+00 -0.45593999997E+02  0.45594000000E+02  0.51100000000E-03 0. -1.
         23    2    1    2    0    0  0.35527136788E-14  0.00000000000E+00  0.00000000000E+00  0.91188000000E+02  0.91188000000E+02 0.  0.
    9900012    2    3    3    0    0 -0.16734259331E+02 -0.32695509942E+02  0.25979101034E+01  0.54367069232E+02  0.39999965928E+02 0.  0.
        -12    1    3    3    0    0  0.16734259331E+02  0.32695509942E+02 -0.25979101034E+01  0.36820930768E+02  0.00000000000E+00 0.  1.
         11    1    4    4    0    0 -0.14347209256E+02 -0.30638389425E+02  0.24107732137E+01  0.33917033298E+02  0.51100000000E-03 0. -1.
        -11    1    4    4    0    0 -0.11086627632E+02  0.41739471994E+00  0.18676360456E+01  0.11250581997E+02  0.51100000000E-03 0.  1.
         12    1    4    4    0    0  0.86995775570E+01 -0.24745152373E+01 -0.16804991560E+01  0.91994539372E+01  0.00000000000E+00 0. -1.
</event>
<event>
 8    1  0.1261983E-006  0.9118800E+02  0.7816164E-02  0.1184000E+00
        -11   -1    0    0    0    0  0.00000000000E+00  0.00000000000E+00  0.45593999997E+02  0.45594000000E+02  0.51100000000E-03 0.  1.
         11   -1    0    0    0    0 -0.00000000000E+00 -0.00000000000E+00 -0.45593999997E+02  0.45594000000E+02  0.51100000000E-03 0. -1.
         23    2    1    2    0    0  0.15543122345E-14  0.17763568394E-14  0.00000000000E+00  0.91188000000E+02  0.91188000000E+02 0.  0.
    9900012    2    3    3    0    0 -0.11219620208E+01  0.10426679886E+02  0.35295984725E+02  0.54367068589E+02  0.39999964463E+02 0.  0.
         12    1    3    3    0    0  0.11219620208E+01 -0.10426679886E+02 -0.35295984725E+02  0.36820931411E+02  0.00000000000E+00 0. -1.
         11    1    4    4    0    0  0.12786248016E+02  0.46119795376E+01  0.23735013494E+02  0.27351587877E+02  0.51100000000E-03 0. -1.
        -11    1    4    4    0    0 -0.49573603293E+01 -0.20589472924E+01  0.13870295599E+02  0.14872786748E+02  0.51100000000E-03 0.  1.
         12    1    4    4    0    0 -0.89508497074E+01  0.78736476410E+01 -0.23093243681E+01  0.12142693964E+02  0.00000000000E+00 0. -1.
</event>
<event>
 8    1  0.1261983E-006  0.9118800E+02  0.7816164E-02  0.1184000E+00
        -11   -1    0    0    0    0  0.00000000000E+00  0.00000000000E+00  0.45593999997E+02  0.45594000000E+02  0.51100000000E-03 0. -1.
         11   -1    0    0    0    0 -0.00000000000E+00 -0.00000000000E+00 -0.45593999997E+02  0.45594000000E+02  0.51100000000E-03 0.  1.
         23    2    1    2    0    0 -0.88817841970E-15  0.00000000000E+00  0.00000000000E+00  0.91188000000E+02  0.91188000000E+02 0.  0.
    9900012    2    3    3    0    0 -0.41254065583E+01  0.91568765900E+01  0.35424604567E+02  0.54367218139E+02  0.40000305390E+02 0.  0.
        -12    1    3    3    0    0  0.41254065583E+01 -0.91568765900E+01 -0.35424604567E+02  0.36820781861E+02  0.00000000000E+00 0.  1.
         11    1    4    4    0    0  0.54150700708E+00  0.60741557783E+01  0.38359604355E+02  0.38841316208E+02  0.51100000000E-03 0. -1.
        -11    1    4    4    0    0  0.19609958607E+01  0.91383076807E+00 -0.70868999144E+01  0.74097734173E+01  0.51100000000E-03 0.  1.
         12    1    4    4    0    0 -0.66279094261E+01  0.21688900436E+01  0.41519001264E+01  0.81161285131E+01  0.00000000000E+00 0. -1.
</event>
<event>
 8    1  0.1261983E-006  0.9118800E+02  0.7816164E-02  0.1184000E+00
        -11   -1    0    0    0    0  0.00000000000E+00  0.00000000000E+00  0.45593999997E+02  0.45594000000E+02  0.51100000000E-03 0.  1.
         11   -1    0    0    0    0 -0.00000000000E+00 -0.00000000000E+00 -0.45593999997E+02  0.45594000000E+02  0.51100000000E-03 0. -1.
         23    2    1    2    0    0 -0.88817841970E-15  0.00000000000E+00  0.00000000000E+00  0.91188000000E+02  0.91188000000E+02 0.  0.
    9900012    2    3    3    0    0 -0.46172467144E+01 -0.13275492628E+02  0.34032667714E+02  0.54367080084E+02  0.39999990667E+02 0.  0.
         12    1    3    3    0    0  0.46172467144E+01  0.13275492628E+02 -0.34032667714E+02  0.36820919916E+02  0.00000000000E+00 0. -1.
         11    1    4    4    0    0 -0.73711810070E+01 -0.12363426001E+02 -0.91366416930E+00  0.14423016134E+02  0.51100000000E-03 0. -1.
        -11    1    4    4    0    0 -0.78216536865E+01  0.22162337030E+01  0.12132491984E+02  0.14604359631E+02  0.51100000000E-03 0.  1.
        -12    1    4    4    0    0  0.10575587979E+02 -0.31283003306E+01  0.22813839899E+02  0.25339704320E+02  0.00000000000E+00 0.  1.
</event>
<event>
 8    1  0.1261983E-006  0.9118800E+02  0.7816164E-02  0.1184000E+00
        -11   -1    0    0    0    0  0.00000000000E+00  0.00000000000E+00  0.45593999997E+02  0.45594000000E+02  0.51100000000E-03 0. -1.
         11   -1    0    0    0    0 -0.00000000000E+00 -0.00000000000E+00 -0.45593999997E+02  0.45594000000E+02  0.51100000000E-03 0.  1.
         23    2    1    2    0    0 -0.17763568394E-14  0.00000000000E+00  0.88817841970E-15  0.91188000000E+02  0.91188000000E+02 0.  0.
    9900012    2    3    3    0    0  0.70691616648E+01 -0.35311577483E+02 -0.76747193419E+01  0.54367056667E+02  0.39999937283E+02 0.  0.
        -12    1    3    3    0    0 -0.70691616648E+01  0.35311577483E+02  0.76747193419E+01  0.36820943333E+02  0.00000000000E+00 0.  1.
         11    1    4    4    0    0  0.35541009370E+01 -0.30152741589E+01 -0.55894304502E+01  0.72777224969E+01  0.51100000000E-03 0. -1.
        -11    1    4    4    0    0  0.17043337145E+02 -0.98894781100E+01 -0.60592802053E+01  0.20615333982E+02  0.51100000000E-03 0.  1.
        -12    1    4    4    0    0 -0.13528276417E+02 -0.22406825214E+02  0.39739913136E+01  0.26474000188E+02  0.00000000000E+00 0.  1.
</event>
<event>
 8    1  0.1261983E-006  0.9118800E+02  0.7816164E-02  0.1184000E+00
        -11   -1    0    0    0    0  0.00000000000E+00  0.00000000000E+00  0.45593999997E+02  0.45594000000E+02  0.51100000000E-03 0. -1.
         11   -1    0    0    0    0 -0.00000000000E+00 -0.00000000000E+00 -0.45593999997E+02  0.45594000000E+02  0.51100000000E-03 0.  1.
         23    2    1    2    0    0 -0.22204460493E-15  0.00000000000E+00  0.00000000000E+00  0.91188000000E+02  0.91188000000E+02 0.  0.
    9900012    2    3    3    0    0 -0.19683495441E+01 -0.35320570559E+02 -0.10215798335E+02  0.54367086918E+02  0.40000006247E+02 0.  0.
         12    1    3    3    0    0  0.19683495441E+01  0.35320570559E+02  0.10215798335E+02  0.36820913082E+02  0.00000000000E+00 0. -1.
         11    1    4    4    0    0 -0.11970346870E+02 -0.92693613676E+01  0.76249035097E+01  0.16951383960E+02  0.51100000000E-03 0. -1.
        -11    1    4    4    0    0  0.14724099319E+02 -0.20662941803E+02 -0.11534785880E+02  0.27871267468E+02  0.51100000000E-03 0.  1.
         12    1    4    4    0    0 -0.47221019929E+01 -0.53882673884E+01 -0.63059159641E+01  0.95444354902E+01  0.00000000000E+00 0. -1.
</event>
<event>
 8    1  0.1261983E-006  0.9118800E+02  0.7816164E-02  0.1184000E+00
        -11   -1    0    0    0    0  0.00000000000E+00  0.00000000000E+00  0.45593999997E+02  0.45594000000E+02  0.51100000000E-03 0.  1.
         11   -1    0    0    0    0 -0.00000000000E+00 -0.00000000000E+00 -0.45593999997E+02  0.45594000000E+02  0.51100000000E-03 0. -1.
         23    2    1    2    0    0 -0.44408920985E-15 -0.71054273576E-14 -0.88817841970E-15  0.91188000000E+02  0.91188000000E+02 0.  0.
    9900012    2    3    3    0    0 -0.10865803485E+01 -0.35937987137E+02 -0.79409627821E+01  0.54367102860E+02  0.40000042590E+02 0.  0.
         12    1    3    3    0    0  0.10865803485E+01  0.35937987137E+02  0.79409627821E+01  0.36820897140E+02  0.00000000000E+00 0. -1.
         11    1    4    4    0    0  0.38610328786E+00  0.15578572459E+01 -0.61578590073E+01  0.63635856844E+01  0.51100000000E-03 0. -1.
        -11    1    4    4    0    0  0.47458197120E+01  0.15636196634E+01  0.58802721569E+01  0.77165608979E+01  0.51100000000E-03 0.  1.
         12    1    4    4    0    0 -0.62185033484E+01 -0.39059464046E+02 -0.76633759316E+01  0.40286956278E+02  0.00000000000E+00 0. -1.
</event>
<event>
 8    1  0.1261983E-006  0.9118800E+02  0.7816164E-02  0.1184000E+00
        -11   -1    0    0    0    0  0.00000000000E+00  0.00000000000E+00  0.45593999997E+02  0.45594000000E+02  0.51100000000E-03 0. -1.
         11   -1    0    0    0    0 -0.00000000000E+00 -0.00000000000E+00 -0.45593999997E+02  0.45594000000E+02  0.51100000000E-03 0.  1.
         23    2    1    2    0    0  0.00000000000E+00 -0.88817841970E-15  0.00000000000E+00  0.91188000000E+02  0.91188000000E+02 0.  0.
    9900012    2    3    3    0    0  0.15767990429E+02  0.47512339703E+01  0.32932944290E+02  0.54367047188E+02  0.39999915674E+02 0.  0.
        -12    1    3    3    0    0 -0.15767990429E+02 -0.47512339703E+01 -0.32932944290E+02  0.36820952812E+02  0.00000000000E+00 0.  1.
         11    1    4    4    0    0  0.13740567490E+02  0.65995170787E+01  0.27684302750E+02  0.31603440314E+02  0.51100000000E-03 0. -1.
        -11    1    4    4    0    0  0.27991893876E+01 -0.78869439756E+01 -0.57767995312E+01  0.10169108102E+02  0.51100000000E-03 0.  1.
        -12    1    4    4    0    0 -0.77176644870E+00  0.60386608672E+01  0.11025441071E+02  0.12594498772E+02  0.00000000000E+00 0.  1.
</event>
<event>
 8    1  0.1261983E-006  0.9118800E+02  0.7816164E-02  0.1184000E+00
        -11   -1    0    0    0    0  0.00000000000E+00  0.00000000000E+00  0.45593999997E+02  0.45594000000E+02  0.51100000000E-03 0.  1.
         11   -1    0    0    0    0 -0.00000000000E+00 -0.00000000000E+00 -0.45593999997E+02  0.45594000000E+02  0.51100000000E-03 0. -1.
         23    2    1    2    0    0 -0.19984014443E-14  0.00000000000E+00  0.00000000000E+00  0.91188000000E+02  0.91188000000E+02 0.  0.
    9900012    2    3    3    0    0  0.14079140995E+01  0.29104893740E+02 -0.22510047203E+02  0.54367091717E+02  0.40000017188E+02 0.  0.
         12    1    3    3    0    0 -0.14079140995E+01 -0.29104893740E+02  0.22510047203E+02  0.36820908283E+02  0.00000000000E+00 0. -1.
         11    1    4    4    0    0 -0.89361192739E+01  0.15245251716E+02  0.53204846926E+01  0.18454795723E+02  0.51100000000E-03 0.  1.
        -11    1    4    4    0    0  0.10792937327E+02  0.11009151904E+02 -0.11257170489E+02  0.19089599511E+02  0.51100000000E-03 0. -1.
        -12    1    4    4    0    0 -0.44890395363E+00  0.28504901200E+01 -0.16573361406E+02  0.16822696484E+02  0.00000000000E+00 0.  1.
</event>
<event>
 8    1  0.1261983E-006  0.9118800E+02  0.7816164E-02  0.1184000E+00
        -11   -1    0    0    0    0  0.00000000000E+00  0.00000000000E+00  0.45593999997E+02  0.45594000000E+02  0.51100000000E-03 0.  1.
         11   -1    0    0    0    0 -0.00000000000E+00 -0.00000000000E+00 -0.45593999997E+02  0.45594000000E+02  0.51100000000E-03 0. -1.
         23    2    1    2    0    0  0.66613381478E-15  0.00000000000E+00  0.00000000000E+00  0.91188000000E+02  0.91188000000E+02 0.  0.
    9900012    2    3    3    0    0  0.84183739883E+00 -0.36749242263E+02 -0.21372732778E+01  0.54367035398E+02  0.39999888798E+02 0.  0.
         12    1    3    3    0    0 -0.84183739883E+00  0.36749242263E+02  0.21372732778E+01  0.36820964602E+02  0.00000000000E+00 0. -1.
         11    1    4    4    0    0  0.83014263470E+01 -0.17296322372E+01 -0.17183447725E+01  0.86520527095E+01  0.51100000000E-03 0. -1.
        -11    1    4    4    0    0  0.52556037796E+01 -0.29249728098E+02  0.60475474848E+01  0.30327228620E+02  0.51100000000E-03 0.  1.
         12    1    4    4    0    0 -0.12715192728E+02 -0.57698819280E+01 -0.64664759902E+01  0.15387754069E+02  0.00000000000E+00 0. -1.
</event>
<event>
 8    1  0.1261983E-006  0.9118800E+02  0.7816164E-02  0.1184000E+00
        -11   -1    0    0    0    0  0.00000000000E+00  0.00000000000E+00  0.45593999997E+02  0.45594000000E+02  0.51100000000E-03 0.  1.
         11   -1    0    0    0    0 -0.00000000000E+00 -0.00000000000E+00 -0.45593999997E+02  0.45594000000E+02  0.51100000000E-03 0. -1.
         23    2    1    2    0    0  0.22204460493E-15  0.00000000000E+00  0.17763568394E-14  0.91188000000E+02  0.91188000000E+02 0.  0.
    9900012    2    3    3    0    0  0.10933928626E+01  0.33445648202E+02  0.15361352728E+02  0.54367108522E+02  0.40000055497E+02 0.  0.
         12    1    3    3    0    0 -0.10933928626E+01 -0.33445648202E+02 -0.15361352728E+02  0.36820891478E+02  0.00000000000E+00 0. -1.
         11    1    4    4    0    0  0.69233414523E+01  0.57158839340E+01  0.94115900917E+01  0.13006998667E+02  0.51100000000E-03 0. -1.
        -11    1    4    4    0    0  0.10858367936E+02  0.19241802849E+02  0.47491589179E+01  0.22598797353E+02  0.51100000000E-03 0.  1.
         12    1    4    4    0    0 -0.16688316525E+02  0.84879614191E+01  0.12006037184E+01  0.18761312502E+02  0.00000000000E+00 0. -1.
</event>
<event>
 8    1  0.1261983E-006  0.9118800E+02  0.7816164E-02  0.1184000E+00
        -11   -1    0    0    0    0  0.00000000000E+00  0.00000000000E+00  0.45593999997E+02  0.45594000000E+02  0.51100000000E-03 0. -1.
         11   -1    0    0    0    0 -0.00000000000E+00 -0.00000000000E+00 -0.45593999997E+02  0.45594000000E+02  0.51100000000E-03 0.  1.
         23    2    1    2    0    0  0.35527136788E-14  0.00000000000E+00  0.00000000000E+00  0.91188000000E+02  0.91188000000E+02 0.  0.
    9900012    2    3    3    0    0  0.23477304223E+02 -0.27827778253E+02 -0.54967041838E+01  0.54367043834E+02  0.39999908029E+02 0.  0.
         12    1    3    3    0    0 -0.23477304223E+02  0.27827778253E+02  0.54967041838E+01  0.36820956166E+02  0.00000000000E+00 0. -1.
         11    1    4    4    0    0  0.10002712242E+02 -0.34386390806E-01 -0.10722706827E+02  0.14663965240E+02  0.51100000000E-03 0. -1.
        -11    1    4    4    0    0  0.19243037114E+02 -0.12445859435E+02  0.39786809434E+01  0.23259918244E+02  0.51100000000E-03 0.  1.
        -12    1    4    4    0    0 -0.57684451325E+01 -0.15347532428E+02  0.12473216999E+01  0.16443160350E+02  0.00000000000E+00 0.  1.
</event>
<event>
 8    1  0.1261983E-006  0.9118800E+02  0.7816164E-02  0.1184000E+00
        -11   -1    0    0    0    0  0.00000000000E+00  0.00000000000E+00  0.45593999997E+02  0.45594000000E+02  0.51100000000E-03 0.  1.
         11   -1    0    0    0    0 -0.00000000000E+00 -0.00000000000E+00 -0.45593999997E+02  0.45594000000E+02  0.51100000000E-03 0. -1.
         23    2    1    2    0    0  0.00000000000E+00  0.00000000000E+00  0.00000000000E+00  0.91188000000E+02  0.91188000000E+02 0.  0.
    9900012    2    3    3    0    0 -0.16285203006E+02 -0.15325063882E+02 -0.29252596066E+02  0.54367084795E+02  0.40000001408E+02 0.  0.
        -12    1    3    3    0    0  0.16285203006E+02  0.15325063882E+02  0.29252596066E+02  0.36820915205E+02  0.00000000000E+00 0.  1.
         11    1    4    4    0    0 -0.37078304139E+01  0.45771328014E+01 -0.18537324648E+02  0.19450721231E+02  0.51100000000E-03 0. -1.
        -11    1    4    4    0    0 -0.19417760430E+02 -0.16924904421E+02 -0.79025478806E+01  0.26943497788E+02  0.51100000000E-03 0.  1.
        -12    1    4    4    0    0  0.68403878380E+01 -0.29772922616E+01 -0.28127235379E+01  0.79728657763E+01  0.00000000000E+00 0.  1.
</event>
<event>
 8    1  0.1261983E-006  0.9118800E+02  0.7816164E-02  0.1184000E+00
        -11   -1    0    0    0    0  0.00000000000E+00  0.00000000000E+00  0.45593999997E+02  0.45594000000E+02  0.51100000000E-03 0.  1.
         11   -1    0    0    0    0 -0.00000000000E+00 -0.00000000000E+00 -0.45593999997E+02  0.45594000000E+02  0.51100000000E-03 0. -1.
         23    2    1    2    0    0 -0.17763568394E-14  0.00000000000E+00 -0.71054273576E-14  0.91188000000E+02  0.91188000000E+02 0.  0.
    9900012    2    3    3    0    0  0.41330713757E+01  0.17037899417E+02  0.32379013430E+02  0.54367179718E+02  0.40000217802E+02 0.  0.
         12    1    3    3    0    0 -0.41330713757E+01 -0.17037899417E+02 -0.32379013430E+02  0.36820820282E+02  0.00000000000E+00 0. -1.
         11    1    4    4    0    0 -0.25767944830E+01  0.22365520150E+02  0.11525571582E+02  0.25292195673E+02  0.51100000000E-03 0. -1.
        -11    1    4    4    0    0 -0.84378575210E+00  0.33591975623E+01  0.16351541562E+02  0.16714337988E+02  0.51100000000E-03 0.  1.
         12    1    4    4    0    0  0.75536516108E+01 -0.86868182956E+01  0.45019002857E+01  0.12360646057E+02  0.00000000000E+00 0. -1.
</event>
<event>
 8    1  0.1261983E-006  0.9118800E+02  0.7816164E-02  0.1184000E+00
        -11   -1    0    0    0    0  0.00000000000E+00  0.00000000000E+00  0.45593999997E+02  0.45594000000E+02  0.51100000000E-03 0.  1.
         11   -1    0    0    0    0 -0.00000000000E+00 -0.00000000000E+00 -0.45593999997E+02  0.45594000000E+02  0.51100000000E-03 0. -1.
         23    2    1    2    0    0  0.00000000000E+00 -0.88817841970E-15  0.00000000000E+00  0.91188000000E+02  0.91188000000E+02 0.  0.
    9900012    2    3    3    0    0  0.31784105368E+02 -0.60583650855E+01  0.17574054878E+02  0.54367074613E+02  0.39999978194E+02 0.  0.
         12    1    3    3    0    0 -0.31784105368E+02  0.60583650855E+01 -0.17574054878E+02  0.36820925387E+02  0.00000000000E+00 0. -1.
         11    1    4    4    0    0 -0.40531430262E+01  0.10296210641E+02  0.73419398899E+01  0.13279457955E+02  0.51100000000E-03 0. -1.
        -11    1    4    4    0    0  0.25222961535E+02 -0.13265421297E+02  0.93697256899E+01  0.29999349169E+02  0.51100000000E-03 0.  1.
         12    1    4    4    0    0  0.10614286859E+02 -0.30891544291E+01  0.86238929816E+00  0.11088267489E+02  0.00000000000E+00 0. -1.
</event>
<event>
 8    1  0.1261983E-006  0.9118800E+02  0.7816164E-02  0.1184000E+00
        -11   -1    0    0    0    0  0.00000000000E+00  0.00000000000E+00  0.45593999997E+02  0.45594000000E+02  0.51100000000E-03 0. -1.
         11   -1    0    0    0    0 -0.00000000000E+00 -0.00000000000E+00 -0.45593999997E+02  0.45594000000E+02  0.51100000000E-03 0.  1.
         23    2    1    2    0    0  0.35527136788E-14  0.88817841970E-15  0.35527136788E-14  0.91188000000E+02  0.91188000000E+02 0.  0.
    9900012    2    3    3    0    0  0.28228606144E+02  0.58916265275E+01  0.22895732118E+02  0.54367081799E+02  0.39999994577E+02 0.  0.
        -12    1    3    3    0    0 -0.28228606144E+02 -0.58916265275E+01 -0.22895732118E+02  0.36820918201E+02  0.00000000000E+00 0.  1.
         11    1    4    4    0    0  0.15355769546E+02  0.36335882265E+01  0.11540086879E+02  0.19549328050E+02  0.51100000000E-03 0. -1.
        -11    1    4    4    0    0 -0.30829635823E+01 -0.63775910864E+01 -0.63162821743E+01  0.94907193237E+01  0.51100000000E-03 0.  1.
        -12    1    4    4    0    0  0.15955800180E+02  0.86356293874E+01  0.17671927413E+02  0.25327034425E+02  0.00000000000E+00 0.  1.
</event>
<event>
 8    1  0.1261983E-006  0.9118800E+02  0.7816164E-02  0.1184000E+00
        -11   -1    0    0    0    0  0.00000000000E+00  0.00000000000E+00  0.45593999997E+02  0.45594000000E+02  0.51100000000E-03 0.  1.
         11   -1    0    0    0    0 -0.00000000000E+00 -0.00000000000E+00 -0.45593999997E+02  0.45594000000E+02  0.51100000000E-03 0. -1.
         23    2    1    2    0    0  0.17763568394E-14  0.00000000000E+00  0.00000000000E+00  0.91188000000E+02  0.91188000000E+02 0.  0.
    9900012    2    3    3    0    0  0.10820205542E+02  0.34667660540E+02  0.60708912863E+01  0.54367092131E+02  0.40000018131E+02 0.  0.
        -12    1    3    3    0    0 -0.10820205542E+02 -0.34667660540E+02 -0.60708912863E+01  0.36820907869E+02  0.00000000000E+00 0.  1.
         11    1    4    4    0    0  0.57050542381E+01  0.31482675064E+02  0.75106220448E+01  0.32865117021E+02  0.51100000000E-03 0. -1.
        -11    1    4    4    0    0 -0.13306363194E+01  0.81755694673E+01  0.61868860522E+01  0.10338669567E+02  0.51100000000E-03 0.  1.
         12    1    4    4    0    0  0.64457876234E+01 -0.49905839917E+01 -0.76266168106E+01  0.11163305543E+02  0.00000000000E+00 0. -1.
</event>
<event>
 8    1  0.1261983E-006  0.9118800E+02  0.7816164E-02  0.1184000E+00
        -11   -1    0    0    0    0  0.00000000000E+00  0.00000000000E+00  0.45593999997E+02  0.45594000000E+02  0.51100000000E-03 0.  1.
         11   -1    0    0    0    0 -0.00000000000E+00 -0.00000000000E+00 -0.45593999997E+02  0.45594000000E+02  0.51100000000E-03 0. -1.
         23    2    1    2    0    0  0.35527136788E-14  0.00000000000E+00  0.00000000000E+00  0.91188000000E+02  0.91188000000E+02 0.  0.
    9900012    2    3    3    0    0 -0.19791043435E+02 -0.12520116978E+02 -0.28413791847E+02  0.54367050847E+02  0.39999924016E+02 0.  0.
        -12    1    3    3    0    0  0.19791043435E+02  0.12520116978E+02  0.28413791847E+02  0.36820949153E+02  0.00000000000E+00 0.  1.
         11    1    4    4    0    0 -0.19899449787E+01 -0.13769395943E+01 -0.79751574661E+01  0.83342054532E+01  0.51100000000E-03 0. -1.
        -11    1    4    4    0    0 -0.19067475543E+02 -0.80397760318E+01  0.42438228240E+01  0.21123840907E+02  0.51100000000E-03 0.  1.
        -12    1    4    4    0    0  0.12663770868E+01 -0.31034013519E+01 -0.24682457205E+02  0.24909004487E+02  0.00000000000E+00 0.  1.
</event>
<event>
 8    1  0.1261983E-006  0.9118800E+02  0.7816164E-02  0.1184000E+00
        -11   -1    0    0    0    0  0.00000000000E+00  0.00000000000E+00  0.45593999997E+02  0.45594000000E+02  0.51100000000E-03 0. -1.
         11   -1    0    0    0    0 -0.00000000000E+00 -0.00000000000E+00 -0.45593999997E+02  0.45594000000E+02  0.51100000000E-03 0.  1.
         23    2    1    2    0    0  0.00000000000E+00  0.44408920985E-15  0.00000000000E+00  0.91188000000E+02  0.91188000000E+02 0.  0.
    9900012    2    3    3    0    0 -0.29182679093E+02 -0.32194985931E+01 -0.22221292913E+02  0.54367084898E+02  0.40000001642E+02 0.  0.
         12    1    3    3    0    0  0.29182679093E+02  0.32194985931E+01  0.22221292913E+02  0.36820915102E+02  0.00000000000E+00 0. -1.
         11    1    4    4    0    0 -0.15093118023E+02 -0.13672980287E+02 -0.21374795739E+01  0.20477339202E+02  0.51100000000E-03 0. -1.
        -11    1    4    4    0    0 -0.10787522139E+02 -0.35803053316E+01 -0.14512400689E+02  0.18433637573E+02  0.51100000000E-03 0.  1.
        -12    1    4    4    0    0 -0.33020389311E+01  0.14033787026E+02 -0.55714126505E+01  0.15456108123E+02  0.00000000000E+00 0.  1.
</event>
<event>
 8    1  0.1261983E-006  0.9118800E+02  0.7816164E-02  0.1184000E+00
        -11   -1    0    0    0    0  0.00000000000E+00  0.00000000000E+00  0.45593999997E+02  0.45594000000E+02  0.51100000000E-03 0.  1.
         11   -1    0    0    0    0 -0.00000000000E+00 -0.00000000000E+00 -0.45593999997E+02  0.45594000000E+02  0.51100000000E-03 0. -1.
         23    2    1    2    0    0 -0.35527136788E-14  0.00000000000E+00  0.00000000000E+00  0.91188000000E+02  0.91188000000E+02 0.  0.
    9900012    2    3    3    0    0  0.20368461130E+02 -0.24605018966E+02  0.18316648516E+02  0.54367071440E+02  0.39999970962E+02 0.  0.
         12    1    3    3    0    0 -0.20368461130E+02  0.24605018966E+02 -0.18316648516E+02  0.36820928560E+02  0.00000000000E+00 0. -1.
         11    1    4    4    0    0  0.45618271128E+01 -0.36383155373E+01 -0.76611274810E+01  0.96301859327E+01  0.51100000000E-03 0. -1.
        -11    1    4    4    0    0 -0.88888753737E+00  0.39122440164E+01  0.10013931459E+02  0.10787705865E+02  0.51100000000E-03 0.  1.
        -12    1    4    4    0    0  0.16695521555E+02 -0.24878947445E+02  0.15963844538E+02  0.33949179643E+02  0.00000000000E+00 0.  1.
</event>
<event>
 8    1  0.1261983E-006  0.9118800E+02  0.7816164E-02  0.1184000E+00
        -11   -1    0    0    0    0  0.00000000000E+00  0.00000000000E+00  0.45593999997E+02  0.45594000000E+02  0.51100000000E-03 0.  1.
         11   -1    0    0    0    0 -0.00000000000E+00 -0.00000000000E+00 -0.45593999997E+02  0.45594000000E+02  0.51100000000E-03 0. -1.
         23    2    1    2    0    0  0.35527136788E-14  0.00000000000E+00  0.00000000000E+00  0.91188000000E+02  0.91188000000E+02 0.  0.
    9900012    2    3    3    0    0 -0.18946812703E+02  0.29999947622E+02  0.98386327979E+01  0.54367119181E+02  0.40000079797E+02 0.  0.
        -12    1    3    3    0    0  0.18946812703E+02 -0.29999947622E+02 -0.98386327979E+01  0.36820880819E+02  0.00000000000E+00 0.  1.
         11    1    4    4    0    0 -0.20946509431E+02  0.18622996259E+02 -0.52225272453E+01  0.28510472429E+02  0.51100000000E-03 0. -1.
        -11    1    4    4    0    0  0.65075494569E+01  0.99783383059E+01  0.21440319853E+01  0.12104226894E+02  0.51100000000E-03 0.  1.
        -12    1    4    4    0    0 -0.45078527286E+01  0.13986130573E+01  0.12917128058E+02  0.13752419859E+02  0.00000000000E+00 0.  1.
</event>
<event>
 8    1  0.1261983E-006  0.9118800E+02  0.7816164E-02  0.1184000E+00
        -11   -1    0    0    0    0  0.00000000000E+00  0.00000000000E+00  0.45593999997E+02  0.45594000000E+02  0.51100000000E-03 0. -1.
         11   -1    0    0    0    0 -0.00000000000E+00 -0.00000000000E+00 -0.45593999997E+02  0.45594000000E+02  0.51100000000E-03 0.  1.
         23    2    1    2    0    0 -0.48051840285E-15  0.44408920985E-15  0.00000000000E+00  0.91188000000E+02  0.91188000000E+02 0.  0.
    9900012    2    3    3    0    0 -0.37334244859E-02 -0.19235652303E+01  0.36770617149E+02  0.54367103723E+02  0.40000044556E+02 0.  0.
        -12    1    3    3    0    0  0.37334244859E-02  0.19235652303E+01 -0.36770617149E+02  0.36820896277E+02  0.00000000000E+00 0.  1.
         11    1    4    4    0    0 -0.72080798202E+01 -0.22893669437E+00  0.78981157288E+01  0.10695282092E+02  0.51100000000E-03 0. -1.
        -11    1    4    4    0    0 -0.25220083417E+01  0.54408134998E+01  0.30867763745E+02  0.31444901280E+02  0.51100000000E-03 0.  1.
        -12    1    4    4    0    0  0.97263547375E+01 -0.71354420357E+01 -0.19952623243E+01  0.12226920351E+02  0.00000000000E+00 0.  1.
</event>
<event>
 8    1  0.1261983E-006  0.9118800E+02  0.7816164E-02  0.1184000E+00
        -11   -1    0    0    0    0  0.00000000000E+00  0.00000000000E+00  0.45593999997E+02  0.45594000000E+02  0.51100000000E-03 0.  1.
         11   -1    0    0    0    0 -0.00000000000E+00 -0.00000000000E+00 -0.45593999997E+02  0.45594000000E+02  0.51100000000E-03 0. -1.
         23    2    1    2    0    0  0.00000000000E+00 -0.44408920985E-15 -0.35527136788E-14  0.91188000000E+02  0.91188000000E+02 0.  0.
    9900012    2    3    3    0    0  0.19062467165E+02  0.39342964872E+01 -0.31255527028E+02  0.54367295050E+02  0.40000480722E+02 0.  0.
        -12    1    3    3    0    0 -0.19062467165E+02 -0.39342964872E+01  0.31255527028E+02  0.36820704950E+02  0.00000000000E+00 0.  1.
         11    1    4    4    0    0  0.89244522497E+01 -0.51406386064E+01 -0.14570171301E+01  0.10401678346E+02  0.51100000000E-03 0. -1.
        -11    1    4    4    0    0 -0.69469047612E+01 -0.52193322352E+01 -0.31725958066E+01  0.92502042764E+01  0.51100000000E-03 0.  1.
        -12    1    4    4    0    0  0.17084919676E+02  0.14294267329E+02 -0.26625914091E+02  0.34715412427E+02  0.00000000000E+00 0.  1.
</event>
<event>
 8    1  0.1261983E-006  0.9118800E+02  0.7816164E-02  0.1184000E+00
        -11   -1    0    0    0    0  0.00000000000E+00  0.00000000000E+00  0.45593999997E+02  0.45594000000E+02  0.51100000000E-03 0.  1.
         11   -1    0    0    0    0 -0.00000000000E+00 -0.00000000000E+00 -0.45593999997E+02  0.45594000000E+02  0.51100000000E-03 0. -1.
         23    2    1    2    0    0  0.00000000000E+00  0.00000000000E+00 -0.22204460493E-15  0.91188000000E+02  0.91188000000E+02 0.  0.
    9900012    2    3    3    0    0  0.21160237693E+02 -0.30087899626E+02 -0.16558948895E+01  0.54367090845E+02  0.40000015198E+02 0.  0.
        -12    1    3    3    0    0 -0.21160237693E+02  0.30087899626E+02  0.16558948895E+01  0.36820909155E+02  0.00000000000E+00 0.  1.
         11    1    4    4    0    0  0.61523961469E+01 -0.66344668480E+01  0.75116439609E+01  0.11759801187E+02  0.51100000000E-03 0. -1.
        -11    1    4    4    0    0  0.76823396181E+01  0.60838454463E+01  0.23349566823E+01  0.10073903930E+02  0.51100000000E-03 0.  1.
         12    1    4    4    0    0  0.73255019283E+01 -0.29537278224E+02 -0.11502495533E+02  0.32533385727E+02  0.00000000000E+00 0. -1.
</event>
<event>
 8    1  0.1261983E-006  0.9118800E+02  0.7816164E-02  0.1184000E+00
        -11   -1    0    0    0    0  0.00000000000E+00  0.00000000000E+00  0.45593999997E+02  0.45594000000E+02  0.51100000000E-03 0.  1.
         11   -1    0    0    0    0 -0.00000000000E+00 -0.00000000000E+00 -0.45593999997E+02  0.45594000000E+02  0.51100000000E-03 0. -1.
         23    2    1    2    0    0  0.00000000000E+00 -0.17763568394E-14  0.00000000000E+00  0.91188000000E+02  0.91188000000E+02 0.  0.
    9900012    2    3    3    0    0 -0.34650601208E+02  0.11189721141E+02  0.54689037383E+01  0.54367042226E+02  0.39999904361E+02 0.  0.
        -12    1    3    3    0    0  0.34650601208E+02 -0.11189721141E+02 -0.54689037383E+01  0.36820957774E+02  0.00000000000E+00 0.  1.
         11    1    4    4    0    0 -0.43691530821E+01 -0.69370980009E+01  0.10748220684E+01  0.82684986587E+01  0.51100000000E-03 0. -1.
        -11    1    4    4    0    0 -0.23886193339E+01 -0.36834255221E+01  0.93657588876E+01  0.10343624399E+02  0.51100000000E-03 0.  1.
         12    1    4    4    0    0 -0.27892828793E+02  0.21810244664E+02 -0.49716772177E+01  0.35754919168E+02  0.00000000000E+00 0. -1.
</event>
<event>
 8    1  0.1261983E-006  0.9118800E+02  0.7816164E-02  0.1184000E+00
        -11   -1    0    0    0    0  0.00000000000E+00  0.00000000000E+00  0.45593999997E+02  0.45594000000E+02  0.51100000000E-03 0.  1.
         11   -1    0    0    0    0 -0.00000000000E+00 -0.00000000000E+00 -0.45593999997E+02  0.45594000000E+02  0.51100000000E-03 0. -1.
         23    2    1    2    0    0  0.00000000000E+00  0.00000000000E+00  0.71054273576E-14  0.91188000000E+02  0.91188000000E+02 0.  0.
    9900012    2    3    3    0    0 -0.58041975036E+01  0.11038968738E+02  0.34644390626E+02  0.54367063818E+02  0.39999953586E+02 0.  0.
         12    1    3    3    0    0  0.58041975036E+01 -0.11038968738E+02 -0.34644390626E+02  0.36820936182E+02  0.00000000000E+00 0. -1.
         11    1    4    4    0    0  0.48558613433E+01  0.10545997595E+02 -0.12145965284E+01  0.11673589836E+02  0.51100000000E-03 0. -1.
        -11    1    4    4    0    0 -0.14861091435E+02  0.56692119046E+01  0.29313720072E+02  0.33350954813E+02  0.51100000000E-03 0.  1.
        -12    1    4    4    0    0  0.42010325884E+01 -0.51762407622E+01  0.65452670830E+01  0.93425191691E+01  0.00000000000E+00 0.  1.
</event>
<event>
 8    1  0.1261983E-006  0.9118800E+02  0.7816164E-02  0.1184000E+00
        -11   -1    0    0    0    0  0.00000000000E+00  0.00000000000E+00  0.45593999997E+02  0.45594000000E+02  0.51100000000E-03 0. -1.
         11   -1    0    0    0    0 -0.00000000000E+00 -0.00000000000E+00 -0.45593999997E+02  0.45594000000E+02  0.51100000000E-03 0.  1.
         23    2    1    2    0    0  0.00000000000E+00  0.00000000000E+00 -0.88817841970E-15  0.91188000000E+02  0.91188000000E+02 0.  0.
    9900012    2    3    3    0    0  0.17679898885E+02  0.31998861601E+02  0.43902504274E+01  0.54367078404E+02  0.39999986838E+02 0.  0.
        -12    1    3    3    0    0 -0.17679898885E+02 -0.31998861601E+02 -0.43902504274E+01  0.36820921596E+02  0.00000000000E+00 0.  1.
         11    1    4    4    0    0  0.14687732597E+02  0.10968604728E+02  0.61092857305E+01  0.19322607250E+02  0.51100000000E-03 0. -1.
        -11    1    4    4    0    0  0.66246900256E+01  0.60096430293E+01  0.11596733293E+02  0.14645359354E+02  0.51100000000E-03 0.  1.
        -12    1    4    4    0    0 -0.36325237375E+01  0.15020613843E+02 -0.13315768596E+02  0.20399111800E+02  0.00000000000E+00 0.  1.
</event>
<event>
 8    1  0.1261983E-006  0.9118800E+02  0.7816164E-02  0.1184000E+00
        -11   -1    0    0    0    0  0.00000000000E+00  0.00000000000E+00  0.45593999997E+02  0.45594000000E+02  0.51100000000E-03 0.  1.
         11   -1    0    0    0    0 -0.00000000000E+00 -0.00000000000E+00 -0.45593999997E+02  0.45594000000E+02  0.51100000000E-03 0. -1.
         23    2    1    2    0    0  0.00000000000E+00  0.00000000000E+00  0.00000000000E+00  0.91188000000E+02  0.91188000000E+02 0.  0.
    9900012    2    3    3    0    0 -0.24178521649E+02  0.57300257006E+01 -0.27172540857E+02  0.54367067362E+02  0.39999961666E+02 0.  0.
        -12    1    3    3    0    0  0.24178521649E+02 -0.57300257006E+01  0.27172540857E+02  0.36820932638E+02  0.00000000000E+00 0.  1.
         11    1    4    4    0    0  0.72928486994E+01  0.33295624639E+01 -0.27595592510E+01  0.84786081330E+01  0.51100000000E-03 0. -1.
        -11    1    4    4    0    0 -0.20317877418E+02  0.21365026691E+01 -0.15986864019E+01  0.20492354304E+02  0.51100000000E-03 0.  1.
        -12    1    4    4    0    0 -0.11153492930E+02  0.26396056759E+00 -0.22814295204E+02  0.25396104926E+02  0.00000000000E+00 0.  1.
</event>
<event>
 8    1  0.1261983E-006  0.9118800E+02  0.7816164E-02  0.1184000E+00
        -11   -1    0    0    0    0  0.00000000000E+00  0.00000000000E+00  0.45593999997E+02  0.45594000000E+02  0.51100000000E-03 0.  1.
         11   -1    0    0    0    0 -0.00000000000E+00 -0.00000000000E+00 -0.45593999997E+02  0.45594000000E+02  0.51100000000E-03 0. -1.
         23    2    1    2    0    0 -0.35527136788E-14 -0.35527136788E-14  0.00000000000E+00  0.91188000000E+02  0.91188000000E+02 0.  0.
    9900012    2    3    3    0    0 -0.22874365418E+02  0.26790504182E+02 -0.10715047655E+02  0.54367082659E+02  0.39999996538E+02 0.  0.
        -12    1    3    3    0    0  0.22874365418E+02 -0.26790504182E+02  0.10715047655E+02  0.36820917341E+02  0.00000000000E+00 0.  1.
         11    1    4    4    0    0 -0.15391524950E+02 -0.27375110564E+01 -0.41798976925E+01  0.16182229514E+02  0.51100000000E-03 0.  1.
        -11    1    4    4    0    0 -0.72863863895E+00 -0.36120986337E+01  0.23566579804E+00  0.36923853314E+01  0.51100000000E-03 0. -1.
        -12    1    4    4    0    0 -0.67542018286E+01  0.33140113872E+02 -0.67708157606E+01  0.34492467813E+02  0.00000000000E+00 0.  1.
</event>
<event>
 8    1  0.1261983E-006  0.9118800E+02  0.7816164E-02  0.1184000E+00
        -11   -1    0    0    0    0  0.00000000000E+00  0.00000000000E+00  0.45593999997E+02  0.45594000000E+02  0.51100000000E-03 0.  1.
         11   -1    0    0    0    0 -0.00000000000E+00 -0.00000000000E+00 -0.45593999997E+02  0.45594000000E+02  0.51100000000E-03 0. -1.
         23    2    1    2    0    0  0.00000000000E+00  0.53290705182E-14 -0.35527136788E-14  0.91188000000E+02  0.91188000000E+02 0.  0.
    9900012    2    3    3    0    0  0.27524281783E+02  0.15536499329E+02  0.18889365613E+02  0.54367122331E+02  0.40000086977E+02 0.  0.
         12    1    3    3    0    0 -0.27524281783E+02 -0.15536499329E+02 -0.18889365613E+02  0.36820877669E+02  0.00000000000E+00 0. -1.
         11    1    4    4    0    0  0.92644711754E+01 -0.77507907556E+01 -0.25617569894E+01  0.12347784523E+02  0.51100000000E-03 0. -1.
        -11    1    4    4    0    0  0.10877890122E+02 -0.82780395966E+00  0.62574789426E+01  0.12576557394E+02  0.51100000000E-03 0.  1.
        -12    1    4    4    0    0  0.73819204852E+01  0.24115094044E+02  0.15193643660E+02  0.29442780414E+02  0.00000000000E+00 0.  1.
</event>
<event>
 8    1  0.1261983E-006  0.9118800E+02  0.7816164E-02  0.1184000E+00
        -11   -1    0    0    0    0  0.00000000000E+00  0.00000000000E+00  0.45593999997E+02  0.45594000000E+02  0.51100000000E-03 0.  1.
         11   -1    0    0    0    0 -0.00000000000E+00 -0.00000000000E+00 -0.45593999997E+02  0.45594000000E+02  0.51100000000E-03 0. -1.
         23    2    1    2    0    0  0.00000000000E+00 -0.35527136788E-14 -0.35527136788E-14  0.91188000000E+02  0.91188000000E+02 0.  0.
    9900012    2    3    3    0    0  0.26173541976E+02  0.24454070993E+02  0.85282648445E+01  0.54366984411E+02  0.39999772561E+02 0.  0.
         12    1    3    3    0    0 -0.26173541976E+02 -0.24454070993E+02 -0.85282648445E+01  0.36821015589E+02  0.00000000000E+00 0. -1.
         11    1    4    4    0    0  0.42437381917E+01  0.12176775177E+02 -0.13217943656E+02  0.18466109561E+02  0.51100000000E-03 0. -1.
        -11    1    4    4    0    0  0.10387995279E+02  0.92941494068E+01  0.39623298383E+01  0.14491090957E+02  0.51100000000E-03 0.  1.
         12    1    4    4    0    0  0.11541808506E+02  0.29831464091E+01  0.17783878662E+02  0.21409783893E+02  0.00000000000E+00 0. -1.
</event>
<event>
 8    1  0.1261983E-006  0.9118800E+02  0.7816164E-02  0.1184000E+00
        -11   -1    0    0    0    0  0.00000000000E+00  0.00000000000E+00  0.45593999997E+02  0.45594000000E+02  0.51100000000E-03 0.  1.
         11   -1    0    0    0    0 -0.00000000000E+00 -0.00000000000E+00 -0.45593999997E+02  0.45594000000E+02  0.51100000000E-03 0. -1.
         23    2    1    2    0    0  0.71054273576E-14  0.00000000000E+00  0.17763568394E-14  0.91188000000E+02  0.91188000000E+02 0.  0.
    9900012    2    3    3    0    0 -0.30121325800E+02  0.14589054031E+02 -0.15350469627E+02  0.54367194967E+02  0.40000252566E+02 0.  0.
        -12    1    3    3    0    0  0.30121325800E+02 -0.14589054031E+02  0.15350469627E+02  0.36820805033E+02  0.00000000000E+00 0.  1.
         11    1    4    4    0    0 -0.33433709011E+02  0.70933657340E+01 -0.21271915444E+02  0.40256963653E+02  0.51100000000E-03 0. -1.
        -11    1    4    4    0    0 -0.13734718708E+01  0.38781872464E+01  0.69744832023E+01  0.80975414477E+01  0.51100000000E-03 0.  1.
         12    1    4    4    0    0  0.46858550814E+01  0.36175010507E+01 -0.10530373858E+01  0.60126898666E+01  0.00000000000E+00 0. -1.
</event>
<event>
 8    1  0.1261983E-006  0.9118800E+02  0.7816164E-02  0.1184000E+00
        -11   -1    0    0    0    0  0.00000000000E+00  0.00000000000E+00  0.45593999997E+02  0.45594000000E+02  0.51100000000E-03 0.  1.
         11   -1    0    0    0    0 -0.00000000000E+00 -0.00000000000E+00 -0.45593999997E+02  0.45594000000E+02  0.51100000000E-03 0. -1.
         23    2    1    2    0    0  0.22204460493E-15  0.88817841970E-15 -0.71054273576E-14  0.91188000000E+02  0.91188000000E+02 0.  0.
    9900012    2    3    3    0    0 -0.16677964096E+01 -0.69834685676E+01  0.36114097751E+02  0.54367103291E+02  0.40000043572E+02 0.  0.
         12    1    3    3    0    0  0.16677964096E+01  0.69834685676E+01 -0.36114097751E+02  0.36820896709E+02  0.00000000000E+00 0. -1.
         11    1    4    4    0    0 -0.63504948636E+01  0.15175803858E+02  0.18806328423E+02  0.24986232144E+02  0.51100000000E-03 0. -1.
        -11    1    4    4    0    0  0.24170963533E+00 -0.81306248235E+01  0.10179933134E+02  0.13030599466E+02  0.51100000000E-03 0.  1.
         12    1    4    4    0    0  0.44409888186E+01 -0.14028647602E+02  0.71278361931E+01  0.16350271680E+02  0.00000000000E+00 0. -1.
</event>
<event>
 8    1  0.1261983E-006  0.9118800E+02  0.7816164E-02  0.1184000E+00
        -11   -1    0    0    0    0  0.00000000000E+00  0.00000000000E+00  0.45593999997E+02  0.45594000000E+02  0.51100000000E-03 0.  1.
         11   -1    0    0    0    0 -0.00000000000E+00 -0.00000000000E+00 -0.45593999997E+02  0.45594000000E+02  0.51100000000E-03 0. -1.
         23    2    1    2    0    0 -0.71054273576E-14 -0.35527136788E-14  0.00000000000E+00  0.91188000000E+02  0.91188000000E+02 0.  0.
    9900012    2    3    3    0    0  0.25368169494E+02  0.25141680274E+02  0.89522239187E+01  0.54366940488E+02  0.39999672430E+02 0.  0.
         12    1    3    3    0    0 -0.25368169494E+02 -0.25141680274E+02 -0.89522239187E+01  0.36821059512E+02  0.00000000000E+00 0. -1.
         11    1    4    4    0    0  0.19516809657E+02  0.20344519624E+02 -0.10852942622E+02  0.30209132754E+02  0.51100000000E-03 0. -1.
        -11    1    4    4    0    0  0.93579963204E+01  0.37796685386E+01  0.13270664396E+02  0.16672388046E+02  0.51100000000E-03 0.  1.
        -12    1    4    4    0    0 -0.35066364839E+01  0.10174921112E+01  0.65345021444E+01  0.74854196878E+01  0.00000000000E+00 0.  1.
</event>
<event>
 8    1  0.1261983E-006  0.9118800E+02  0.7816164E-02  0.1184000E+00
        -11   -1    0    0    0    0  0.00000000000E+00  0.00000000000E+00  0.45593999997E+02  0.45594000000E+02  0.51100000000E-03 0. -1.
         11   -1    0    0    0    0 -0.00000000000E+00 -0.00000000000E+00 -0.45593999997E+02  0.45594000000E+02  0.51100000000E-03 0.  1.
         23    2    1    2    0    0  0.00000000000E+00  0.00000000000E+00  0.00000000000E+00  0.91188000000E+02  0.91188000000E+02 0.  0.
    9900012    2    3    3    0    0 -0.31258495575E+02  0.27177122410E+01  0.19269133886E+02  0.54367095256E+02  0.40000025254E+02 0.  0.
        -12    1    3    3    0    0  0.31258495575E+02 -0.27177122410E+01 -0.19269133886E+02  0.36820904744E+02  0.00000000000E+00 0.  1.
         11    1    4    4    0    0 -0.97599949599E+01  0.13253233811E+02  0.48820709893E+01  0.17168002955E+02  0.51100000000E-03 0. -1.
        -11    1    4    4    0    0 -0.13580539601E+02 -0.11343327189E+02  0.20560612682E+02  0.27126387922E+02  0.51100000000E-03 0.  1.
         12    1    4    4    0    0 -0.79179610144E+01  0.80780561899E+00 -0.61735497851E+01  0.10072704378E+02  0.00000000000E+00 0. -1.
</event>
<event>
 8    1  0.1261983E-006  0.9118800E+02  0.7816164E-02  0.1184000E+00
        -11   -1    0    0    0    0  0.00000000000E+00  0.00000000000E+00  0.45593999997E+02  0.45594000000E+02  0.51100000000E-03 0.  1.
         11   -1    0    0    0    0 -0.00000000000E+00 -0.00000000000E+00 -0.45593999997E+02  0.45594000000E+02  0.51100000000E-03 0. -1.
         23    2    1    2    0    0  0.17763568394E-14 -0.35527136788E-14  0.00000000000E+00  0.91188000000E+02  0.91188000000E+02 0.  0.
    9900012    2    3    3    0    0 -0.98835502633E+01 -0.23993600013E+02 -0.26122854214E+02  0.54367069544E+02  0.39999966638E+02 0.  0.
        -12    1    3    3    0    0  0.98835502633E+01  0.23993600013E+02  0.26122854214E+02  0.36820930456E+02  0.00000000000E+00 0.  1.
         11    1    4    4    0    0 -0.83839486972E+01 -0.25687368811E+01 -0.67541681404E+01  0.11068323832E+02  0.51100000000E-03 0. -1.
        -11    1    4    4    0    0  0.77539981149E+01  0.35718245053E+01  0.24182022844E+01  0.88729994710E+01  0.51100000000E-03 0.  1.
        -12    1    4    4    0    0 -0.92535996809E+01 -0.24996687637E+02 -0.21786888358E+02  0.34425746240E+02  0.00000000000E+00 0.  1.
</event>
<event>
 8    1  0.1261983E-006  0.9118800E+02  0.7816164E-02  0.1184000E+00
        -11   -1    0    0    0    0  0.00000000000E+00  0.00000000000E+00  0.45593999997E+02  0.45594000000E+02  0.51100000000E-03 0. -1.
         11   -1    0    0    0    0 -0.00000000000E+00 -0.00000000000E+00 -0.45593999997E+02  0.45594000000E+02  0.51100000000E-03 0.  1.
         23    2    1    2    0    0 -0.55511151231E-15 -0.17763568394E-14  0.00000000000E+00  0.91188000000E+02  0.91188000000E+02 0.  0.
    9900012    2    3    3    0    0  0.55423832877E+00 -0.23404310657E+01  0.36742345230E+02  0.54367017793E+02  0.39999848662E+02 0.  0.
        -12    1    3    3    0    0 -0.55423832877E+00  0.23404310657E+01 -0.36742345230E+02  0.36820982207E+02  0.00000000000E+00 0.  1.
         11    1    4    4    0    0 -0.35532446907E-01  0.38387129746E+01  0.13105048181E+02  0.13655741208E+02  0.51100000000E-03 0. -1.
        -11    1    4    4    0    0 -0.54767809725E+01  0.11051994617E+02  0.17559766080E+02  0.21458963160E+02  0.51100000000E-03 0.  1.
        -12    1    4    4    0    0  0.60665517481E+01 -0.17231138658E+02  0.60775309690E+01  0.19252313425E+02  0.00000000000E+00 0.  1.
</event>
<event>
 8    1  0.1261983E-006  0.9118800E+02  0.7816164E-02  0.1184000E+00
        -11   -1    0    0    0    0  0.00000000000E+00  0.00000000000E+00  0.45593999997E+02  0.45594000000E+02  0.51100000000E-03 0. -1.
         11   -1    0    0    0    0 -0.00000000000E+00 -0.00000000000E+00 -0.45593999997E+02  0.45594000000E+02  0.51100000000E-03 0.  1.
         23    2    1    2    0    0 -0.35527136788E-14 -0.88817841970E-15  0.00000000000E+00  0.91188000000E+02  0.91188000000E+02 0.  0.
    9900012    2    3    3    0    0  0.26653994265E+02  0.52606594203E+01 -0.24852956091E+02  0.54367090529E+02  0.40000014478E+02 0.  0.
         12    1    3    3    0    0 -0.26653994265E+02 -0.52606594203E+01  0.24852956091E+02  0.36820909471E+02  0.00000000000E+00 0. -1.
         11    1    4    4    0    0  0.24998106049E+02  0.57081665644E+01 -0.11578341416E+01  0.25667665491E+02  0.51100000000E-03 0. -1.
        -11    1    4    4    0    0  0.82192350643E+01 -0.92024666070E+00 -0.18669602823E+02  0.20419518819E+02  0.51100000000E-03 0.  1.
        -12    1    4    4    0    0 -0.65633468489E+01  0.47273951666E+00 -0.50255191270E+01  0.82799062196E+01  0.00000000000E+00 0.  1.
</event>
<event>
 8    1  0.1261983E-006  0.9118800E+02  0.7816164E-02  0.1184000E+00
        -11   -1    0    0    0    0  0.00000000000E+00  0.00000000000E+00  0.45593999997E+02  0.45594000000E+02  0.51100000000E-03 0.  1.
         11   -1    0    0    0    0 -0.00000000000E+00 -0.00000000000E+00 -0.45593999997E+02  0.45594000000E+02  0.51100000000E-03 0. -1.
         23    2    1    2    0    0 -0.35527136788E-14 -0.36637359813E-14  0.00000000000E+00  0.91188000000E+02  0.91188000000E+02 0.  0.
    9900012    2    3    3    0    0  0.16789838166E+02  0.90820233279E+00  0.32757548088E+02  0.54367075868E+02  0.39999981057E+02 0.  0.
         12    1    3    3    0    0 -0.16789838166E+02 -0.90820233279E+00 -0.32757548088E+02  0.36820924132E+02  0.00000000000E+00 0. -1.
         11    1    4    4    0    0  0.95173069144E+01 -0.16419740601E+02  0.12652206165E+02  0.22809325580E+02  0.51100000000E-03 0. -1.
        -11    1    4    4    0    0  0.11322545573E+02  0.98112732167E+01  0.87485062648E+01  0.17349279020E+02  0.51100000000E-03 0.  1.
         12    1    4    4    0    0 -0.40500143208E+01  0.75166697166E+01  0.11356835658E+02  0.14208471269E+02  0.00000000000E+00 0. -1.
</event>
<event>
 8    1  0.1261983E-006  0.9118800E+02  0.7816164E-02  0.1184000E+00
        -11   -1    0    0    0    0  0.00000000000E+00  0.00000000000E+00  0.45593999997E+02  0.45594000000E+02  0.51100000000E-03 0. -1.
         11   -1    0    0    0    0 -0.00000000000E+00 -0.00000000000E+00 -0.45593999997E+02  0.45594000000E+02  0.51100000000E-03 0.  1.
         23    2    1    2    0    0  0.00000000000E+00  0.17763568394E-14  0.00000000000E+00  0.91188000000E+02  0.91188000000E+02 0.  0.
    9900012    2    3    3    0    0 -0.19472919006E+02  0.12199395850E+02 -0.28770798840E+02  0.54367099691E+02  0.40000035365E+02 0.  0.
         12    1    3    3    0    0  0.19472919006E+02 -0.12199395850E+02  0.28770798840E+02  0.36820900309E+02  0.00000000000E+00 0. -1.
         11    1    4    4    0    0 -0.14182909643E+02  0.16708453149E+01  0.19085676781E+01  0.14407958941E+02  0.51100000000E-03 0. -1.
        -11    1    4    4    0    0 -0.75147121554E+01 -0.51672770860E+01 -0.15656181187E+02  0.18118710243E+02  0.51100000000E-03 0.  1.
        -12    1    4    4    0    0  0.22247027926E+01  0.15695827621E+02 -0.15023185331E+02  0.21840430507E+02  0.00000000000E+00 0.  1.
</event>
<event>
 8    1  0.1261983E-006  0.9118800E+02  0.7816164E-02  0.1184000E+00
        -11   -1    0    0    0    0  0.00000000000E+00  0.00000000000E+00  0.45593999997E+02  0.45594000000E+02  0.51100000000E-03 0.  1.
         11   -1    0    0    0    0 -0.00000000000E+00 -0.00000000000E+00 -0.45593999997E+02  0.45594000000E+02  0.51100000000E-03 0. -1.
         23    2    1    2    0    0  0.00000000000E+00  0.88817841970E-15  0.00000000000E+00  0.91188000000E+02  0.91188000000E+02 0.  0.
    9900012    2    3    3    0    0  0.91803032720E+01 -0.72599219734E+01  0.34911252130E+02  0.54367082569E+02  0.39999996332E+02 0.  0.
         12    1    3    3    0    0 -0.91803032720E+01  0.72599219734E+01 -0.34911252130E+02  0.36820917431E+02  0.00000000000E+00 0. -1.
         11    1    4    4    0    0 -0.16372425283E+01 -0.60130720708E+01  0.39768663286E+01  0.73927711233E+01  0.51100000000E-03 0. -1.
        -11    1    4    4    0    0  0.18440568266E+02 -0.11214690412E+02  0.25194908994E+02  0.33175401707E+02  0.51100000000E-03 0.  1.
        -12    1    4    4    0    0 -0.76230224654E+01  0.99678405093E+01  0.57394768075E+01  0.13798909738E+02  0.00000000000E+00 0.  1.
</event>
<event>
 8    1  0.1261983E-006  0.9118800E+02  0.7816164E-02  0.1184000E+00
        -11   -1    0    0    0    0  0.00000000000E+00  0.00000000000E+00  0.45593999997E+02  0.45594000000E+02  0.51100000000E-03 0. -1.
         11   -1    0    0    0    0 -0.00000000000E+00 -0.00000000000E+00 -0.45593999997E+02  0.45594000000E+02  0.51100000000E-03 0.  1.
         23    2    1    2    0    0  0.00000000000E+00  0.00000000000E+00  0.00000000000E+00  0.91188000000E+02  0.91188000000E+02 0.  0.
    9900012    2    3    3    0    0  0.15959161835E+02  0.27110313029E+02 -0.19134150318E+02  0.54367087092E+02  0.40000006643E+02 0.  0.
         12    1    3    3    0    0 -0.15959161835E+02 -0.27110313029E+02  0.19134150318E+02  0.36820912908E+02  0.00000000000E+00 0. -1.
         11    1    4    4    0    0  0.26010838082E+01  0.65061228763E+01  0.50468169545E+01  0.86351394599E+01  0.51100000000E-03 0. -1.
        -11    1    4    4    0    0  0.17358370299E+02  0.24771970573E+02 -0.12556233759E+02  0.32750916811E+02  0.51100000000E-03 0.  1.
         12    1    4    4    0    0 -0.40002922730E+01 -0.41677804201E+01 -0.11624733514E+02  0.12981030821E+02  0.00000000000E+00 0. -1.
</event>
<event>
 8    1  0.1261983E-006  0.9118800E+02  0.7816164E-02  0.1184000E+00
        -11   -1    0    0    0    0  0.00000000000E+00  0.00000000000E+00  0.45593999997E+02  0.45594000000E+02  0.51100000000E-03 0. -1.
         11   -1    0    0    0    0 -0.00000000000E+00 -0.00000000000E+00 -0.45593999997E+02  0.45594000000E+02  0.51100000000E-03 0.  1.
         23    2    1    2    0    0  0.00000000000E+00  0.35527136788E-14  0.10658141036E-13  0.91188000000E+02  0.91188000000E+02 0.  0.
    9900012    2    3    3    0    0  0.85362798186E+01 -0.21180749134E+02 -0.28884042463E+02  0.54367080456E+02  0.39999991516E+02 0.  0.
         12    1    3    3    0    0 -0.85362798186E+01  0.21180749134E+02  0.28884042463E+02  0.36820919544E+02  0.00000000000E+00 0. -1.
         11    1    4    4    0    0  0.37495708216E+00  0.53536015770E+00  0.33876306609E+01  0.34501079792E+01  0.51100000000E-03 0. -1.
        -11    1    4    4    0    0 -0.16624036128E+01 -0.27773708062E+02 -0.22082314645E+02  0.35521416999E+02  0.51100000000E-03 0.  1.
         12    1    4    4    0    0  0.98237263492E+01  0.60575987703E+01 -0.10189358480E+02  0.15395555478E+02  0.00000000000E+00 0. -1.
</event>
<event>
 8    1  0.1261983E-006  0.9118800E+02  0.7816164E-02  0.1184000E+00
        -11   -1    0    0    0    0  0.00000000000E+00  0.00000000000E+00  0.45593999997E+02  0.45594000000E+02  0.51100000000E-03 0.  1.
         11   -1    0    0    0    0 -0.00000000000E+00 -0.00000000000E+00 -0.45593999997E+02  0.45594000000E+02  0.51100000000E-03 0. -1.
         23    2    1    2    0    0 -0.44408920985E-15  0.00000000000E+00 -0.35527136788E-14  0.91188000000E+02  0.91188000000E+02 0.  0.
    9900012    2    3    3    0    0 -0.30756595240E+01 -0.19192960404E+02  0.31272237897E+02  0.54367051158E+02  0.39999924724E+02 0.  0.
         12    1    3    3    0    0  0.30756595240E+01  0.19192960404E+02 -0.31272237897E+02  0.36820948842E+02  0.00000000000E+00 0. -1.
         11    1    4    4    0    0 -0.79204036487E+00  0.57666671202E+01  0.80052102367E+01  0.98977355395E+01  0.51100000000E-03 0. -1.
        -11    1    4    4    0    0 -0.82332547318E+01 -0.29945224369E+01  0.19533833878E+02  0.21408510325E+02  0.51100000000E-03 0.  1.
        -12    1    4    4    0    0  0.59496355727E+01 -0.21965105088E+02  0.37331937823E+01  0.23060805293E+02  0.00000000000E+00 0.  1.
</event>
<event>
 8    1  0.1261983E-006  0.9118800E+02  0.7816164E-02  0.1184000E+00
        -11   -1    0    0    0    0  0.00000000000E+00  0.00000000000E+00  0.45593999997E+02  0.45594000000E+02  0.51100000000E-03 0. -1.
         11   -1    0    0    0    0 -0.00000000000E+00 -0.00000000000E+00 -0.45593999997E+02  0.45594000000E+02  0.51100000000E-03 0.  1.
         23    2    1    2    0    0  0.17763568394E-14  0.00000000000E+00  0.00000000000E+00  0.91188000000E+02  0.91188000000E+02 0.  0.
    9900012    2    3    3    0    0  0.11911991583E+02 -0.26073006456E+02 -0.23110237811E+02  0.54367077947E+02  0.39999985796E+02 0.  0.
         12    1    3    3    0    0 -0.11911991583E+02  0.26073006456E+02  0.23110237811E+02  0.36820922053E+02  0.00000000000E+00 0. -1.
         11    1    4    4    0    0 -0.14333019164E+01 -0.17965621771E+02 -0.19737544663E+02  0.26728048743E+02  0.51100000000E-03 0.  1.
        -11    1    4    4    0    0 -0.10519433871E+00 -0.13079527712E+02 -0.11930533856E+01  0.13134248652E+02  0.51100000000E-03 0. -1.
         12    1    4    4    0    0  0.13450487838E+02  0.49721430267E+01 -0.21796397615E+01  0.14504780552E+02  0.00000000000E+00 0. -1.
</event>
<event>
 8    1  0.1261983E-006  0.9118800E+02  0.7816164E-02  0.1184000E+00
        -11   -1    0    0    0    0  0.00000000000E+00  0.00000000000E+00  0.45593999997E+02  0.45594000000E+02  0.51100000000E-03 0. -1.
         11   -1    0    0    0    0 -0.00000000000E+00 -0.00000000000E+00 -0.45593999997E+02  0.45594000000E+02  0.51100000000E-03 0.  1.
         23    2    1    2    0    0 -0.17763568394E-14  0.35527136788E-14  0.71054273576E-14  0.91188000000E+02  0.91188000000E+02 0.  0.
    9900012    2    3    3    0    0  0.11798244923E+02 -0.23187533103E+02 -0.26056092544E+02  0.54367078864E+02  0.39999987886E+02 0.  0.
         12    1    3    3    0    0 -0.11798244923E+02  0.23187533103E+02  0.26056092544E+02  0.36820921136E+02  0.00000000000E+00 0. -1.
         11    1    4    4    0    0 -0.50520605006E+00  0.27560577395E+01  0.11211118674E+01  0.30179429247E+01  0.51100000000E-03 0. -1.
        -11    1    4    4    0    0  0.35502821108E+01  0.61365878073E+01  0.17192486807E+01  0.72950688324E+01  0.51100000000E-03 0.  1.
        -12    1    4    4    0    0  0.87531688622E+01 -0.32080178650E+02 -0.28896453092E+02  0.44054067107E+02  0.00000000000E+00 0.  1.
</event>
<event>
 8    1  0.1261983E-006  0.9118800E+02  0.7816164E-02  0.1184000E+00
        -11   -1    0    0    0    0  0.00000000000E+00  0.00000000000E+00  0.45593999997E+02  0.45594000000E+02  0.51100000000E-03 0.  1.
         11   -1    0    0    0    0 -0.00000000000E+00 -0.00000000000E+00 -0.45593999997E+02  0.45594000000E+02  0.51100000000E-03 0. -1.
         23    2    1    2    0    0 -0.88817841970E-15  0.88817841970E-15  0.00000000000E+00  0.91188000000E+02  0.91188000000E+02 0.  0.
    9900012    2    3    3    0    0 -0.59310684279E+01  0.31119381788E+01 -0.36206600589E+02  0.54367086674E+02  0.40000005692E+02 0.  0.
        -12    1    3    3    0    0  0.59310684279E+01 -0.31119381788E+01  0.36206600589E+02  0.36820913326E+02  0.00000000000E+00 0.  1.
         11    1    4    4    0    0  0.16114578158E+00  0.11562803685E+01 -0.30937223214E+02  0.30959243090E+02  0.51100000000E-03 0. -1.
        -11    1    4    4    0    0  0.54926578437E+01 -0.24547189057E+01 -0.86708770178E+01  0.10553627036E+02  0.51100000000E-03 0.  1.
        -12    1    4    4    0    0 -0.11584872053E+02  0.44103767160E+01  0.34014996426E+01  0.12854216549E+02  0.00000000000E+00 0.  1.
</event>
<event>
 8    1  0.1261983E-006  0.9118800E+02  0.7816164E-02  0.1184000E+00
        -11   -1    0    0    0    0  0.00000000000E+00  0.00000000000E+00  0.45593999997E+02  0.45594000000E+02  0.51100000000E-03 0.  1.
         11   -1    0    0    0    0 -0.00000000000E+00 -0.00000000000E+00 -0.45593999997E+02  0.45594000000E+02  0.51100000000E-03 0. -1.
         23    2    1    2    0    0 -0.35527136788E-14  0.00000000000E+00  0.35527136788E-14  0.91188000000E+02  0.91188000000E+02 0.  0.
    9900012    2    3    3    0    0 -0.23391179186E+02  0.13097600934E+02  0.25240539573E+02  0.54367092191E+02  0.40000018267E+02 0.  0.
         12    1    3    3    0    0  0.23391179186E+02 -0.13097600934E+02 -0.25240539573E+02  0.36820907809E+02  0.00000000000E+00 0. -1.
         11    1    4    4    0    0 -0.26240289503E+02  0.22787749465E+01  0.10089114546E+02  0.28205244921E+02  0.51100000000E-03 0. -1.
        -11    1    4    4    0    0  0.21482844859E+01  0.12770218280E+02  0.23099601317E+01  0.13154068467E+02  0.51100000000E-03 0.  1.
         12    1    4    4    0    0  0.70082583105E+00 -0.19513922920E+01  0.12841464896E+02  0.13007778803E+02  0.00000000000E+00 0. -1.
</event>
<event>
 8    1  0.1261983E-006  0.9118800E+02  0.7816164E-02  0.1184000E+00
        -11   -1    0    0    0    0  0.00000000000E+00  0.00000000000E+00  0.45593999997E+02  0.45594000000E+02  0.51100000000E-03 0.  1.
         11   -1    0    0    0    0 -0.00000000000E+00 -0.00000000000E+00 -0.45593999997E+02  0.45594000000E+02  0.51100000000E-03 0. -1.
         23    2    1    2    0    0  0.00000000000E+00 -0.13322676296E-14  0.00000000000E+00  0.91188000000E+02  0.91188000000E+02 0.  0.
    9900012    2    3    3    0    0  0.26810962370E+02 -0.20773761376E+01  0.25152300520E+02  0.54367062800E+02  0.39999951265E+02 0.  0.
         12    1    3    3    0    0 -0.26810962370E+02  0.20773761376E+01 -0.25152300520E+02  0.36820937200E+02  0.00000000000E+00 0. -1.
         11    1    4    4    0    0  0.17412105046E+02 -0.13098816189E+02  0.11098925940E+02  0.24452945528E+02  0.51100000000E-03 0. -1.
        -11    1    4    4    0    0  0.55632283422E+01  0.88665055795E+01 -0.40952053648E+01  0.11239890481E+02  0.51100000000E-03 0.  1.
        -12    1    4    4    0    0  0.38356289820E+01  0.21549344723E+01  0.18148579944E+02  0.18674226791E+02  0.00000000000E+00 0.  1.
</event>
<event>
 8    1  0.1261983E-006  0.9118800E+02  0.7816164E-02  0.1184000E+00
        -11   -1    0    0    0    0  0.00000000000E+00  0.00000000000E+00  0.45593999997E+02  0.45594000000E+02  0.51100000000E-03 0.  1.
         11   -1    0    0    0    0 -0.00000000000E+00 -0.00000000000E+00 -0.45593999997E+02  0.45594000000E+02  0.51100000000E-03 0. -1.
         23    2    1    2    0    0 -0.35527136788E-14  0.00000000000E+00  0.00000000000E+00  0.91188000000E+02  0.91188000000E+02 0.  0.
    9900012    2    3    3    0    0  0.30917921706E+02  0.19168417657E+02 -0.56950525922E+01  0.54367085534E+02  0.40000003092E+02 0.  0.
         12    1    3    3    0    0 -0.30917921706E+02 -0.19168417657E+02  0.56950525922E+01  0.36820914466E+02  0.00000000000E+00 0. -1.
         11    1    4    4    0    0  0.91164104669E+01 -0.19759224562E+01 -0.96390003174E+00  0.93777562821E+01  0.51100000000E-03 0. -1.
        -11    1    4    4    0    0  0.79509617779E+01  0.27904423181E+02 -0.56085196125E+01  0.29552159291E+02  0.51100000000E-03 0.  1.
        -12    1    4    4    0    0  0.13850549461E+02 -0.67600830681E+01  0.87736705206E+00  0.15437169961E+02  0.00000000000E+00 0.  1.
</event>
<event>
 8    1  0.1261983E-006  0.9118800E+02  0.7816164E-02  0.1184000E+00
        -11   -1    0    0    0    0  0.00000000000E+00  0.00000000000E+00  0.45593999997E+02  0.45594000000E+02  0.51100000000E-03 0. -1.
         11   -1    0    0    0    0 -0.00000000000E+00 -0.00000000000E+00 -0.45593999997E+02  0.45594000000E+02  0.51100000000E-03 0.  1.
         23    2    1    2    0    0  0.35527136788E-14  0.00000000000E+00  0.00000000000E+00  0.91188000000E+02  0.91188000000E+02 0.  0.
    9900012    2    3    3    0    0  0.11171550247E+02 -0.17496015354E+01 -0.35041614365E+02  0.54367090481E+02  0.40000014371E+02 0.  0.
         12    1    3    3    0    0 -0.11171550247E+02  0.17496015354E+01  0.35041614365E+02  0.36820909519E+02  0.00000000000E+00 0. -1.
         11    1    4    4    0    0  0.13309262703E+02  0.20122527264E+01 -0.35970603447E+01  0.13932856064E+02  0.51100000000E-03 0. -1.
        -11    1    4    4    0    0 -0.48640454695E+01  0.44287172245E+01 -0.31107319784E+02  0.31795248371E+02  0.51100000000E-03 0.  1.
        -12    1    4    4    0    0  0.27263330143E+01 -0.81905714863E+01 -0.33723423649E+00  0.86389860462E+01  0.00000000000E+00 0.  1.
</event>
<event>
 8    1  0.1261983E-006  0.9118800E+02  0.7816164E-02  0.1184000E+00
        -11   -1    0    0    0    0  0.00000000000E+00  0.00000000000E+00  0.45593999997E+02  0.45594000000E+02  0.51100000000E-03 0.  1.
         11   -1    0    0    0    0 -0.00000000000E+00 -0.00000000000E+00 -0.45593999997E+02  0.45594000000E+02  0.51100000000E-03 0. -1.
         23    2    1    2    0    0 -0.35527136788E-14 -0.71054273576E-14 -0.44408920985E-15  0.91188000000E+02  0.91188000000E+02 0.  0.
    9900012    2    3    3    0    0  0.16743216081E+02  0.32709084590E+02  0.23577426326E+01  0.54367103083E+02  0.40000043098E+02 0.  0.
         12    1    3    3    0    0 -0.16743216081E+02 -0.32709084590E+02 -0.23577426326E+01  0.36820896917E+02  0.00000000000E+00 0. -1.
         11    1    4    4    0    0 -0.37210650297E+01  0.17725153014E+01  0.34120204169E+01  0.53507026675E+01  0.51100000000E-03 0. -1.
        -11    1    4    4    0    0 -0.82073306171E+01  0.96960718146E+01  0.31481181971E+01  0.13087579338E+02  0.51100000000E-03 0.  1.
         12    1    4    4    0    0  0.28671611728E+02  0.21240497474E+02 -0.42023959814E+01  0.35928821077E+02  0.00000000000E+00 0. -1.
</event>
<event>
 8    1  0.1261983E-006  0.9118800E+02  0.7816164E-02  0.1184000E+00
        -11   -1    0    0    0    0  0.00000000000E+00  0.00000000000E+00  0.45593999997E+02  0.45594000000E+02  0.51100000000E-03 0.  1.
         11   -1    0    0    0    0 -0.00000000000E+00 -0.00000000000E+00 -0.45593999997E+02  0.45594000000E+02  0.51100000000E-03 0. -1.
         23    2    1    2    0    0  0.35527136788E-14  0.35527136788E-14  0.00000000000E+00  0.91188000000E+02  0.91188000000E+02 0.  0.
    9900012    2    3    3    0    0 -0.23841351999E+02 -0.20652035987E+02  0.18996371644E+02  0.54367098447E+02  0.40000032530E+02 0.  0.
         12    1    3    3    0    0  0.23841351999E+02  0.20652035987E+02 -0.18996371644E+02  0.36820901553E+02  0.00000000000E+00 0. -1.
         11    1    4    4    0    0  0.13358401259E+01  0.52566704468E+01  0.19254948079E+01  0.57553960372E+01  0.51100000000E-03 0. -1.
        -11    1    4    4    0    0 -0.25429626392E+02 -0.68051531978E+01  0.11361932280E+02  0.28671754635E+02  0.51100000000E-03 0.  1.
        -12    1    4    4    0    0  0.25243426725E+00 -0.19103553236E+02  0.57089445561E+01  0.19939947774E+02  0.00000000000E+00 0.  1.
</event>
<event>
 8    1  0.1261983E-006  0.9118800E+02  0.7816164E-02  0.1184000E+00
        -11   -1    0    0    0    0  0.00000000000E+00  0.00000000000E+00  0.45593999997E+02  0.45594000000E+02  0.51100000000E-03 0. -1.
         11   -1    0    0    0    0 -0.00000000000E+00 -0.00000000000E+00 -0.45593999997E+02  0.45594000000E+02  0.51100000000E-03 0.  1.
         23    2    1    2    0    0  0.00000000000E+00  0.00000000000E+00 -0.17763568394E-14  0.91188000000E+02  0.91188000000E+02 0.  0.
    9900012    2    3    3    0    0  0.27566296802E+02  0.19329811235E+02  0.14907616363E+02  0.54367090894E+02  0.40000015311E+02 0.  0.
         12    1    3    3    0    0 -0.27566296802E+02 -0.19329811235E+02 -0.14907616363E+02  0.36820909106E+02  0.00000000000E+00 0. -1.
         11    1    4    4    0    0  0.89205259482E+01  0.11757291070E+01  0.14529507790E+02  0.17089901082E+02  0.51100000000E-03 0. -1.
        -11    1    4    4    0    0  0.60954844308E+01  0.15418211880E+02 -0.11180713481E+02  0.19997113348E+02  0.51100000000E-03 0.  1.
        -12    1    4    4    0    0  0.12550286423E+02  0.27358702481E+01  0.11558822055E+02  0.17280076464E+02  0.00000000000E+00 0.  1.
</event>
<event>
 8    1  0.1261983E-006  0.9118800E+02  0.7816164E-02  0.1184000E+00
        -11   -1    0    0    0    0  0.00000000000E+00  0.00000000000E+00  0.45593999997E+02  0.45594000000E+02  0.51100000000E-03 0. -1.
         11   -1    0    0    0    0 -0.00000000000E+00 -0.00000000000E+00 -0.45593999997E+02  0.45594000000E+02  0.51100000000E-03 0.  1.
         23    2    1    2    0    0  0.00000000000E+00  0.88817841970E-15  0.00000000000E+00  0.91188000000E+02  0.91188000000E+02 0.  0.
    9900012    2    3    3    0    0  0.34135954597E+02  0.42268039925E+01 -0.13139623147E+02  0.54367096091E+02  0.40000027159E+02 0.  0.
         12    1    3    3    0    0 -0.34135954597E+02 -0.42268039925E+01  0.13139623147E+02  0.36820903909E+02  0.00000000000E+00 0. -1.
         11    1    4    4    0    0  0.64029534361E+01 -0.30423629238E+01  0.41890346753E+01  0.82341846371E+01  0.51100000000E-03 0. -1.
        -11    1    4    4    0    0  0.15667704778E+02  0.10465558644E+02  0.59165429597E+01  0.19748680250E+02  0.51100000000E-03 0.  1.
        -12    1    4    4    0    0  0.12065296383E+02 -0.31963917274E+01 -0.23245200782E+02  0.26384231205E+02  0.00000000000E+00 0.  1.
</event>
<event>
 8    1  0.1261983E-006  0.9118800E+02  0.7816164E-02  0.1184000E+00
        -11   -1    0    0    0    0  0.00000000000E+00  0.00000000000E+00  0.45593999997E+02  0.45594000000E+02  0.51100000000E-03 0.  1.
         11   -1    0    0    0    0 -0.00000000000E+00 -0.00000000000E+00 -0.45593999997E+02  0.45594000000E+02  0.51100000000E-03 0. -1.
         23    2    1    2    0    0  0.00000000000E+00 -0.71054273576E-14  0.00000000000E+00  0.91188000000E+02  0.91188000000E+02 0.  0.
    9900012    2    3    3    0    0  0.15316315637E+02 -0.33396925224E+02 -0.24155887856E+01  0.54367092783E+02  0.40000019617E+02 0.  0.
        -12    1    3    3    0    0 -0.15316315637E+02  0.33396925224E+02  0.24155887856E+01  0.36820907217E+02  0.00000000000E+00 0.  1.
         11    1    4    4    0    0  0.96568535817E+01 -0.28574725120E+01 -0.58315121851E+01  0.11637289413E+02  0.51100000000E-03 0. -1.
        -11    1    4    4    0    0  0.89807484674E+00  0.37989365712E+01 -0.56775449990E+01  0.68900634961E+01  0.51100000000E-03 0.  1.
        -12    1    4    4    0    0  0.47613872081E+01 -0.34338389283E+02  0.90934683986E+01  0.35839739874E+02  0.00000000000E+00 0.  1.
</event>
<event>
 8    1  0.1261983E-006  0.9118800E+02  0.7816164E-02  0.1184000E+00
        -11   -1    0    0    0    0  0.00000000000E+00  0.00000000000E+00  0.45593999997E+02  0.45594000000E+02  0.51100000000E-03 0.  1.
         11   -1    0    0    0    0 -0.00000000000E+00 -0.00000000000E+00 -0.45593999997E+02  0.45594000000E+02  0.51100000000E-03 0. -1.
         23    2    1    2    0    0  0.00000000000E+00  0.00000000000E+00  0.00000000000E+00  0.91188000000E+02  0.91188000000E+02 0.  0.
    9900012    2    3    3    0    0 -0.19485081603E+02 -0.18531815487E+02  0.25153199646E+02  0.54367081451E+02  0.39999993785E+02 0.  0.
         12    1    3    3    0    0  0.19485081603E+02  0.18531815487E+02 -0.25153199646E+02  0.36820918549E+02  0.00000000000E+00 0. -1.
         11    1    4    4    0    0 -0.68482439252E+01  0.61713325347E+01  0.18885131350E+02  0.21015041672E+02  0.51100000000E-03 0. -1.
        -11    1    4    4    0    0 -0.13635796990E+02 -0.25706150143E+02  0.88436986765E+01  0.30413025520E+02  0.51100000000E-03 0.  1.
         12    1    4    4    0    0  0.99895931284E+00  0.10030021208E+01 -0.25756303800E+01  0.29390142595E+01  0.00000000000E+00 0. -1.
</event>
<event>
 8    1  0.1261983E-006  0.9118800E+02  0.7816164E-02  0.1184000E+00
        -11   -1    0    0    0    0  0.00000000000E+00  0.00000000000E+00  0.45593999997E+02  0.45594000000E+02  0.51100000000E-03 0.  1.
         11   -1    0    0    0    0 -0.00000000000E+00 -0.00000000000E+00 -0.45593999997E+02  0.45594000000E+02  0.51100000000E-03 0. -1.
         23    2    1    2    0    0  0.00000000000E+00 -0.88817841970E-15  0.35527136788E-14  0.91188000000E+02  0.91188000000E+02 0.  0.
    9900012    2    3    3    0    0  0.18876561961E+02 -0.24771515558E+01 -0.31516851523E+02  0.54367179786E+02  0.40000217958E+02 0.  0.
        -12    1    3    3    0    0 -0.18876561961E+02  0.24771515558E+01  0.31516851523E+02  0.36820820214E+02  0.00000000000E+00 0.  1.
         11    1    4    4    0    0 -0.57277270414E+00  0.69287378215E+01 -0.28881738606E+01  0.75284144997E+01  0.51100000000E-03 0. -1.
        -11    1    4    4    0    0 -0.57809998751E+01 -0.65527356977E+01 -0.22602528546E+00  0.87412466142E+01  0.51100000000E-03 0.  1.
         12    1    4    4    0    0  0.25230334540E+02 -0.28531536796E+01 -0.28402652377E+02  0.38097518672E+02  0.00000000000E+00 0. -1.
</event>
<event>
 8    1  0.1261983E-006  0.9118800E+02  0.7816164E-02  0.1184000E+00
        -11   -1    0    0    0    0  0.00000000000E+00  0.00000000000E+00  0.45593999997E+02  0.45594000000E+02  0.51100000000E-03 0.  1.
         11   -1    0    0    0    0 -0.00000000000E+00 -0.00000000000E+00 -0.45593999997E+02  0.45594000000E+02  0.51100000000E-03 0. -1.
         23    2    1    2    0    0  0.00000000000E+00  0.35527136788E-14  0.00000000000E+00  0.91188000000E+02  0.91188000000E+02 0.  0.
    9900012    2    3    3    0    0 -0.30193754186E+02 -0.16606242908E+02 -0.12974918287E+02  0.54367101044E+02  0.40000038451E+02 0.  0.
        -12    1    3    3    0    0  0.30193754186E+02  0.16606242908E+02  0.12974918287E+02  0.36820898956E+02  0.00000000000E+00 0.  1.
         11    1    4    4    0    0 -0.13088851031E+02 -0.38917494639E+01 -0.53222625311E+01  0.14655722907E+02  0.51100000000E-03 0. -1.
        -11    1    4    4    0    0 -0.22454838816E+02 -0.15202313358E+02  0.32536166498E+01  0.27311465344E+02  0.51100000000E-03 0.  1.
        -12    1    4    4    0    0  0.53499356608E+01  0.24878199144E+01 -0.10906272406E+02  0.12399912794E+02  0.00000000000E+00 0.  1.
</event>
<event>
 8    1  0.1261983E-006  0.9118800E+02  0.7816164E-02  0.1184000E+00
        -11   -1    0    0    0    0  0.00000000000E+00  0.00000000000E+00  0.45593999997E+02  0.45594000000E+02  0.51100000000E-03 0. -1.
         11   -1    0    0    0    0 -0.00000000000E+00 -0.00000000000E+00 -0.45593999997E+02  0.45594000000E+02  0.51100000000E-03 0.  1.
         23    2    1    2    0    0  0.00000000000E+00 -0.35527136788E-14  0.00000000000E+00  0.91188000000E+02  0.91188000000E+02 0.  0.
    9900012    2    3    3    0    0 -0.14351175215E+02 -0.30810144627E+02  0.14161873384E+02  0.54367083394E+02  0.39999998213E+02 0.  0.
         12    1    3    3    0    0  0.14351175215E+02  0.30810144627E+02 -0.14161873384E+02  0.36820916606E+02  0.00000000000E+00 0. -1.
         11    1    4    4    0    0  0.10552036454E+02 -0.29953293579E+01  0.78067333236E+01  0.13463378355E+02  0.51100000000E-03 0. -1.
        -11    1    4    4    0    0 -0.18422106530E+02 -0.90351190555E+01  0.39024832532E+01  0.20886281650E+02  0.51100000000E-03 0.  1.
        -12    1    4    4    0    0 -0.64811051391E+01 -0.18779696214E+02  0.24526568068E+01  0.20017423388E+02  0.00000000000E+00 0.  1.
</event>
<event>
 8    1  0.1261983E-006  0.9118800E+02  0.7816164E-02  0.1184000E+00
        -11   -1    0    0    0    0  0.00000000000E+00  0.00000000000E+00  0.45593999997E+02  0.45594000000E+02  0.51100000000E-03 0.  1.
         11   -1    0    0    0    0 -0.00000000000E+00 -0.00000000000E+00 -0.45593999997E+02  0.45594000000E+02  0.51100000000E-03 0. -1.
         23    2    1    2    0    0  0.88817841970E-15  0.00000000000E+00  0.71054273576E-14  0.91188000000E+02  0.91188000000E+02 0.  0.
    9900012    2    3    3    0    0  0.54519481618E+01 -0.11567732610E+02  0.34528855109E+02  0.54367109033E+02  0.40000056661E+02 0.  0.
         12    1    3    3    0    0 -0.54519481618E+01  0.11567732610E+02 -0.34528855109E+02  0.36820890967E+02  0.00000000000E+00 0. -1.
         11    1    4    4    0    0 -0.37806104598E+01 -0.47193602757E+01  0.24918071243E+01  0.65402201695E+01  0.51100000000E-03 0. -1.
        -11    1    4    4    0    0 -0.12488957788E+02 -0.18143598997E+01  0.15916456016E+02  0.20312546390E+02  0.51100000000E-03 0.  1.
        -12    1    4    4    0    0  0.21721516409E+02 -0.50340124345E+01  0.16120591969E+02  0.27514342473E+02  0.00000000000E+00 0.  1.
</event>
<event>
 8    1  0.1261983E-006  0.9118800E+02  0.7816164E-02  0.1184000E+00
        -11   -1    0    0    0    0  0.00000000000E+00  0.00000000000E+00  0.45593999997E+02  0.45594000000E+02  0.51100000000E-03 0.  1.
         11   -1    0    0    0    0 -0.00000000000E+00 -0.00000000000E+00 -0.45593999997E+02  0.45594000000E+02  0.51100000000E-03 0. -1.
         23    2    1    2    0    0  0.00000000000E+00  0.17763568394E-14  0.00000000000E+00  0.91188000000E+02  0.91188000000E+02 0.  0.
    9900012    2    3    3    0    0 -0.25350197183E+02  0.64135380013E+01  0.25923249355E+02  0.54367070842E+02  0.39999969600E+02 0.  0.
         12    1    3    3    0    0  0.25350197183E+02 -0.64135380013E+01 -0.25923249355E+02  0.36820929158E+02  0.00000000000E+00 0. -1.
         11    1    4    4    0    0 -0.13478630019E+02 -0.31642290555E+01 -0.49345641730E+01  0.14698154188E+02  0.51100000000E-03 0. -1.
        -11    1    4    4    0    0 -0.16963977258E+02  0.50001750141E+01  0.18862224207E+02  0.25856561582E+02  0.51100000000E-03 0.  1.
         12    1    4    4    0    0  0.50924100937E+01  0.45775920426E+01  0.11995589321E+02  0.13812355072E+02  0.00000000000E+00 0. -1.
</event>
<event>
 8    1  0.1261983E-006  0.9118800E+02  0.7816164E-02  0.1184000E+00
        -11   -1    0    0    0    0  0.00000000000E+00  0.00000000000E+00  0.45593999997E+02  0.45594000000E+02  0.51100000000E-03 0.  1.
         11   -1    0    0    0    0 -0.00000000000E+00 -0.00000000000E+00 -0.45593999997E+02  0.45594000000E+02  0.51100000000E-03 0. -1.
         23    2    1    2    0    0  0.00000000000E+00 -0.88817841970E-15  0.00000000000E+00  0.91188000000E+02  0.91188000000E+02 0.  0.
    9900012    2    3    3    0    0  0.34821663104E+02 -0.26779343837E+01  0.11664469682E+02  0.54367090087E+02  0.40000013471E+02 0.  0.
         12    1    3    3    0    0 -0.34821663104E+02  0.26779343837E+01 -0.11664469682E+02  0.36820909913E+02  0.00000000000E+00 0. -1.
         11    1    4    4    0    0  0.12219824649E+02  0.20742077478E+01  0.22291191084E+02  0.25505365169E+02  0.51100000000E-03 0. -1.
        -11    1    4    4    0    0  0.53143240009E+01  0.46687151561E+01 -0.37581257106E+01  0.80101466849E+01  0.51100000000E-03 0.  1.
         12    1    4    4    0    0  0.17287514454E+02 -0.94208572876E+01 -0.68685956908E+01  0.20851578233E+02  0.00000000000E+00 0. -1.
</event>
<event>
 8    1  0.1261983E-006  0.9118800E+02  0.7816164E-02  0.1184000E+00
        -11   -1    0    0    0    0  0.00000000000E+00  0.00000000000E+00  0.45593999997E+02  0.45594000000E+02  0.51100000000E-03 0.  1.
         11   -1    0    0    0    0 -0.00000000000E+00 -0.00000000000E+00 -0.45593999997E+02  0.45594000000E+02  0.51100000000E-03 0. -1.
         23    2    1    2    0    0  0.88817841970E-15  0.00000000000E+00  0.17763568394E-14  0.91188000000E+02  0.91188000000E+02 0.  0.
    9900012    2    3    3    0    0 -0.54617572142E+01 -0.35626688030E+02  0.75291880297E+01  0.54367077086E+02  0.39999983833E+02 0.  0.
         12    1    3    3    0    0  0.54617572142E+01  0.35626688030E+02 -0.75291880297E+01  0.36820922914E+02  0.00000000000E+00 0. -1.
         11    1    4    4    0    0 -0.59782201064E+01  0.52078124055E+01 -0.10437613667E+01  0.79968658700E+01  0.51100000000E-03 0. -1.
        -11    1    4    4    0    0  0.32727908985E+00 -0.76012100841E+01  0.10630664700E+02  0.13072740286E+02  0.51100000000E-03 0.  1.
         12    1    4    4    0    0  0.18918380237E+00 -0.33233290351E+02 -0.20577153038E+01  0.33297470930E+02  0.00000000000E+00 0. -1.
</event>
<event>
 8    1  0.1261983E-006  0.9118800E+02  0.7816164E-02  0.1184000E+00
        -11   -1    0    0    0    0  0.00000000000E+00  0.00000000000E+00  0.45593999997E+02  0.45594000000E+02  0.51100000000E-03 0. -1.
         11   -1    0    0    0    0 -0.00000000000E+00 -0.00000000000E+00 -0.45593999997E+02  0.45594000000E+02  0.51100000000E-03 0.  1.
         23    2    1    2    0    0  0.71054273576E-14  0.00000000000E+00 -0.17763568394E-14  0.91188000000E+02  0.91188000000E+02 0.  0.
    9900012    2    3    3    0    0  0.35221426396E+02  0.28859444455E+01 -0.10339329165E+02  0.54367091805E+02  0.40000017388E+02 0.  0.
         12    1    3    3    0    0 -0.35221426396E+02 -0.28859444455E+01  0.10339329165E+02  0.36820908195E+02  0.00000000000E+00 0. -1.
         11    1    4    4    0    0 -0.75712844361E+00 -0.65231715334E+00  0.98979782207E+01  0.99483030848E+01  0.51100000000E-03 0. -1.
        -11    1    4    4    0    0  0.21445692327E+02 -0.57835065250E+01 -0.10134582269E+02  0.24414676429E+02  0.51100000000E-03 0.  1.
         12    1    4    4    0    0  0.14532862513E+02  0.93217681239E+01 -0.10102725117E+02  0.20004112291E+02  0.00000000000E+00 0. -1.
</event>
<event>
 8    1  0.1261983E-006  0.9118800E+02  0.7816164E-02  0.1184000E+00
        -11   -1    0    0    0    0  0.00000000000E+00  0.00000000000E+00  0.45593999997E+02  0.45594000000E+02  0.51100000000E-03 0. -1.
         11   -1    0    0    0    0 -0.00000000000E+00 -0.00000000000E+00 -0.45593999997E+02  0.45594000000E+02  0.51100000000E-03 0.  1.
         23    2    1    2    0    0  0.88817841970E-15  0.88817841970E-15  0.71054273576E-14  0.91188000000E+02  0.91188000000E+02 0.  0.
    9900012    2    3    3    0    0  0.64726045055E+01  0.51238841073E+01  0.35883547146E+02  0.54367112542E+02  0.40000064661E+02 0.  0.
        -12    1    3    3    0    0 -0.64726045055E+01 -0.51238841073E+01 -0.35883547146E+02  0.36820887458E+02  0.00000000000E+00 0.  1.
         11    1    4    4    0    0  0.47665473749E+00  0.93889085634E+01  0.26047638230E+02  0.27692205788E+02  0.51100000000E-03 0. -1.
        -11    1    4    4    0    0  0.40768199147E+01 -0.40494408646E+01  0.17683247265E+02  0.18593430722E+02  0.51100000000E-03 0.  1.
        -12    1    4    4    0    0  0.19191298534E+01 -0.21558359146E+00 -0.78473383493E+01  0.80814760315E+01  0.00000000000E+00 0.  1.
</event>
<event>
 8    1  0.1261983E-006  0.9118800E+02  0.7816164E-02  0.1184000E+00
        -11   -1    0    0    0    0  0.00000000000E+00  0.00000000000E+00  0.45593999997E+02  0.45594000000E+02  0.51100000000E-03 0.  1.
         11   -1    0    0    0    0 -0.00000000000E+00 -0.00000000000E+00 -0.45593999997E+02  0.45594000000E+02  0.51100000000E-03 0. -1.
         23    2    1    2    0    0 -0.35527136788E-14  0.00000000000E+00  0.00000000000E+00  0.91188000000E+02  0.91188000000E+02 0.  0.
    9900012    2    3    3    0    0 -0.23473602456E+02  0.26128801126E+02 -0.11047939504E+02  0.54367065359E+02  0.39999957099E+02 0.  0.
        -12    1    3    3    0    0  0.23473602456E+02 -0.26128801126E+02  0.11047939504E+02  0.36820934641E+02  0.00000000000E+00 0.  1.
         11    1    4    4    0    0  0.26495676049E+01  0.70681686354E+01 -0.45831932236E+01  0.88309046387E+01  0.51100000000E-03 0. -1.
        -11    1    4    4    0    0 -0.13260852197E+02  0.92492483210E+01  0.12625435668E+02  0.20513420523E+02  0.51100000000E-03 0.  1.
        -12    1    4    4    0    0 -0.12862317864E+02  0.98113841692E+01 -0.19090181948E+02  0.25022740197E+02  0.00000000000E+00 0.  1.
</event>
<event>
 8    1  0.1261983E-006  0.9118800E+02  0.7816164E-02  0.1184000E+00
        -11   -1    0    0    0    0  0.00000000000E+00  0.00000000000E+00  0.45593999997E+02  0.45594000000E+02  0.51100000000E-03 0.  1.
         11   -1    0    0    0    0 -0.00000000000E+00 -0.00000000000E+00 -0.45593999997E+02  0.45594000000E+02  0.51100000000E-03 0. -1.
         23    2    1    2    0    0 -0.35527136788E-14  0.88817841970E-15  0.00000000000E+00  0.91188000000E+02  0.91188000000E+02 0.  0.
    9900012    2    3    3    0    0  0.29281409003E+02 -0.42152654549E+01 -0.21922828142E+02  0.54367085158E+02  0.40000002234E+02 0.  0.
        -12    1    3    3    0    0 -0.29281409003E+02  0.42152654549E+01  0.21922828142E+02  0.36820914842E+02  0.00000000000E+00 0.  1.
         11    1    4    4    0    0  0.72318717508E+01  0.12602285105E+01 -0.18309760483E+02  0.19726517029E+02  0.51100000000E-03 0. -1.
        -11    1    4    4    0    0 -0.10009239235E+01 -0.10382333330E+02  0.14646733110E+01  0.10532804102E+02  0.51100000000E-03 0.  1.
         12    1    4    4    0    0  0.23050461176E+02  0.49068393649E+01 -0.50777409703E+01  0.24107764026E+02  0.00000000000E+00 0. -1.
</event>
<event>
 8    1  0.1261983E-006  0.9118800E+02  0.7816164E-02  0.1184000E+00
        -11   -1    0    0    0    0  0.00000000000E+00  0.00000000000E+00  0.45593999997E+02  0.45594000000E+02  0.51100000000E-03 0. -1.
         11   -1    0    0    0    0 -0.00000000000E+00 -0.00000000000E+00 -0.45593999997E+02  0.45594000000E+02  0.51100000000E-03 0.  1.
         23    2    1    2    0    0 -0.71054273576E-14  0.22204460493E-15  0.17763568394E-14  0.91188000000E+02  0.91188000000E+02 0.  0.
    9900012    2    3    3    0    0 -0.34851441811E+02  0.67035795396E+00  0.11862026242E+02  0.54367081453E+02  0.39999993787E+02 0.  0.
        -12    1    3    3    0    0  0.34851441811E+02 -0.67035795396E+00 -0.11862026242E+02  0.36820918547E+02  0.00000000000E+00 0.  1.
         11    1    4    4    0    0 -0.37789027746E+02  0.43661312533E+01  0.86488092332E+01  0.39011224302E+02  0.51100000000E-03 0. -1.
        -11    1    4    4    0    0  0.85108173492E+01 -0.22455291823E+01  0.85504868872E-01  0.88024840019E+01  0.51100000000E-03 0.  1.
        -12    1    4    4    0    0 -0.55732314147E+01 -0.14502441170E+01  0.31277121400E+01  0.65533731491E+01  0.00000000000E+00 0.  1.
</event>
<event>
 8    1  0.1261983E-006  0.9118800E+02  0.7816164E-02  0.1184000E+00
        -11   -1    0    0    0    0  0.00000000000E+00  0.00000000000E+00  0.45593999997E+02  0.45594000000E+02  0.51100000000E-03 0. -1.
         11   -1    0    0    0    0 -0.00000000000E+00 -0.00000000000E+00 -0.45593999997E+02  0.45594000000E+02  0.51100000000E-03 0.  1.
         23    2    1    2    0    0  0.00000000000E+00 -0.17763568394E-14 -0.48849813084E-14  0.91188000000E+02  0.91188000000E+02 0.  0.
    9900012    2    3    3    0    0 -0.35705109253E+02 -0.87304568635E+01  0.21689018239E+01  0.54367084219E+02  0.40000000095E+02 0.  0.
         12    1    3    3    0    0  0.35705109253E+02  0.87304568635E+01 -0.21689018239E+01  0.36820915781E+02  0.00000000000E+00 0. -1.
         11    1    4    4    0    0 -0.35920797243E+01  0.35808038660E+01  0.52763887884E+01  0.73188436232E+01  0.51100000000E-03 0. -1.
        -11    1    4    4    0    0 -0.26446473452E+02 -0.14767042490E+02 -0.14884990670E+02  0.33749732584E+02  0.51100000000E-03 0.  1.
        -12    1    4    4    0    0 -0.56665560764E+01  0.24557817607E+01  0.11777503706E+02  0.13298508013E+02  0.00000000000E+00 0.  1.
</event>
<event>
 8    1  0.1261983E-006  0.9118800E+02  0.7816164E-02  0.1184000E+00
        -11   -1    0    0    0    0  0.00000000000E+00  0.00000000000E+00  0.45593999997E+02  0.45594000000E+02  0.51100000000E-03 0. -1.
         11   -1    0    0    0    0 -0.00000000000E+00 -0.00000000000E+00 -0.45593999997E+02  0.45594000000E+02  0.51100000000E-03 0.  1.
         23    2    1    2    0    0  0.00000000000E+00  0.00000000000E+00  0.00000000000E+00  0.91188000000E+02  0.91188000000E+02 0.  0.
    9900012    2    3    3    0    0 -0.19259324240E+02 -0.27222323928E+02  0.15614215270E+02  0.54367079198E+02  0.39999988647E+02 0.  0.
        -12    1    3    3    0    0  0.19259324240E+02  0.27222323928E+02 -0.15614215270E+02  0.36820920802E+02  0.00000000000E+00 0.  1.
         11    1    4    4    0    0  0.50684459591E+01  0.55582680535E+01 -0.51074194670E+00  0.75395189364E+01  0.51100000000E-03 0. -1.
        -11    1    4    4    0    0 -0.95347720000E+01 -0.24074705891E+02  0.49983603566E+01  0.26372086518E+02  0.51100000000E-03 0.  1.
        -12    1    4    4    0    0 -0.14792998200E+02 -0.87058860908E+01  0.11126596860E+02  0.20455473743E+02  0.00000000000E+00 0.  1.
</event>
<event>
 8    1  0.1261983E-006  0.9118800E+02  0.7816164E-02  0.1184000E+00
        -11   -1    0    0    0    0  0.00000000000E+00  0.00000000000E+00  0.45593999997E+02  0.45594000000E+02  0.51100000000E-03 0. -1.
         11   -1    0    0    0    0 -0.00000000000E+00 -0.00000000000E+00 -0.45593999997E+02  0.45594000000E+02  0.51100000000E-03 0.  1.
         23    2    1    2    0    0  0.00000000000E+00 -0.17763568394E-14  0.17763568394E-14  0.91188000000E+02  0.91188000000E+02 0.  0.
    9900012    2    3    3    0    0  0.33647652083E+02  0.11096147985E+02 -0.10024595081E+02  0.54367061699E+02  0.39999948755E+02 0.  0.
         12    1    3    3    0    0 -0.33647652083E+02 -0.11096147985E+02  0.10024595081E+02  0.36820938301E+02  0.00000000000E+00 0. -1.
         11    1    4    4    0    0  0.12327937119E+01  0.20360344451E+01 -0.15234830958E+02  0.15419639788E+02  0.51100000000E-03 0. -1.
        -11    1    4    4    0    0  0.67190314833E+01 -0.27342958500E+01 -0.50840473591E+01  0.88582896588E+01  0.51100000000E-03 0.  1.
        -12    1    4    4    0    0  0.25695826888E+02  0.11794409390E+02  0.10294283237E+02  0.30089132252E+02  0.00000000000E+00 0.  1.
</event>
<event>
 8    1  0.1261983E-006  0.9118800E+02  0.7816164E-02  0.1184000E+00
        -11   -1    0    0    0    0  0.00000000000E+00  0.00000000000E+00  0.45593999997E+02  0.45594000000E+02  0.51100000000E-03 0. -1.
         11   -1    0    0    0    0 -0.00000000000E+00 -0.00000000000E+00 -0.45593999997E+02  0.45594000000E+02  0.51100000000E-03 0.  1.
         23    2    1    2    0    0  0.00000000000E+00  0.00000000000E+00  0.17763568394E-14  0.91188000000E+02  0.91188000000E+02 0.  0.
    9900012    2    3    3    0    0  0.72547039123E+01  0.35924549964E+02  0.35462324366E+01  0.54367084972E+02  0.40000001811E+02 0.  0.
        -12    1    3    3    0    0 -0.72547039123E+01 -0.35924549964E+02 -0.35462324366E+01  0.36820915028E+02  0.00000000000E+00 0.  1.
         11    1    4    4    0    0 -0.86751261757E+01  0.11290635786E+02  0.12227006168E+02  0.18767950093E+02  0.51100000000E-03 0. -1.
        -11    1    4    4    0    0  0.14568193827E+02  0.99308505381E+01  0.14521414554E+01  0.17690754050E+02  0.51100000000E-03 0.  1.
        -12    1    4    4    0    0  0.13616362607E+01  0.14703063641E+02 -0.10132915187E+02  0.17908380829E+02  0.00000000000E+00 0.  1.
</event>
<event>
 8    1  0.1261983E-006  0.9118800E+02  0.7816164E-02  0.1184000E+00
        -11   -1    0    0    0    0  0.00000000000E+00  0.00000000000E+00  0.45593999997E+02  0.45594000000E+02  0.51100000000E-03 0.  1.
         11   -1    0    0    0    0 -0.00000000000E+00 -0.00000000000E+00 -0.45593999997E+02  0.45594000000E+02  0.51100000000E-03 0. -1.
         23    2    1    2    0    0  0.00000000000E+00 -0.17763568394E-14  0.00000000000E+00  0.91188000000E+02  0.91188000000E+02 0.  0.
    9900012    2    3    3    0    0 -0.28352843998E+02 -0.10482473086E+02 -0.21024202005E+02  0.54367040279E+02  0.39999899925E+02 0.  0.
        -12    1    3    3    0    0  0.28352843998E+02  0.10482473086E+02  0.21024202005E+02  0.36820959721E+02  0.00000000000E+00 0.  1.
         11    1    4    4    0    0 -0.14841328232E+02  0.16593639365E+01 -0.18751696448E+01  0.15051072182E+02  0.51100000000E-03 0. -1.
        -11    1    4    4    0    0  0.80180330517E+01  0.15405064785E+01 -0.81504261174E+01  0.11536527224E+02  0.51100000000E-03 0.  1.
         12    1    4    4    0    0 -0.21529548818E+02 -0.13682343501E+02 -0.10998606243E+02  0.27779440874E+02  0.00000000000E+00 0. -1.
</event>
<event>
 8    1  0.1261983E-006  0.9118800E+02  0.7816164E-02  0.1184000E+00
        -11   -1    0    0    0    0  0.00000000000E+00  0.00000000000E+00  0.45593999997E+02  0.45594000000E+02  0.51100000000E-03 0. -1.
         11   -1    0    0    0    0 -0.00000000000E+00 -0.00000000000E+00 -0.45593999997E+02  0.45594000000E+02  0.51100000000E-03 0.  1.
         23    2    1    2    0    0  0.71054273576E-14 -0.26645352591E-14  0.66613381478E-15  0.91188000000E+02  0.91188000000E+02 0.  0.
    9900012    2    3    3    0    0 -0.36584329832E+02 -0.37889268683E+01 -0.17364300455E+01  0.54367023025E+02  0.39999860591E+02 0.  0.
        -12    1    3    3    0    0  0.36584329832E+02  0.37889268683E+01  0.17364300455E+01  0.36820976975E+02  0.00000000000E+00 0.  1.
         11    1    4    4    0    0 -0.12015940793E+02 -0.81293178383E+00  0.56048553667E+01  0.13283753053E+02  0.51100000000E-03 0. -1.
        -11    1    4    4    0    0  0.18349726644E+01  0.95124842665E+01  0.29312665541E+01  0.10121600934E+02  0.51100000000E-03 0.  1.
        -12    1    4    4    0    0 -0.26403361703E+02 -0.12488479351E+02 -0.10272551966E+02  0.30961669038E+02  0.00000000000E+00 0.  1.
</event>
<event>
 8    1  0.1261983E-006  0.9118800E+02  0.7816164E-02  0.1184000E+00
        -11   -1    0    0    0    0  0.00000000000E+00  0.00000000000E+00  0.45593999997E+02  0.45594000000E+02  0.51100000000E-03 0. -1.
         11   -1    0    0    0    0 -0.00000000000E+00 -0.00000000000E+00 -0.45593999997E+02  0.45594000000E+02  0.51100000000E-03 0.  1.
         23    2    1    2    0    0 -0.35527136788E-14  0.00000000000E+00  0.22204460493E-15  0.91188000000E+02  0.91188000000E+02 0.  0.
    9900012    2    3    3    0    0  0.26821335739E+02 -0.25183659587E+02  0.14761598230E+01  0.54367084627E+02  0.40000001025E+02 0.  0.
         12    1    3    3    0    0 -0.26821335739E+02  0.25183659587E+02 -0.14761598230E+01  0.36820915373E+02  0.00000000000E+00 0. -1.
         11    1    4    4    0    0  0.49752880541E+01 -0.10370124327E+02 -0.35278071347E+01  0.12030727045E+02  0.51100000000E-03 0. -1.
        -11    1    4    4    0    0  0.24713265321E+02 -0.17406852571E+02  0.13421197862E+02  0.33073744142E+02  0.51100000000E-03 0.  1.
         12    1    4    4    0    0 -0.28672176357E+01  0.25933173111E+01 -0.84172309045E+01  0.92626134404E+01  0.00000000000E+00 0. -1.
</event>
<event>
 8    1  0.1261983E-006  0.9118800E+02  0.7816164E-02  0.1184000E+00
        -11   -1    0    0    0    0  0.00000000000E+00  0.00000000000E+00  0.45593999997E+02  0.45594000000E+02  0.51100000000E-03 0.  1.
         11   -1    0    0    0    0 -0.00000000000E+00 -0.00000000000E+00 -0.45593999997E+02  0.45594000000E+02  0.51100000000E-03 0. -1.
         23    2    1    2    0    0  0.00000000000E+00 -0.88817841970E-15  0.00000000000E+00  0.91188000000E+02  0.91188000000E+02 0.  0.
    9900012    2    3    3    0    0 -0.19201355844E+02 -0.75514191660E+01 -0.30496932450E+02  0.54367097152E+02  0.40000029578E+02 0.  0.
        -12    1    3    3    0    0  0.19201355844E+02  0.75514191660E+01  0.30496932450E+02  0.36820902848E+02  0.00000000000E+00 0.  1.
         11    1    4    4    0    0 -0.21961137789E+02  0.64217049452E+01 -0.21703656172E+02  0.31536939593E+02  0.51100000000E-03 0. -1.
        -11    1    4    4    0    0 -0.36710320493E+01 -0.10585178519E+02 -0.10509766159E+02  0.15361564554E+02  0.51100000000E-03 0.  1.
         12    1    4    4    0    0  0.64308139947E+01 -0.33879455926E+01  0.17164898804E+01  0.74685930056E+01  0.00000000000E+00 0. -1.
</event>
<event>
 8    1  0.1261983E-006  0.9118800E+02  0.7816164E-02  0.1184000E+00
        -11   -1    0    0    0    0  0.00000000000E+00  0.00000000000E+00  0.45593999997E+02  0.45594000000E+02  0.51100000000E-03 0. -1.
         11   -1    0    0    0    0 -0.00000000000E+00 -0.00000000000E+00 -0.45593999997E+02  0.45594000000E+02  0.51100000000E-03 0.  1.
         23    2    1    2    0    0  0.17763568394E-14  0.00000000000E+00  0.00000000000E+00  0.91188000000E+02  0.91188000000E+02 0.  0.
    9900012    2    3    3    0    0 -0.13542052607E+02 -0.64703095327E+01 -0.33623365254E+02  0.54367044210E+02  0.39999908886E+02 0.  0.
         12    1    3    3    0    0  0.13542052607E+02  0.64703095327E+01  0.33623365254E+02  0.36820955790E+02  0.00000000000E+00 0. -1.
         11    1    4    4    0    0  0.74807664853E+00 -0.15487799200E+01  0.41318412103E+01  0.44755390693E+01  0.51100000000E-03 0. -1.
        -11    1    4    4    0    0 -0.10027925437E+02 -0.14577242354E+02 -0.10289786875E+02  0.20467901637E+02  0.51100000000E-03 0.  1.
        -12    1    4    4    0    0 -0.42622038186E+01  0.96557127415E+01 -0.27465419590E+02  0.29423603504E+02  0.00000000000E+00 0.  1.
</event>
<event>
 8    1  0.1261983E-006  0.9118800E+02  0.7816164E-02  0.1184000E+00
        -11   -1    0    0    0    0  0.00000000000E+00  0.00000000000E+00  0.45593999997E+02  0.45594000000E+02  0.51100000000E-03 0. -1.
         11   -1    0    0    0    0 -0.00000000000E+00 -0.00000000000E+00 -0.45593999997E+02  0.45594000000E+02  0.51100000000E-03 0.  1.
         23    2    1    2    0    0  0.00000000000E+00  0.17763568394E-14  0.71054273576E-14  0.91188000000E+02  0.91188000000E+02 0.  0.
    9900012    2    3    3    0    0 -0.93374507414E+01  0.64481192812E+01  0.35028751034E+02  0.54367087089E+02  0.40000006637E+02 0.  0.
        -12    1    3    3    0    0  0.93374507414E+01 -0.64481192812E+01 -0.35028751034E+02  0.36820912911E+02  0.00000000000E+00 0.  1.
         11    1    4    4    0    0 -0.25700471894E+01 -0.82218856425E+01  0.33010154087E+02  0.34115609611E+02  0.51100000000E-03 0. -1.
        -11    1    4    4    0    0 -0.69316883340E+01  0.10810046537E+02 -0.36874806489E+01  0.13360498609E+02  0.51100000000E-03 0.  1.
        -12    1    4    4    0    0  0.16428478201E+00  0.38599583868E+01  0.57060775958E+01  0.68909788686E+01  0.00000000000E+00 0.  1.
</event>
<event>
 8    1  0.1261983E-006  0.9118800E+02  0.7816164E-02  0.1184000E+00
        -11   -1    0    0    0    0  0.00000000000E+00  0.00000000000E+00  0.45593999997E+02  0.45594000000E+02  0.51100000000E-03 0.  1.
         11   -1    0    0    0    0 -0.00000000000E+00 -0.00000000000E+00 -0.45593999997E+02  0.45594000000E+02  0.51100000000E-03 0. -1.
         23    2    1    2    0    0  0.00000000000E+00  0.71054273576E-14  0.00000000000E+00  0.91188000000E+02  0.91188000000E+02 0.  0.
    9900012    2    3    3    0    0 -0.71793748709E+01 -0.29389619396E+02  0.20987779779E+02  0.54367081329E+02  0.39999993505E+02 0.  0.
         12    1    3    3    0    0  0.71793748709E+01  0.29389619396E+02 -0.20987779779E+02  0.36820918671E+02  0.00000000000E+00 0. -1.
         11    1    4    4    0    0 -0.32578121251E+01 -0.24295547652E+01 -0.70091091887E+01  0.81020792442E+01  0.51100000000E-03 0. -1.
        -11    1    4    4    0    0  0.76219210715E+01 -0.84487344988E+00  0.27363714322E+01  0.81421877185E+01  0.51100000000E-03 0.  1.
        -12    1    4    4    0    0 -0.11543483817E+02 -0.26115191180E+02  0.25260517535E+02  0.38122814366E+02  0.00000000000E+00 0.  1.
</event>
<event>
 8    1  0.1261983E-006  0.9118800E+02  0.7816164E-02  0.1184000E+00
        -11   -1    0    0    0    0  0.00000000000E+00  0.00000000000E+00  0.45593999997E+02  0.45594000000E+02  0.51100000000E-03 0. -1.
         11   -1    0    0    0    0 -0.00000000000E+00 -0.00000000000E+00 -0.45593999997E+02  0.45594000000E+02  0.51100000000E-03 0.  1.
         23    2    1    2    0    0  0.00000000000E+00  0.15543122345E-14  0.71054273576E-14  0.91188000000E+02  0.91188000000E+02 0.  0.
    9900012    2    3    3    0    0 -0.87446954039E+01  0.14041642433E+01 -0.35739887280E+02  0.54367069570E+02  0.39999966698E+02 0.  0.
         12    1    3    3    0    0  0.87446954039E+01 -0.14041642433E+01  0.35739887280E+02  0.36820930430E+02  0.00000000000E+00 0. -1.
         11    1    4    4    0    0  0.21267988412E+01  0.97039277500E+01  0.15801507954E+01  0.10059143298E+02  0.51100000000E-03 0. -1.
        -11    1    4    4    0    0 -0.44163515943E+01  0.26724772455E+01 -0.31182845362E+00  0.51714150169E+01  0.51100000000E-03 0.  1.
        -12    1    4    4    0    0 -0.64551426509E+01 -0.10972240752E+02 -0.37008209622E+02  0.39136511255E+02  0.00000000000E+00 0.  1.
</event>
<event>
 8    1  0.1261983E-006  0.9118800E+02  0.7816164E-02  0.1184000E+00
        -11   -1    0    0    0    0  0.00000000000E+00  0.00000000000E+00  0.45593999997E+02  0.45594000000E+02  0.51100000000E-03 0.  1.
         11   -1    0    0    0    0 -0.00000000000E+00 -0.00000000000E+00 -0.45593999997E+02  0.45594000000E+02  0.51100000000E-03 0. -1.
         23    2    1    2    0    0  0.00000000000E+00 -0.35527136788E-14  0.00000000000E+00  0.91188000000E+02  0.91188000000E+02 0.  0.
    9900012    2    3    3    0    0 -0.14969857299E+02 -0.16434644176E+02 -0.29352767430E+02  0.54367094083E+02  0.40000022582E+02 0.  0.
        -12    1    3    3    0    0  0.14969857299E+02  0.16434644176E+02  0.29352767430E+02  0.36820905917E+02  0.00000000000E+00 0.  1.
         11    1    4    4    0    0 -0.15600381877E+02  0.37685404463E+01 -0.23525269045E+02  0.28478274100E+02  0.51100000000E-03 0. -1.
        -11    1    4    4    0    0 -0.28778944102E+01 -0.21247311906E+02 -0.58618129774E+01  0.22228166616E+02  0.51100000000E-03 0.  1.
        -12    1    4    4    0    0  0.35084189884E+01  0.10441272841E+01  0.34314592597E-01  0.36606533672E+01  0.00000000000E+00 0.  1.
</event>
<event>
 8    1  0.1261983E-006  0.9118800E+02  0.7816164E-02  0.1184000E+00
        -11   -1    0    0    0    0  0.00000000000E+00  0.00000000000E+00  0.45593999997E+02  0.45594000000E+02  0.51100000000E-03 0.  1.
         11   -1    0    0    0    0 -0.00000000000E+00 -0.00000000000E+00 -0.45593999997E+02  0.45594000000E+02  0.51100000000E-03 0. -1.
         23    2    1    2    0    0 -0.35527136788E-14  0.00000000000E+00  0.88817841970E-15  0.91188000000E+02  0.91188000000E+02 0.  0.
    9900012    2    3    3    0    0  0.23831455620E+02  0.27513516063E+02  0.55540474358E+01  0.54367091727E+02  0.40000017210E+02 0.  0.
         12    1    3    3    0    0 -0.23831455620E+02 -0.27513516063E+02 -0.55540474358E+01  0.36820908273E+02  0.00000000000E+00 0. -1.
         11    1    4    4    0    0 -0.42745837036E+01 -0.36352871341E+01 -0.59798012239E+01  0.82003293425E+01  0.51100000000E-03 0. -1.
        -11    1    4    4    0    0  0.19028258119E+02  0.13443621559E+02  0.12118509525E+02  0.26261451617E+02  0.51100000000E-03 0.  1.
         12    1    4    4    0    0  0.90777812041E+01  0.17705181638E+02 -0.58466086497E+00  0.19905310768E+02  0.00000000000E+00 0. -1.
</event>
<event>
 8    1  0.1261983E-006  0.9118800E+02  0.7816164E-02  0.1184000E+00
        -11   -1    0    0    0    0  0.00000000000E+00  0.00000000000E+00  0.45593999997E+02  0.45594000000E+02  0.51100000000E-03 0.  1.
         11   -1    0    0    0    0 -0.00000000000E+00 -0.00000000000E+00 -0.45593999997E+02  0.45594000000E+02  0.51100000000E-03 0. -1.
         23    2    1    2    0    0  0.00000000000E+00  0.00000000000E+00  0.88817841970E-15  0.91188000000E+02  0.91188000000E+02 0.  0.
    9900012    2    3    3    0    0  0.33356609995E+02 -0.14397441058E+02  0.59859232568E+01  0.54367068228E+02  0.39999963638E+02 0.  0.
         12    1    3    3    0    0 -0.33356609995E+02  0.14397441058E+02 -0.59859232568E+01  0.36820931772E+02  0.00000000000E+00 0. -1.
         11    1    4    4    0    0  0.76525928286E+01  0.90859283100E+01  0.10458399196E+02  0.15827014382E+02  0.51100000000E-03 0. -1.
        -11    1    4    4    0    0  0.44268910012E+01 -0.12931055872E+02 -0.55827027336E+01  0.14764015036E+02  0.51100000000E-03 0.  1.
         12    1    4    4    0    0  0.21277126165E+02 -0.10552313496E+02  0.11102267949E+01  0.23776038810E+02  0.00000000000E+00 0. -1.
</event>
<event>
 8    1  0.1261983E-006  0.9118800E+02  0.7816164E-02  0.1184000E+00
        -11   -1    0    0    0    0  0.00000000000E+00  0.00000000000E+00  0.45593999997E+02  0.45594000000E+02  0.51100000000E-03 0.  1.
         11   -1    0    0    0    0 -0.00000000000E+00 -0.00000000000E+00 -0.45593999997E+02  0.45594000000E+02  0.51100000000E-03 0. -1.
         23    2    1    2    0    0 -0.35527136788E-14 -0.35527136788E-14 -0.17763568394E-14  0.91188000000E+02  0.91188000000E+02 0.  0.
    9900012    2    3    3    0    0 -0.26737821164E+02 -0.20062036362E+02 -0.15439673107E+02  0.54367083536E+02  0.39999998538E+02 0.  0.
        -12    1    3    3    0    0  0.26737821164E+02  0.20062036362E+02  0.15439673107E+02  0.36820916464E+02  0.00000000000E+00 0.  1.
         11    1    4    4    0    0 -0.11765597270E+02 -0.19709497970E+02 -0.11271142750E+02  0.25572099024E+02  0.51100000000E-03 0. -1.
        -11    1    4    4    0    0 -0.90282532237E+01 -0.89931776485E+01  0.60906654656E+01  0.14123838238E+02  0.51100000000E-03 0.  1.
         12    1    4    4    0    0 -0.59439706696E+01  0.86406392563E+01 -0.10259195822E+02  0.14671146274E+02  0.00000000000E+00 0. -1.
</event>
<event>
 8    1  0.1261983E-006  0.9118800E+02  0.7816164E-02  0.1184000E+00
        -11   -1    0    0    0    0  0.00000000000E+00  0.00000000000E+00  0.45593999997E+02  0.45594000000E+02  0.51100000000E-03 0. -1.
         11   -1    0    0    0    0 -0.00000000000E+00 -0.00000000000E+00 -0.45593999997E+02  0.45594000000E+02  0.51100000000E-03 0.  1.
         23    2    1    2    0    0 -0.17763568394E-14  0.00000000000E+00  0.00000000000E+00  0.91188000000E+02  0.91188000000E+02 0.  0.
    9900012    2    3    3    0    0  0.11760283683E+02  0.19504719094E+02 -0.28931659683E+02  0.54367091928E+02  0.40000017669E+02 0.  0.
         12    1    3    3    0    0 -0.11760283683E+02 -0.19504719094E+02  0.28931659683E+02  0.36820908072E+02  0.00000000000E+00 0. -1.
         11    1    4    4    0    0  0.58262566517E+00  0.10436599914E+02 -0.66482106703E+00  0.10473970486E+02  0.51100000000E-03 0. -1.
        -11    1    4    4    0    0  0.20590505609E+02  0.10023625088E+02 -0.14217814022E+02  0.26955300350E+02  0.51100000000E-03 0.  1.
         12    1    4    4    0    0 -0.94128475911E+01 -0.95550590798E+00 -0.14049024593E+02  0.16937821092E+02  0.00000000000E+00 0. -1.
</event>
<event>
 8    1  0.1261983E-006  0.9118800E+02  0.7816164E-02  0.1184000E+00
        -11   -1    0    0    0    0  0.00000000000E+00  0.00000000000E+00  0.45593999997E+02  0.45594000000E+02  0.51100000000E-03 0.  1.
         11   -1    0    0    0    0 -0.00000000000E+00 -0.00000000000E+00 -0.45593999997E+02  0.45594000000E+02  0.51100000000E-03 0. -1.
         23    2    1    2    0    0  0.17763568394E-14 -0.22204460493E-15 -0.71054273576E-14  0.91188000000E+02  0.91188000000E+02 0.  0.
    9900012    2    3    3    0    0  0.11512611111E+02  0.15209522922E+01 -0.34941783273E+02  0.54367058557E+02  0.39999941593E+02 0.  0.
        -12    1    3    3    0    0 -0.11512611111E+02 -0.15209522922E+01  0.34941783273E+02  0.36820941443E+02  0.00000000000E+00 0.  1.
         11    1    4    4    0    0  0.30201107609E+01  0.22959758075E+01  0.23644080785E+01  0.44702348640E+01  0.51100000000E-03 0. -1.
        -11    1    4    4    0    0  0.14923516440E+02 -0.97144533241E+01 -0.99292366728E+01  0.20388028043E+02  0.51100000000E-03 0.  1.
         12    1    4    4    0    0 -0.64310160901E+01  0.89394298088E+01 -0.27376954678E+02  0.29508795650E+02  0.00000000000E+00 0. -1.
</event>
<event>
 8    1  0.1261983E-006  0.9118800E+02  0.7816164E-02  0.1184000E+00
        -11   -1    0    0    0    0  0.00000000000E+00  0.00000000000E+00  0.45593999997E+02  0.45594000000E+02  0.51100000000E-03 0. -1.
         11   -1    0    0    0    0 -0.00000000000E+00 -0.00000000000E+00 -0.45593999997E+02  0.45594000000E+02  0.51100000000E-03 0.  1.
         23    2    1    2    0    0  0.00000000000E+00  0.00000000000E+00 -0.88817841970E-15  0.91188000000E+02  0.91188000000E+02 0.  0.
    9900012    2    3    3    0    0 -0.22256610364E+02 -0.28354198134E+02  0.75140082385E+01  0.54367114941E+02  0.40000070130E+02 0.  0.
        -12    1    3    3    0    0  0.22256610364E+02  0.28354198134E+02 -0.75140082385E+01  0.36820885059E+02  0.00000000000E+00 0.  1.
         11    1    4    4    0    0 -0.10872090572E+02 -0.28470018685E+02  0.14074322561E+02  0.33568301612E+02  0.51100000000E-03 0. -1.
        -11    1    4    4    0    0  0.34156693019E+01 -0.30103803585E+01 -0.85872166007E+00  0.46332051361E+01  0.51100000000E-03 0.  1.
         12    1    4    4    0    0 -0.14800189094E+02  0.31262009091E+01 -0.57015926622E+01  0.16165608192E+02  0.00000000000E+00 0. -1.
</event>
<event>
 8    1  0.1261983E-006  0.9118800E+02  0.7816164E-02  0.1184000E+00
        -11   -1    0    0    0    0  0.00000000000E+00  0.00000000000E+00  0.45593999997E+02  0.45594000000E+02  0.51100000000E-03 0.  1.
         11   -1    0    0    0    0 -0.00000000000E+00 -0.00000000000E+00 -0.45593999997E+02  0.45594000000E+02  0.51100000000E-03 0. -1.
         23    2    1    2    0    0 -0.88817841970E-15 -0.71054273576E-14  0.00000000000E+00  0.91188000000E+02  0.91188000000E+02 0.  0.
    9900012    2    3    3    0    0  0.62773250851E+01  0.32186202652E+02  0.16745726839E+02  0.54367138810E+02  0.40000124546E+02 0.  0.
        -12    1    3    3    0    0 -0.62773250851E+01 -0.32186202652E+02 -0.16745726839E+02  0.36820861190E+02  0.00000000000E+00 0.  1.
         11    1    4    4    0    0 -0.95092941295E+01  0.19923200633E+00  0.81179092646E+01  0.12504671900E+02  0.51100000000E-03 0. -1.
        -11    1    4    4    0    0  0.50529098525E+01 -0.10717964939E+01  0.45184557193E+01  0.68627318212E+01  0.51100000000E-03 0.  1.
         12    1    4    4    0    0  0.10733709362E+02  0.33058767140E+02  0.41093618547E+01  0.34999735089E+02  0.00000000000E+00 0. -1.
</event>
<event>
 8    1  0.1261983E-006  0.9118800E+02  0.7816164E-02  0.1184000E+00
        -11   -1    0    0    0    0  0.00000000000E+00  0.00000000000E+00  0.45593999997E+02  0.45594000000E+02  0.51100000000E-03 0.  1.
         11   -1    0    0    0    0 -0.00000000000E+00 -0.00000000000E+00 -0.45593999997E+02  0.45594000000E+02  0.51100000000E-03 0. -1.
         23    2    1    2    0    0  0.35527136788E-14  0.00000000000E+00  0.00000000000E+00  0.91188000000E+02  0.91188000000E+02 0.  0.
    9900012    2    3    3    0    0  0.19562007095E+02 -0.14791547699E+02  0.27464855362E+02  0.54367078162E+02  0.39999986287E+02 0.  0.
         12    1    3    3    0    0 -0.19562007095E+02  0.14791547699E+02 -0.27464855362E+02  0.36820921838E+02  0.00000000000E+00 0. -1.
         11    1    4    4    0    0  0.51264266768E+01  0.28778645719E+01  0.18016741901E+02  0.18951658079E+02  0.51100000000E-03 0. -1.
        -11    1    4    4    0    0  0.50367793454E+01  0.51845890851E+01  0.78224531254E+01  0.10650816087E+02  0.51100000000E-03 0.  1.
         12    1    4    4    0    0  0.93988010728E+01 -0.22854001356E+02  0.16256603358E+01  0.24764603996E+02  0.00000000000E+00 0. -1.
</event>
<event>
 8    1  0.1261983E-006  0.9118800E+02  0.7816164E-02  0.1184000E+00
        -11   -1    0    0    0    0  0.00000000000E+00  0.00000000000E+00  0.45593999997E+02  0.45594000000E+02  0.51100000000E-03 0. -1.
         11   -1    0    0    0    0 -0.00000000000E+00 -0.00000000000E+00 -0.45593999997E+02  0.45594000000E+02  0.51100000000E-03 0.  1.
         23    2    1    2    0    0  0.00000000000E+00  0.00000000000E+00  0.17763568394E-14  0.91188000000E+02  0.91188000000E+02 0.  0.
    9900012    2    3    3    0    0  0.21024104098E+02 -0.29345066820E+02 -0.72549089983E+01  0.54367087404E+02  0.40000007356E+02 0.  0.
        -12    1    3    3    0    0 -0.21024104098E+02  0.29345066820E+02  0.72549089983E+01  0.36820912596E+02  0.00000000000E+00 0.  1.
         11    1    4    4    0    0  0.88313770909E+01 -0.82510196808E+01 -0.18239921843E+02  0.21880751728E+02  0.51100000000E-03 0.  1.
        -11    1    4    4    0    0  0.67772671812E+01 -0.67105493725E+01  0.13885866337E+02  0.16845774174E+02  0.51100000000E-03 0. -1.
         12    1    4    4    0    0  0.54154598256E+01 -0.14383497767E+02 -0.29008534926E+01  0.15640561503E+02  0.00000000000E+00 0. -1.
</event>
<event>
 8    1  0.1261983E-006  0.9118800E+02  0.7816164E-02  0.1184000E+00
        -11   -1    0    0    0    0  0.00000000000E+00  0.00000000000E+00  0.45593999997E+02  0.45594000000E+02  0.51100000000E-03 0.  1.
         11   -1    0    0    0    0 -0.00000000000E+00 -0.00000000000E+00 -0.45593999997E+02  0.45594000000E+02  0.51100000000E-03 0. -1.
         23    2    1    2    0    0  0.00000000000E+00  0.00000000000E+00  0.00000000000E+00  0.91188000000E+02  0.91188000000E+02 0.  0.
    9900012    2    3    3    0    0 -0.10910043655E+02 -0.68971123127E+01  0.34484494926E+02  0.54367087448E+02  0.40000007456E+02 0.  0.
         12    1    3    3    0    0  0.10910043655E+02  0.68971123127E+01 -0.34484494926E+02  0.36820912552E+02  0.00000000000E+00 0. -1.
         11    1    4    4    0    0 -0.13653682969E+01 -0.37503087887E+01 -0.18467446600E+01  0.43976712812E+01  0.51100000000E-03 0. -1.
        -11    1    4    4    0    0  0.86710202308E+01  0.28286174848E+01  0.27289672744E+02  0.28773493139E+02  0.51100000000E-03 0.  1.
         12    1    4    4    0    0 -0.18215695589E+02 -0.59754210088E+01  0.90415668426E+01  0.21195923028E+02  0.00000000000E+00 0. -1.
</event>
<event>
 8    1  0.1261983E-006  0.9118800E+02  0.7816164E-02  0.1184000E+00
        -11   -1    0    0    0    0  0.00000000000E+00  0.00000000000E+00  0.45593999997E+02  0.45594000000E+02  0.51100000000E-03 0. -1.
         11   -1    0    0    0    0 -0.00000000000E+00 -0.00000000000E+00 -0.45593999997E+02  0.45594000000E+02  0.51100000000E-03 0.  1.
         23    2    1    2    0    0  0.35527136788E-14  0.35527136788E-14 -0.35527136788E-14  0.91188000000E+02  0.91188000000E+02 0.  0.
    9900012    2    3    3    0    0 -0.16351085931E+02 -0.28598746828E+02 -0.16447683623E+02  0.54367182140E+02  0.40000223325E+02 0.  0.
         12    1    3    3    0    0  0.16351085931E+02  0.28598746828E+02  0.16447683623E+02  0.36820817860E+02  0.00000000000E+00 0. -1.
         11    1    4    4    0    0  0.97585622581E+01 -0.69575308720E+00 -0.29696254934E+01  0.10224103165E+02  0.51100000000E-03 0. -1.
        -11    1    4    4    0    0 -0.14530918108E+02 -0.25445625623E+02 -0.53559997538E+01  0.29787819290E+02  0.51100000000E-03 0.  1.
         12    1    4    4    0    0 -0.11578730081E+02 -0.24573681180E+01 -0.81220583758E+01  0.14355259685E+02  0.00000000000E+00 0. -1.
</event>
<event>
 8    1  0.1261983E-006  0.9118800E+02  0.7816164E-02  0.1184000E+00
        -11   -1    0    0    0    0  0.00000000000E+00  0.00000000000E+00  0.45593999997E+02  0.45594000000E+02  0.51100000000E-03 0. -1.
         11   -1    0    0    0    0 -0.00000000000E+00 -0.00000000000E+00 -0.45593999997E+02  0.45594000000E+02  0.51100000000E-03 0.  1.
         23    2    1    2    0    0  0.00000000000E+00  0.00000000000E+00  0.00000000000E+00  0.91188000000E+02  0.91188000000E+02 0.  0.
    9900012    2    3    3    0    0 -0.18012690254E+02 -0.10384699540E+02 -0.30388823617E+02  0.54367087524E+02  0.40000007629E+02 0.  0.
         12    1    3    3    0    0  0.18012690254E+02  0.10384699540E+02  0.30388823617E+02  0.36820912476E+02  0.00000000000E+00 0. -1.
         11    1    4    4    0    0 -0.91920051212E+01 -0.51430621986E+01 -0.85253966006E+01  0.13550883159E+02  0.51100000000E-03 0. -1.
        -11    1    4    4    0    0 -0.58145876259E+01 -0.19099418438E+02 -0.15491753261E+02  0.25270370660E+02  0.51100000000E-03 0.  1.
         12    1    4    4    0    0 -0.30060975068E+01  0.13857781097E+02 -0.63716737557E+01  0.15545833705E+02  0.00000000000E+00 0. -1.
</event>
<event>
 8    1  0.1261983E-006  0.9118800E+02  0.7816164E-02  0.1184000E+00
        -11   -1    0    0    0    0  0.00000000000E+00  0.00000000000E+00  0.45593999997E+02  0.45594000000E+02  0.51100000000E-03 0.  1.
         11   -1    0    0    0    0 -0.00000000000E+00 -0.00000000000E+00 -0.45593999997E+02  0.45594000000E+02  0.51100000000E-03 0. -1.
         23    2    1    2    0    0  0.35527136788E-14  0.00000000000E+00  0.35527136788E-14  0.91188000000E+02  0.91188000000E+02 0.  0.
    9900012    2    3    3    0    0 -0.27863266355E+02 -0.61073996291E+01 -0.23283389151E+02  0.54367107119E+02  0.40000052298E+02 0.  0.
        -12    1    3    3    0    0  0.27863266355E+02  0.61073996291E+01  0.23283389151E+02  0.36820892881E+02  0.00000000000E+00 0.  1.
         11    1    4    4    0    0 -0.15090144496E+02 -0.10755869290E+02 -0.22657433865E+02  0.29270471378E+02  0.51100000000E-03 0. -1.
        -11    1    4    4    0    0 -0.16423884792E+01  0.95609714135E+01 -0.64076434746E+01  0.11626156263E+02  0.51100000000E-03 0.  1.
         12    1    4    4    0    0 -0.11130733380E+02 -0.49125017526E+01  0.57816881886E+01  0.13470479478E+02  0.00000000000E+00 0. -1.
</event>
<event>
 8    1  0.1261983E-006  0.9118800E+02  0.7816164E-02  0.1184000E+00
        -11   -1    0    0    0    0  0.00000000000E+00  0.00000000000E+00  0.45593999997E+02  0.45594000000E+02  0.51100000000E-03 0.  1.
         11   -1    0    0    0    0 -0.00000000000E+00 -0.00000000000E+00 -0.45593999997E+02  0.45594000000E+02  0.51100000000E-03 0. -1.
         23    2    1    2    0    0 -0.44408920985E-15 -0.17763568394E-14 -0.71054273576E-14  0.91188000000E+02  0.91188000000E+02 0.  0.
    9900012    2    3    3    0    0 -0.34250411197E+01 -0.86279562777E+01 -0.35631531444E+02  0.54367101461E+02  0.40000039401E+02 0.  0.
        -12    1    3    3    0    0  0.34250411197E+01  0.86279562777E+01  0.35631531444E+02  0.36820898539E+02  0.00000000000E+00 0.  1.
         11    1    4    4    0    0 -0.12859890125E+02 -0.29185757422E+01  0.74120435920E+00  0.13207734195E+02  0.51100000000E-03 0. -1.
        -11    1    4    4    0    0  0.33950448936E+01 -0.18354207072E+01  0.22392180784E+00  0.38659074276E+01  0.51100000000E-03 0.  1.
         12    1    4    4    0    0  0.60398041120E+01 -0.38739598283E+01 -0.36596657611E+02  0.37293459839E+02  0.00000000000E+00 0. -1.
</event>
<event>
 8    1  0.1261983E-006  0.9118800E+02  0.7816164E-02  0.1184000E+00
        -11   -1    0    0    0    0  0.00000000000E+00  0.00000000000E+00  0.45593999997E+02  0.45594000000E+02  0.51100000000E-03 0. -1.
         11   -1    0    0    0    0 -0.00000000000E+00 -0.00000000000E+00 -0.45593999997E+02  0.45594000000E+02  0.51100000000E-03 0.  1.
         23    2    1    2    0    0  0.00000000000E+00  0.00000000000E+00 -0.17763568394E-14  0.91188000000E+02  0.91188000000E+02 0.  0.
    9900012    2    3    3    0    0  0.18789706323E+02 -0.29827990892E+02 -0.10630558999E+02  0.54367205753E+02  0.40000277154E+02 0.  0.
         12    1    3    3    0    0 -0.18789706323E+02  0.29827990892E+02  0.10630558999E+02  0.36820794247E+02  0.00000000000E+00 0. -1.
         11    1    4    4    0    0  0.39701340311E+00 -0.73165221771E+01 -0.92321063519E+01  0.11786471243E+02  0.51100000000E-03 0.  1.
        -11    1    4    4    0    0  0.87784401348E+01 -0.71306899161E+01  0.14549632195E+02  0.18428226913E+02  0.51100000000E-03 0. -1.
         12    1    4    4    0    0  0.96142527848E+01 -0.15380778799E+02 -0.15948084843E+02  0.24152507597E+02  0.00000000000E+00 0. -1.
</event>
<event>
 8    1  0.1261983E-006  0.9118800E+02  0.7816164E-02  0.1184000E+00
        -11   -1    0    0    0    0  0.00000000000E+00  0.00000000000E+00  0.45593999997E+02  0.45594000000E+02  0.51100000000E-03 0. -1.
         11   -1    0    0    0    0 -0.00000000000E+00 -0.00000000000E+00 -0.45593999997E+02  0.45594000000E+02  0.51100000000E-03 0.  1.
         23    2    1    2    0    0  0.00000000000E+00  0.00000000000E+00 -0.88817841970E-15  0.91188000000E+02  0.91188000000E+02 0.  0.
    9900012    2    3    3    0    0 -0.15757313898E+02  0.33066861304E+02  0.37508792213E+01  0.54367090822E+02  0.40000015147E+02 0.  0.
         12    1    3    3    0    0  0.15757313898E+02 -0.33066861304E+02 -0.37508792213E+01  0.36820909178E+02  0.00000000000E+00 0. -1.
         11    1    4    4    0    0 -0.48705256437E+01 -0.11490060243E+01  0.97890234872E+01  0.10993962706E+02  0.51100000000E-03 0. -1.
        -11    1    4    4    0    0 -0.16342541451E+02  0.32952849954E+02 -0.75993461276E+01  0.37559539973E+02  0.51100000000E-03 0.  1.
        -12    1    4    4    0    0  0.54557531973E+01  0.12630173741E+01  0.15612018617E+01  0.58135881425E+01  0.00000000000E+00 0.  1.
</event>
<event>
 8    1  0.1261983E-006  0.9118800E+02  0.7816164E-02  0.1184000E+00
        -11   -1    0    0    0    0  0.00000000000E+00  0.00000000000E+00  0.45593999997E+02  0.45594000000E+02  0.51100000000E-03 0. -1.
         11   -1    0    0    0    0 -0.00000000000E+00 -0.00000000000E+00 -0.45593999997E+02  0.45594000000E+02  0.51100000000E-03 0.  1.
         23    2    1    2    0    0  0.00000000000E+00  0.00000000000E+00  0.71054273576E-14  0.91188000000E+02  0.91188000000E+02 0.  0.
    9900012    2    3    3    0    0 -0.25371173157E+02 -0.42626910019E+01  0.26342487648E+02  0.54366897118E+02  0.39999573558E+02 0.  0.
        -12    1    3    3    0    0  0.25371173157E+02  0.42626910019E+01 -0.26342487648E+02  0.36821102882E+02  0.00000000000E+00 0.  1.
         11    1    4    4    0    0 -0.96559131433E+01 -0.14353349419E+02  0.21318805044E+01  0.17429865545E+02  0.51100000000E-03 0. -1.
        -11    1    4    4    0    0 -0.15935460311E+02  0.69637280344E+01  0.59061999252E+01  0.18366153688E+02  0.51100000000E-03 0.  1.
        -12    1    4    4    0    0  0.22020029809E+00  0.31269303830E+01  0.18304407219E+02  0.18570877885E+02  0.00000000000E+00 0.  1.
</event>
<event>
 8    1  0.1261983E-006  0.9118800E+02  0.7816164E-02  0.1184000E+00
        -11   -1    0    0    0    0  0.00000000000E+00  0.00000000000E+00  0.45593999997E+02  0.45594000000E+02  0.51100000000E-03 0. -1.
         11   -1    0    0    0    0 -0.00000000000E+00 -0.00000000000E+00 -0.45593999997E+02  0.45594000000E+02  0.51100000000E-03 0.  1.
         23    2    1    2    0    0  0.00000000000E+00 -0.17763568394E-14 -0.71054273576E-14  0.91188000000E+02  0.91188000000E+02 0.  0.
    9900012    2    3    3    0    0  0.81285685167E+01 -0.96084775828E+01  0.34603247370E+02  0.54367065789E+02  0.39999958079E+02 0.  0.
        -12    1    3    3    0    0 -0.81285685167E+01  0.96084775828E+01 -0.34603247370E+02  0.36820934211E+02  0.00000000000E+00 0.  1.
         11    1    4    4    0    0  0.69455310369E+01 -0.23285973708E+02  0.16581146981E+02  0.29417875661E+02  0.51100000000E-03 0. -1.
        -11    1    4    4    0    0 -0.27969050573E+01  0.32313607179E+01  0.69613913846E+00  0.43300092321E+01  0.51100000000E-03 0.  1.
        -12    1    4    4    0    0  0.39799425371E+01  0.10446135408E+02  0.17325961251E+02  0.20619180896E+02  0.00000000000E+00 0.  1.
</event>
<event>
 8    1  0.1261983E-006  0.9118800E+02  0.7816164E-02  0.1184000E+00
        -11   -1    0    0    0    0  0.00000000000E+00  0.00000000000E+00  0.45593999997E+02  0.45594000000E+02  0.51100000000E-03 0. -1.
         11   -1    0    0    0    0 -0.00000000000E+00 -0.00000000000E+00 -0.45593999997E+02  0.45594000000E+02  0.51100000000E-03 0.  1.
         23    2    1    2    0    0  0.11102230246E-14  0.00000000000E+00  0.00000000000E+00  0.91188000000E+02  0.91188000000E+02 0.  0.
    9900012    2    3    3    0    0  0.18333772824E+01 -0.41502906548E+01 -0.36540301359E+02  0.54367084636E+02  0.40000001046E+02 0.  0.
         12    1    3    3    0    0 -0.18333772824E+01  0.41502906548E+01  0.36540301359E+02  0.36820915364E+02  0.00000000000E+00 0. -1.
         11    1    4    4    0    0  0.18073602099E+00 -0.47334482145E+01 -0.47694686965E+01  0.67220554458E+01  0.51100000000E-03 0. -1.
        -11    1    4    4    0    0 -0.11758483568E+02 -0.56796540447E+01 -0.52289221686E+00  0.13068811056E+02  0.51100000000E-03 0.  1.
        -12    1    4    4    0    0  0.13411124829E+02  0.62628116044E+01 -0.31247940446E+02  0.34576218135E+02  0.00000000000E+00 0.  1.
</event>
<event>
 8    1  0.1261983E-006  0.9118800E+02  0.7816164E-02  0.1184000E+00
        -11   -1    0    0    0    0  0.00000000000E+00  0.00000000000E+00  0.45593999997E+02  0.45594000000E+02  0.51100000000E-03 0.  1.
         11   -1    0    0    0    0 -0.00000000000E+00 -0.00000000000E+00 -0.45593999997E+02  0.45594000000E+02  0.51100000000E-03 0. -1.
         23    2    1    2    0    0  0.00000000000E+00  0.17763568394E-14  0.00000000000E+00  0.91188000000E+02  0.91188000000E+02 0.  0.
    9900012    2    3    3    0    0  0.97335984829E+01 -0.29509583221E+01  0.35388258574E+02  0.54367082856E+02  0.39999996987E+02 0.  0.
         12    1    3    3    0    0 -0.97335984829E+01  0.29509583221E+01 -0.35388258574E+02  0.36820917144E+02  0.00000000000E+00 0. -1.
         11    1    4    4    0    0 -0.49704185256E+00 -0.53195882679E+01 -0.56432278360E+01  0.77711704790E+01  0.51100000000E-03 0. -1.
        -11    1    4    4    0    0 -0.88541231879E+00  0.73839948938E+01  0.61706172254E+01  0.96635321063E+01  0.51100000000E-03 0.  1.
        -12    1    4    4    0    0  0.11116052654E+02 -0.50153649480E+01  0.34860869184E+02  0.36932380271E+02  0.00000000000E+00 0.  1.
</event>
<event>
 8    1  0.1261983E-006  0.9118800E+02  0.7816164E-02  0.1184000E+00
        -11   -1    0    0    0    0  0.00000000000E+00  0.00000000000E+00  0.45593999997E+02  0.45594000000E+02  0.51100000000E-03 0. -1.
         11   -1    0    0    0    0 -0.00000000000E+00 -0.00000000000E+00 -0.45593999997E+02  0.45594000000E+02  0.51100000000E-03 0.  1.
         23    2    1    2    0    0 -0.35527136788E-14  0.88817841970E-15  0.00000000000E+00  0.91188000000E+02  0.91188000000E+02 0.  0.
    9900012    2    3    3    0    0 -0.30727101347E+02 -0.52046465142E+01 -0.19609610327E+02  0.54367083122E+02  0.39999997594E+02 0.  0.
         12    1    3    3    0    0  0.30727101347E+02  0.52046465142E+01  0.19609610327E+02  0.36820916878E+02  0.00000000000E+00 0. -1.
         11    1    4    4    0    0  0.30329555350E+01  0.52322855672E+01 -0.11759326993E+02  0.13223365801E+02  0.51100000000E-03 0. -1.
        -11    1    4    4    0    0 -0.17912443821E+02 -0.13082116267E+02  0.20434859439E+01  0.22274946571E+02  0.51100000000E-03 0.  1.
        -12    1    4    4    0    0 -0.15847613061E+02  0.26451841854E+01 -0.98937692783E+01  0.18868770750E+02  0.00000000000E+00 0.  1.
</event>
<event>
 8    1  0.1261983E-006  0.9118800E+02  0.7816164E-02  0.1184000E+00
        -11   -1    0    0    0    0  0.00000000000E+00  0.00000000000E+00  0.45593999997E+02  0.45594000000E+02  0.51100000000E-03 0.  1.
         11   -1    0    0    0    0 -0.00000000000E+00 -0.00000000000E+00 -0.45593999997E+02  0.45594000000E+02  0.51100000000E-03 0. -1.
         23    2    1    2    0    0  0.00000000000E+00  0.00000000000E+00  0.88817841970E-15  0.91188000000E+02  0.91188000000E+02 0.  0.
    9900012    2    3    3    0    0  0.67592624906E+01 -0.35988890960E+02 -0.38590539906E+01  0.54367079321E+02  0.39999988927E+02 0.  0.
        -12    1    3    3    0    0 -0.67592624906E+01  0.35988890960E+02  0.38590539906E+01  0.36820920679E+02  0.00000000000E+00 0.  1.
         11    1    4    4    0    0  0.11196319134E+02 -0.13899938686E+02  0.91802491723E+01  0.20070944989E+02  0.51100000000E-03 0. -1.
        -11    1    4    4    0    0  0.15587250565E+01  0.41593234833E+01 -0.37538985114E+01  0.58156126019E+01  0.51100000000E-03 0.  1.
         12    1    4    4    0    0 -0.59957817002E+01 -0.26248275757E+02 -0.92854046515E+01  0.28480521729E+02  0.00000000000E+00 0. -1.
</event>
<event>
 8    1  0.1261983E-006  0.9118800E+02  0.7816164E-02  0.1184000E+00
        -11   -1    0    0    0    0  0.00000000000E+00  0.00000000000E+00  0.45593999997E+02  0.45594000000E+02  0.51100000000E-03 0.  1.
         11   -1    0    0    0    0 -0.00000000000E+00 -0.00000000000E+00 -0.45593999997E+02  0.45594000000E+02  0.51100000000E-03 0. -1.
         23    2    1    2    0    0  0.00000000000E+00 -0.88817841970E-15  0.00000000000E+00  0.91188000000E+02  0.91188000000E+02 0.  0.
    9900012    2    3    3    0    0 -0.96225249539E+01  0.58320113848E+01 -0.35059581668E+02  0.54367087328E+02  0.40000007181E+02 0.  0.
        -12    1    3    3    0    0  0.96225249539E+01 -0.58320113848E+01  0.35059581668E+02  0.36820912672E+02  0.00000000000E+00 0.  1.
         11    1    4    4    0    0 -0.10543564279E+02  0.50613018608E+01 -0.18606962910E+02  0.21977319973E+02  0.51100000000E-03 0. -1.
        -11    1    4    4    0    0 -0.11059429107E+02  0.73462026950E+01 -0.39113134037E+01  0.13841099631E+02  0.51100000000E-03 0.  1.
        -12    1    4    4    0    0  0.11980468432E+02 -0.65754931710E+01 -0.12541305355E+02  0.18548667723E+02  0.00000000000E+00 0.  1.
</event>
<event>
 8    1  0.1261983E-006  0.9118800E+02  0.7816164E-02  0.1184000E+00
        -11   -1    0    0    0    0  0.00000000000E+00  0.00000000000E+00  0.45593999997E+02  0.45594000000E+02  0.51100000000E-03 0. -1.
         11   -1    0    0    0    0 -0.00000000000E+00 -0.00000000000E+00 -0.45593999997E+02  0.45594000000E+02  0.51100000000E-03 0.  1.
         23    2    1    2    0    0  0.00000000000E+00  0.00000000000E+00  0.35527136788E-14  0.91188000000E+02  0.91188000000E+02 0.  0.
    9900012    2    3    3    0    0 -0.31611903961E+02  0.16747888528E+02 -0.87162111564E+01  0.54367128485E+02  0.40000101007E+02 0.  0.
         12    1    3    3    0    0  0.31611903961E+02 -0.16747888528E+02  0.87162111564E+01  0.36820871515E+02  0.00000000000E+00 0. -1.
         11    1    4    4    0    0  0.43178012951E+01  0.11220151585E+02 -0.57746158999E+00  0.12036140236E+02  0.51100000000E-03 0. -1.
        -11    1    4    4    0    0 -0.54170166398E+01  0.36472305485E+01 -0.97307828637E+01  0.11718980133E+02  0.51100000000E-03 0.  1.
         12    1    4    4    0    0 -0.30512688617E+02  0.18805063946E+01  0.15920332973E+01  0.30612008117E+02  0.00000000000E+00 0. -1.
</event>
<event>
 8    1  0.1261983E-006  0.9118800E+02  0.7816164E-02  0.1184000E+00
        -11   -1    0    0    0    0  0.00000000000E+00  0.00000000000E+00  0.45593999997E+02  0.45594000000E+02  0.51100000000E-03 0.  1.
         11   -1    0    0    0    0 -0.00000000000E+00 -0.00000000000E+00 -0.45593999997E+02  0.45594000000E+02  0.51100000000E-03 0. -1.
         23    2    1    2    0    0  0.00000000000E+00  0.00000000000E+00  0.00000000000E+00  0.91188000000E+02  0.91188000000E+02 0.  0.
    9900012    2    3    3    0    0  0.40980758046E+01  0.13737243766E+02 -0.33915687026E+02  0.54367083145E+02  0.39999997647E+02 0.  0.
        -12    1    3    3    0    0 -0.40980758046E+01 -0.13737243766E+02  0.33915687026E+02  0.36820916855E+02  0.00000000000E+00 0.  1.
         11    1    4    4    0    0  0.17745779214E+01 -0.68224872707E+01 -0.39644118586E+01  0.80877698412E+01  0.51100000000E-03 0. -1.
        -11    1    4    4    0    0  0.12793939292E+01  0.25813542714E+02 -0.13875014715E+02  0.29334141711E+02  0.51100000000E-03 0.  1.
        -12    1    4    4    0    0  0.10441039539E+01 -0.52538116781E+01 -0.16076260452E+02  0.16945171594E+02  0.00000000000E+00 0.  1.
</event>
<event>
 8    1  0.1261983E-006  0.9118800E+02  0.7816164E-02  0.1184000E+00
        -11   -1    0    0    0    0  0.00000000000E+00  0.00000000000E+00  0.45593999997E+02  0.45594000000E+02  0.51100000000E-03 0. -1.
         11   -1    0    0    0    0 -0.00000000000E+00 -0.00000000000E+00 -0.45593999997E+02  0.45594000000E+02  0.51100000000E-03 0.  1.
         23    2    1    2    0    0  0.00000000000E+00 -0.17763568394E-14  0.00000000000E+00  0.91188000000E+02  0.91188000000E+02 0.  0.
    9900012    2    3    3    0    0  0.47082973088E+01 -0.14614990149E+02  0.33466634762E+02  0.54367059723E+02  0.39999944249E+02 0.  0.
        -12    1    3    3    0    0 -0.47082973088E+01  0.14614990149E+02 -0.33466634762E+02  0.36820940277E+02  0.00000000000E+00 0.  1.
         11    1    4    4    0    0  0.13480497688E+02 -0.43805571017E+01  0.32321404549E+02  0.35292864586E+02  0.51100000000E-03 0. -1.
        -11    1    4    4    0    0 -0.34667451817E+01 -0.23689083092E+01 -0.59108409519E+01  0.72503854899E+01  0.51100000000E-03 0.  1.
         12    1    4    4    0    0 -0.53054551976E+01 -0.78655247383E+01  0.70560711654E+01  0.11823809646E+02  0.00000000000E+00 0. -1.
</event>
<event>
 8    1  0.1261983E-006  0.9118800E+02  0.7816164E-02  0.1184000E+00
        -11   -1    0    0    0    0  0.00000000000E+00  0.00000000000E+00  0.45593999997E+02  0.45594000000E+02  0.51100000000E-03 0. -1.
         11   -1    0    0    0    0 -0.00000000000E+00 -0.00000000000E+00 -0.45593999997E+02  0.45594000000E+02  0.51100000000E-03 0.  1.
         23    2    1    2    0    0  0.44408920985E-15 -0.35527136788E-14  0.00000000000E+00  0.91188000000E+02  0.91188000000E+02 0.  0.
    9900012    2    3    3    0    0 -0.38333755787E+01 -0.21588950392E+02  0.29580404067E+02  0.54367111199E+02  0.40000061601E+02 0.  0.
        -12    1    3    3    0    0  0.38333755787E+01  0.21588950392E+02 -0.29580404067E+02  0.36820888801E+02  0.00000000000E+00 0.  1.
         11    1    4    4    0    0 -0.15324078594E+02 -0.21040755509E+01  0.14142393114E+02  0.20958573471E+02  0.51100000000E-03 0.  1.
        -11    1    4    4    0    0  0.71395217437E+01  0.20696692072E+00 -0.12268667881E+01  0.72471241477E+01  0.51100000000E-03 0. -1.
        -12    1    4    4    0    0  0.43511812718E+01 -0.19691841761E+02  0.16664877741E+02  0.26161413581E+02  0.00000000000E+00 0.  1.
</event>
<event>
 8    1  0.1261983E-006  0.9118800E+02  0.7816164E-02  0.1184000E+00
        -11   -1    0    0    0    0  0.00000000000E+00  0.00000000000E+00  0.45593999997E+02  0.45594000000E+02  0.51100000000E-03 0.  1.
         11   -1    0    0    0    0 -0.00000000000E+00 -0.00000000000E+00 -0.45593999997E+02  0.45594000000E+02  0.51100000000E-03 0. -1.
         23    2    1    2    0    0  0.00000000000E+00 -0.35527136788E-14  0.00000000000E+00  0.91188000000E+02  0.91188000000E+02 0.  0.
    9900012    2    3    3    0    0 -0.17378632242E+02  0.30803499570E+02 -0.10242400032E+02  0.54367092858E+02  0.40000019788E+02 0.  0.
         12    1    3    3    0    0  0.17378632242E+02 -0.30803499570E+02  0.10242400032E+02  0.36820907142E+02  0.00000000000E+00 0. -1.
         11    1    4    4    0    0 -0.73310007061E+01  0.33343969743E+02 -0.15685716415E+02  0.37571339998E+02  0.51100000000E-03 0. -1.
        -11    1    4    4    0    0 -0.11858499216E+02 -0.23817576684E+01  0.11698887200E+01  0.12151765844E+02  0.51100000000E-03 0.  1.
         12    1    4    4    0    0  0.18108676794E+01 -0.15871250474E+00  0.42734276633E+01  0.46439870160E+01  0.00000000000E+00 0. -1.
</event>
<event>
 8    1  0.1261983E-006  0.9118800E+02  0.7816164E-02  0.1184000E+00
        -11   -1    0    0    0    0  0.00000000000E+00  0.00000000000E+00  0.45593999997E+02  0.45594000000E+02  0.51100000000E-03 0. -1.
         11   -1    0    0    0    0 -0.00000000000E+00 -0.00000000000E+00 -0.45593999997E+02  0.45594000000E+02  0.51100000000E-03 0.  1.
         23    2    1    2    0    0  0.35527136788E-14 -0.83266726847E-15  0.00000000000E+00  0.91188000000E+02  0.91188000000E+02 0.  0.
    9900012    2    3    3    0    0  0.30926692918E+02  0.32737144680E+00  0.19980297602E+02  0.54367084759E+02  0.40000001325E+02 0.  0.
        -12    1    3    3    0    0 -0.30926692918E+02 -0.32737144680E+00 -0.19980297602E+02  0.36820915241E+02  0.00000000000E+00 0.  1.
         11    1    4    4    0    0  0.23194621124E+01 -0.63065304862E+01  0.14051844380E+02  0.15575832627E+02  0.51100000000E-03 0. -1.
        -11    1    4    4    0    0  0.23030443888E+02 -0.61887882085E+01  0.67495580135E+01  0.24784248603E+02  0.51100000000E-03 0.  1.
        -12    1    4    4    0    0  0.55767869182E+01  0.12822690142E+02 -0.82110479197E+00  0.14007003529E+02  0.00000000000E+00 0.  1.
</event>
<event>
 8    1  0.1261983E-006  0.9118800E+02  0.7816164E-02  0.1184000E+00
        -11   -1    0    0    0    0  0.00000000000E+00  0.00000000000E+00  0.45593999997E+02  0.45594000000E+02  0.51100000000E-03 0.  1.
         11   -1    0    0    0    0 -0.00000000000E+00 -0.00000000000E+00 -0.45593999997E+02  0.45594000000E+02  0.51100000000E-03 0. -1.
         23    2    1    2    0    0 -0.35527136788E-14  0.00000000000E+00  0.00000000000E+00  0.91188000000E+02  0.91188000000E+02 0.  0.
    9900012    2    3    3    0    0  0.82171345856E+01 -0.83509112179E+01  0.34907303338E+02  0.54367097712E+02  0.40000030853E+02 0.  0.
         12    1    3    3    0    0 -0.82171345856E+01  0.83509112179E+01 -0.34907303338E+02  0.36820902288E+02  0.00000000000E+00 0. -1.
         11    1    4    4    0    0 -0.81529000025E+01  0.41448162854E+01  0.60239757853E+01  0.10951601025E+02  0.51100000000E-03 0. -1.
        -11    1    4    4    0    0 -0.18563360504E+01 -0.86552578534E+01  0.21727713576E+02  0.23461735007E+02  0.51100000000E-03 0.  1.
        -12    1    4    4    0    0  0.18226370638E+02 -0.38404696499E+01  0.71556139774E+01  0.19953761680E+02  0.00000000000E+00 0.  1.
</event>
<event>
 8    1  0.1261983E-006  0.9118800E+02  0.7816164E-02  0.1184000E+00
        -11   -1    0    0    0    0  0.00000000000E+00  0.00000000000E+00  0.45593999997E+02  0.45594000000E+02  0.51100000000E-03 0.  1.
         11   -1    0    0    0    0 -0.00000000000E+00 -0.00000000000E+00 -0.45593999997E+02  0.45594000000E+02  0.51100000000E-03 0. -1.
         23    2    1    2    0    0  0.00000000000E+00 -0.44408920985E-15 -0.35527136788E-14  0.91188000000E+02  0.91188000000E+02 0.  0.
    9900012    2    3    3    0    0  0.34198764266E+02  0.24978323712E+01 -0.13415864899E+02  0.54367081015E+02  0.39999992790E+02 0.  0.
        -12    1    3    3    0    0 -0.34198764266E+02 -0.24978323712E+01  0.13415864899E+02  0.36820918985E+02  0.00000000000E+00 0.  1.
         11    1    4    4    0    0  0.66451125234E+01  0.12649870881E+02 -0.98141367209E+01  0.17334763731E+02  0.51100000000E-03 0. -1.
        -11    1    4    4    0    0  0.11144101902E+02 -0.75413953010E+01  0.89912620782E+01  0.16183523853E+02  0.51100000000E-03 0.  1.
        -12    1    4    4    0    0  0.16409549841E+02 -0.26106432089E+01 -0.12592990256E+02  0.20848793431E+02  0.00000000000E+00 0.  1.
</event>
<event>
 8    1  0.1261983E-006  0.9118800E+02  0.7816164E-02  0.1184000E+00
        -11   -1    0    0    0    0  0.00000000000E+00  0.00000000000E+00  0.45593999997E+02  0.45594000000E+02  0.51100000000E-03 0. -1.
         11   -1    0    0    0    0 -0.00000000000E+00 -0.00000000000E+00 -0.45593999997E+02  0.45594000000E+02  0.51100000000E-03 0.  1.
         23    2    1    2    0    0  0.00000000000E+00  0.00000000000E+00 -0.35527136788E-14  0.91188000000E+02  0.91188000000E+02 0.  0.
    9900012    2    3    3    0    0  0.21054772461E+02  0.22751061303E+02  0.19871262819E+02  0.54367064110E+02  0.39999954252E+02 0.  0.
        -12    1    3    3    0    0 -0.21054772461E+02 -0.22751061303E+02 -0.19871262819E+02  0.36820935890E+02  0.00000000000E+00 0.  1.
         11    1    4    4    0    0 -0.13304252940E+01 -0.50906578455E+01  0.66957752816E+01  0.85157639496E+01  0.51100000000E-03 0. -1.
        -11    1    4    4    0    0  0.26498750781E+02  0.17910035034E+02  0.50586106247E+01  0.32381208896E+02  0.51100000000E-03 0.  1.
        -12    1    4    4    0    0 -0.41135530264E+01  0.99316841143E+01  0.81168769127E+01  0.13470091264E+02  0.00000000000E+00 0.  1.
</event>
<event>
 8    1  0.1261983E-006  0.9118800E+02  0.7816164E-02  0.1184000E+00
        -11   -1    0    0    0    0  0.00000000000E+00  0.00000000000E+00  0.45593999997E+02  0.45594000000E+02  0.51100000000E-03 0.  1.
         11   -1    0    0    0    0 -0.00000000000E+00 -0.00000000000E+00 -0.45593999997E+02  0.45594000000E+02  0.51100000000E-03 0. -1.
         23    2    1    2    0    0  0.00000000000E+00 -0.35527136788E-14  0.00000000000E+00  0.91188000000E+02  0.91188000000E+02 0.  0.
    9900012    2    3    3    0    0 -0.25613531119E+02 -0.25214504068E+02 -0.79971540268E+01  0.54367100170E+02  0.40000036457E+02 0.  0.
        -12    1    3    3    0    0  0.25613531119E+02  0.25214504068E+02  0.79971540268E+01  0.36820899830E+02  0.00000000000E+00 0.  1.
         11    1    4    4    0    0 -0.18524737112E+02 -0.33853992530E+02 -0.62382457680E+01  0.39091871352E+02  0.51100000000E-03 0. -1.
        -11    1    4    4    0    0 -0.81469514550E+01  0.69493901906E+01  0.21178772686E+01  0.10915688087E+02  0.51100000000E-03 0.  1.
        -12    1    4    4    0    0  0.10581574476E+01  0.16900982720E+01 -0.38767855273E+01  0.43595407301E+01  0.00000000000E+00 0.  1.
</event>
<event>
 8    1  0.1261983E-006  0.9118800E+02  0.7816164E-02  0.1184000E+00
        -11   -1    0    0    0    0  0.00000000000E+00  0.00000000000E+00  0.45593999997E+02  0.45594000000E+02  0.51100000000E-03 0. -1.
         11   -1    0    0    0    0 -0.00000000000E+00 -0.00000000000E+00 -0.45593999997E+02  0.45594000000E+02  0.51100000000E-03 0.  1.
         23    2    1    2    0    0  0.17763568394E-14  0.00000000000E+00  0.35527136788E-14  0.91188000000E+02  0.91188000000E+02 0.  0.
    9900012    2    3    3    0    0  0.96796314753E+01 -0.16925073503E+02  0.31235004922E+02  0.54367096819E+02  0.40000028818E+02 0.  0.
        -12    1    3    3    0    0 -0.96796314753E+01  0.16925073503E+02 -0.31235004922E+02  0.36820903181E+02  0.00000000000E+00 0.  1.
         11    1    4    4    0    0 -0.37827814891E+01 -0.70569113771E+01 -0.29678254157E+01  0.85391698623E+01  0.51100000000E-03 0. -1.
        -11    1    4    4    0    0  0.12702248647E+02  0.57547904186E+01  0.10615974086E+02  0.17526084545E+02  0.51100000000E-03 0.  1.
         12    1    4    4    0    0  0.76016431781E+00 -0.15622952544E+02  0.23586856252E+02  0.28301842411E+02  0.00000000000E+00 0. -1.
</event>
<event>
 8    1  0.1261983E-006  0.9118800E+02  0.7816164E-02  0.1184000E+00
        -11   -1    0    0    0    0  0.00000000000E+00  0.00000000000E+00  0.45593999997E+02  0.45594000000E+02  0.51100000000E-03 0.  1.
         11   -1    0    0    0    0 -0.00000000000E+00 -0.00000000000E+00 -0.45593999997E+02  0.45594000000E+02  0.51100000000E-03 0. -1.
         23    2    1    2    0    0  0.44408920985E-15  0.35527136788E-14  0.00000000000E+00  0.91188000000E+02  0.91188000000E+02 0.  0.
    9900012    2    3    3    0    0 -0.28463205660E+01  0.24294214273E+02 -0.27521879838E+02  0.54367295801E+02  0.40000482434E+02 0.  0.
        -12    1    3    3    0    0  0.28463205660E+01 -0.24294214273E+02  0.27521879838E+02  0.36820704199E+02  0.00000000000E+00 0.  1.
         11    1    4    4    0    0  0.97675481272E+01  0.17188156155E+02 -0.36413814591E+01  0.20102173206E+02  0.51100000000E-03 0. -1.
        -11    1    4    4    0    0  0.53730596217E+01  0.12011229964E+01 -0.39466715667E+01  0.67741186045E+01  0.51100000000E-03 0.  1.
        -12    1    4    4    0    0 -0.17986928315E+02  0.59049351215E+01 -0.19933826812E+02  0.27491003990E+02  0.00000000000E+00 0.  1.
</event>
<event>
 8    1  0.1261983E-006  0.9118800E+02  0.7816164E-02  0.1184000E+00
        -11   -1    0    0    0    0  0.00000000000E+00  0.00000000000E+00  0.45593999997E+02  0.45594000000E+02  0.51100000000E-03 0.  1.
         11   -1    0    0    0    0 -0.00000000000E+00 -0.00000000000E+00 -0.45593999997E+02  0.45594000000E+02  0.51100000000E-03 0. -1.
         23    2    1    2    0    0  0.71054273576E-14  0.00000000000E+00 -0.26645352591E-14  0.91188000000E+02  0.91188000000E+02 0.  0.
    9900012    2    3    3    0    0 -0.30078181279E+02  0.20087922868E+02  0.68963470681E+01  0.54367065234E+02  0.39999956814E+02 0.  0.
        -12    1    3    3    0    0  0.30078181279E+02 -0.20087922868E+02 -0.68963470681E+01  0.36820934766E+02  0.00000000000E+00 0.  1.
         11    1    4    4    0    0 -0.91390969567E+00 -0.62584815970E+00 -0.32658130762E+01  0.34485434839E+01  0.51100000000E-03 0.  1.
        -11    1    4    4    0    0  0.13976734944E+00 -0.91769515826E+00  0.14237809342E+02  0.14268038213E+02  0.51100000000E-03 0. -1.
         12    1    4    4    0    0 -0.29304038932E+02  0.21631466186E+02 -0.40756491982E+01  0.36650483537E+02  0.00000000000E+00 0. -1.
</event>
<event>
 8    1  0.1261983E-006  0.9118800E+02  0.7816164E-02  0.1184000E+00
        -11   -1    0    0    0    0  0.00000000000E+00  0.00000000000E+00  0.45593999997E+02  0.45594000000E+02  0.51100000000E-03 0. -1.
         11   -1    0    0    0    0 -0.00000000000E+00 -0.00000000000E+00 -0.45593999997E+02  0.45594000000E+02  0.51100000000E-03 0.  1.
         23    2    1    2    0    0  0.00000000000E+00 -0.88817841970E-15  0.71054273576E-14  0.91188000000E+02  0.91188000000E+02 0.  0.
    9900012    2    3    3    0    0 -0.28076907778E+02 -0.40305410127E+01 -0.23478103609E+02  0.54367090719E+02  0.40000014912E+02 0.  0.
        -12    1    3    3    0    0  0.28076907778E+02  0.40305410127E+01  0.23478103609E+02  0.36820909281E+02  0.00000000000E+00 0.  1.
         11    1    4    4    0    0 -0.12593265887E+02 -0.12436203631E+02 -0.28349952408E+01  0.17924472230E+02  0.51100000000E-03 0. -1.
        -11    1    4    4    0    0 -0.20314564095E+01  0.12466319973E+02 -0.15344540102E+01  0.12723619696E+02  0.51100000000E-03 0.  1.
        -12    1    4    4    0    0 -0.13452185481E+02 -0.40606573542E+01 -0.19108654358E+02  0.23718998793E+02  0.00000000000E+00 0.  1.
</event>
<event>
 8    1  0.1261983E-006  0.9118800E+02  0.7816164E-02  0.1184000E+00
        -11   -1    0    0    0    0  0.00000000000E+00  0.00000000000E+00  0.45593999997E+02  0.45594000000E+02  0.51100000000E-03 0. -1.
         11   -1    0    0    0    0 -0.00000000000E+00 -0.00000000000E+00 -0.45593999997E+02  0.45594000000E+02  0.51100000000E-03 0.  1.
         23    2    1    2    0    0 -0.17763568394E-14  0.00000000000E+00 -0.35527136788E-14  0.91188000000E+02  0.91188000000E+02 0.  0.
    9900012    2    3    3    0    0 -0.10426661856E+02  0.25758245342E+02 -0.24157334769E+02  0.54367091487E+02  0.40000016663E+02 0.  0.
         12    1    3    3    0    0  0.10426661856E+02 -0.25758245342E+02  0.24157334769E+02  0.36820908513E+02  0.00000000000E+00 0. -1.
         11    1    4    4    0    0  0.71242231387E+01 -0.12288148727E+01 -0.60755266804E+01  0.94433344761E+01  0.51100000000E-03 0. -1.
        -11    1    4    4    0    0 -0.10145225528E+01  0.10497596988E+02  0.53638777936E+01  0.11832158880E+02  0.51100000000E-03 0.  1.
        -12    1    4    4    0    0 -0.16536362442E+02  0.16489463227E+02 -0.23445685882E+02  0.33091598131E+02  0.00000000000E+00 0.  1.
</event>
<event>
 8    1  0.1261983E-006  0.9118800E+02  0.7816164E-02  0.1184000E+00
        -11   -1    0    0    0    0  0.00000000000E+00  0.00000000000E+00  0.45593999997E+02  0.45594000000E+02  0.51100000000E-03 0. -1.
         11   -1    0    0    0    0 -0.00000000000E+00 -0.00000000000E+00 -0.45593999997E+02  0.45594000000E+02  0.51100000000E-03 0.  1.
         23    2    1    2    0    0  0.35527136788E-14 -0.17763568394E-14  0.00000000000E+00  0.91188000000E+02  0.91188000000E+02 0.  0.
    9900012    2    3    3    0    0 -0.30196594406E+02 -0.14968172758E+02  0.14829002432E+02  0.54367084442E+02  0.40000000602E+02 0.  0.
        -12    1    3    3    0    0  0.30196594406E+02  0.14968172758E+02 -0.14829002432E+02  0.36820915558E+02  0.00000000000E+00 0.  1.
         11    1    4    4    0    0 -0.11127246155E+02 -0.87451859212E-01 -0.83227949340E+01  0.13895760886E+02  0.51100000000E-03 0. -1.
        -11    1    4    4    0    0 -0.58965126035E+01 -0.14012103494E+02  0.17190732839E+01  0.15299121492E+02  0.51100000000E-03 0.  1.
        -12    1    4    4    0    0 -0.13172835647E+02 -0.86861740505E+00  0.21432724082E+02  0.25172202064E+02  0.00000000000E+00 0.  1.
</event>
<event>
 8    1  0.1261983E-006  0.9118800E+02  0.7816164E-02  0.1184000E+00
        -11   -1    0    0    0    0  0.00000000000E+00  0.00000000000E+00  0.45593999997E+02  0.45594000000E+02  0.51100000000E-03 0.  1.
         11   -1    0    0    0    0 -0.00000000000E+00 -0.00000000000E+00 -0.45593999997E+02  0.45594000000E+02  0.51100000000E-03 0. -1.
         23    2    1    2    0    0 -0.44408920985E-15  0.00000000000E+00  0.00000000000E+00  0.91188000000E+02  0.91188000000E+02 0.  0.
    9900012    2    3    3    0    0 -0.35132164060E+01 -0.17063637767E+02  0.32438706157E+02  0.54367080939E+02  0.39999992616E+02 0.  0.
         12    1    3    3    0    0  0.35132164060E+01  0.17063637767E+02 -0.32438706157E+02  0.36820919061E+02  0.00000000000E+00 0. -1.
         11    1    4    4    0    0 -0.87800600825E+01 -0.34491907111E+01  0.91934666452E+01  0.13172175251E+02  0.51100000000E-03 0.  1.
        -11    1    4    4    0    0  0.19687629846E+00 -0.18270337021E+00 -0.73729814428E+01  0.73778720791E+01  0.51100000000E-03 0. -1.
        -12    1    4    4    0    0  0.50699673781E+01 -0.13431743686E+02  0.30618220955E+02  0.33817033609E+02  0.00000000000E+00 0.  1.
</event>
<event>
 8    1  0.1261983E-006  0.9118800E+02  0.7816164E-02  0.1184000E+00
        -11   -1    0    0    0    0  0.00000000000E+00  0.00000000000E+00  0.45593999997E+02  0.45594000000E+02  0.51100000000E-03 0.  1.
         11   -1    0    0    0    0 -0.00000000000E+00 -0.00000000000E+00 -0.45593999997E+02  0.45594000000E+02  0.51100000000E-03 0. -1.
         23    2    1    2    0    0 -0.35527136788E-14  0.00000000000E+00  0.88817841970E-15  0.91188000000E+02  0.91188000000E+02 0.  0.
    9900012    2    3    3    0    0  0.28955599729E+02 -0.22319099839E+02 -0.43830184990E+01  0.54367084416E+02  0.40000000543E+02 0.  0.
         12    1    3    3    0    0 -0.28955599729E+02  0.22319099839E+02  0.43830184990E+01  0.36820915584E+02  0.00000000000E+00 0. -1.
         11    1    4    4    0    0 -0.40367983708E+01 -0.11460928152E+02 -0.11553086040E+02  0.16766705476E+02  0.51100000000E-03 0. -1.
        -11    1    4    4    0    0  0.92617845151E+01 -0.88843746831E+01  0.46685142483E+01  0.13656785546E+02  0.51100000000E-03 0.  1.
         12    1    4    4    0    0  0.23730613585E+02 -0.19737970031E+01  0.25015532929E+01  0.23943593394E+02  0.00000000000E+00 0. -1.
</event>
<event>
 8    1  0.1261983E-006  0.9118800E+02  0.7816164E-02  0.1184000E+00
        -11   -1    0    0    0    0  0.00000000000E+00  0.00000000000E+00  0.45593999997E+02  0.45594000000E+02  0.51100000000E-03 0.  1.
         11   -1    0    0    0    0 -0.00000000000E+00 -0.00000000000E+00 -0.45593999997E+02  0.45594000000E+02  0.51100000000E-03 0. -1.
         23    2    1    2    0    0  0.35527136788E-14 -0.35527136788E-14  0.00000000000E+00  0.91188000000E+02  0.91188000000E+02 0.  0.
    9900012    2    3    3    0    0 -0.21658360172E+02 -0.21085479473E+02 -0.21026130340E+02  0.54367079765E+02  0.39999989939E+02 0.  0.
        -12    1    3    3    0    0  0.21658360172E+02  0.21085479473E+02  0.21026130340E+02  0.36820920235E+02  0.00000000000E+00 0.  1.
         11    1    4    4    0    0 -0.38195731242E+01 -0.26470661234E+01  0.16358309238E+01  0.49266663156E+01  0.51100000000E-03 0. -1.
        -11    1    4    4    0    0 -0.24591671043E+02 -0.10019880906E+02 -0.26278436640E+01  0.26684337365E+02  0.51100000000E-03 0.  1.
         12    1    4    4    0    0  0.67528839950E+01 -0.84185324434E+01 -0.20034117599E+02  0.22756076084E+02  0.00000000000E+00 0. -1.
</event>
<event>
 8    1  0.1261983E-006  0.9118800E+02  0.7816164E-02  0.1184000E+00
        -11   -1    0    0    0    0  0.00000000000E+00  0.00000000000E+00  0.45593999997E+02  0.45594000000E+02  0.51100000000E-03 0. -1.
         11   -1    0    0    0    0 -0.00000000000E+00 -0.00000000000E+00 -0.45593999997E+02  0.45594000000E+02  0.51100000000E-03 0.  1.
         23    2    1    2    0    0  0.00000000000E+00 -0.11102230246E-14  0.44408920985E-15  0.91188000000E+02  0.91188000000E+02 0.  0.
    9900012    2    3    3    0    0 -0.36583636026E+02  0.12743506367E+01  0.39740962158E+01  0.54367084271E+02  0.40000000212E+02 0.  0.
        -12    1    3    3    0    0  0.36583636026E+02 -0.12743506367E+01 -0.39740962158E+01  0.36820915729E+02  0.00000000000E+00 0.  1.
         11    1    4    4    0    0  0.28996140862E+01 -0.18496336875E+01 -0.22336859350E+00  0.34465635663E+01  0.51100000000E-03 0. -1.
        -11    1    4    4    0    0 -0.29567573700E+02 -0.67036442146E+01  0.14463745350E+02  0.33591370768E+02  0.51100000000E-03 0.  1.
        -12    1    4    4    0    0 -0.99156764121E+01  0.98276285388E+01 -0.10266280540E+02  0.17329149937E+02  0.00000000000E+00 0.  1.
</event>
<event>
 8    1  0.1261983E-006  0.9118800E+02  0.7816164E-02  0.1184000E+00
        -11   -1    0    0    0    0  0.00000000000E+00  0.00000000000E+00  0.45593999997E+02  0.45594000000E+02  0.51100000000E-03 0. -1.
         11   -1    0    0    0    0 -0.00000000000E+00 -0.00000000000E+00 -0.45593999997E+02  0.45594000000E+02  0.51100000000E-03 0.  1.
         23    2    1    2    0    0 -0.35527136788E-14 -0.35527136788E-14  0.00000000000E+00  0.91188000000E+02  0.91188000000E+02 0.  0.
    9900012    2    3    3    0    0  0.23262964945E+02  0.26252026446E+02  0.11200271752E+02  0.54367075000E+02  0.39999979078E+02 0.  0.
        -12    1    3    3    0    0 -0.23262964945E+02 -0.26252026446E+02 -0.11200271752E+02  0.36820925000E+02  0.00000000000E+00 0.  1.
         11    1    4    4    0    0 -0.73950698711E+00  0.18128608435E+01  0.10092907640E+01  0.22027262947E+01  0.51100000000E-03 0. -1.
        -11    1    4    4    0    0  0.24429557489E+02  0.17270081182E+02 -0.93506885388E+01  0.31344766063E+02  0.51100000000E-03 0.  1.
        -12    1    4    4    0    0 -0.42708555736E+00  0.71690844205E+01  0.19541669527E+02  0.20819582642E+02  0.00000000000E+00 0.  1.
</event>
<event>
 8    1  0.1261983E-006  0.9118800E+02  0.7816164E-02  0.1184000E+00
        -11   -1    0    0    0    0  0.00000000000E+00  0.00000000000E+00  0.45593999997E+02  0.45594000000E+02  0.51100000000E-03 0.  1.
         11   -1    0    0    0    0 -0.00000000000E+00 -0.00000000000E+00 -0.45593999997E+02  0.45594000000E+02  0.51100000000E-03 0. -1.
         23    2    1    2    0    0  0.00000000000E+00  0.00000000000E+00  0.00000000000E+00  0.91188000000E+02  0.91188000000E+02 0.  0.
    9900012    2    3    3    0    0  0.19496885672E+02 -0.29896832590E+02  0.90460771844E+01  0.54367073040E+02  0.39999974608E+02 0.  0.
        -12    1    3    3    0    0 -0.19496885672E+02  0.29896832590E+02 -0.90460771844E+01  0.36820926960E+02  0.00000000000E+00 0.  1.
         11    1    4    4    0    0  0.12764219807E+02 -0.70879991298E+01 -0.63930280202E+01  0.15938502015E+02  0.51100000000E-03 0. -1.
        -11    1    4    4    0    0 -0.22496926077E+01  0.51358862436E+01  0.41665440117E+01  0.69855947204E+01  0.51100000000E-03 0.  1.
         12    1    4    4    0    0  0.89823584726E+01 -0.27944719703E+02  0.11272561193E+02  0.31442976304E+02  0.00000000000E+00 0. -1.
</event>
<event>
 8    1  0.1261983E-006  0.9118800E+02  0.7816164E-02  0.1184000E+00
        -11   -1    0    0    0    0  0.00000000000E+00  0.00000000000E+00  0.45593999997E+02  0.45594000000E+02  0.51100000000E-03 0. -1.
         11   -1    0    0    0    0 -0.00000000000E+00 -0.00000000000E+00 -0.45593999997E+02  0.45594000000E+02  0.51100000000E-03 0.  1.
         23    2    1    2    0    0  0.44408920985E-15 -0.35527136788E-14  0.00000000000E+00  0.91188000000E+02  0.91188000000E+02 0.  0.
    9900012    2    3    3    0    0  0.25804515252E+01 -0.15587668184E+02 -0.33258771090E+02  0.54367082250E+02  0.39999995606E+02 0.  0.
         12    1    3    3    0    0 -0.25804515252E+01  0.15587668184E+02  0.33258771090E+02  0.36820917750E+02  0.00000000000E+00 0. -1.
         11    1    4    4    0    0 -0.17659926406E+01 -0.77214464974E+01  0.12629488632E+01  0.80208793851E+01  0.51100000000E-03 0. -1.
        -11    1    4    4    0    0 -0.21673109693E+01  0.10783143024E+02 -0.10074281063E+02  0.14915245540E+02  0.51100000000E-03 0.  1.
         12    1    4    4    0    0  0.65137551351E+01 -0.18649364711E+02 -0.24447438890E+02  0.31430957325E+02  0.00000000000E+00 0. -1.
</event>
<event>
 8    1  0.1261983E-006  0.9118800E+02  0.7816164E-02  0.1184000E+00
        -11   -1    0    0    0    0  0.00000000000E+00  0.00000000000E+00  0.45593999997E+02  0.45594000000E+02  0.51100000000E-03 0.  1.
         11   -1    0    0    0    0 -0.00000000000E+00 -0.00000000000E+00 -0.45593999997E+02  0.45594000000E+02  0.51100000000E-03 0. -1.
         23    2    1    2    0    0  0.00000000000E+00  0.00000000000E+00 -0.35527136788E-14  0.91188000000E+02  0.91188000000E+02 0.  0.
    9900012    2    3    3    0    0  0.16381976424E+02 -0.23052208150E+02  0.23579790144E+02  0.54367082638E+02  0.39999996489E+02 0.  0.
         12    1    3    3    0    0 -0.16381976424E+02  0.23052208150E+02 -0.23579790144E+02  0.36820917362E+02  0.00000000000E+00 0. -1.
         11    1    4    4    0    0  0.15200535275E+02 -0.47876322844E+01  0.24419020968E+02  0.29159325795E+02  0.51100000000E-03 0. -1.
        -11    1    4    4    0    0  0.34555701292E+01 -0.21001578106E+02 -0.22012964000E+01  0.21397498778E+02  0.51100000000E-03 0.  1.
         12    1    4    4    0    0 -0.22741289807E+01  0.27370022399E+01  0.13620655764E+01  0.38102580643E+01  0.00000000000E+00 0. -1.
</event>
<event>
 8    1  0.1261983E-006  0.9118800E+02  0.7816164E-02  0.1184000E+00
        -11   -1    0    0    0    0  0.00000000000E+00  0.00000000000E+00  0.45593999997E+02  0.45594000000E+02  0.51100000000E-03 0. -1.
         11   -1    0    0    0    0 -0.00000000000E+00 -0.00000000000E+00 -0.45593999997E+02  0.45594000000E+02  0.51100000000E-03 0.  1.
         23    2    1    2    0    0  0.00000000000E+00 -0.71054273576E-14  0.17763568394E-14  0.91188000000E+02  0.91188000000E+02 0.  0.
    9900012    2    3    3    0    0 -0.13768529915E+02 -0.32572371575E+02  0.10259090940E+02  0.54367071808E+02  0.39999971800E+02 0.  0.
         12    1    3    3    0    0  0.13768529915E+02  0.32572371575E+02 -0.10259090940E+02  0.36820928192E+02  0.00000000000E+00 0. -1.
         11    1    4    4    0    0 -0.54968516066E+01 -0.10447775009E+02  0.17424656478E+02  0.21047328426E+02  0.51100000000E-03 0. -1.
        -11    1    4    4    0    0  0.58675830546E+01 -0.30320294590E+01 -0.69121962223E+01  0.95603446811E+01  0.51100000000E-03 0.  1.
        -12    1    4    4    0    0 -0.14139261363E+02 -0.19092567107E+02 -0.25336931596E+00  0.23759398701E+02  0.00000000000E+00 0.  1.
</event>
<event>
 8    1  0.1261983E-006  0.9118800E+02  0.7816164E-02  0.1184000E+00
        -11   -1    0    0    0    0  0.00000000000E+00  0.00000000000E+00  0.45593999997E+02  0.45594000000E+02  0.51100000000E-03 0.  1.
         11   -1    0    0    0    0 -0.00000000000E+00 -0.00000000000E+00 -0.45593999997E+02  0.45594000000E+02  0.51100000000E-03 0. -1.
         23    2    1    2    0    0  0.00000000000E+00 -0.44408920985E-15 -0.17763568394E-14  0.91188000000E+02  0.91188000000E+02 0.  0.
    9900012    2    3    3    0    0  0.34031870072E+02  0.36525632570E+01 -0.13574589680E+02  0.54367097187E+02  0.40000029658E+02 0.  0.
        -12    1    3    3    0    0 -0.34031870072E+02 -0.36525632570E+01  0.13574589680E+02  0.36820902813E+02  0.00000000000E+00 0.  1.
         11    1    4    4    0    0  0.81024507044E+01  0.17773466379E+01  0.10653595160E+02  0.13502139037E+02  0.51100000000E-03 0. -1.
        -11    1    4    4    0    0 -0.20287382539E+01 -0.82866799935E+00 -0.82789174258E+01  0.85640494837E+01  0.51100000000E-03 0.  1.
         12    1    4    4    0    0  0.27958157622E+02  0.27038846184E+01 -0.15949267414E+02  0.32300908666E+02  0.00000000000E+00 0. -1.
</event>
<event>
 8    1  0.1261983E-006  0.9118800E+02  0.7816164E-02  0.1184000E+00
        -11   -1    0    0    0    0  0.00000000000E+00  0.00000000000E+00  0.45593999997E+02  0.45594000000E+02  0.51100000000E-03 0.  1.
         11   -1    0    0    0    0 -0.00000000000E+00 -0.00000000000E+00 -0.45593999997E+02  0.45594000000E+02  0.51100000000E-03 0. -1.
         23    2    1    2    0    0  0.71054273576E-14  0.00000000000E+00  0.35527136788E-14  0.91188000000E+02  0.91188000000E+02 0.  0.
    9900012    2    3    3    0    0 -0.30124179314E+02  0.11676179144E+02 -0.17662993222E+02  0.54367072957E+02  0.39999974420E+02 0.  0.
        -12    1    3    3    0    0  0.30124179314E+02 -0.11676179144E+02  0.17662993222E+02  0.36820927043E+02  0.00000000000E+00 0.  1.
         11    1    4    4    0    0 -0.83458530458E+00  0.64335116925E+01 -0.60208210021E+01  0.88508130208E+01  0.51100000000E-03 0. -1.
        -11    1    4    4    0    0 -0.87678102685E+00  0.57980286836E+01  0.87538131606E+01  0.10536371610E+02  0.51100000000E-03 0.  1.
         12    1    4    4    0    0 -0.28412812983E+02 -0.55536123232E+00 -0.20395985380E+02  0.34979888326E+02  0.00000000000E+00 0. -1.
</event>
<event>
 8    1  0.1261983E-006  0.9118800E+02  0.7816164E-02  0.1184000E+00
        -11   -1    0    0    0    0  0.00000000000E+00  0.00000000000E+00  0.45593999997E+02  0.45594000000E+02  0.51100000000E-03 0.  1.
         11   -1    0    0    0    0 -0.00000000000E+00 -0.00000000000E+00 -0.45593999997E+02  0.45594000000E+02  0.51100000000E-03 0. -1.
         23    2    1    2    0    0  0.17763568394E-14  0.17763568394E-14 -0.71054273576E-14  0.91188000000E+02  0.91188000000E+02 0.  0.
    9900012    2    3    3    0    0  0.28042507771E+01 -0.11739595349E+02  0.34786457659E+02  0.54367088036E+02  0.40000008796E+02 0.  0.
         12    1    3    3    0    0 -0.28042507771E+01  0.11739595349E+02 -0.34786457659E+02  0.36820911964E+02  0.00000000000E+00 0. -1.
         11    1    4    4    0    0 -0.10786869404E+02 -0.55948434853E+01  0.18993327533E+01  0.12299036154E+02  0.51100000000E-03 0. -1.
        -11    1    4    4    0    0 -0.30741930521E+01 -0.63338862704E+01  0.26134323129E+01  0.75099139092E+01  0.51100000000E-03 0.  1.
        -12    1    4    4    0    0  0.16665313233E+02  0.18913440631E+00  0.30273692593E+02  0.34558137973E+02  0.00000000000E+00 0.  1.
</event>
<event>
 8    1  0.1261983E-006  0.9118800E+02  0.7816164E-02  0.1184000E+00
        -11   -1    0    0    0    0  0.00000000000E+00  0.00000000000E+00  0.45593999997E+02  0.45594000000E+02  0.51100000000E-03 0. -1.
         11   -1    0    0    0    0 -0.00000000000E+00 -0.00000000000E+00 -0.45593999997E+02  0.45594000000E+02  0.51100000000E-03 0.  1.
         23    2    1    2    0    0 -0.17763568394E-14  0.71054273576E-14  0.35527136788E-14  0.91188000000E+02  0.91188000000E+02 0.  0.
    9900012    2    3    3    0    0  0.92741128885E+01 -0.24455435754E+02 -0.25917233627E+02  0.54367075152E+02  0.39999979424E+02 0.  0.
         12    1    3    3    0    0 -0.92741128885E+01  0.24455435754E+02  0.25917233627E+02  0.36820924848E+02  0.00000000000E+00 0. -1.
         11    1    4    4    0    0 -0.35675453226E+01 -0.13027178914E+01 -0.53334032140E+01  0.65474914003E+01  0.51100000000E-03 0. -1.
        -11    1    4    4    0    0 -0.29696390892E+01 -0.25526637663E+02 -0.18567184537E+02  0.31704389737E+02  0.51100000000E-03 0.  1.
         12    1    4    4    0    0  0.15811297300E+02  0.23739198009E+01 -0.20166458764E+01  0.16115194015E+02  0.00000000000E+00 0. -1.
</event>
<event>
 8    1  0.1261983E-006  0.9118800E+02  0.7816164E-02  0.1184000E+00
        -11   -1    0    0    0    0  0.00000000000E+00  0.00000000000E+00  0.45593999997E+02  0.45594000000E+02  0.51100000000E-03 0.  1.
         11   -1    0    0    0    0 -0.00000000000E+00 -0.00000000000E+00 -0.45593999997E+02  0.45594000000E+02  0.51100000000E-03 0. -1.
         23    2    1    2    0    0  0.00000000000E+00  0.00000000000E+00  0.17763568394E-14  0.91188000000E+02  0.91188000000E+02 0.  0.
    9900012    2    3    3    0    0 -0.29528901808E+02  0.16540818462E+02 -0.14499141305E+02  0.54367084532E+02  0.40000000806E+02 0.  0.
        -12    1    3    3    0    0  0.29528901808E+02 -0.16540818462E+02  0.14499141305E+02  0.36820915468E+02  0.00000000000E+00 0.  1.
         11    1    4    4    0    0 -0.42641913709E+01  0.14815069234E+02 -0.51528155712E+01  0.16254879668E+02  0.51100000000E-03 0. -1.
        -11    1    4    4    0    0 -0.27249822077E+02 -0.24811691808E+01 -0.14666327812E+02  0.31045292324E+02  0.51100000000E-03 0.  1.
        -12    1    4    4    0    0  0.19851116399E+01  0.42069184085E+01  0.53200020787E+01  0.70669125392E+01  0.00000000000E+00 0.  1.
</event>
<event>
 8    1  0.1261983E-006  0.9118800E+02  0.7816164E-02  0.1184000E+00
        -11   -1    0    0    0    0  0.00000000000E+00  0.00000000000E+00  0.45593999997E+02  0.45594000000E+02  0.51100000000E-03 0.  1.
         11   -1    0    0    0    0 -0.00000000000E+00 -0.00000000000E+00 -0.45593999997E+02  0.45594000000E+02  0.51100000000E-03 0. -1.
         23    2    1    2    0    0  0.00000000000E+00  0.35527136788E-14  0.00000000000E+00  0.91188000000E+02  0.91188000000E+02 0.  0.
    9900012    2    3    3    0    0  0.90150547081E+01  0.23060893869E+02  0.27252598417E+02  0.54367079888E+02  0.39999990221E+02 0.  0.
         12    1    3    3    0    0 -0.90150547081E+01 -0.23060893869E+02 -0.27252598417E+02  0.36820920112E+02  0.00000000000E+00 0. -1.
         11    1    4    4    0    0  0.14808779225E+02  0.20896065564E+02  0.23160522919E+02  0.34530498409E+02  0.51100000000E-03 0.  1.
        -11    1    4    4    0    0 -0.32247943700E+01 -0.81128996163E+01  0.27770633258E+01  0.91613601550E+01  0.51100000000E-03 0. -1.
        -12    1    4    4    0    0 -0.25689301469E+01  0.10277727921E+02  0.13150121719E+01  0.10675221324E+02  0.00000000000E+00 0.  1.
</event>
<event>
 8    1  0.1261983E-006  0.9118800E+02  0.7816164E-02  0.1184000E+00
        -11   -1    0    0    0    0  0.00000000000E+00  0.00000000000E+00  0.45593999997E+02  0.45594000000E+02  0.51100000000E-03 0.  1.
         11   -1    0    0    0    0 -0.00000000000E+00 -0.00000000000E+00 -0.45593999997E+02  0.45594000000E+02  0.51100000000E-03 0. -1.
         23    2    1    2    0    0  0.00000000000E+00 -0.22204460493E-15  0.35527136788E-14  0.91188000000E+02  0.91188000000E+02 0.  0.
    9900012    2    3    3    0    0 -0.29875385797E+02  0.46288736661E+00  0.21518018266E+02  0.54367108493E+02  0.40000055432E+02 0.  0.
         12    1    3    3    0    0  0.29875385797E+02 -0.46288736661E+00 -0.21518018266E+02  0.36820891507E+02  0.00000000000E+00 0. -1.
         11    1    4    4    0    0  0.66212290540E+01  0.26440087258E+01 -0.28979856133E+01  0.76960884353E+01  0.51100000000E-03 0. -1.
        -11    1    4    4    0    0 -0.44108976513E+01 -0.50656510393E+01  0.82152412040E+01  0.10611645812E+02  0.51100000000E-03 0.  1.
         12    1    4    4    0    0 -0.32085717200E+02  0.28845296801E+01  0.16200762676E+02  0.36059374246E+02  0.00000000000E+00 0. -1.
</event>
<event>
 8    1  0.1261983E-006  0.9118800E+02  0.7816164E-02  0.1184000E+00
        -11   -1    0    0    0    0  0.00000000000E+00  0.00000000000E+00  0.45593999997E+02  0.45594000000E+02  0.51100000000E-03 0. -1.
         11   -1    0    0    0    0 -0.00000000000E+00 -0.00000000000E+00 -0.45593999997E+02  0.45594000000E+02  0.51100000000E-03 0.  1.
         23    2    1    2    0    0  0.00000000000E+00  0.00000000000E+00  0.22204460493E-15  0.91188000000E+02  0.91188000000E+02 0.  0.
    9900012    2    3    3    0    0 -0.97380148186E+01  0.35486373792E+02 -0.12910578696E+01  0.54367102565E+02  0.40000041917E+02 0.  0.
         12    1    3    3    0    0  0.97380148186E+01 -0.35486373792E+02  0.12910578696E+01  0.36820897435E+02  0.00000000000E+00 0. -1.
         11    1    4    4    0    0 -0.22377095972E+01  0.31615783711E+01  0.41906202207E+00  0.38959639728E+01  0.51100000000E-03 0. -1.
        -11    1    4    4    0    0  0.12422081716E+02  0.22604976838E+02  0.68845596623E+01  0.26696259177E+02  0.51100000000E-03 0.  1.
        -12    1    4    4    0    0 -0.19922386938E+02  0.97198185823E+01 -0.85946795540E+01  0.23774879415E+02  0.00000000000E+00 0.  1.
</event>
<event>
 8    1  0.1261983E-006  0.9118800E+02  0.7816164E-02  0.1184000E+00
        -11   -1    0    0    0    0  0.00000000000E+00  0.00000000000E+00  0.45593999997E+02  0.45594000000E+02  0.51100000000E-03 0.  1.
         11   -1    0    0    0    0 -0.00000000000E+00 -0.00000000000E+00 -0.45593999997E+02  0.45594000000E+02  0.51100000000E-03 0. -1.
         23    2    1    2    0    0  0.00000000000E+00  0.71054273576E-14  0.00000000000E+00  0.91188000000E+02  0.91188000000E+02 0.  0.
    9900012    2    3    3    0    0 -0.67877076077E+01 -0.34196190861E+02  0.11846001301E+02  0.54367079441E+02  0.39999989202E+02 0.  0.
         12    1    3    3    0    0  0.67877076077E+01  0.34196190861E+02 -0.11846001301E+02  0.36820920559E+02  0.00000000000E+00 0. -1.
         11    1    4    4    0    0 -0.14353553028E+02 -0.12458498107E+01 -0.41992643275E+01  0.15007013275E+02  0.51100000000E-03 0. -1.
        -11    1    4    4    0    0  0.33952749025E+01 -0.30912662794E+02  0.15301371033E+02  0.34659090704E+02  0.51100000000E-03 0.  1.
         12    1    4    4    0    0  0.41705705182E+01 -0.20376782567E+01  0.74389459467E+00  0.47009754618E+01  0.00000000000E+00 0. -1.
</event>
<event>
 8    1  0.1261983E-006  0.9118800E+02  0.7816164E-02  0.1184000E+00
        -11   -1    0    0    0    0  0.00000000000E+00  0.00000000000E+00  0.45593999997E+02  0.45594000000E+02  0.51100000000E-03 0.  1.
         11   -1    0    0    0    0 -0.00000000000E+00 -0.00000000000E+00 -0.45593999997E+02  0.45594000000E+02  0.51100000000E-03 0. -1.
         23    2    1    2    0    0  0.35527136788E-14  0.00000000000E+00  0.00000000000E+00  0.91188000000E+02  0.91188000000E+02 0.  0.
    9900012    2    3    3    0    0  0.10457652557E+02  0.24941002865E+02  0.24987421466E+02  0.54366982192E+02  0.39999767502E+02 0.  0.
         12    1    3    3    0    0 -0.10457652557E+02 -0.24941002865E+02 -0.24987421466E+02  0.36821017808E+02  0.00000000000E+00 0. -1.
         11    1    4    4    0    0 -0.81645522516E+01  0.17304576481E+02  0.14425790474E+02  0.23962715033E+02  0.51100000000E-03 0. -1.
        -11    1    4    4    0    0  0.11595462767E+02 -0.20299892857E+00  0.15015995310E+02  0.18973035624E+02  0.51100000000E-03 0.  1.
         12    1    4    4    0    0  0.70267420414E+01  0.78394253121E+01 -0.44543643184E+01  0.11431231536E+02  0.00000000000E+00 0. -1.
</event>
<event>
 8    1  0.1261983E-006  0.9118800E+02  0.7816164E-02  0.1184000E+00
        -11   -1    0    0    0    0  0.00000000000E+00  0.00000000000E+00  0.45593999997E+02  0.45594000000E+02  0.51100000000E-03 0.  1.
         11   -1    0    0    0    0 -0.00000000000E+00 -0.00000000000E+00 -0.45593999997E+02  0.45594000000E+02  0.51100000000E-03 0. -1.
         23    2    1    2    0    0  0.00000000000E+00  0.00000000000E+00 -0.17763568394E-14  0.91188000000E+02  0.91188000000E+02 0.  0.
    9900012    2    3    3    0    0 -0.24929555967E+02  0.25239074661E+02 -0.98633208786E+01  0.54367099017E+02  0.40000033828E+02 0.  0.
         12    1    3    3    0    0  0.24929555967E+02 -0.25239074661E+02  0.98633208786E+01  0.36820900983E+02  0.00000000000E+00 0. -1.
         11    1    4    4    0    0 -0.12768685480E+02  0.18576663421E+02 -0.16687332130E+02  0.28046368867E+02  0.51100000000E-03 0. -1.
        -11    1    4    4    0    0 -0.94537660032E+01  0.14394509395E+02  0.49135843102E+01  0.17908626508E+02  0.51100000000E-03 0.  1.
         12    1    4    4    0    0 -0.27071044839E+01 -0.77320981555E+01  0.19104269411E+01  0.84121036412E+01  0.00000000000E+00 0. -1.
</event>
<event>
 8    1  0.1261983E-006  0.9118800E+02  0.7816164E-02  0.1184000E+00
        -11   -1    0    0    0    0  0.00000000000E+00  0.00000000000E+00  0.45593999997E+02  0.45594000000E+02  0.51100000000E-03 0.  1.
         11   -1    0    0    0    0 -0.00000000000E+00 -0.00000000000E+00 -0.45593999997E+02  0.45594000000E+02  0.51100000000E-03 0. -1.
         23    2    1    2    0    0 -0.17763568394E-14  0.88817841970E-15  0.71054273576E-14  0.91188000000E+02  0.91188000000E+02 0.  0.
    9900012    2    3    3    0    0  0.15781114260E+02 -0.47673191380E+01 -0.32924293935E+02  0.54367081622E+02  0.39999994175E+02 0.  0.
        -12    1    3    3    0    0 -0.15781114260E+02  0.47673191380E+01  0.32924293935E+02  0.36820918378E+02  0.00000000000E+00 0.  1.
         11    1    4    4    0    0 -0.24701669692E+01  0.20579977597E+01 -0.10437998525E+02  0.10921945481E+02  0.51100000000E-03 0. -1.
        -11    1    4    4    0    0  0.23442454349E+01  0.86710062710E+01  0.31583822778E+01  0.95214082617E+01  0.51100000000E-03 0.  1.
         12    1    4    4    0    0  0.15907035794E+02 -0.15496323169E+02 -0.25644677688E+02  0.33923727880E+02  0.00000000000E+00 0. -1.
</event>
<event>
 8    1  0.1261983E-006  0.9118800E+02  0.7816164E-02  0.1184000E+00
        -11   -1    0    0    0    0  0.00000000000E+00  0.00000000000E+00  0.45593999997E+02  0.45594000000E+02  0.51100000000E-03 0.  1.
         11   -1    0    0    0    0 -0.00000000000E+00 -0.00000000000E+00 -0.45593999997E+02  0.45594000000E+02  0.51100000000E-03 0. -1.
         23    2    1    2    0    0  0.35527136788E-14  0.00000000000E+00  0.00000000000E+00  0.91188000000E+02  0.91188000000E+02 0.  0.
    9900012    2    3    3    0    0 -0.18521680255E+02  0.83761880907E+01 -0.30701245785E+02  0.54367086661E+02  0.40000005660E+02 0.  0.
        -12    1    3    3    0    0  0.18521680255E+02 -0.83761880907E+01  0.30701245785E+02  0.36820913339E+02  0.00000000000E+00 0.  1.
         11    1    4    4    0    0 -0.54591594416E+01  0.54299972537E+00 -0.28799265076E+02  0.29317144126E+02  0.51100000000E-03 0. -1.
        -11    1    4    4    0    0 -0.14670291862E+02 -0.21491252141E+01 -0.43620990991E+00  0.14833289650E+02  0.51100000000E-03 0.  1.
        -12    1    4    4    0    0  0.16077710480E+01  0.99823135794E+01 -0.14657707989E+01  0.10216652885E+02  0.00000000000E+00 0.  1.
</event>
<event>
 8    1  0.1261983E-006  0.9118800E+02  0.7816164E-02  0.1184000E+00
        -11   -1    0    0    0    0  0.00000000000E+00  0.00000000000E+00  0.45593999997E+02  0.45594000000E+02  0.51100000000E-03 0. -1.
         11   -1    0    0    0    0 -0.00000000000E+00 -0.00000000000E+00 -0.45593999997E+02  0.45594000000E+02  0.51100000000E-03 0.  1.
         23    2    1    2    0    0  0.35527136788E-14  0.71054273576E-14  0.71054273576E-14  0.91188000000E+02  0.91188000000E+02 0.  0.
    9900012    2    3    3    0    0  0.16678025283E+02  0.16440606402E+02  0.28413615385E+02  0.54367033073E+02  0.39999883497E+02 0.  0.
        -12    1    3    3    0    0 -0.16678025283E+02 -0.16440606402E+02 -0.28413615385E+02  0.36820966927E+02  0.00000000000E+00 0.  1.
         11    1    4    4    0    0  0.18969564915E+02 -0.22520392923E+01  0.15629752368E+02  0.24682083247E+02  0.51100000000E-03 0. -1.
        -11    1    4    4    0    0 -0.82775254219E+01  0.17928335477E+01  0.17980597522E+01  0.86582156576E+01  0.51100000000E-03 0.  1.
         12    1    4    4    0    0  0.59859857896E+01  0.16899812146E+02  0.10985803264E+02  0.21026734169E+02  0.00000000000E+00 0. -1.
</event>
<event>
 8    1  0.1261983E-006  0.9118800E+02  0.7816164E-02  0.1184000E+00
        -11   -1    0    0    0    0  0.00000000000E+00  0.00000000000E+00  0.45593999997E+02  0.45594000000E+02  0.51100000000E-03 0. -1.
         11   -1    0    0    0    0 -0.00000000000E+00 -0.00000000000E+00 -0.45593999997E+02  0.45594000000E+02  0.51100000000E-03 0.  1.
         23    2    1    2    0    0  0.00000000000E+00  0.26645352591E-14  0.35527136788E-14  0.91188000000E+02  0.91188000000E+02 0.  0.
    9900012    2    3    3    0    0  0.28223181252E+02 -0.51224257659E+01 -0.23086580306E+02  0.54367117393E+02  0.40000075721E+02 0.  0.
         12    1    3    3    0    0 -0.28223181252E+02  0.51224257659E+01  0.23086580306E+02  0.36820882607E+02  0.00000000000E+00 0. -1.
         11    1    4    4    0    0  0.94416656733E+01  0.15211648273E+02 -0.10187088555E+01  0.17932569862E+02  0.51100000000E-03 0. -1.
        -11    1    4    4    0    0  0.15520906255E+02 -0.13986926803E+02 -0.11999595311E+02  0.24094043667E+02  0.51100000000E-03 0.  1.
         12    1    4    4    0    0  0.32606093240E+01 -0.63471472358E+01 -0.10068276139E+02  0.12340503864E+02  0.00000000000E+00 0. -1.
</event>
<event>
 8    1  0.1261983E-006  0.9118800E+02  0.7816164E-02  0.1184000E+00
        -11   -1    0    0    0    0  0.00000000000E+00  0.00000000000E+00  0.45593999997E+02  0.45594000000E+02  0.51100000000E-03 0. -1.
         11   -1    0    0    0    0 -0.00000000000E+00 -0.00000000000E+00 -0.45593999997E+02  0.45594000000E+02  0.51100000000E-03 0.  1.
         23    2    1    2    0    0 -0.35527136788E-14 -0.22204460493E-15  0.00000000000E+00  0.91188000000E+02  0.91188000000E+02 0.  0.
    9900012    2    3    3    0    0 -0.21186371039E+02 -0.13323283487E+01 -0.30085555586E+02  0.54367108219E+02  0.40000054807E+02 0.  0.
         12    1    3    3    0    0  0.21186371039E+02  0.13323283487E+01  0.30085555586E+02  0.36820891781E+02  0.00000000000E+00 0. -1.
         11    1    4    4    0    0  0.36529980219E+01 -0.26200593274E+01  0.59654360647E+01  0.74696407631E+01  0.51100000000E-03 0. -1.
        -11    1    4    4    0    0 -0.41592626881E+00  0.48090599386E+01 -0.94639060089E+01  0.10623820846E+02  0.51100000000E-03 0.  1.
        -12    1    4    4    0    0 -0.24423442792E+02 -0.35213289599E+01 -0.26587085642E+02  0.36273646610E+02  0.00000000000E+00 0.  1.
</event>
<event>
 8    1  0.1261983E-006  0.9118800E+02  0.7816164E-02  0.1184000E+00
        -11   -1    0    0    0    0  0.00000000000E+00  0.00000000000E+00  0.45593999997E+02  0.45594000000E+02  0.51100000000E-03 0.  1.
         11   -1    0    0    0    0 -0.00000000000E+00 -0.00000000000E+00 -0.45593999997E+02  0.45594000000E+02  0.51100000000E-03 0. -1.
         23    2    1    2    0    0  0.00000000000E+00  0.00000000000E+00  0.00000000000E+00  0.91188000000E+02  0.91188000000E+02 0.  0.
    9900012    2    3    3    0    0 -0.34772992737E+01  0.34431331181E+02  0.12576645113E+02  0.54367079595E+02  0.39999989553E+02 0.  0.
         12    1    3    3    0    0  0.34772992737E+01 -0.34431331181E+02 -0.12576645113E+02  0.36820920405E+02  0.00000000000E+00 0. -1.
         11    1    4    4    0    0 -0.30792122600E+01  0.26062026302E+02  0.35424313299E+01  0.26481306295E+02  0.51100000000E-03 0. -1.
        -11    1    4    4    0    0 -0.45425543505E+01  0.16513258183E+02  0.46273242493E+01  0.17740761704E+02  0.51100000000E-03 0.  1.
         12    1    4    4    0    0  0.41444673367E+01 -0.81439533042E+01  0.44068895336E+01  0.10145011596E+02  0.00000000000E+00 0. -1.
</event>
<event>
 8    1  0.1261983E-006  0.9118800E+02  0.7816164E-02  0.1184000E+00
        -11   -1    0    0    0    0  0.00000000000E+00  0.00000000000E+00  0.45593999997E+02  0.45594000000E+02  0.51100000000E-03 0.  1.
         11   -1    0    0    0    0 -0.00000000000E+00 -0.00000000000E+00 -0.45593999997E+02  0.45594000000E+02  0.51100000000E-03 0. -1.
         23    2    1    2    0    0  0.35527136788E-14  0.00000000000E+00  0.00000000000E+00  0.91188000000E+02  0.91188000000E+02 0.  0.
    9900012    2    3    3    0    0  0.31456251804E+02 -0.17453572557E+02 -0.78517531315E+01  0.54367177090E+02  0.40000211811E+02 0.  0.
        -12    1    3    3    0    0 -0.31456251804E+02  0.17453572557E+02  0.78517531315E+01  0.36820822910E+02  0.00000000000E+00 0.  1.
         11    1    4    4    0    0  0.54275137668E+00  0.14887626281E+01 -0.21420013779E+01  0.26644255260E+01  0.51100000000E-03 0. -1.
        -11    1    4    4    0    0 -0.64874939110E+01 -0.17638110558E+01  0.58940210224E+01  0.89408104084E+01  0.51100000000E-03 0.  1.
         12    1    4    4    0    0  0.37400994338E+02 -0.17178524130E+02 -0.11603772776E+02  0.42761941155E+02  0.00000000000E+00 0. -1.
</event>
<event>
 8    1  0.1261983E-006  0.9118800E+02  0.7816164E-02  0.1184000E+00
        -11   -1    0    0    0    0  0.00000000000E+00  0.00000000000E+00  0.45593999997E+02  0.45594000000E+02  0.51100000000E-03 0.  1.
         11   -1    0    0    0    0 -0.00000000000E+00 -0.00000000000E+00 -0.45593999997E+02  0.45594000000E+02  0.51100000000E-03 0. -1.
         23    2    1    2    0    0 -0.17763568394E-14  0.00000000000E+00 -0.88817841970E-15  0.91188000000E+02  0.91188000000E+02 0.  0.
    9900012    2    3    3    0    0 -0.58941143371E+01  0.35798637375E+02 -0.62839567388E+01  0.54367202426E+02  0.40000269569E+02 0.  0.
        -12    1    3    3    0    0  0.58941143371E+01 -0.35798637375E+02  0.62839567388E+01  0.36820797574E+02  0.00000000000E+00 0.  1.
         11    1    4    4    0    0 -0.23577133891E+01  0.10916737247E+02 -0.27472832632E+01  0.11501370793E+02  0.51100000000E-03 0. -1.
        -11    1    4    4    0    0 -0.16313735595E+02  0.24407104157E+02  0.78898968723E+00  0.29367792008E+02  0.51100000000E-03 0.  1.
        -12    1    4    4    0    0  0.12777334647E+02  0.47479597077E+00 -0.43256631628E+01  0.13498039624E+02  0.00000000000E+00 0.  1.
</event>
<event>
 8    1  0.1261983E-006  0.9118800E+02  0.7816164E-02  0.1184000E+00
        -11   -1    0    0    0    0  0.00000000000E+00  0.00000000000E+00  0.45593999997E+02  0.45594000000E+02  0.51100000000E-03 0. -1.
         11   -1    0    0    0    0 -0.00000000000E+00 -0.00000000000E+00 -0.45593999997E+02  0.45594000000E+02  0.51100000000E-03 0.  1.
         23    2    1    2    0    0  0.00000000000E+00  0.00000000000E+00  0.00000000000E+00  0.91188000000E+02  0.91188000000E+02 0.  0.
    9900012    2    3    3    0    0  0.81374936384E+01 -0.13903302638E+02  0.33109809216E+02  0.54367080765E+02  0.39999992220E+02 0.  0.
        -12    1    3    3    0    0 -0.81374936384E+01  0.13903302638E+02 -0.33109809216E+02  0.36820919235E+02  0.00000000000E+00 0.  1.
         11    1    4    4    0    0  0.28373720498E+01 -0.11580017088E+02  0.37504521714E+00  0.11928459040E+02  0.51100000000E-03 0.  1.
        -11    1    4    4    0    0 -0.86218103314E+01 -0.74988046992E+01  0.94889999993E+01  0.14852905660E+02  0.51100000000E-03 0. -1.
         12    1    4    4    0    0  0.13921931920E+02  0.51755191487E+01  0.23245764000E+02  0.27585716064E+02  0.00000000000E+00 0. -1.
</event>
<event>
 8    1  0.1261983E-006  0.9118800E+02  0.7816164E-02  0.1184000E+00
        -11   -1    0    0    0    0  0.00000000000E+00  0.00000000000E+00  0.45593999997E+02  0.45594000000E+02  0.51100000000E-03 0.  1.
         11   -1    0    0    0    0 -0.00000000000E+00 -0.00000000000E+00 -0.45593999997E+02  0.45594000000E+02  0.51100000000E-03 0. -1.
         23    2    1    2    0    0  0.35527136788E-14  0.00000000000E+00  0.00000000000E+00  0.91188000000E+02  0.91188000000E+02 0.  0.
    9900012    2    3    3    0    0 -0.24563609059E+02  0.21497394741E+02 -0.17037375811E+02  0.54367067839E+02  0.39999962753E+02 0.  0.
         12    1    3    3    0    0  0.24563609059E+02 -0.21497394741E+02  0.17037375811E+02  0.36820932161E+02  0.00000000000E+00 0. -1.
         11    1    4    4    0    0  0.64046812432E+00 -0.83753192688E+01  0.63574337535E+00  0.84237961854E+01  0.51100000000E-03 0. -1.
        -11    1    4    4    0    0 -0.21421368840E+02  0.18696509372E+02 -0.18806646393E+02  0.34089946531E+02  0.51100000000E-03 0.  1.
         12    1    4    4    0    0 -0.37827083440E+01  0.11176204639E+02  0.11335272076E+01  0.11853325123E+02  0.00000000000E+00 0. -1.
</event>
<event>
 8    1  0.1261983E-006  0.9118800E+02  0.7816164E-02  0.1184000E+00
        -11   -1    0    0    0    0  0.00000000000E+00  0.00000000000E+00  0.45593999997E+02  0.45594000000E+02  0.51100000000E-03 0.  1.
         11   -1    0    0    0    0 -0.00000000000E+00 -0.00000000000E+00 -0.45593999997E+02  0.45594000000E+02  0.51100000000E-03 0. -1.
         23    2    1    2    0    0  0.00000000000E+00  0.17763568394E-14 -0.35527136788E-14  0.91188000000E+02  0.91188000000E+02 0.  0.
    9900012    2    3    3    0    0  0.12833366199E+02  0.15664430119E+02 -0.30752399163E+02  0.54367085926E+02  0.40000003986E+02 0.  0.
        -12    1    3    3    0    0 -0.12833366199E+02 -0.15664430119E+02  0.30752399163E+02  0.36820914074E+02  0.00000000000E+00 0.  1.
         11    1    4    4    0    0  0.20758828462E+01  0.11666460188E+02 -0.53607603270E+01  0.13005896141E+02  0.51100000000E-03 0.  1.
        -11    1    4    4    0    0 -0.49015150485E+01  0.11412898062E+02 -0.19386328652E+02  0.23024092399E+02  0.51100000000E-03 0. -1.
        -12    1    4    4    0    0  0.15658998401E+02 -0.74149281309E+01 -0.60053101847E+01  0.18337097386E+02  0.00000000000E+00 0.  1.
</event>
<event>
 8    1  0.1261983E-006  0.9118800E+02  0.7816164E-02  0.1184000E+00
        -11   -1    0    0    0    0  0.00000000000E+00  0.00000000000E+00  0.45593999997E+02  0.45594000000E+02  0.51100000000E-03 0.  1.
         11   -1    0    0    0    0 -0.00000000000E+00 -0.00000000000E+00 -0.45593999997E+02  0.45594000000E+02  0.51100000000E-03 0. -1.
         23    2    1    2    0    0  0.17763568394E-14  0.00000000000E+00  0.35527136788E-14  0.91188000000E+02  0.91188000000E+02 0.  0.
    9900012    2    3    3    0    0 -0.15918092507E+02  0.92259322108E+01 -0.31894757318E+02  0.54367095087E+02  0.40000024870E+02 0.  0.
        -12    1    3    3    0    0  0.15918092507E+02 -0.92259322108E+01  0.31894757318E+02  0.36820904913E+02  0.00000000000E+00 0.  1.
         11    1    4    4    0    0 -0.13734588187E+02  0.36271065542E+01 -0.18494360791E+02  0.23320295795E+02  0.51100000000E-03 0. -1.
        -11    1    4    4    0    0  0.82368570273E+01  0.66263297105E+01 -0.16962141646E+02  0.19986703295E+02  0.51100000000E-03 0.  1.
        -12    1    4    4    0    0 -0.10420361347E+02 -0.10275040539E+01  0.35617451187E+01  0.11060095997E+02  0.00000000000E+00 0.  1.
</event>
<event>
 8    1  0.1261983E-006  0.9118800E+02  0.7816164E-02  0.1184000E+00
        -11   -1    0    0    0    0  0.00000000000E+00  0.00000000000E+00  0.45593999997E+02  0.45594000000E+02  0.51100000000E-03 0. -1.
         11   -1    0    0    0    0 -0.00000000000E+00 -0.00000000000E+00 -0.45593999997E+02  0.45594000000E+02  0.51100000000E-03 0.  1.
         23    2    1    2    0    0 -0.35527136788E-14  0.35527136788E-14 -0.88817841970E-15  0.91188000000E+02  0.91188000000E+02 0.  0.
    9900012    2    3    3    0    0 -0.24713687145E+02 -0.27232503732E+02  0.18453994433E+01  0.54367067218E+02  0.39999961337E+02 0.  0.
        -12    1    3    3    0    0  0.24713687145E+02  0.27232503732E+02 -0.18453994433E+01  0.36820932782E+02  0.00000000000E+00 0.  1.
         11    1    4    4    0    0 -0.24583498080E+02 -0.20726513833E+02 -0.43700628845E+01  0.32450488492E+02  0.51100000000E-03 0. -1.
        -11    1    4    4    0    0 -0.12811630305E+01 -0.13657477345E+02  0.48217757211E+01  0.14540205896E+02  0.51100000000E-03 0.  1.
        -12    1    4    4    0    0  0.11509739652E+01  0.71514874461E+01  0.13936866066E+01  0.73763728294E+01  0.00000000000E+00 0.  1.
</event>
<event>
 8    1  0.1261983E-006  0.9118800E+02  0.7816164E-02  0.1184000E+00
        -11   -1    0    0    0    0  0.00000000000E+00  0.00000000000E+00  0.45593999997E+02  0.45594000000E+02  0.51100000000E-03 0. -1.
         11   -1    0    0    0    0 -0.00000000000E+00 -0.00000000000E+00 -0.45593999997E+02  0.45594000000E+02  0.51100000000E-03 0.  1.
         23    2    1    2    0    0  0.00000000000E+00 -0.35527136788E-14  0.00000000000E+00  0.91188000000E+02  0.91188000000E+02 0.  0.
    9900012    2    3    3    0    0  0.11705198531E+02 -0.30460762317E+02 -0.17056084641E+02  0.54367085605E+02  0.40000003254E+02 0.  0.
         12    1    3    3    0    0 -0.11705198531E+02  0.30460762317E+02  0.17056084641E+02  0.36820914395E+02  0.00000000000E+00 0. -1.
         11    1    4    4    0    0 -0.69992278239E+01 -0.25936964952E+02 -0.70410426371E+01  0.27772137526E+02  0.51100000000E-03 0. -1.
        -11    1    4    4    0    0  0.99245297029E+01  0.34285591605E+01  0.83208855001E+00  0.10532980554E+02  0.51100000000E-03 0.  1.
        -12    1    4    4    0    0  0.87798966521E+01 -0.79523565251E+01 -0.10847130554E+02  0.16061967525E+02  0.00000000000E+00 0.  1.
</event>
<event>
 8    1  0.1261983E-006  0.9118800E+02  0.7816164E-02  0.1184000E+00
        -11   -1    0    0    0    0  0.00000000000E+00  0.00000000000E+00  0.45593999997E+02  0.45594000000E+02  0.51100000000E-03 0.  1.
         11   -1    0    0    0    0 -0.00000000000E+00 -0.00000000000E+00 -0.45593999997E+02  0.45594000000E+02  0.51100000000E-03 0. -1.
         23    2    1    2    0    0  0.72164496601E-15  0.00000000000E+00  0.00000000000E+00  0.91188000000E+02  0.91188000000E+02 0.  0.
    9900012    2    3    3    0    0 -0.16976996033E+00  0.17705717441E+02 -0.32284035308E+02  0.54367079483E+02  0.39999989297E+02 0.  0.
        -12    1    3    3    0    0  0.16976996033E+00 -0.17705717441E+02  0.32284035308E+02  0.36820920517E+02  0.00000000000E+00 0.  1.
         11    1    4    4    0    0  0.36167535658E+01  0.42339581782E+01 -0.15454625315E+02  0.16427195503E+02  0.51100000000E-03 0. -1.
        -11    1    4    4    0    0  0.94693313489E+00  0.17681400535E+02  0.22381524247E+01  0.17847631041E+02  0.51100000000E-03 0.  1.
         12    1    4    4    0    0 -0.47334566611E+01 -0.42096412719E+01 -0.19067562418E+02  0.20092252939E+02  0.00000000000E+00 0. -1.
</event>
<event>
 8    1  0.1261983E-006  0.9118800E+02  0.7816164E-02  0.1184000E+00
        -11   -1    0    0    0    0  0.00000000000E+00  0.00000000000E+00  0.45593999997E+02  0.45594000000E+02  0.51100000000E-03 0.  1.
         11   -1    0    0    0    0 -0.00000000000E+00 -0.00000000000E+00 -0.45593999997E+02  0.45594000000E+02  0.51100000000E-03 0. -1.
         23    2    1    2    0    0  0.71054273576E-14  0.00000000000E+00  0.44408920985E-15  0.91188000000E+02  0.91188000000E+02 0.  0.
    9900012    2    3    3    0    0 -0.32595372765E+02  0.16999040582E+02 -0.20867387511E+01  0.54367079520E+02  0.39999989381E+02 0.  0.
        -12    1    3    3    0    0  0.32595372765E+02 -0.16999040582E+02  0.20867387511E+01  0.36820920480E+02  0.00000000000E+00 0.  1.
         11    1    4    4    0    0 -0.27074517202E+02  0.21976840663E+02 -0.45595520209E+01  0.35168174848E+02  0.51100000000E-03 0. -1.
        -11    1    4    4    0    0  0.51853681137E+01  0.27085248073E+01  0.10362311019E+01  0.59412056238E+01  0.51100000000E-03 0.  1.
        -12    1    4    4    0    0 -0.10706223677E+02 -0.76863248885E+01  0.14365821679E+01  0.13257699047E+02  0.00000000000E+00 0.  1.
</event>
<event>
 8    1  0.1261983E-006  0.9118800E+02  0.7816164E-02  0.1184000E+00
        -11   -1    0    0    0    0  0.00000000000E+00  0.00000000000E+00  0.45593999997E+02  0.45594000000E+02  0.51100000000E-03 0.  1.
         11   -1    0    0    0    0 -0.00000000000E+00 -0.00000000000E+00 -0.45593999997E+02  0.45594000000E+02  0.51100000000E-03 0. -1.
         23    2    1    2    0    0  0.00000000000E+00  0.00000000000E+00 -0.11102230246E-15  0.91188000000E+02  0.91188000000E+02 0.  0.
    9900012    2    3    3    0    0 -0.13739304206E+02 -0.34158197360E+02  0.47840883285E+00  0.54367084721E+02  0.40000001238E+02 0.  0.
         12    1    3    3    0    0  0.13739304206E+02  0.34158197360E+02 -0.47840883285E+00  0.36820915279E+02  0.00000000000E+00 0. -1.
         11    1    4    4    0    0 -0.14711721841E+02 -0.10899966197E+02  0.38300927096E+01  0.18705978538E+02  0.51100000000E-03 0. -1.
        -11    1    4    4    0    0 -0.27550026405E+00 -0.13102690106E+02  0.11627991462E+02  0.17520461583E+02  0.51100000000E-03 0.  1.
         12    1    4    4    0    0  0.12479178987E+01 -0.10155541058E+02 -0.14979675338E+02  0.18140644600E+02  0.00000000000E+00 0. -1.
</event>
<event>
 8    1  0.1261983E-006  0.9118800E+02  0.7816164E-02  0.1184000E+00
        -11   -1    0    0    0    0  0.00000000000E+00  0.00000000000E+00  0.45593999997E+02  0.45594000000E+02  0.51100000000E-03 0. -1.
         11   -1    0    0    0    0 -0.00000000000E+00 -0.00000000000E+00 -0.45593999997E+02  0.45594000000E+02  0.51100000000E-03 0.  1.
         23    2    1    2    0    0  0.71054273576E-14  0.17763568394E-14  0.00000000000E+00  0.91188000000E+02  0.91188000000E+02 0.  0.
    9900012    2    3    3    0    0 -0.26422241787E+02 -0.14432671347E+02 -0.21197694952E+02  0.54367093784E+02  0.40000021900E+02 0.  0.
         12    1    3    3    0    0  0.26422241787E+02  0.14432671347E+02  0.21197694952E+02  0.36820906216E+02  0.00000000000E+00 0. -1.
         11    1    4    4    0    0 -0.98378378423E-01 -0.91762618053E+01 -0.16612720677E+02  0.18978828931E+02  0.51100000000E-03 0. -1.
        -11    1    4    4    0    0  0.35739831019E+01 -0.23031220204E+01 -0.31847763275E+01  0.53122995746E+01  0.51100000000E-03 0.  1.
         12    1    4    4    0    0 -0.29897846511E+02 -0.29532875209E+01 -0.14001979473E+01  0.30075965279E+02  0.00000000000E+00 0. -1.
</event>
<event>
 8    1  0.1261983E-006  0.9118800E+02  0.7816164E-02  0.1184000E+00
        -11   -1    0    0    0    0  0.00000000000E+00  0.00000000000E+00  0.45593999997E+02  0.45594000000E+02  0.51100000000E-03 0. -1.
         11   -1    0    0    0    0 -0.00000000000E+00 -0.00000000000E+00 -0.45593999997E+02  0.45594000000E+02  0.51100000000E-03 0.  1.
         23    2    1    2    0    0 -0.13322676296E-14 -0.17763568394E-14  0.00000000000E+00  0.91188000000E+02  0.91188000000E+02 0.  0.
    9900012    2    3    3    0    0 -0.29405406247E+01 -0.13712380741E+02  0.34045615766E+02  0.54367080434E+02  0.39999991466E+02 0.  0.
        -12    1    3    3    0    0  0.29405406247E+01  0.13712380741E+02 -0.34045615766E+02  0.36820919566E+02  0.00000000000E+00 0.  1.
         11    1    4    4    0    0  0.95647756998E+01 -0.43068879992E+01 -0.44308323525E+01  0.11387119654E+02  0.51100000000E-03 0.  1.
        -11    1    4    4    0    0 -0.68047252177E+01  0.12925372508E+01  0.16206741822E+02  0.17624795561E+02  0.51100000000E-03 0. -1.
        -12    1    4    4    0    0 -0.57005911069E+01 -0.10698029993E+02  0.22269706297E+02  0.25355165219E+02  0.00000000000E+00 0.  1.
</event>
<event>
 8    1  0.1261983E-006  0.9118800E+02  0.7816164E-02  0.1184000E+00
        -11   -1    0    0    0    0  0.00000000000E+00  0.00000000000E+00  0.45593999997E+02  0.45594000000E+02  0.51100000000E-03 0.  1.
         11   -1    0    0    0    0 -0.00000000000E+00 -0.00000000000E+00 -0.45593999997E+02  0.45594000000E+02  0.51100000000E-03 0. -1.
         23    2    1    2    0    0 -0.35527136788E-14 -0.88817841970E-15  0.00000000000E+00  0.91188000000E+02  0.91188000000E+02 0.  0.
    9900012    2    3    3    0    0  0.23328397573E+02 -0.75206925239E+01 -0.27477358883E+02  0.54367079308E+02  0.39999988899E+02 0.  0.
        -12    1    3    3    0    0 -0.23328397573E+02  0.75206925239E+01  0.27477358883E+02  0.36820920692E+02  0.00000000000E+00 0.  1.
         11    1    4    4    0    0 -0.72310505785E+01 -0.19054386269E+01 -0.15128219191E+02  0.16875479400E+02  0.51100000000E-03 0. -1.
        -11    1    4    4    0    0  0.18214200439E+02 -0.68998340834E+00 -0.15391382476E+02  0.23856400179E+02  0.51100000000E-03 0.  1.
         12    1    4    4    0    0  0.12345247713E+02 -0.49252704886E+01  0.30422427840E+01  0.13635199729E+02  0.00000000000E+00 0. -1.
</event>
<event>
 8    1  0.1261983E-006  0.9118800E+02  0.7816164E-02  0.1184000E+00
        -11   -1    0    0    0    0  0.00000000000E+00  0.00000000000E+00  0.45593999997E+02  0.45594000000E+02  0.51100000000E-03 0.  1.
         11   -1    0    0    0    0 -0.00000000000E+00 -0.00000000000E+00 -0.45593999997E+02  0.45594000000E+02  0.51100000000E-03 0. -1.
         23    2    1    2    0    0  0.35527136788E-14  0.00000000000E+00  0.00000000000E+00  0.91188000000E+02  0.91188000000E+02 0.  0.
    9900012    2    3    3    0    0  0.24036919188E+02 -0.22984415527E+02  0.15802578165E+02  0.54367104874E+02  0.40000047182E+02 0.  0.
         12    1    3    3    0    0 -0.24036919188E+02  0.22984415527E+02 -0.15802578165E+02  0.36820895126E+02  0.00000000000E+00 0. -1.
         11    1    4    4    0    0  0.18299932135E+02 -0.83209427054E+01  0.25728582457E+01  0.20266849865E+02  0.51100000000E-03 0. -1.
        -11    1    4    4    0    0 -0.79496902287E+00 -0.60302435788E+01  0.20285702384E+02  0.21177949260E+02  0.51100000000E-03 0.  1.
        -12    1    4    4    0    0  0.65319560767E+01 -0.86332292429E+01 -0.70559824646E+01  0.12922305750E+02  0.00000000000E+00 0.  1.
</event>
<event>
 8    1  0.1261983E-006  0.9118800E+02  0.7816164E-02  0.1184000E+00
        -11   -1    0    0    0    0  0.00000000000E+00  0.00000000000E+00  0.45593999997E+02  0.45594000000E+02  0.51100000000E-03 0. -1.
         11   -1    0    0    0    0 -0.00000000000E+00 -0.00000000000E+00 -0.45593999997E+02  0.45594000000E+02  0.51100000000E-03 0.  1.
         23    2    1    2    0    0 -0.35527136788E-14 -0.35527136788E-14  0.22204460493E-14  0.91188000000E+02  0.91188000000E+02 0.  0.
    9900012    2    3    3    0    0  0.20848247356E+02  0.30115828187E+02 -0.37639354131E+01  0.54367085630E+02  0.40000003311E+02 0.  0.
         12    1    3    3    0    0 -0.20848247356E+02 -0.30115828187E+02  0.37639354131E+01  0.36820914370E+02  0.00000000000E+00 0. -1.
         11    1    4    4    0    0  0.13417247334E+02 -0.49793415893E+00  0.10183233039E+02  0.16851370859E+02  0.51100000000E-03 0. -1.
        -11    1    4    4    0    0 -0.19313485687E+01  0.38259856322E+01  0.22512837460E+01  0.48411312849E+01  0.51100000000E-03 0.  1.
         12    1    4    4    0    0  0.93623485907E+01  0.26787776714E+02 -0.16198452198E+02  0.32674583487E+02  0.00000000000E+00 0. -1.
</event>
<event>
 8    1  0.1261983E-006  0.9118800E+02  0.7816164E-02  0.1184000E+00
        -11   -1    0    0    0    0  0.00000000000E+00  0.00000000000E+00  0.45593999997E+02  0.45594000000E+02  0.51100000000E-03 0. -1.
         11   -1    0    0    0    0 -0.00000000000E+00 -0.00000000000E+00 -0.45593999997E+02  0.45594000000E+02  0.51100000000E-03 0.  1.
         23    2    1    2    0    0  0.00000000000E+00  0.71054273576E-14  0.00000000000E+00  0.91188000000E+02  0.91188000000E+02 0.  0.
    9900012    2    3    3    0    0  0.10541643784E+02 -0.34886718350E+02 -0.52507012117E+01  0.54367092432E+02  0.40000018818E+02 0.  0.
         12    1    3    3    0    0 -0.10541643784E+02  0.34886718350E+02  0.52507012117E+01  0.36820907568E+02  0.00000000000E+00 0. -1.
         11    1    4    4    0    0 -0.70623231950E+00 -0.41760580149E+01 -0.16435427237E+02  0.16972374417E+02  0.51100000000E-03 0. -1.
        -11    1    4    4    0    0  0.43603776329E+01 -0.22569083633E+00  0.21179348623E+01  0.48527804192E+01  0.51100000000E-03 0.  1.
        -12    1    4    4    0    0  0.68874984710E+01 -0.30484969498E+02  0.90667911630E+01  0.32541937596E+02  0.00000000000E+00 0.  1.
</event>
<event>
 8    1  0.1261983E-006  0.9118800E+02  0.7816164E-02  0.1184000E+00
        -11   -1    0    0    0    0  0.00000000000E+00  0.00000000000E+00  0.45593999997E+02  0.45594000000E+02  0.51100000000E-03 0.  1.
         11   -1    0    0    0    0 -0.00000000000E+00 -0.00000000000E+00 -0.45593999997E+02  0.45594000000E+02  0.51100000000E-03 0. -1.
         23    2    1    2    0    0 -0.35527136788E-14 -0.17763568394E-14 -0.35527136788E-14  0.91188000000E+02  0.91188000000E+02 0.  0.
    9900012    2    3    3    0    0  0.25789445230E+02  0.91926581672E+01  0.24620717203E+02  0.54367079791E+02  0.39999990000E+02 0.  0.
         12    1    3    3    0    0 -0.25789445230E+02 -0.91926581672E+01 -0.24620717203E+02  0.36820920209E+02  0.00000000000E+00 0. -1.
         11    1    4    4    0    0  0.17569169440E+01  0.52546585555E+01  0.18749385738E+02  0.19550899199E+02  0.51100000000E-03 0.  1.
        -11    1    4    4    0    0  0.30936359594E+01  0.10124504660E+02 -0.33660017694E+01  0.11108831903E+02  0.51100000000E-03 0. -1.
         12    1    4    4    0    0  0.20938892327E+02 -0.61865050487E+01  0.92373332340E+01  0.23707348689E+02  0.00000000000E+00 0. -1.
</event>
<event>
 8    1  0.1261983E-006  0.9118800E+02  0.7816164E-02  0.1184000E+00
        -11   -1    0    0    0    0  0.00000000000E+00  0.00000000000E+00  0.45593999997E+02  0.45594000000E+02  0.51100000000E-03 0. -1.
         11   -1    0    0    0    0 -0.00000000000E+00 -0.00000000000E+00 -0.45593999997E+02  0.45594000000E+02  0.51100000000E-03 0.  1.
         23    2    1    2    0    0 -0.88817841970E-15  0.00000000000E+00 -0.22204460493E-15  0.91188000000E+02  0.91188000000E+02 0.  0.
    9900012    2    3    3    0    0  0.54769719377E+01  0.36378171858E+02 -0.15531473996E+01  0.54367070134E+02  0.39999967986E+02 0.  0.
        -12    1    3    3    0    0 -0.54769719377E+01 -0.36378171858E+02  0.15531473996E+01  0.36820929866E+02  0.00000000000E+00 0.  1.
         11    1    4    4    0    0 -0.67516864494E+01  0.29557592064E+02  0.48615255281E+01  0.30706203758E+02  0.51100000000E-03 0. -1.
        -11    1    4    4    0    0 -0.46925517894E+01  0.14723678043E+01 -0.44850019221E+00  0.49385283163E+01  0.51100000000E-03 0.  1.
        -12    1    4    4    0    0  0.16921210177E+02  0.53482119899E+01 -0.59661727355E+01  0.18722338060E+02  0.00000000000E+00 0.  1.
</event>
<event>
 8    1  0.1261983E-006  0.9118800E+02  0.7816164E-02  0.1184000E+00
        -11   -1    0    0    0    0  0.00000000000E+00  0.00000000000E+00  0.45593999997E+02  0.45594000000E+02  0.51100000000E-03 0. -1.
         11   -1    0    0    0    0 -0.00000000000E+00 -0.00000000000E+00 -0.45593999997E+02  0.45594000000E+02  0.51100000000E-03 0.  1.
         23    2    1    2    0    0 -0.71054273576E-14  0.00000000000E+00  0.00000000000E+00  0.91188000000E+02  0.91188000000E+02 0.  0.
    9900012    2    3    3    0    0  0.33667117941E+02 -0.11513682047E+02  0.94730999690E+01  0.54367091160E+02  0.40000015918E+02 0.  0.
        -12    1    3    3    0    0 -0.33667117941E+02  0.11513682047E+02 -0.94730999690E+01  0.36820908840E+02  0.00000000000E+00 0.  1.
         11    1    4    4    0    0  0.31989325407E+02 -0.53459835589E+00 -0.21717031867E+01  0.32067413840E+02  0.51100000000E-03 0. -1.
        -11    1    4    4    0    0 -0.33235105466E+01 -0.75607374480E+01 -0.96014213256E+00  0.83145863570E+01  0.51100000000E-03 0.  1.
        -12    1    4    4    0    0  0.50013030813E+01 -0.34183462431E+01  0.12604945288E+02  0.13985090964E+02  0.00000000000E+00 0.  1.
</event>
<event>
 8    1  0.1261983E-006  0.9118800E+02  0.7816164E-02  0.1184000E+00
        -11   -1    0    0    0    0  0.00000000000E+00  0.00000000000E+00  0.45593999997E+02  0.45594000000E+02  0.51100000000E-03 0. -1.
         11   -1    0    0    0    0 -0.00000000000E+00 -0.00000000000E+00 -0.45593999997E+02  0.45594000000E+02  0.51100000000E-03 0.  1.
         23    2    1    2    0    0 -0.71054273576E-14  0.17763568394E-14  0.35527136788E-14  0.91188000000E+02  0.91188000000E+02 0.  0.
    9900012    2    3    3    0    0  0.29905286743E+02 -0.10950309502E+02 -0.18480901063E+02  0.54367093474E+02  0.40000021192E+02 0.  0.
         12    1    3    3    0    0 -0.29905286743E+02  0.10950309502E+02  0.18480901063E+02  0.36820906526E+02  0.00000000000E+00 0. -1.
         11    1    4    4    0    0  0.18410204249E+02 -0.15372933759E+02 -0.57737929884E+01  0.24669807429E+02  0.51100000000E-03 0. -1.
        -11    1    4    4    0    0 -0.55563495602E+01 -0.25257540278E+00 -0.10496192367E+02  0.11878841242E+02  0.51100000000E-03 0.  1.
        -12    1    4    4    0    0  0.17051432053E+02  0.46751996594E+01 -0.22109157066E+01  0.17818444803E+02  0.00000000000E+00 0.  1.
</event>
<event>
 8    1  0.1261983E-006  0.9118800E+02  0.7816164E-02  0.1184000E+00
        -11   -1    0    0    0    0  0.00000000000E+00  0.00000000000E+00  0.45593999997E+02  0.45594000000E+02  0.51100000000E-03 0.  1.
         11   -1    0    0    0    0 -0.00000000000E+00 -0.00000000000E+00 -0.45593999997E+02  0.45594000000E+02  0.51100000000E-03 0. -1.
         23    2    1    2    0    0 -0.35527136788E-14  0.17763568394E-14  0.00000000000E+00  0.91188000000E+02  0.91188000000E+02 0.  0.
    9900012    2    3    3    0    0  0.21709467034E+02  0.11661747904E+02 -0.27358434753E+02  0.54367064716E+02  0.39999955633E+02 0.  0.
        -12    1    3    3    0    0 -0.21709467034E+02 -0.11661747904E+02  0.27358434753E+02  0.36820935284E+02  0.00000000000E+00 0.  1.
         11    1    4    4    0    0  0.27184009082E+01 -0.32316164731E+01 -0.14482331401E+02  0.15085455631E+02  0.51100000000E-03 0. -1.
        -11    1    4    4    0    0 -0.29440178222E+01 -0.40699939636E+01  0.33659902405E+01  0.60466505076E+01  0.51100000000E-03 0.  1.
         12    1    4    4    0    0  0.21935083948E+02  0.18963358341E+02 -0.16242093592E+02  0.33234958577E+02  0.00000000000E+00 0. -1.
</event>
<event>
 8    1  0.1261983E-006  0.9118800E+02  0.7816164E-02  0.1184000E+00
        -11   -1    0    0    0    0  0.00000000000E+00  0.00000000000E+00  0.45593999997E+02  0.45594000000E+02  0.51100000000E-03 0.  1.
         11   -1    0    0    0    0 -0.00000000000E+00 -0.00000000000E+00 -0.45593999997E+02  0.45594000000E+02  0.51100000000E-03 0. -1.
         23    2    1    2    0    0  0.62450045135E-15  0.88817841970E-15 -0.71054273576E-14  0.91188000000E+02  0.91188000000E+02 0.  0.
    9900012    2    3    3    0    0  0.11028312528E+00 -0.28374450966E+01  0.36711253653E+02  0.54367090155E+02  0.40000013626E+02 0.  0.
         12    1    3    3    0    0 -0.11028312528E+00  0.28374450966E+01 -0.36711253653E+02  0.36820909845E+02  0.00000000000E+00 0. -1.
         11    1    4    4    0    0 -0.44574685806E+01 -0.67381531702E+01 -0.34015066204E+01  0.87659558430E+01  0.51100000000E-03 0. -1.
        -11    1    4    4    0    0  0.28931536997E+01 -0.84956338286E+01  0.13728372374E+02  0.16401656647E+02  0.51100000000E-03 0.  1.
        -12    1    4    4    0    0  0.16745980062E+01  0.12396341902E+02  0.26384387900E+02  0.29199477665E+02  0.00000000000E+00 0.  1.
</event>
<event>
 8    1  0.1261983E-006  0.9118800E+02  0.7816164E-02  0.1184000E+00
        -11   -1    0    0    0    0  0.00000000000E+00  0.00000000000E+00  0.45593999997E+02  0.45594000000E+02  0.51100000000E-03 0.  1.
         11   -1    0    0    0    0 -0.00000000000E+00 -0.00000000000E+00 -0.45593999997E+02  0.45594000000E+02  0.51100000000E-03 0. -1.
         23    2    1    2    0    0  0.13322676296E-14  0.00000000000E+00  0.17763568394E-14  0.91188000000E+02  0.91188000000E+02 0.  0.
    9900012    2    3    3    0    0  0.20856929432E+01 -0.35802220811E+02  0.83445193430E+01  0.54367080224E+02  0.39999990987E+02 0.  0.
        -12    1    3    3    0    0 -0.20856929432E+01  0.35802220811E+02 -0.83445193430E+01  0.36820919776E+02  0.00000000000E+00 0.  1.
         11    1    4    4    0    0  0.11255775101E+01 -0.10493361954E+02 -0.54687302472E+01  0.11886319052E+02  0.51100000000E-03 0. -1.
        -11    1    4    4    0    0 -0.10999412120E+02 -0.13840884986E+02  0.18166407971E+02  0.25349073809E+02  0.51100000000E-03 0.  1.
        -12    1    4    4    0    0  0.11959527553E+02 -0.11467973872E+02 -0.43531583806E+01  0.17131687363E+02  0.00000000000E+00 0.  1.
</event>
<event>
 8    1  0.1261983E-006  0.9118800E+02  0.7816164E-02  0.1184000E+00
        -11   -1    0    0    0    0  0.00000000000E+00  0.00000000000E+00  0.45593999997E+02  0.45594000000E+02  0.51100000000E-03 0.  1.
         11   -1    0    0    0    0 -0.00000000000E+00 -0.00000000000E+00 -0.45593999997E+02  0.45594000000E+02  0.51100000000E-03 0. -1.
         23    2    1    2    0    0  0.00000000000E+00  0.00000000000E+00  0.00000000000E+00  0.91188000000E+02  0.91188000000E+02 0.  0.
    9900012    2    3    3    0    0  0.19003772702E+02 -0.20066137211E+02 -0.24330778237E+02  0.54367081909E+02  0.39999994827E+02 0.  0.
        -12    1    3    3    0    0 -0.19003772702E+02  0.20066137211E+02  0.24330778237E+02  0.36820918091E+02  0.00000000000E+00 0.  1.
         11    1    4    4    0    0  0.22054297493E+02 -0.55939337786E+01 -0.25957321696E+02  0.34517628582E+02  0.51100000000E-03 0. -1.
        -11    1    4    4    0    0  0.38740371140E+01 -0.68716020048E+01  0.46185460939E+01  0.91410090229E+01  0.51100000000E-03 0.  1.
         12    1    4    4    0    0 -0.69245619054E+01 -0.76006014277E+01 -0.29920026346E+01  0.10708444304E+02  0.00000000000E+00 0. -1.
</event>
<event>
 8    1  0.1261983E-006  0.9118800E+02  0.7816164E-02  0.1184000E+00
        -11   -1    0    0    0    0  0.00000000000E+00  0.00000000000E+00  0.45593999997E+02  0.45594000000E+02  0.51100000000E-03 0.  1.
         11   -1    0    0    0    0 -0.00000000000E+00 -0.00000000000E+00 -0.45593999997E+02  0.45594000000E+02  0.51100000000E-03 0. -1.
         23    2    1    2    0    0  0.00000000000E+00  0.00000000000E+00  0.00000000000E+00  0.91188000000E+02  0.91188000000E+02 0.  0.
    9900012    2    3    3    0    0  0.24181719026E+02  0.12258024652E+02  0.24915184422E+02  0.54367066848E+02  0.39999960493E+02 0.  0.
         12    1    3    3    0    0 -0.24181719026E+02 -0.12258024652E+02 -0.24915184422E+02  0.36820933152E+02  0.00000000000E+00 0. -1.
         11    1    4    4    0    0 -0.69523895768E+01  0.73528396783E+01  0.33465245071E+00  0.10124819242E+02  0.51100000000E-03 0. -1.
        -11    1    4    4    0    0  0.18659715675E+02 -0.59200934881E+01  0.90356645902E+01  0.21560977038E+02  0.51100000000E-03 0.  1.
         12    1    4    4    0    0  0.12474392928E+02  0.10825278461E+02  0.15544867381E+02  0.22681270568E+02  0.00000000000E+00 0. -1.
</event>
<event>
 8    1  0.1261983E-006  0.9118800E+02  0.7816164E-02  0.1184000E+00
        -11   -1    0    0    0    0  0.00000000000E+00  0.00000000000E+00  0.45593999997E+02  0.45594000000E+02  0.51100000000E-03 0. -1.
         11   -1    0    0    0    0 -0.00000000000E+00 -0.00000000000E+00 -0.45593999997E+02  0.45594000000E+02  0.51100000000E-03 0.  1.
         23    2    1    2    0    0  0.00000000000E+00  0.00000000000E+00  0.13322676296E-14  0.91188000000E+02  0.91188000000E+02 0.  0.
    9900012    2    3    3    0    0  0.33232149186E+02  0.15717347486E+02  0.20895875252E+01  0.54367121038E+02  0.40000084030E+02 0.  0.
         12    1    3    3    0    0 -0.33232149186E+02 -0.15717347486E+02 -0.20895875252E+01  0.36820878962E+02  0.00000000000E+00 0. -1.
         11    1    4    4    0    0 -0.42236897057E+01  0.11707242619E+02  0.28338520975E+00  0.12449071930E+02  0.51100000000E-03 0. -1.
        -11    1    4    4    0    0  0.86207324597E+01  0.66656059666E+01  0.63413529736E+01  0.12607937533E+02  0.51100000000E-03 0.  1.
        -12    1    4    4    0    0  0.28835106432E+02 -0.26555011001E+01 -0.45351506581E+01  0.29310111575E+02  0.00000000000E+00 0.  1.
</event>
<event>
 8    1  0.1261983E-006  0.9118800E+02  0.7816164E-02  0.1184000E+00
        -11   -1    0    0    0    0  0.00000000000E+00  0.00000000000E+00  0.45593999997E+02  0.45594000000E+02  0.51100000000E-03 0. -1.
         11   -1    0    0    0    0 -0.00000000000E+00 -0.00000000000E+00 -0.45593999997E+02  0.45594000000E+02  0.51100000000E-03 0.  1.
         23    2    1    2    0    0  0.00000000000E+00  0.00000000000E+00  0.00000000000E+00  0.91188000000E+02  0.91188000000E+02 0.  0.
    9900012    2    3    3    0    0  0.18164560453E+02  0.68067146986E+01  0.31296954691E+02  0.54367054950E+02  0.39999933370E+02 0.  0.
        -12    1    3    3    0    0 -0.18164560453E+02 -0.68067146986E+01 -0.31296954691E+02  0.36820945050E+02  0.00000000000E+00 0.  1.
         11    1    4    4    0    0  0.45082763375E+01 -0.47897965155E+01  0.23459393913E+02  0.24364110269E+02  0.51100000000E-03 0. -1.
        -11    1    4    4    0    0  0.38322947963E+01  0.67979557016E+01 -0.77270404356E+01  0.10982068989E+02  0.51100000000E-03 0.  1.
        -12    1    4    4    0    0  0.98239893188E+01  0.47985555126E+01  0.15564601214E+02  0.19020875692E+02  0.00000000000E+00 0.  1.
</event>
<event>
 8    1  0.1261983E-006  0.9118800E+02  0.7816164E-02  0.1184000E+00
        -11   -1    0    0    0    0  0.00000000000E+00  0.00000000000E+00  0.45593999997E+02  0.45594000000E+02  0.51100000000E-03 0.  1.
         11   -1    0    0    0    0 -0.00000000000E+00 -0.00000000000E+00 -0.45593999997E+02  0.45594000000E+02  0.51100000000E-03 0. -1.
         23    2    1    2    0    0 -0.88817841970E-15  0.17763568394E-14  0.00000000000E+00  0.91188000000E+02  0.91188000000E+02 0.  0.
    9900012    2    3    3    0    0 -0.63944834028E+01 -0.78341643538E+01 -0.35405033539E+02  0.54367082724E+02  0.39999996687E+02 0.  0.
        -12    1    3    3    0    0  0.63944834028E+01  0.78341643538E+01  0.35405033539E+02  0.36820917276E+02  0.00000000000E+00 0.  1.
         11    1    4    4    0    0  0.19874736900E+01  0.20787836787E+01 -0.32588801759E+02  0.32715461079E+02  0.51100000000E-03 0. -1.
        -11    1    4    4    0    0 -0.78416173341E+01  0.25400888166E+01  0.16586058231E+01  0.84079716429E+01  0.51100000000E-03 0.  1.
         12    1    4    4    0    0 -0.54033975866E+00 -0.12453036849E+02 -0.44748376032E+01  0.13243650003E+02  0.00000000000E+00 0. -1.
</event>
<event>
 8    1  0.1261983E-006  0.9118800E+02  0.7816164E-02  0.1184000E+00
        -11   -1    0    0    0    0  0.00000000000E+00  0.00000000000E+00  0.45593999997E+02  0.45594000000E+02  0.51100000000E-03 0.  1.
         11   -1    0    0    0    0 -0.00000000000E+00 -0.00000000000E+00 -0.45593999997E+02  0.45594000000E+02  0.51100000000E-03 0. -1.
         23    2    1    2    0    0 -0.35527136788E-14  0.00000000000E+00 -0.17763568394E-14  0.91188000000E+02  0.91188000000E+02 0.  0.
    9900012    2    3    3    0    0  0.22428880056E+02  0.26000964629E+02 -0.13291951429E+02  0.54367071237E+02  0.39999970498E+02 0.  0.
        -12    1    3    3    0    0 -0.22428880056E+02 -0.26000964629E+02  0.13291951429E+02  0.36820928763E+02  0.00000000000E+00 0.  1.
         11    1    4    4    0    0 -0.67165031313E-02  0.21730786985E+01 -0.45138679425E+01  0.50097225676E+01  0.51100000000E-03 0. -1.
        -11    1    4    4    0    0  0.13294319058E+02  0.28018293432E+02 -0.17876952358E+02  0.35795937086E+02  0.51100000000E-03 0.  1.
        -12    1    4    4    0    0  0.91412775013E+01 -0.41904075012E+01  0.90988688712E+01  0.13561411583E+02  0.00000000000E+00 0.  1.
</event>
<event>
 8    1  0.1261983E-006  0.9118800E+02  0.7816164E-02  0.1184000E+00
        -11   -1    0    0    0    0  0.00000000000E+00  0.00000000000E+00  0.45593999997E+02  0.45594000000E+02  0.51100000000E-03 0.  1.
         11   -1    0    0    0    0 -0.00000000000E+00 -0.00000000000E+00 -0.45593999997E+02  0.45594000000E+02  0.51100000000E-03 0. -1.
         23    2    1    2    0    0  0.17763568394E-14  0.35527136788E-14  0.35527136788E-14  0.91188000000E+02  0.91188000000E+02 0.  0.
    9900012    2    3    3    0    0  0.93130096758E+01  0.22954878207E+02  0.27241909195E+02  0.54367079326E+02  0.39999988939E+02 0.  0.
        -12    1    3    3    0    0 -0.93130096758E+01 -0.22954878207E+02 -0.27241909195E+02  0.36820920674E+02  0.00000000000E+00 0.  1.
         11    1    4    4    0    0 -0.87872474562E+01  0.24569981156E+01  0.11351856017E+01  0.91946290957E+01  0.51100000000E-03 0. -1.
        -11    1    4    4    0    0  0.50552482481E+01 -0.47127704577E+01  0.47639792136E+00  0.69276760517E+01  0.51100000000E-03 0.  1.
         12    1    4    4    0    0  0.13045008884E+02  0.25210650549E+02  0.25630325672E+02  0.38244774178E+02  0.00000000000E+00 0. -1.
</event>
<event>
 8    1  0.1261983E-006  0.9118800E+02  0.7816164E-02  0.1184000E+00
        -11   -1    0    0    0    0  0.00000000000E+00  0.00000000000E+00  0.45593999997E+02  0.45594000000E+02  0.51100000000E-03 0. -1.
         11   -1    0    0    0    0 -0.00000000000E+00 -0.00000000000E+00 -0.45593999997E+02  0.45594000000E+02  0.51100000000E-03 0.  1.
         23    2    1    2    0    0  0.00000000000E+00  0.00000000000E+00  0.00000000000E+00  0.91188000000E+02  0.91188000000E+02 0.  0.
    9900012    2    3    3    0    0 -0.25685019331E+02 -0.16150035068E+02  0.20862317512E+02  0.54367080095E+02  0.39999990692E+02 0.  0.
        -12    1    3    3    0    0  0.25685019331E+02  0.16150035068E+02 -0.20862317512E+02  0.36820919905E+02  0.00000000000E+00 0.  1.
         11    1    4    4    0    0 -0.54463975130E+01  0.52021049852E+01  0.12398235797E+02  0.14506598267E+02  0.51100000000E-03 0. -1.
        -11    1    4    4    0    0 -0.55384776996E+01  0.14572074660E+01  0.11207739306E+02  0.12586167385E+02  0.51100000000E-03 0.  1.
         12    1    4    4    0    0 -0.14700144118E+02 -0.22809347519E+02 -0.27436575916E+01  0.27274314442E+02  0.00000000000E+00 0. -1.
</event>
<event>
 8    1  0.1261983E-006  0.9118800E+02  0.7816164E-02  0.1184000E+00
        -11   -1    0    0    0    0  0.00000000000E+00  0.00000000000E+00  0.45593999997E+02  0.45594000000E+02  0.51100000000E-03 0.  1.
         11   -1    0    0    0    0 -0.00000000000E+00 -0.00000000000E+00 -0.45593999997E+02  0.45594000000E+02  0.51100000000E-03 0. -1.
         23    2    1    2    0    0 -0.35527136788E-14 -0.35527136788E-14  0.00000000000E+00  0.91188000000E+02  0.91188000000E+02 0.  0.
    9900012    2    3    3    0    0 -0.72409100875E+01  0.29995313636E+02 -0.20090443275E+02  0.54367142731E+02  0.40000133484E+02 0.  0.
        -12    1    3    3    0    0  0.72409100875E+01 -0.29995313636E+02  0.20090443275E+02  0.36820857269E+02  0.00000000000E+00 0.  1.
         11    1    4    4    0    0 -0.71363969100E+01 -0.13731510234E+01 -0.57326378843E+01  0.92561785832E+01  0.51100000000E-03 0. -1.
        -11    1    4    4    0    0  0.10509001843E+02  0.18518108522E+02 -0.18195924406E+02  0.28008054702E+02  0.51100000000E-03 0.  1.
        -12    1    4    4    0    0 -0.10613515020E+02  0.12850356137E+02  0.38381190146E+01  0.17102909446E+02  0.00000000000E+00 0.  1.
</event>
<event>
 8    1  0.1261983E-006  0.9118800E+02  0.7816164E-02  0.1184000E+00
        -11   -1    0    0    0    0  0.00000000000E+00  0.00000000000E+00  0.45593999997E+02  0.45594000000E+02  0.51100000000E-03 0.  1.
         11   -1    0    0    0    0 -0.00000000000E+00 -0.00000000000E+00 -0.45593999997E+02  0.45594000000E+02  0.51100000000E-03 0. -1.
         23    2    1    2    0    0  0.00000000000E+00  0.00000000000E+00  0.17763568394E-14  0.91188000000E+02  0.91188000000E+02 0.  0.
    9900012    2    3    3    0    0 -0.18443113244E+02  0.28142254850E+02 -0.14954788493E+02  0.54367073436E+02  0.39999975512E+02 0.  0.
        -12    1    3    3    0    0  0.18443113244E+02 -0.28142254850E+02  0.14954788493E+02  0.36820926564E+02  0.00000000000E+00 0.  1.
         11    1    4    4    0    0 -0.13902244349E+02  0.19002033235E+02 -0.13764370966E+02  0.27272835815E+02  0.51100000000E-03 0. -1.
        -11    1    4    4    0    0 -0.58072544872E+01  0.12616885015E+02  0.87988501934E+01  0.16441707854E+02  0.51100000000E-03 0.  1.
        -12    1    4    4    0    0  0.12663855930E+01 -0.34766633998E+01 -0.99892677196E+01  0.10652529767E+02  0.00000000000E+00 0.  1.
</event>
<event>
 8    1  0.1261983E-006  0.9118800E+02  0.7816164E-02  0.1184000E+00
        -11   -1    0    0    0    0  0.00000000000E+00  0.00000000000E+00  0.45593999997E+02  0.45594000000E+02  0.51100000000E-03 0.  1.
         11   -1    0    0    0    0 -0.00000000000E+00 -0.00000000000E+00 -0.45593999997E+02  0.45594000000E+02  0.51100000000E-03 0. -1.
         23    2    1    2    0    0 -0.35527136788E-14  0.17763568394E-14  0.35527136788E-14  0.91188000000E+02  0.91188000000E+02 0.  0.
    9900012    2    3    3    0    0  0.21540072271E+02 -0.11304408228E+02  0.27640830344E+02  0.54367083921E+02  0.39999999414E+02 0.  0.
         12    1    3    3    0    0 -0.21540072271E+02  0.11304408228E+02 -0.27640830344E+02  0.36820916079E+02  0.00000000000E+00 0. -1.
         11    1    4    4    0    0  0.17053973268E+02 -0.82516608002E+01 -0.89082622339E+00  0.18966324942E+02  0.51100000000E-03 0. -1.
        -11    1    4    4    0    0  0.10743210525E+02  0.26478876607E+01  0.22285360651E+02  0.24881020499E+02  0.51100000000E-03 0.  1.
         12    1    4    4    0    0 -0.62571115225E+01 -0.57006350883E+01  0.62462959159E+01  0.10519738480E+02  0.00000000000E+00 0. -1.
</event>
<event>
 8    1  0.1261983E-006  0.9118800E+02  0.7816164E-02  0.1184000E+00
        -11   -1    0    0    0    0  0.00000000000E+00  0.00000000000E+00  0.45593999997E+02  0.45594000000E+02  0.51100000000E-03 0.  1.
         11   -1    0    0    0    0 -0.00000000000E+00 -0.00000000000E+00 -0.45593999997E+02  0.45594000000E+02  0.51100000000E-03 0. -1.
         23    2    1    2    0    0 -0.44408920985E-15  0.00000000000E+00 -0.71054273576E-14  0.91188000000E+02  0.91188000000E+02 0.  0.
    9900012    2    3    3    0    0 -0.20929702861E+01  0.22034173056E+02  0.29426083940E+02  0.54367085794E+02  0.40000003686E+02 0.  0.
         12    1    3    3    0    0  0.20929702861E+01 -0.22034173056E+02 -0.29426083940E+02  0.36820914206E+02  0.00000000000E+00 0. -1.
         11    1    4    4    0    0 -0.48489253989E+01  0.10637517293E+02 -0.34725148759E+00  0.11695701584E+02  0.51100000000E-03 0. -1.
        -11    1    4    4    0    0 -0.10056581698E+02  0.14237816246E+02  0.16372002102E+02  0.23914278162E+02  0.51100000000E-03 0.  1.
        -12    1    4    4    0    0  0.12812536811E+02 -0.28411604828E+01  0.13401333325E+02  0.18757106049E+02  0.00000000000E+00 0.  1.
</event>
<event>
 8    1  0.1261983E-006  0.9118800E+02  0.7816164E-02  0.1184000E+00
        -11   -1    0    0    0    0  0.00000000000E+00  0.00000000000E+00  0.45593999997E+02  0.45594000000E+02  0.51100000000E-03 0.  1.
         11   -1    0    0    0    0 -0.00000000000E+00 -0.00000000000E+00 -0.45593999997E+02  0.45594000000E+02  0.51100000000E-03 0. -1.
         23    2    1    2    0    0 -0.35527136788E-14  0.00000000000E+00  0.00000000000E+00  0.91188000000E+02  0.91188000000E+02 0.  0.
    9900012    2    3    3    0    0  0.31962244886E+02  0.15678671241E+02 -0.94007416199E+01  0.54367085114E+02  0.40000002134E+02 0.  0.
        -12    1    3    3    0    0 -0.31962244886E+02 -0.15678671241E+02  0.94007416199E+01  0.36820914886E+02  0.00000000000E+00 0.  1.
         11    1    4    4    0    0  0.14746501591E+02  0.14660181509E+02 -0.98748167396E+01  0.23019388284E+02  0.51100000000E-03 0. -1.
        -11    1    4    4    0    0  0.23342901159E+02  0.42649858136E+00 -0.40668376992E+01  0.23698356582E+02  0.51100000000E-03 0.  1.
        -12    1    4    4    0    0 -0.61271578637E+01  0.59199115083E+00  0.45409128190E+01  0.76493402486E+01  0.00000000000E+00 0.  1.
</event>
<event>
 8    1  0.1261983E-006  0.9118800E+02  0.7816164E-02  0.1184000E+00
        -11   -1    0    0    0    0  0.00000000000E+00  0.00000000000E+00  0.45593999997E+02  0.45594000000E+02  0.51100000000E-03 0.  1.
         11   -1    0    0    0    0 -0.00000000000E+00 -0.00000000000E+00 -0.45593999997E+02  0.45594000000E+02  0.51100000000E-03 0. -1.
         23    2    1    2    0    0 -0.35527136788E-14  0.00000000000E+00  0.00000000000E+00  0.91188000000E+02  0.91188000000E+02 0.  0.
    9900012    2    3    3    0    0  0.18739832869E+02  0.75624324379E+01 -0.30779977730E+02  0.54367099014E+02  0.40000033822E+02 0.  0.
        -12    1    3    3    0    0 -0.18739832869E+02 -0.75624324379E+01  0.30779977730E+02  0.36820900986E+02  0.00000000000E+00 0.  1.
         11    1    4    4    0    0  0.16470282574E+02  0.15056039498E+02 -0.22971413688E+02  0.32025620689E+02  0.51100000000E-03 0. -1.
        -11    1    4    4    0    0 -0.31201960344E+01 -0.69124041319E+01 -0.12861311057E+02  0.14930849827E+02  0.51100000000E-03 0.  1.
         12    1    4    4    0    0  0.53897463300E+01 -0.58120292779E+00  0.50527470151E+01  0.74106284986E+01  0.00000000000E+00 0. -1.
</event>
<event>
 8    1  0.1261983E-006  0.9118800E+02  0.7816164E-02  0.1184000E+00
        -11   -1    0    0    0    0  0.00000000000E+00  0.00000000000E+00  0.45593999997E+02  0.45594000000E+02  0.51100000000E-03 0. -1.
         11   -1    0    0    0    0 -0.00000000000E+00 -0.00000000000E+00 -0.45593999997E+02  0.45594000000E+02  0.51100000000E-03 0.  1.
         23    2    1    2    0    0 -0.88817841970E-15 -0.35527136788E-14  0.00000000000E+00  0.91188000000E+02  0.91188000000E+02 0.  0.
    9900012    2    3    3    0    0  0.54317065016E+01 -0.27392274704E+02  0.23998745852E+02  0.54367082692E+02  0.39999996612E+02 0.  0.
         12    1    3    3    0    0 -0.54317065016E+01  0.27392274704E+02 -0.23998745852E+02  0.36820917308E+02  0.00000000000E+00 0. -1.
         11    1    4    4    0    0  0.12436395114E+02 -0.15003049147E+02 -0.11357536565E+01  0.19520382777E+02  0.51100000000E-03 0. -1.
        -11    1    4    4    0    0 -0.80879935088E+01  0.30479458781E+01  0.96521839198E+01  0.12956475900E+02  0.51100000000E-03 0.  1.
         12    1    4    4    0    0  0.10833048966E+01 -0.15437171436E+02  0.15482315588E+02  0.21890224015E+02  0.00000000000E+00 0. -1.
</event>
<event>
 8    1  0.1261983E-006  0.9118800E+02  0.7816164E-02  0.1184000E+00
        -11   -1    0    0    0    0  0.00000000000E+00  0.00000000000E+00  0.45593999997E+02  0.45594000000E+02  0.51100000000E-03 0.  1.
         11   -1    0    0    0    0 -0.00000000000E+00 -0.00000000000E+00 -0.45593999997E+02  0.45594000000E+02  0.51100000000E-03 0. -1.
         23    2    1    2    0    0  0.17763568394E-14  0.00000000000E+00  0.35527136788E-14  0.91188000000E+02  0.91188000000E+02 0.  0.
    9900012    2    3    3    0    0 -0.13073141882E+02  0.17689970875E+02 -0.29528587121E+02  0.54367087931E+02  0.40000008556E+02 0.  0.
        -12    1    3    3    0    0  0.13073141882E+02 -0.17689970875E+02  0.29528587121E+02  0.36820912069E+02  0.00000000000E+00 0.  1.
         11    1    4    4    0    0 -0.40831370229E+01  0.19972563832E+02 -0.18356565982E+02  0.27432441176E+02  0.51100000000E-03 0. -1.
        -11    1    4    4    0    0 -0.10900555818E+01  0.80869167573E+01 -0.11250812186E+02  0.13898461027E+02  0.51100000000E-03 0.  1.
        -12    1    4    4    0    0 -0.78999492774E+01 -0.10369509714E+02  0.78791046948E-01  0.13036185728E+02  0.00000000000E+00 0.  1.
</event>
<event>
 8    1  0.1261983E-006  0.9118800E+02  0.7816164E-02  0.1184000E+00
        -11   -1    0    0    0    0  0.00000000000E+00  0.00000000000E+00  0.45593999997E+02  0.45594000000E+02  0.51100000000E-03 0. -1.
         11   -1    0    0    0    0 -0.00000000000E+00 -0.00000000000E+00 -0.45593999997E+02  0.45594000000E+02  0.51100000000E-03 0.  1.
         23    2    1    2    0    0  0.35527136788E-14  0.00000000000E+00  0.88817841970E-15  0.91188000000E+02  0.91188000000E+02 0.  0.
    9900012    2    3    3    0    0 -0.30333266822E+02  0.19391755147E+02  0.77221579313E+01  0.54367096061E+02  0.40000027090E+02 0.  0.
         12    1    3    3    0    0  0.30333266822E+02 -0.19391755147E+02 -0.77221579313E+01  0.36820903939E+02  0.00000000000E+00 0. -1.
         11    1    4    4    0    0 -0.25007134216E+01  0.17478143979E+02 -0.87927590387E+01  0.19724393434E+02  0.51100000000E-03 0. -1.
        -11    1    4    4    0    0 -0.27348966554E+02  0.44064549149E+01  0.13884137703E+02  0.30986321120E+02  0.51100000000E-03 0.  1.
         12    1    4    4    0    0 -0.48358684614E+00 -0.24928437461E+01  0.26307792666E+01  0.36563815077E+01  0.00000000000E+00 0. -1.
</event>
<event>
 8    1  0.1261983E-006  0.9118800E+02  0.7816164E-02  0.1184000E+00
        -11   -1    0    0    0    0  0.00000000000E+00  0.00000000000E+00  0.45593999997E+02  0.45594000000E+02  0.51100000000E-03 0. -1.
         11   -1    0    0    0    0 -0.00000000000E+00 -0.00000000000E+00 -0.45593999997E+02  0.45594000000E+02  0.51100000000E-03 0.  1.
         23    2    1    2    0    0  0.00000000000E+00  0.88817841970E-15 -0.12490009027E-15  0.91188000000E+02  0.91188000000E+02 0.  0.
    9900012    2    3    3    0    0  0.36406419485E+02 -0.55081617422E+01  0.11156400389E+00  0.54367086486E+02  0.40000005262E+02 0.  0.
         12    1    3    3    0    0 -0.36406419485E+02  0.55081617422E+01 -0.11156400389E+00  0.36820913514E+02  0.00000000000E+00 0. -1.
         11    1    4    4    0    0 -0.41551703271E+01 -0.15943810935E+01 -0.18774367132E+01  0.48303478541E+01  0.51100000000E-03 0. -1.
        -11    1    4    4    0    0  0.44996845213E+01  0.98993212978E+01  0.11974291110E+00  0.10874652251E+02  0.51100000000E-03 0.  1.
         12    1    4    4    0    0  0.36061905291E+02 -0.13813101946E+02  0.18692578060E+01  0.38662086381E+02  0.00000000000E+00 0. -1.
</event>
<event>
 8    1  0.1261983E-006  0.9118800E+02  0.7816164E-02  0.1184000E+00
        -11   -1    0    0    0    0  0.00000000000E+00  0.00000000000E+00  0.45593999997E+02  0.45594000000E+02  0.51100000000E-03 0. -1.
         11   -1    0    0    0    0 -0.00000000000E+00 -0.00000000000E+00 -0.45593999997E+02  0.45594000000E+02  0.51100000000E-03 0.  1.
         23    2    1    2    0    0  0.00000000000E+00  0.17763568394E-14  0.00000000000E+00  0.91188000000E+02  0.91188000000E+02 0.  0.
    9900012    2    3    3    0    0  0.32012484420E+02  0.90785567116E+01  0.15765762941E+02  0.54367100611E+02  0.40000037464E+02 0.  0.
        -12    1    3    3    0    0 -0.32012484420E+02 -0.90785567116E+01 -0.15765762941E+02  0.36820899389E+02  0.00000000000E+00 0.  1.
         11    1    4    4    0    0  0.69759597938E+01 -0.12827617906E+02  0.49433576895E+01  0.15415854880E+02  0.51100000000E-03 0. -1.
        -11    1    4    4    0    0  0.10095049012E+02  0.18218025177E+02  0.13324250430E+01  0.20870596845E+02  0.51100000000E-03 0.  1.
        -12    1    4    4    0    0  0.14941475614E+02  0.36881494407E+01  0.94899802083E+01  0.18080648887E+02  0.00000000000E+00 0.  1.
</event>
<event>
 8    1  0.1261983E-006  0.9118800E+02  0.7816164E-02  0.1184000E+00
        -11   -1    0    0    0    0  0.00000000000E+00  0.00000000000E+00  0.45593999997E+02  0.45594000000E+02  0.51100000000E-03 0. -1.
         11   -1    0    0    0    0 -0.00000000000E+00 -0.00000000000E+00 -0.45593999997E+02  0.45594000000E+02  0.51100000000E-03 0.  1.
         23    2    1    2    0    0  0.00000000000E+00 -0.17763568394E-14  0.00000000000E+00  0.91188000000E+02  0.91188000000E+02 0.  0.
    9900012    2    3    3    0    0 -0.31925441668E+02  0.13234513822E+02  0.12703988379E+02  0.54367115946E+02  0.40000072422E+02 0.  0.
        -12    1    3    3    0    0  0.31925441668E+02 -0.13234513822E+02 -0.12703988379E+02  0.36820884054E+02  0.00000000000E+00 0.  1.
         11    1    4    4    0    0  0.84344429596E+00 -0.23264275784E+00 -0.38822266091E+01  0.39795985524E+01  0.51100000000E-03 0. -1.
        -11    1    4    4    0    0 -0.29279079432E+02  0.10281453441E+02 -0.21099793890E+01  0.31103453032E+02  0.51100000000E-03 0.  1.
         12    1    4    4    0    0 -0.34898065317E+01  0.31857031384E+01  0.18696194377E+02  0.19284064362E+02  0.00000000000E+00 0. -1.
</event>
<event>
 8    1  0.1261983E-006  0.9118800E+02  0.7816164E-02  0.1184000E+00
        -11   -1    0    0    0    0  0.00000000000E+00  0.00000000000E+00  0.45593999997E+02  0.45594000000E+02  0.51100000000E-03 0.  1.
         11   -1    0    0    0    0 -0.00000000000E+00 -0.00000000000E+00 -0.45593999997E+02  0.45594000000E+02  0.51100000000E-03 0. -1.
         23    2    1    2    0    0  0.35527136788E-14  0.66613381478E-15  0.00000000000E+00  0.91188000000E+02  0.91188000000E+02 0.  0.
    9900012    2    3    3    0    0 -0.27403678453E+02  0.10299704234E+01 -0.24571353970E+02  0.54367165304E+02  0.40000184943E+02 0.  0.
        -12    1    3    3    0    0  0.27403678453E+02 -0.10299704234E+01  0.24571353970E+02  0.36820834696E+02  0.00000000000E+00 0.  1.
         11    1    4    4    0    0  0.47188096511E+01 -0.15880537829E+01 -0.44339932324E+01  0.66670364921E+01  0.51100000000E-03 0. -1.
        -11    1    4    4    0    0  0.25495779573E+01 -0.47941976144E+01 -0.90454532275E+01  0.10550113880E+02  0.51100000000E-03 0.  1.
         12    1    4    4    0    0 -0.34672066061E+02  0.74122218206E+01 -0.11091907510E+02  0.37150014932E+02  0.00000000000E+00 0. -1.
</event>
<event>
 8    1  0.1261983E-006  0.9118800E+02  0.7816164E-02  0.1184000E+00
        -11   -1    0    0    0    0  0.00000000000E+00  0.00000000000E+00  0.45593999997E+02  0.45594000000E+02  0.51100000000E-03 0. -1.
         11   -1    0    0    0    0 -0.00000000000E+00 -0.00000000000E+00 -0.45593999997E+02  0.45594000000E+02  0.51100000000E-03 0.  1.
         23    2    1    2    0    0  0.17763568394E-14  0.35527136788E-14  0.00000000000E+00  0.91188000000E+02  0.91188000000E+02 0.  0.
    9900012    2    3    3    0    0  0.80249790957E+01 -0.16078456129E+02 -0.32138178069E+02  0.54367088407E+02  0.40000009641E+02 0.  0.
         12    1    3    3    0    0 -0.80249790957E+01  0.16078456129E+02  0.32138178069E+02  0.36820911593E+02  0.00000000000E+00 0. -1.
         11    1    4    4    0    0  0.91872308945E+01  0.71766387591E+01 -0.87091417870E+01  0.14551924488E+02  0.51100000000E-03 0. -1.
        -11    1    4    4    0    0  0.27447457146E+01 -0.80428003263E+01 -0.22534523523E+02  0.24083708534E+02  0.51100000000E-03 0.  1.
         12    1    4    4    0    0 -0.39069975134E+01 -0.15212294562E+02 -0.89451275918E+00  0.15731455384E+02  0.00000000000E+00 0. -1.
</event>
<event>
 8    1  0.1261983E-006  0.9118800E+02  0.7816164E-02  0.1184000E+00
        -11   -1    0    0    0    0  0.00000000000E+00  0.00000000000E+00  0.45593999997E+02  0.45594000000E+02  0.51100000000E-03 0.  1.
         11   -1    0    0    0    0 -0.00000000000E+00 -0.00000000000E+00 -0.45593999997E+02  0.45594000000E+02  0.51100000000E-03 0. -1.
         23    2    1    2    0    0  0.00000000000E+00  0.00000000000E+00  0.35527136788E-14  0.91188000000E+02  0.91188000000E+02 0.  0.
    9900012    2    3    3    0    0 -0.11100673793E+02  0.30728248735E+02 -0.16980275245E+02  0.54367082353E+02  0.39999995840E+02 0.  0.
        -12    1    3    3    0    0  0.11100673793E+02 -0.30728248735E+02  0.16980275245E+02  0.36820917647E+02  0.00000000000E+00 0.  1.
         11    1    4    4    0    0 -0.12388310098E+02 -0.33053500460E+01 -0.72515299803E+01  0.14730249602E+02  0.51100000000E-03 0.  1.
        -11    1    4    4    0    0  0.16517906714E+01  0.12959733982E+02  0.49296806229E+01  0.13963698243E+02  0.51100000000E-03 0. -1.
        -12    1    4    4    0    0 -0.36415436579E+00  0.21073864799E+02 -0.14658425888E+02  0.25673134508E+02  0.00000000000E+00 0.  1.
</event>
<event>
 8    1  0.1261983E-006  0.9118800E+02  0.7816164E-02  0.1184000E+00
        -11   -1    0    0    0    0  0.00000000000E+00  0.00000000000E+00  0.45593999997E+02  0.45594000000E+02  0.51100000000E-03 0. -1.
         11   -1    0    0    0    0 -0.00000000000E+00 -0.00000000000E+00 -0.45593999997E+02  0.45594000000E+02  0.51100000000E-03 0.  1.
         23    2    1    2    0    0  0.00000000000E+00  0.88817841970E-15  0.00000000000E+00  0.91188000000E+02  0.91188000000E+02 0.  0.
    9900012    2    3    3    0    0 -0.18815058177E+02 -0.79141728279E+01  0.30645375083E+02  0.54367088011E+02  0.40000008738E+02 0.  0.
        -12    1    3    3    0    0  0.18815058177E+02  0.79141728279E+01 -0.30645375083E+02  0.36820911989E+02  0.00000000000E+00 0.  1.
         11    1    4    4    0    0 -0.65045620721E+01 -0.10807779831E+02  0.16498777241E+02  0.20768415523E+02  0.51100000000E-03 0. -1.
        -11    1    4    4    0    0  0.88430898831E+01  0.28330162087E+01  0.50721132770E+01  0.10580763341E+02  0.51100000000E-03 0.  1.
        -12    1    4    4    0    0 -0.21153585988E+02  0.60590794225E-01  0.90744845648E+01  0.23017909147E+02  0.00000000000E+00 0.  1.
</event>
<event>
 8    1  0.1261983E-006  0.9118800E+02  0.7816164E-02  0.1184000E+00
        -11   -1    0    0    0    0  0.00000000000E+00  0.00000000000E+00  0.45593999997E+02  0.45594000000E+02  0.51100000000E-03 0.  1.
         11   -1    0    0    0    0 -0.00000000000E+00 -0.00000000000E+00 -0.45593999997E+02  0.45594000000E+02  0.51100000000E-03 0. -1.
         23    2    1    2    0    0  0.00000000000E+00  0.00000000000E+00  0.00000000000E+00  0.91188000000E+02  0.91188000000E+02 0.  0.
    9900012    2    3    3    0    0  0.22542253981E+02 -0.24502265586E+02  0.15724702572E+02  0.54367075183E+02  0.39999979495E+02 0.  0.
        -12    1    3    3    0    0 -0.22542253981E+02  0.24502265586E+02 -0.15724702572E+02  0.36820924817E+02  0.00000000000E+00 0.  1.
         11    1    4    4    0    0  0.38849327483E+01 -0.21159656864E+02  0.28274447358E+01  0.21698346137E+02  0.51100000000E-03 0. -1.
        -11    1    4    4    0    0 -0.47313927725E+01 -0.16217066198E+01  0.67924328539E+01  0.84352329111E+01  0.51100000000E-03 0.  1.
        -12    1    4    4    0    0  0.23388714006E+02 -0.17209021014E+01  0.61048249820E+01  0.24233496135E+02  0.00000000000E+00 0.  1.
</event>
<event>
 8    1  0.1261983E-006  0.9118800E+02  0.7816164E-02  0.1184000E+00
        -11   -1    0    0    0    0  0.00000000000E+00  0.00000000000E+00  0.45593999997E+02  0.45594000000E+02  0.51100000000E-03 0. -1.
         11   -1    0    0    0    0 -0.00000000000E+00 -0.00000000000E+00 -0.45593999997E+02  0.45594000000E+02  0.51100000000E-03 0.  1.
         23    2    1    2    0    0 -0.17763568394E-14 -0.35527136788E-14 -0.35527136788E-14  0.91188000000E+02  0.91188000000E+02 0.  0.
    9900012    2    3    3    0    0  0.12534758793E+02  0.20775528114E+02  0.27695419607E+02  0.54367095426E+02  0.40000025642E+02 0.  0.
        -12    1    3    3    0    0 -0.12534758793E+02 -0.20775528114E+02 -0.27695419607E+02  0.36820904574E+02  0.00000000000E+00 0.  1.
         11    1    4    4    0    0 -0.10462069098E+00 -0.14206653750E+01 -0.39956963067E+01  0.42420307440E+01  0.51100000000E-03 0. -1.
        -11    1    4    4    0    0  0.11675076705E+02  0.14752592149E+02  0.13416588465E+01  0.18861241738E+02  0.51100000000E-03 0.  1.
         12    1    4    4    0    0  0.96430277959E+00  0.74436013405E+01  0.30349457067E+02  0.31263822944E+02  0.00000000000E+00 0. -1.
</event>
<event>
 8    1  0.1261983E-006  0.9118800E+02  0.7816164E-02  0.1184000E+00
        -11   -1    0    0    0    0  0.00000000000E+00  0.00000000000E+00  0.45593999997E+02  0.45594000000E+02  0.51100000000E-03 0. -1.
         11   -1    0    0    0    0 -0.00000000000E+00 -0.00000000000E+00 -0.45593999997E+02  0.45594000000E+02  0.51100000000E-03 0.  1.
         23    2    1    2    0    0  0.35527136788E-14  0.00000000000E+00  0.17763568394E-14  0.91188000000E+02  0.91188000000E+02 0.  0.
    9900012    2    3    3    0    0 -0.30815100182E+02  0.16999814660E+02 -0.10826657353E+02  0.54367073788E+02  0.39999976313E+02 0.  0.
         12    1    3    3    0    0  0.30815100182E+02 -0.16999814660E+02  0.10826657353E+02  0.36820926212E+02  0.00000000000E+00 0. -1.
         11    1    4    4    0    0 -0.75713515141E+01 -0.40171119840E+01 -0.15836623582E+02  0.18007254071E+02  0.51100000000E-03 0. -1.
        -11    1    4    4    0    0 -0.10598828573E+01 -0.30716935806E+01  0.14034274956E+00  0.32524374664E+01  0.51100000000E-03 0.  1.
        -12    1    4    4    0    0 -0.22183865811E+02  0.24088620225E+02  0.48696234794E+01  0.33107382250E+02  0.00000000000E+00 0.  1.
</event>
<event>
 8    1  0.1261983E-006  0.9118800E+02  0.7816164E-02  0.1184000E+00
        -11   -1    0    0    0    0  0.00000000000E+00  0.00000000000E+00  0.45593999997E+02  0.45594000000E+02  0.51100000000E-03 0.  1.
         11   -1    0    0    0    0 -0.00000000000E+00 -0.00000000000E+00 -0.45593999997E+02  0.45594000000E+02  0.51100000000E-03 0. -1.
         23    2    1    2    0    0  0.00000000000E+00  0.00000000000E+00  0.00000000000E+00  0.91188000000E+02  0.91188000000E+02 0.  0.
    9900012    2    3    3    0    0  0.12352617068E+02  0.32231978368E+02 -0.12817619502E+02  0.54367096322E+02  0.40000027686E+02 0.  0.
        -12    1    3    3    0    0 -0.12352617068E+02 -0.32231978368E+02  0.12817619502E+02  0.36820903678E+02  0.00000000000E+00 0.  1.
         11    1    4    4    0    0  0.44823203839E+01  0.15192011607E+02  0.37889785976E+01  0.16286336966E+02  0.51100000000E-03 0. -1.
        -11    1    4    4    0    0  0.13624602003E+02  0.15589588730E+01  0.12341356851E+01  0.13768922385E+02  0.51100000000E-03 0.  1.
        -12    1    4    4    0    0 -0.57543053190E+01  0.15481007888E+02 -0.17840733785E+02  0.24311836971E+02  0.00000000000E+00 0.  1.
</event>
<event>
 8    1  0.1261983E-006  0.9118800E+02  0.7816164E-02  0.1184000E+00
        -11   -1    0    0    0    0  0.00000000000E+00  0.00000000000E+00  0.45593999997E+02  0.45594000000E+02  0.51100000000E-03 0.  1.
         11   -1    0    0    0    0 -0.00000000000E+00 -0.00000000000E+00 -0.45593999997E+02  0.45594000000E+02  0.51100000000E-03 0. -1.
         23    2    1    2    0    0  0.17763568394E-14  0.17763568394E-14  0.00000000000E+00  0.91188000000E+02  0.91188000000E+02 0.  0.
    9900012    2    3    3    0    0 -0.85308536108E+01 -0.17315714243E+01  0.35777176607E+02  0.54367079738E+02  0.39999989880E+02 0.  0.
         12    1    3    3    0    0  0.85308536108E+01  0.17315714243E+01 -0.35777176607E+02  0.36820920262E+02  0.00000000000E+00 0. -1.
         11    1    4    4    0    0  0.47650090715E+01 -0.97869518942E+01  0.41469192669E+01  0.11648462495E+02  0.51100000000E-03 0. -1.
        -11    1    4    4    0    0 -0.10275290431E+02 -0.42855504689E+01  0.26984032435E+02  0.29190504329E+02  0.51100000000E-03 0.  1.
         12    1    4    4    0    0 -0.30205722512E+01  0.12340930939E+02  0.46462249056E+01  0.13528112915E+02  0.00000000000E+00 0. -1.
</event>
<event>
 8    1  0.1261983E-006  0.9118800E+02  0.7816164E-02  0.1184000E+00
        -11   -1    0    0    0    0  0.00000000000E+00  0.00000000000E+00  0.45593999997E+02  0.45594000000E+02  0.51100000000E-03 0.  1.
         11   -1    0    0    0    0 -0.00000000000E+00 -0.00000000000E+00 -0.45593999997E+02  0.45594000000E+02  0.51100000000E-03 0. -1.
         23    2    1    2    0    0 -0.66613381478E-15  0.35527136788E-14  0.00000000000E+00  0.91188000000E+02  0.91188000000E+02 0.  0.
    9900012    2    3    3    0    0 -0.11156874066E+01 -0.26771333507E+02  0.25255309925E+02  0.54367085623E+02  0.40000003295E+02 0.  0.
         12    1    3    3    0    0  0.11156874066E+01  0.26771333507E+02 -0.25255309925E+02  0.36820914377E+02  0.00000000000E+00 0. -1.
         11    1    4    4    0    0  0.16736336869E+00 -0.40554814167E+01 -0.69182761838E+01  0.80210651185E+01  0.51100000000E-03 0. -1.
        -11    1    4    4    0    0 -0.11213084207E+02 -0.18654407679E+02  0.16322704882E+02  0.27205714073E+02  0.51100000000E-03 0.  1.
        -12    1    4    4    0    0  0.99300334313E+01 -0.40614444114E+01  0.15850881226E+02  0.19140306432E+02  0.00000000000E+00 0.  1.
</event>
<event>
 8    1  0.1261983E-006  0.9118800E+02  0.7816164E-02  0.1184000E+00
        -11   -1    0    0    0    0  0.00000000000E+00  0.00000000000E+00  0.45593999997E+02  0.45594000000E+02  0.51100000000E-03 0.  1.
         11   -1    0    0    0    0 -0.00000000000E+00 -0.00000000000E+00 -0.45593999997E+02  0.45594000000E+02  0.51100000000E-03 0. -1.
         23    2    1    2    0    0  0.88817841970E-15  0.00000000000E+00  0.35527136788E-14  0.91188000000E+02  0.91188000000E+02 0.  0.
    9900012    2    3    3    0    0 -0.54771696296E+01  0.18230859717E+02 -0.31518463429E+02  0.54367120460E+02  0.40000082713E+02 0.  0.
        -12    1    3    3    0    0  0.54771696296E+01 -0.18230859717E+02  0.31518463429E+02  0.36820879540E+02  0.00000000000E+00 0.  1.
         11    1    4    4    0    0  0.63623256075E+01  0.63703236661E+01 -0.26886207974E+02  0.28353630988E+02  0.51100000000E-03 0. -1.
        -11    1    4    4    0    0 -0.94269564592E+01 -0.30540633968E+01 -0.45519402075E+01  0.10904814131E+02  0.51100000000E-03 0.  1.
         12    1    4    4    0    0 -0.24125387779E+01  0.14914599447E+02 -0.80315248112E-01  0.15108675341E+02  0.00000000000E+00 0. -1.
</event>
<event>
 8    1  0.1261983E-006  0.9118800E+02  0.7816164E-02  0.1184000E+00
        -11   -1    0    0    0    0  0.00000000000E+00  0.00000000000E+00  0.45593999997E+02  0.45594000000E+02  0.51100000000E-03 0.  1.
         11   -1    0    0    0    0 -0.00000000000E+00 -0.00000000000E+00 -0.45593999997E+02  0.45594000000E+02  0.51100000000E-03 0. -1.
         23    2    1    2    0    0  0.35527136788E-14 -0.99920072216E-15  0.00000000000E+00  0.91188000000E+02  0.91188000000E+02 0.  0.
    9900012    2    3    3    0    0  0.31236517164E+02 -0.91366278468E+00 -0.19473649776E+02  0.54367111637E+02  0.40000062599E+02 0.  0.
        -12    1    3    3    0    0 -0.31236517164E+02  0.91366278468E+00  0.19473649776E+02  0.36820888363E+02  0.00000000000E+00 0.  1.
         11    1    4    4    0    0  0.26063763348E+02  0.65631809416E+01 -0.13705028519E+02  0.30169900744E+02  0.51100000000E-03 0. -1.
        -11    1    4    4    0    0  0.49948245357E+01  0.50520999766E+01  0.41400134289E+01  0.82226332624E+01  0.51100000000E-03 0.  1.
        -12    1    4    4    0    0  0.17792928070E+00 -0.12528943703E+02 -0.99086346858E+01  0.15974577631E+02  0.00000000000E+00 0.  1.
</event>
<event>
 8    1  0.1261983E-006  0.9118800E+02  0.7816164E-02  0.1184000E+00
        -11   -1    0    0    0    0  0.00000000000E+00  0.00000000000E+00  0.45593999997E+02  0.45594000000E+02  0.51100000000E-03 0.  1.
         11   -1    0    0    0    0 -0.00000000000E+00 -0.00000000000E+00 -0.45593999997E+02  0.45594000000E+02  0.51100000000E-03 0. -1.
         23    2    1    2    0    0  0.88817841970E-15 -0.35527136788E-14 -0.71054273576E-14  0.91188000000E+02  0.91188000000E+02 0.  0.
    9900012    2    3    3    0    0 -0.71802440709E+01 -0.24292421170E+02 -0.26722688158E+02  0.54367086193E+02  0.40000004593E+02 0.  0.
        -12    1    3    3    0    0  0.71802440709E+01  0.24292421170E+02  0.26722688158E+02  0.36820913807E+02  0.00000000000E+00 0.  1.
         11    1    4    4    0    0 -0.14525742700E+00  0.85142309351E+00 -0.12509060795E+01  0.15201273911E+01  0.51100000000E-03 0. -1.
        -11    1    4    4    0    0  0.53427656610E+01  0.51355723972E+00  0.75322967445E+01  0.92490205133E+01  0.51100000000E-03 0.  1.
         12    1    4    4    0    0 -0.12377752305E+02 -0.25657401504E+02 -0.33004078823E+02  0.43597938288E+02  0.00000000000E+00 0. -1.
</event>
<event>
 8    1  0.1261983E-006  0.9118800E+02  0.7816164E-02  0.1184000E+00
        -11   -1    0    0    0    0  0.00000000000E+00  0.00000000000E+00  0.45593999997E+02  0.45594000000E+02  0.51100000000E-03 0. -1.
         11   -1    0    0    0    0 -0.00000000000E+00 -0.00000000000E+00 -0.45593999997E+02  0.45594000000E+02  0.51100000000E-03 0.  1.
         23    2    1    2    0    0 -0.17763568394E-14  0.00000000000E+00  0.00000000000E+00  0.91188000000E+02  0.91188000000E+02 0.  0.
    9900012    2    3    3    0    0  0.14389865728E+02 -0.33289820610E+02  0.63627382012E+01  0.54367288039E+02  0.40000464739E+02 0.  0.
         12    1    3    3    0    0 -0.14389865728E+02  0.33289820610E+02 -0.63627382012E+01  0.36820711961E+02  0.00000000000E+00 0. -1.
         11    1    4    4    0    0  0.83271810182E+01 -0.39135048475E+02  0.49054237713E+01  0.40310757194E+02  0.51100000000E-03 0. -1.
        -11    1    4    4    0    0  0.72939314390E+01  0.39966114963E+00 -0.18920049849E+01  0.75459159812E+01  0.51100000000E-03 0.  1.
         12    1    4    4    0    0 -0.12312467292E+01  0.54455667159E+01  0.33493194148E+01  0.65106148641E+01  0.00000000000E+00 0. -1.
</event>
<event>
 8    1  0.1261983E-006  0.9118800E+02  0.7816164E-02  0.1184000E+00
        -11   -1    0    0    0    0  0.00000000000E+00  0.00000000000E+00  0.45593999997E+02  0.45594000000E+02  0.51100000000E-03 0. -1.
         11   -1    0    0    0    0 -0.00000000000E+00 -0.00000000000E+00 -0.45593999997E+02  0.45594000000E+02  0.51100000000E-03 0.  1.
         23    2    1    2    0    0  0.00000000000E+00 -0.35527136788E-14  0.00000000000E+00  0.91188000000E+02  0.91188000000E+02 0.  0.
    9900012    2    3    3    0    0 -0.17856783209E+02 -0.19909398875E+02  0.25308716736E+02  0.54367081856E+02  0.39999994707E+02 0.  0.
        -12    1    3    3    0    0  0.17856783209E+02  0.19909398875E+02 -0.25308716736E+02  0.36820918144E+02  0.00000000000E+00 0.  1.
         11    1    4    4    0    0 -0.13094084464E+02 -0.15316360727E+02  0.18672929899E+01  0.20236915211E+02  0.51100000000E-03 0.  1.
        -11    1    4    4    0    0 -0.12296563742E+01 -0.10721880071E+02  0.24690865796E+02  0.26946421303E+02  0.51100000000E-03 0. -1.
         12    1    4    4    0    0 -0.35330423701E+01  0.61288419230E+01 -0.12494420494E+01  0.71837453421E+01  0.00000000000E+00 0. -1.
</event>
<event>
 8    1  0.1261983E-006  0.9118800E+02  0.7816164E-02  0.1184000E+00
        -11   -1    0    0    0    0  0.00000000000E+00  0.00000000000E+00  0.45593999997E+02  0.45594000000E+02  0.51100000000E-03 0.  1.
         11   -1    0    0    0    0 -0.00000000000E+00 -0.00000000000E+00 -0.45593999997E+02  0.45594000000E+02  0.51100000000E-03 0. -1.
         23    2    1    2    0    0  0.35527136788E-14  0.00000000000E+00 -0.35527136788E-14  0.91188000000E+02  0.91188000000E+02 0.  0.
    9900012    2    3    3    0    0  0.31125202599E+02 -0.86747203020E+01  0.17656556129E+02  0.54367041518E+02  0.39999902749E+02 0.  0.
         12    1    3    3    0    0 -0.31125202599E+02  0.86747203020E+01 -0.17656556129E+02  0.36820958482E+02  0.00000000000E+00 0. -1.
         11    1    4    4    0    0  0.10736739877E+02  0.11418316367E+02 -0.49066219181E+01  0.16423473164E+02  0.51100000000E-03 0. -1.
        -11    1    4    4    0    0  0.29728791830E+01 -0.92314372946E+01  0.97237580629E+01  0.13733496142E+02  0.51100000000E-03 0.  1.
         12    1    4    4    0    0  0.17415583539E+02 -0.10861599375E+02  0.12839419985E+02  0.24210072213E+02  0.00000000000E+00 0. -1.
</event>
<event>
 8    1  0.1261983E-006  0.9118800E+02  0.7816164E-02  0.1184000E+00
        -11   -1    0    0    0    0  0.00000000000E+00  0.00000000000E+00  0.45593999997E+02  0.45594000000E+02  0.51100000000E-03 0.  1.
         11   -1    0    0    0    0 -0.00000000000E+00 -0.00000000000E+00 -0.45593999997E+02  0.45594000000E+02  0.51100000000E-03 0. -1.
         23    2    1    2    0    0  0.00000000000E+00  0.35527136788E-14 -0.88817841970E-15  0.91188000000E+02  0.91188000000E+02 0.  0.
    9900012    2    3    3    0    0 -0.32257063263E+02  0.17091357794E+02 -0.48109904382E+01  0.54367105517E+02  0.40000048646E+02 0.  0.
        -12    1    3    3    0    0  0.32257063263E+02 -0.17091357794E+02  0.48109904382E+01  0.36820894483E+02  0.00000000000E+00 0.  1.
         11    1    4    4    0    0 -0.90109275357E+01  0.10214314310E+02 -0.74977624652E+01  0.15548166262E+02  0.51100000000E-03 0. -1.
        -11    1    4    4    0    0 -0.30195052905E+02  0.35088833070E+01  0.48889878472E+01  0.30788888977E+02  0.51100000000E-03 0.  1.
         12    1    4    4    0    0  0.69489171785E+01  0.33681601771E+01 -0.22022158202E+01  0.80300502770E+01  0.00000000000E+00 0. -1.
</event>
<event>
 8    1  0.1261983E-006  0.9118800E+02  0.7816164E-02  0.1184000E+00
        -11   -1    0    0    0    0  0.00000000000E+00  0.00000000000E+00  0.45593999997E+02  0.45594000000E+02  0.51100000000E-03 0.  1.
         11   -1    0    0    0    0 -0.00000000000E+00 -0.00000000000E+00 -0.45593999997E+02  0.45594000000E+02  0.51100000000E-03 0. -1.
         23    2    1    2    0    0 -0.11102230246E-14  0.00000000000E+00  0.00000000000E+00  0.91188000000E+02  0.91188000000E+02 0.  0.
    9900012    2    3    3    0    0 -0.16474562030E+01 -0.32475990413E+02  0.17273611787E+02  0.54367058548E+02  0.39999941573E+02 0.  0.
         12    1    3    3    0    0  0.16474562030E+01  0.32475990413E+02 -0.17273611787E+02  0.36820941452E+02  0.00000000000E+00 0. -1.
         11    1    4    4    0    0  0.11613241339E+02 -0.34101935076E+01  0.54630954162E+01  0.13279390270E+02  0.51100000000E-03 0. -1.
        -11    1    4    4    0    0 -0.85919813714E+01 -0.58655380802E+01  0.13864300967E+02  0.17333364429E+02  0.51100000000E-03 0.  1.
         12    1    4    4    0    0 -0.46687161708E+01 -0.23200258825E+02 -0.20537845959E+01  0.23754303850E+02  0.00000000000E+00 0. -1.
</event>
<event>
 8    1  0.1261983E-006  0.9118800E+02  0.7816164E-02  0.1184000E+00
        -11   -1    0    0    0    0  0.00000000000E+00  0.00000000000E+00  0.45593999997E+02  0.45594000000E+02  0.51100000000E-03 0.  1.
         11   -1    0    0    0    0 -0.00000000000E+00 -0.00000000000E+00 -0.45593999997E+02  0.45594000000E+02  0.51100000000E-03 0. -1.
         23    2    1    2    0    0  0.26645352591E-14  0.35527136788E-14  0.00000000000E+00  0.91188000000E+02  0.91188000000E+02 0.  0.
    9900012    2    3    3    0    0 -0.31174338691E+01 -0.12071996850E+02  0.34645754298E+02  0.54367084847E+02  0.40000001525E+02 0.  0.
         12    1    3    3    0    0  0.31174338691E+01  0.12071996850E+02 -0.34645754298E+02  0.36820915153E+02  0.00000000000E+00 0. -1.
         11    1    4    4    0    0 -0.72274531604E+01 -0.13785615258E+02  0.24973301922E+02  0.29426944734E+02  0.51100000000E-03 0. -1.
        -11    1    4    4    0    0  0.50711425956E+01  0.11791296037E+02  0.60298539794E+01  0.14181335929E+02  0.51100000000E-03 0.  1.
        -12    1    4    4    0    0 -0.96112330430E+00 -0.10077677629E+02  0.36425983964E+01  0.10758804184E+02  0.00000000000E+00 0.  1.
</event>
<event>
 8    1  0.1261983E-006  0.9118800E+02  0.7816164E-02  0.1184000E+00
        -11   -1    0    0    0    0  0.00000000000E+00  0.00000000000E+00  0.45593999997E+02  0.45594000000E+02  0.51100000000E-03 0. -1.
         11   -1    0    0    0    0 -0.00000000000E+00 -0.00000000000E+00 -0.45593999997E+02  0.45594000000E+02  0.51100000000E-03 0.  1.
         23    2    1    2    0    0 -0.63837823916E-15  0.71054273576E-14 -0.17763568394E-14  0.91188000000E+02  0.91188000000E+02 0.  0.
    9900012    2    3    3    0    0 -0.14283683034E+00 -0.34539569963E+02  0.12758467727E+02  0.54367071246E+02  0.39999970519E+02 0.  0.
        -12    1    3    3    0    0  0.14283683034E+00  0.34539569963E+02 -0.12758467727E+02  0.36820928754E+02  0.00000000000E+00 0.  1.
         11    1    4    4    0    0 -0.37695689728E+01 -0.18816246841E+02  0.59400771093E+01  0.20088437265E+02  0.51100000000E-03 0. -1.
        -11    1    4    4    0    0 -0.75028953330E+01  0.49162060304E+01  0.60449087906E+01  0.10816812962E+02  0.51100000000E-03 0.  1.
         12    1    4    4    0    0  0.11129627475E+02 -0.20639529152E+02  0.77348182701E+00  0.23461821019E+02  0.00000000000E+00 0. -1.
</event>
<event>
 8    1  0.1261983E-006  0.9118800E+02  0.7816164E-02  0.1184000E+00
        -11   -1    0    0    0    0  0.00000000000E+00  0.00000000000E+00  0.45593999997E+02  0.45594000000E+02  0.51100000000E-03 0. -1.
         11   -1    0    0    0    0 -0.00000000000E+00 -0.00000000000E+00 -0.45593999997E+02  0.45594000000E+02  0.51100000000E-03 0.  1.
         23    2    1    2    0    0 -0.71054273576E-14  0.17763568394E-14 -0.35527136788E-14  0.91188000000E+02  0.91188000000E+02 0.  0.
    9900012    2    3    3    0    0  0.26044310882E+02 -0.15959362307E+02  0.20561489378E+02  0.54367051886E+02  0.39999926385E+02 0.  0.
         12    1    3    3    0    0 -0.26044310882E+02  0.15959362307E+02 -0.20561489378E+02  0.36820948114E+02  0.00000000000E+00 0. -1.
         11    1    4    4    0    0 -0.97166765431E+00  0.28102915148E+01 -0.17606669929E+01  0.34556945683E+01  0.51100000000E-03 0. -1.
        -11    1    4    4    0    0  0.24540781536E+02 -0.67853182428E-01  0.44818842043E+01  0.24946780328E+02  0.51100000000E-03 0.  1.
         12    1    4    4    0    0  0.24751970007E+01 -0.18701800639E+02  0.17840272166E+02  0.25964576990E+02  0.00000000000E+00 0. -1.
</event>
<event>
 8    1  0.1261983E-006  0.9118800E+02  0.7816164E-02  0.1184000E+00
        -11   -1    0    0    0    0  0.00000000000E+00  0.00000000000E+00  0.45593999997E+02  0.45594000000E+02  0.51100000000E-03 0.  1.
         11   -1    0    0    0    0 -0.00000000000E+00 -0.00000000000E+00 -0.45593999997E+02  0.45594000000E+02  0.51100000000E-03 0. -1.
         23    2    1    2    0    0  0.00000000000E+00  0.00000000000E+00  0.00000000000E+00  0.91188000000E+02  0.91188000000E+02 0.  0.
    9900012    2    3    3    0    0  0.27314016536E+02  0.19104931308E+02 -0.15644296826E+02  0.54366838655E+02  0.39999440278E+02 0.  0.
        -12    1    3    3    0    0 -0.27314016536E+02 -0.19104931308E+02  0.15644296826E+02  0.36821161345E+02  0.00000000000E+00 0.  1.
         11    1    4    4    0    0  0.27202482925E+02  0.19730734812E+02 -0.24716997073E+02  0.41715787396E+02  0.51100000000E-03 0. -1.
        -11    1    4    4    0    0 -0.40151188174E+01  0.57287788667E+00  0.64423857268E+01  0.76127329064E+01  0.51100000000E-03 0.  1.
         12    1    4    4    0    0  0.41266524290E+01 -0.11986813910E+01  0.26303145207E+01  0.50383183528E+01  0.00000000000E+00 0. -1.
</event>
<event>
 8    1  0.1261983E-006  0.9118800E+02  0.7816164E-02  0.1184000E+00
        -11   -1    0    0    0    0  0.00000000000E+00  0.00000000000E+00  0.45593999997E+02  0.45594000000E+02  0.51100000000E-03 0.  1.
         11   -1    0    0    0    0 -0.00000000000E+00 -0.00000000000E+00 -0.45593999997E+02  0.45594000000E+02  0.51100000000E-03 0. -1.
         23    2    1    2    0    0 -0.22204460493E-14  0.00000000000E+00  0.35527136788E-14  0.91188000000E+02  0.91188000000E+02 0.  0.
    9900012    2    3    3    0    0  0.31299229234E+01 -0.21659698125E+02 -0.29611494294E+02  0.54367088351E+02  0.40000009513E+02 0.  0.
        -12    1    3    3    0    0 -0.31299229234E+01  0.21659698125E+02  0.29611494294E+02  0.36820911649E+02  0.00000000000E+00 0.  1.
         11    1    4    4    0    0 -0.12803439865E+02 -0.16539927290E+02 -0.64039420895E+01  0.21874819809E+02  0.51100000000E-03 0. -1.
        -11    1    4    4    0    0  0.15885695616E+02 -0.90881311218E+01 -0.16212569776E+02  0.24449884897E+02  0.51100000000E-03 0.  1.
         12    1    4    4    0    0  0.47667172189E-01  0.39683602861E+01 -0.69949824276E+01  0.80423836443E+01  0.00000000000E+00 0. -1.
</event>
<event>
 8    1  0.1261983E-006  0.9118800E+02  0.7816164E-02  0.1184000E+00
        -11   -1    0    0    0    0  0.00000000000E+00  0.00000000000E+00  0.45593999997E+02  0.45594000000E+02  0.51100000000E-03 0.  1.
         11   -1    0    0    0    0 -0.00000000000E+00 -0.00000000000E+00 -0.45593999997E+02  0.45594000000E+02  0.51100000000E-03 0. -1.
         23    2    1    2    0    0 -0.17763568394E-14  0.00000000000E+00  0.00000000000E+00  0.91188000000E+02  0.91188000000E+02 0.  0.
    9900012    2    3    3    0    0  0.10605430382E+02 -0.14862868451E+02 -0.31974991156E+02  0.54367081060E+02  0.39999992892E+02 0.  0.
        -12    1    3    3    0    0 -0.10605430382E+02  0.14862868451E+02  0.31974991156E+02  0.36820918940E+02  0.00000000000E+00 0.  1.
         11    1    4    4    0    0 -0.27185909558E+01 -0.97432408478E+01 -0.53424538448E+01  0.11439549482E+02  0.51100000000E-03 0. -1.
        -11    1    4    4    0    0  0.18238067870E+02 -0.13722562695E+02 -0.13642519188E+02  0.26590490342E+02  0.51100000000E-03 0.  1.
         12    1    4    4    0    0 -0.49140465325E+01  0.86029350916E+01 -0.12990018123E+02  0.16337041236E+02  0.00000000000E+00 0. -1.
</event>
<event>
 8    1  0.1261983E-006  0.9118800E+02  0.7816164E-02  0.1184000E+00
        -11   -1    0    0    0    0  0.00000000000E+00  0.00000000000E+00  0.45593999997E+02  0.45594000000E+02  0.51100000000E-03 0.  1.
         11   -1    0    0    0    0 -0.00000000000E+00 -0.00000000000E+00 -0.45593999997E+02  0.45594000000E+02  0.51100000000E-03 0. -1.
         23    2    1    2    0    0  0.00000000000E+00 -0.26645352591E-14  0.00000000000E+00  0.91188000000E+02  0.91188000000E+02 0.  0.
    9900012    2    3    3    0    0 -0.35326452853E+02  0.46720575617E+01 -0.92732717887E+01  0.54367082539E+02  0.39999996264E+02 0.  0.
        -12    1    3    3    0    0  0.35326452853E+02 -0.46720575617E+01  0.92732717887E+01  0.36820917461E+02  0.00000000000E+00 0.  1.
         11    1    4    4    0    0 -0.71664148552E+01 -0.15345403688E+02  0.31778219308E+01  0.17231873627E+02  0.51100000000E-03 0. -1.
        -11    1    4    4    0    0 -0.12887205486E+02  0.12478695055E+02 -0.69266527535E+01  0.19229571346E+02  0.51100000000E-03 0.  1.
         12    1    4    4    0    0 -0.15272832511E+02  0.75387661949E+01 -0.55244409660E+01  0.17905637566E+02  0.00000000000E+00 0. -1.
</event>
<event>
 8    1  0.1261983E-006  0.9118800E+02  0.7816164E-02  0.1184000E+00
        -11   -1    0    0    0    0  0.00000000000E+00  0.00000000000E+00  0.45593999997E+02  0.45594000000E+02  0.51100000000E-03 0.  1.
         11   -1    0    0    0    0 -0.00000000000E+00 -0.00000000000E+00 -0.45593999997E+02  0.45594000000E+02  0.51100000000E-03 0. -1.
         23    2    1    2    0    0  0.00000000000E+00 -0.17763568394E-14 -0.35527136788E-14  0.91188000000E+02  0.91188000000E+02 0.  0.
    9900012    2    3    3    0    0 -0.22997055538E+02  0.15346635016E+02  0.24318643628E+02  0.54367079349E+02  0.39999988991E+02 0.  0.
         12    1    3    3    0    0  0.22997055538E+02 -0.15346635016E+02 -0.24318643628E+02  0.36820920651E+02  0.00000000000E+00 0. -1.
         11    1    4    4    0    0  0.17242946513E+01  0.58967240239E+01 -0.64376389044E+00  0.61772954006E+01  0.51100000000E-03 0. -1.
        -11    1    4    4    0    0 -0.20274426033E+02  0.20195075098E+02  0.12755934963E+02  0.31330612606E+02  0.51100000000E-03 0.  1.
         12    1    4    4    0    0 -0.44469241556E+01 -0.10745164106E+02  0.12206472555E+02  0.16859171342E+02  0.00000000000E+00 0. -1.
</event>
<event>
 8    1  0.1261983E-006  0.9118800E+02  0.7816164E-02  0.1184000E+00
        -11   -1    0    0    0    0  0.00000000000E+00  0.00000000000E+00  0.45593999997E+02  0.45594000000E+02  0.51100000000E-03 0.  1.
         11   -1    0    0    0    0 -0.00000000000E+00 -0.00000000000E+00 -0.45593999997E+02  0.45594000000E+02  0.51100000000E-03 0. -1.
         23    2    1    2    0    0  0.00000000000E+00  0.00000000000E+00  0.00000000000E+00  0.91188000000E+02  0.91188000000E+02 0.  0.
    9900012    2    3    3    0    0 -0.19849027930E+02 -0.19144469968E+02  0.24398468005E+02  0.54367083647E+02  0.39999998789E+02 0.  0.
         12    1    3    3    0    0  0.19849027930E+02  0.19144469968E+02 -0.24398468005E+02  0.36820916353E+02  0.00000000000E+00 0. -1.
         11    1    4    4    0    0 -0.11564187396E+02 -0.22659866742E+02  0.30095145361E+01  0.25617516837E+02  0.51100000000E-03 0. -1.
        -11    1    4    4    0    0 -0.21465678487E+01 -0.47388310352E+01  0.21212746178E+00  0.52066564541E+01  0.51100000000E-03 0.  1.
        -12    1    4    4    0    0 -0.61382726848E+01  0.82542278088E+01  0.21176826007E+02  0.23542910356E+02  0.00000000000E+00 0.  1.
</event>
<event>
 8    1  0.1261983E-006  0.9118800E+02  0.7816164E-02  0.1184000E+00
        -11   -1    0    0    0    0  0.00000000000E+00  0.00000000000E+00  0.45593999997E+02  0.45594000000E+02  0.51100000000E-03 0. -1.
         11   -1    0    0    0    0 -0.00000000000E+00 -0.00000000000E+00 -0.45593999997E+02  0.45594000000E+02  0.51100000000E-03 0.  1.
         23    2    1    2    0    0  0.17763568394E-14  0.71054273576E-14  0.00000000000E+00  0.91188000000E+02  0.91188000000E+02 0.  0.
    9900012    2    3    3    0    0 -0.10767596485E+02 -0.33827764557E+02 -0.97734712042E+01  0.54367088437E+02  0.40000009709E+02 0.  0.
         12    1    3    3    0    0  0.10767596485E+02  0.33827764557E+02  0.97734712042E+01  0.36820911563E+02  0.00000000000E+00 0. -1.
         11    1    4    4    0    0 -0.42015701057E+01 -0.28315912670E+02 -0.19794547578E+01  0.28694291124E+02  0.51100000000E-03 0. -1.
        -11    1    4    4    0    0  0.21215021412E+01 -0.87383969227E+01  0.46766925190E+01  0.10135669948E+02  0.51100000000E-03 0.  1.
         12    1    4    4    0    0 -0.86875285206E+01  0.32265450359E+01 -0.12470708965E+02  0.15537127365E+02  0.00000000000E+00 0. -1.
</event>
<event>
 8    1  0.1261983E-006  0.9118800E+02  0.7816164E-02  0.1184000E+00
        -11   -1    0    0    0    0  0.00000000000E+00  0.00000000000E+00  0.45593999997E+02  0.45594000000E+02  0.51100000000E-03 0.  1.
         11   -1    0    0    0    0 -0.00000000000E+00 -0.00000000000E+00 -0.45593999997E+02  0.45594000000E+02  0.51100000000E-03 0. -1.
         23    2    1    2    0    0  0.00000000000E+00 -0.35527136788E-14  0.00000000000E+00  0.91188000000E+02  0.91188000000E+02 0.  0.
    9900012    2    3    3    0    0 -0.19738981756E+01  0.21672121767E+02  0.29701911507E+02  0.54367072757E+02  0.39999973963E+02 0.  0.
         12    1    3    3    0    0  0.19738981756E+01 -0.21672121767E+02 -0.29701911507E+02  0.36820927243E+02  0.00000000000E+00 0. -1.
         11    1    4    4    0    0  0.98262551067E+01  0.15681232327E+02  0.20201156849E+02  0.27396041229E+02  0.51100000000E-03 0. -1.
        -11    1    4    4    0    0  0.30929743872E+01  0.89363743653E+01  0.65551294020E+01  0.11506302581E+02  0.51100000000E-03 0.  1.
         12    1    4    4    0    0 -0.14893127669E+02 -0.29454849254E+01  0.29456252558E+01  0.15464728946E+02  0.00000000000E+00 0. -1.
</event>
<event>
 8    1  0.1261983E-006  0.9118800E+02  0.7816164E-02  0.1184000E+00
        -11   -1    0    0    0    0  0.00000000000E+00  0.00000000000E+00  0.45593999997E+02  0.45594000000E+02  0.51100000000E-03 0.  1.
         11   -1    0    0    0    0 -0.00000000000E+00 -0.00000000000E+00 -0.45593999997E+02  0.45594000000E+02  0.51100000000E-03 0. -1.
         23    2    1    2    0    0 -0.88817841970E-15  0.00000000000E+00  0.00000000000E+00  0.91188000000E+02  0.91188000000E+02 0.  0.
    9900012    2    3    3    0    0  0.50665887074E+01  0.17750043012E+02  0.31859774724E+02  0.54367087552E+02  0.40000007692E+02 0.  0.
         12    1    3    3    0    0 -0.50665887074E+01 -0.17750043012E+02 -0.31859774724E+02  0.36820912448E+02  0.00000000000E+00 0. -1.
         11    1    4    4    0    0  0.19954932166E+01 -0.49292259076E+01  0.41961396964E+00  0.53343544474E+01  0.51100000000E-03 0. -1.
        -11    1    4    4    0    0 -0.13261952885E+02  0.13316489605E+02  0.16143348229E+02  0.24775309928E+02  0.51100000000E-03 0.  1.
        -12    1    4    4    0    0  0.16333048376E+02  0.93627793144E+01  0.15296812525E+02  0.24257423177E+02  0.00000000000E+00 0.  1.
</event>
<event>
 8    1  0.1261983E-006  0.9118800E+02  0.7816164E-02  0.1184000E+00
        -11   -1    0    0    0    0  0.00000000000E+00  0.00000000000E+00  0.45593999997E+02  0.45594000000E+02  0.51100000000E-03 0. -1.
         11   -1    0    0    0    0 -0.00000000000E+00 -0.00000000000E+00 -0.45593999997E+02  0.45594000000E+02  0.51100000000E-03 0.  1.
         23    2    1    2    0    0  0.00000000000E+00  0.17763568394E-14  0.22204460493E-15  0.91188000000E+02  0.91188000000E+02 0.  0.
    9900012    2    3    3    0    0 -0.35392481664E+02 -0.10006052284E+02 -0.17409860693E+01  0.54367083754E+02  0.39999999035E+02 0.  0.
        -12    1    3    3    0    0  0.35392481664E+02  0.10006052284E+02  0.17409860693E+01  0.36820916246E+02  0.00000000000E+00 0.  1.
         11    1    4    4    0    0 -0.33508782103E+02  0.49374169447E+01  0.34762108329E+01  0.34048503729E+02  0.51100000000E-03 0. -1.
        -11    1    4    4    0    0 -0.25158228467E+01 -0.27488751364E+01 -0.70467188663E+01  0.79713189720E+01  0.51100000000E-03 0.  1.
         12    1    4    4    0    0  0.63212328562E+00 -0.12194594092E+02  0.18295219640E+01  0.12347261054E+02  0.00000000000E+00 0. -1.
</event>
<event>
 8    1  0.1261983E-006  0.9118800E+02  0.7816164E-02  0.1184000E+00
        -11   -1    0    0    0    0  0.00000000000E+00  0.00000000000E+00  0.45593999997E+02  0.45594000000E+02  0.51100000000E-03 0. -1.
         11   -1    0    0    0    0 -0.00000000000E+00 -0.00000000000E+00 -0.45593999997E+02  0.45594000000E+02  0.51100000000E-03 0.  1.
         23    2    1    2    0    0 -0.44408920985E-15  0.00000000000E+00  0.88817841970E-15  0.91188000000E+02  0.91188000000E+02 0.  0.
    9900012    2    3    3    0    0  0.33213227772E+01 -0.36478402779E+02  0.37516238409E+01  0.54367085621E+02  0.40000003290E+02 0.  0.
         12    1    3    3    0    0 -0.33213227772E+01  0.36478402779E+02 -0.37516238409E+01  0.36820914379E+02  0.00000000000E+00 0. -1.
         11    1    4    4    0    0 -0.72684387716E+01  0.39482549767E+01  0.67918884489E+01  0.10702741168E+02  0.51100000000E-03 0. -1.
        -11    1    4    4    0    0  0.70264838873E+00 -0.15806009283E+02  0.37865403677E+01  0.16268421326E+02  0.51100000000E-03 0.  1.
         12    1    4    4    0    0  0.98871131601E+01 -0.24620648472E+02 -0.68268049757E+01  0.27395923128E+02  0.00000000000E+00 0. -1.
</event>
<event>
 8    1  0.1261983E-006  0.9118800E+02  0.7816164E-02  0.1184000E+00
        -11   -1    0    0    0    0  0.00000000000E+00  0.00000000000E+00  0.45593999997E+02  0.45594000000E+02  0.51100000000E-03 0.  1.
         11   -1    0    0    0    0 -0.00000000000E+00 -0.00000000000E+00 -0.45593999997E+02  0.45594000000E+02  0.51100000000E-03 0. -1.
         23    2    1    2    0    0  0.00000000000E+00  0.00000000000E+00  0.00000000000E+00  0.91188000000E+02  0.91188000000E+02 0.  0.
    9900012    2    3    3    0    0  0.97070721828E+01  0.33643169871E+02  0.11388003909E+02  0.54367125997E+02  0.40000095335E+02 0.  0.
         12    1    3    3    0    0 -0.97070721828E+01 -0.33643169871E+02 -0.11388003909E+02  0.36820874003E+02  0.00000000000E+00 0. -1.
         11    1    4    4    0    0 -0.47424543030E+01  0.48314307151E-01 -0.24584928713E+01  0.53420402982E+01  0.51100000000E-03 0. -1.
        -11    1    4    4    0    0  0.59348177018E+01  0.36135585431E+02  0.15872027885E+02  0.39911450300E+02  0.51100000000E-03 0.  1.
        -12    1    4    4    0    0  0.85147087840E+01 -0.25407298672E+01 -0.20255311046E+01  0.91136353992E+01  0.00000000000E+00 0.  1.
</event>
<event>
 8    1  0.1261983E-006  0.9118800E+02  0.7816164E-02  0.1184000E+00
        -11   -1    0    0    0    0  0.00000000000E+00  0.00000000000E+00  0.45593999997E+02  0.45594000000E+02  0.51100000000E-03 0.  1.
         11   -1    0    0    0    0 -0.00000000000E+00 -0.00000000000E+00 -0.45593999997E+02  0.45594000000E+02  0.51100000000E-03 0. -1.
         23    2    1    2    0    0  0.00000000000E+00  0.00000000000E+00  0.00000000000E+00  0.91188000000E+02  0.91188000000E+02 0.  0.
    9900012    2    3    3    0    0 -0.21898670694E+02  0.18657504642E+02  0.22980978829E+02  0.54367086845E+02  0.40000006081E+02 0.  0.
         12    1    3    3    0    0  0.21898670694E+02 -0.18657504642E+02 -0.22980978829E+02  0.36820913155E+02  0.00000000000E+00 0. -1.
         11    1    4    4    0    0 -0.28104150157E+02  0.13514051695E+02  0.12796573001E+02  0.33707938681E+02  0.51100000000E-03 0.  1.
        -11    1    4    4    0    0  0.10404220496E+02 -0.98753371481E+00  0.69750447776E+01  0.12564803098E+02  0.51100000000E-03 0. -1.
         12    1    4    4    0    0 -0.41987410331E+01  0.61309866614E+01  0.32093610505E+01  0.80943450666E+01  0.00000000000E+00 0. -1.
</event>
<event>
 8    1  0.1261983E-006  0.9118800E+02  0.7816164E-02  0.1184000E+00
        -11   -1    0    0    0    0  0.00000000000E+00  0.00000000000E+00  0.45593999997E+02  0.45594000000E+02  0.51100000000E-03 0.  1.
         11   -1    0    0    0    0 -0.00000000000E+00 -0.00000000000E+00 -0.45593999997E+02  0.45594000000E+02  0.51100000000E-03 0. -1.
         23    2    1    2    0    0 -0.35527136788E-14  0.00000000000E+00  0.00000000000E+00  0.91188000000E+02  0.91188000000E+02 0.  0.
    9900012    2    3    3    0    0  0.23868182967E+02  0.26369816505E+02  0.95248349314E+01  0.54367083918E+02  0.39999999407E+02 0.  0.
         12    1    3    3    0    0 -0.23868182967E+02 -0.26369816505E+02 -0.95248349314E+01  0.36820916082E+02  0.00000000000E+00 0. -1.
         11    1    4    4    0    0  0.55048262962E+01 -0.51301503982E+01  0.13349265589E+02  0.15323982762E+02  0.51100000000E-03 0. -1.
        -11    1    4    4    0    0  0.81690589116E+01  0.11838038842E+02  0.49639685717E+01  0.15215573317E+02  0.51100000000E-03 0.  1.
         12    1    4    4    0    0  0.10194297759E+02  0.19661928062E+02 -0.87883992291E+01  0.23827527839E+02  0.00000000000E+00 0. -1.
</event>
<event>
 8    1  0.1261983E-006  0.9118800E+02  0.7816164E-02  0.1184000E+00
        -11   -1    0    0    0    0  0.00000000000E+00  0.00000000000E+00  0.45593999997E+02  0.45594000000E+02  0.51100000000E-03 0. -1.
         11   -1    0    0    0    0 -0.00000000000E+00 -0.00000000000E+00 -0.45593999997E+02  0.45594000000E+02  0.51100000000E-03 0.  1.
         23    2    1    2    0    0  0.00000000000E+00  0.00000000000E+00  0.71054273576E-14  0.91188000000E+02  0.91188000000E+02 0.  0.
    9900012    2    3    3    0    0  0.16015492130E+02 -0.83447803959E+01 -0.32088157778E+02  0.54367065498E+02  0.39999957416E+02 0.  0.
         12    1    3    3    0    0 -0.16015492130E+02  0.83447803959E+01  0.32088157778E+02  0.36820934502E+02  0.00000000000E+00 0. -1.
         11    1    4    4    0    0  0.86288735723E+01  0.80289262501E+01 -0.25185365629E+02  0.27806901265E+02  0.51100000000E-03 0. -1.
        -11    1    4    4    0    0  0.38737587778E+01 -0.19915205283E+02 -0.36747600304E+01  0.20618566150E+02  0.51100000000E-03 0.  1.
        -12    1    4    4    0    0  0.35128597794E+01  0.35414986368E+01 -0.32280321188E+01  0.59415980834E+01  0.00000000000E+00 0.  1.
</event>
<event>
 8    1  0.1261983E-006  0.9118800E+02  0.7816164E-02  0.1184000E+00
        -11   -1    0    0    0    0  0.00000000000E+00  0.00000000000E+00  0.45593999997E+02  0.45594000000E+02  0.51100000000E-03 0.  1.
         11   -1    0    0    0    0 -0.00000000000E+00 -0.00000000000E+00 -0.45593999997E+02  0.45594000000E+02  0.51100000000E-03 0. -1.
         23    2    1    2    0    0  0.00000000000E+00 -0.71054273576E-14  0.00000000000E+00  0.91188000000E+02  0.91188000000E+02 0.  0.
    9900012    2    3    3    0    0 -0.11404552673E+02 -0.34777257731E+02 -0.40324758565E+01  0.54367050277E+02  0.39999922717E+02 0.  0.
        -12    1    3    3    0    0  0.11404552673E+02  0.34777257731E+02  0.40324758565E+01  0.36820949723E+02  0.00000000000E+00 0.  1.
         11    1    4    4    0    0 -0.10579468747E+02 -0.15174273799E+02  0.27228960513E+01  0.18697537471E+02  0.51100000000E-03 0. -1.
        -11    1    4    4    0    0 -0.19889080684E+01 -0.19976190366E+02  0.74491792988E+01  0.21412477889E+02  0.51100000000E-03 0.  1.
         12    1    4    4    0    0  0.11638241425E+01  0.37320643444E+00 -0.14204551207E+02  0.14257034918E+02  0.00000000000E+00 0. -1.
</event>
<event>
 8    1  0.1261983E-006  0.9118800E+02  0.7816164E-02  0.1184000E+00
        -11   -1    0    0    0    0  0.00000000000E+00  0.00000000000E+00  0.45593999997E+02  0.45594000000E+02  0.51100000000E-03 0.  1.
         11   -1    0    0    0    0 -0.00000000000E+00 -0.00000000000E+00 -0.45593999997E+02  0.45594000000E+02  0.51100000000E-03 0. -1.
         23    2    1    2    0    0  0.35527136788E-14  0.00000000000E+00  0.00000000000E+00  0.91188000000E+02  0.91188000000E+02 0.  0.
    9900012    2    3    3    0    0  0.30704750976E+02  0.10016493683E+02 -0.17682456496E+02  0.54367066471E+02  0.39999959634E+02 0.  0.
        -12    1    3    3    0    0 -0.30704750976E+02 -0.10016493683E+02  0.17682456496E+02  0.36820933529E+02  0.00000000000E+00 0.  1.
         11    1    4    4    0    0  0.22099349112E+02  0.98857096094E+01 -0.13226306108E+02  0.27587019759E+02  0.51100000000E-03 0. -1.
        -11    1    4    4    0    0  0.53524210731E+01  0.10999115704E+02  0.37321209129E+01  0.12788967292E+02  0.51100000000E-03 0.  1.
        -12    1    4    4    0    0  0.32529807914E+01 -0.10868331631E+02 -0.81882713004E+01  0.13991079421E+02  0.00000000000E+00 0.  1.
</event>
<event>
 8    1  0.1261983E-006  0.9118800E+02  0.7816164E-02  0.1184000E+00
        -11   -1    0    0    0    0  0.00000000000E+00  0.00000000000E+00  0.45593999997E+02  0.45594000000E+02  0.51100000000E-03 0. -1.
         11   -1    0    0    0    0 -0.00000000000E+00 -0.00000000000E+00 -0.45593999997E+02  0.45594000000E+02  0.51100000000E-03 0.  1.
         23    2    1    2    0    0  0.00000000000E+00 -0.35527136788E-14 -0.17763568394E-14  0.91188000000E+02  0.91188000000E+02 0.  0.
    9900012    2    3    3    0    0 -0.24307473569E+02  0.24973835044E+02  0.11884191798E+02  0.54367085796E+02  0.40000003690E+02 0.  0.
        -12    1    3    3    0    0  0.24307473569E+02 -0.24973835044E+02 -0.11884191798E+02  0.36820914204E+02  0.00000000000E+00 0.  1.
         11    1    4    4    0    0  0.10441011850E+01  0.19237667021E+02  0.17048043775E+02  0.25725741515E+02  0.51100000000E-03 0. -1.
        -11    1    4    4    0    0 -0.14051002843E+02  0.25969474989E+01 -0.82685203062E+01  0.16508883836E+02  0.51100000000E-03 0.  1.
         12    1    4    4    0    0 -0.11300571911E+02  0.31392205243E+01  0.31046683292E+01  0.12132460445E+02  0.00000000000E+00 0. -1.
</event>
<event>
 8    1  0.1261983E-006  0.9118800E+02  0.7816164E-02  0.1184000E+00
        -11   -1    0    0    0    0  0.00000000000E+00  0.00000000000E+00  0.45593999997E+02  0.45594000000E+02  0.51100000000E-03 0.  1.
         11   -1    0    0    0    0 -0.00000000000E+00 -0.00000000000E+00 -0.45593999997E+02  0.45594000000E+02  0.51100000000E-03 0. -1.
         23    2    1    2    0    0  0.00000000000E+00  0.00000000000E+00  0.00000000000E+00  0.91188000000E+02  0.91188000000E+02 0.  0.
    9900012    2    3    3    0    0  0.30366571766E+01 -0.34807162876E+02 -0.11619819038E+02  0.54367081099E+02  0.39999992981E+02 0.  0.
        -12    1    3    3    0    0 -0.30366571766E+01  0.34807162876E+02  0.11619819038E+02  0.36820918901E+02  0.00000000000E+00 0.  1.
         11    1    4    4    0    0  0.19613910627E+01  0.48604938903E-01 -0.41153305976E+01  0.45590967887E+01  0.51100000000E-03 0. -1.
        -11    1    4    4    0    0 -0.41229044420E+00 -0.41884393226E+02 -0.78487072514E+01  0.42615426609E+02  0.51100000000E-03 0.  1.
        -12    1    4    4    0    0  0.14875565581E+01  0.70286254115E+01  0.34421881093E+00  0.71925577008E+01  0.00000000000E+00 0.  1.
</event>
<event>
 8    1  0.1261983E-006  0.9118800E+02  0.7816164E-02  0.1184000E+00
        -11   -1    0    0    0    0  0.00000000000E+00  0.00000000000E+00  0.45593999997E+02  0.45594000000E+02  0.51100000000E-03 0. -1.
         11   -1    0    0    0    0 -0.00000000000E+00 -0.00000000000E+00 -0.45593999997E+02  0.45594000000E+02  0.51100000000E-03 0.  1.
         23    2    1    2    0    0 -0.71054273576E-14  0.44408920985E-15  0.17763568394E-14  0.91188000000E+02  0.91188000000E+02 0.  0.
    9900012    2    3    3    0    0  0.35662624942E+02 -0.26607636121E+01 -0.87689124631E+01  0.54366860602E+02  0.39999490311E+02 0.  0.
         12    1    3    3    0    0 -0.35662624942E+02  0.26607636121E+01  0.87689124631E+01  0.36821139398E+02  0.00000000000E+00 0. -1.
         11    1    4    4    0    0  0.60702631053E+01 -0.98285502352E+01  0.33132788416E+01  0.12017749824E+02  0.51100000000E-03 0. -1.
        -11    1    4    4    0    0  0.35365714685E+01 -0.25895851983E+01  0.72480389261E+01  0.84703812066E+01  0.51100000000E-03 0.  1.
        -12    1    4    4    0    0  0.26055790368E+02  0.97573718215E+01 -0.19330230231E+02  0.33878729571E+02  0.00000000000E+00 0.  1.
</event>
<event>
 8    1  0.1261983E-006  0.9118800E+02  0.7816164E-02  0.1184000E+00
        -11   -1    0    0    0    0  0.00000000000E+00  0.00000000000E+00  0.45593999997E+02  0.45594000000E+02  0.51100000000E-03 0.  1.
         11   -1    0    0    0    0 -0.00000000000E+00 -0.00000000000E+00 -0.45593999997E+02  0.45594000000E+02  0.51100000000E-03 0. -1.
         23    2    1    2    0    0  0.35527136788E-14 -0.35527136788E-14  0.88817841970E-15  0.91188000000E+02  0.91188000000E+02 0.  0.
    9900012    2    3    3    0    0  0.20759459358E+02 -0.29662128511E+02  0.67066371193E+01  0.54367136321E+02  0.40000118870E+02 0.  0.
         12    1    3    3    0    0 -0.20759459358E+02  0.29662128511E+02 -0.67066371193E+01  0.36820863679E+02  0.00000000000E+00 0. -1.
         11    1    4    4    0    0  0.10965012212E+02 -0.20942587683E+02 -0.41196625621E+01  0.23995730694E+02  0.51100000000E-03 0. -1.
        -11    1    4    4    0    0 -0.28459666013E+01 -0.11167237587E+02  0.12935713859E+02  0.17324532159E+02  0.51100000000E-03 0.  1.
        -12    1    4    4    0    0  0.12640413746E+02  0.24476967582E+01 -0.21094141776E+01  0.13046873467E+02  0.00000000000E+00 0.  1.
</event>
<event>
 8    1  0.1261983E-006  0.9118800E+02  0.7816164E-02  0.1184000E+00
        -11   -1    0    0    0    0  0.00000000000E+00  0.00000000000E+00  0.45593999997E+02  0.45594000000E+02  0.51100000000E-03 0.  1.
         11   -1    0    0    0    0 -0.00000000000E+00 -0.00000000000E+00 -0.45593999997E+02  0.45594000000E+02  0.51100000000E-03 0. -1.
         23    2    1    2    0    0 -0.17763568394E-14  0.35527136788E-14  0.00000000000E+00  0.91188000000E+02  0.91188000000E+02 0.  0.
    9900012    2    3    3    0    0 -0.57223473263E+01 -0.21809217062E+02 -0.29110018827E+02  0.54367076548E+02  0.39999982606E+02 0.  0.
        -12    1    3    3    0    0  0.57223473263E+01  0.21809217062E+02  0.29110018827E+02  0.36820923452E+02  0.00000000000E+00 0.  1.
         11    1    4    4    0    0 -0.16534741567E+02 -0.26904985551E+02 -0.24301632387E+02  0.39847776138E+02  0.51100000000E-03 0. -1.
        -11    1    4    4    0    0  0.67552064983E+01  0.21476034492E+01 -0.60874353357E+01  0.93435477543E+01  0.51100000000E-03 0.  1.
         12    1    4    4    0    0  0.40571877424E+01  0.29481650393E+01  0.12790488960E+01  0.51757526558E+01  0.00000000000E+00 0. -1.
</event>
<event>
 8    1  0.1261983E-006  0.9118800E+02  0.7816164E-02  0.1184000E+00
        -11   -1    0    0    0    0  0.00000000000E+00  0.00000000000E+00  0.45593999997E+02  0.45594000000E+02  0.51100000000E-03 0. -1.
         11   -1    0    0    0    0 -0.00000000000E+00 -0.00000000000E+00 -0.45593999997E+02  0.45594000000E+02  0.51100000000E-03 0.  1.
         23    2    1    2    0    0  0.00000000000E+00  0.00000000000E+00  0.00000000000E+00  0.91188000000E+02  0.91188000000E+02 0.  0.
    9900012    2    3    3    0    0 -0.18189860281E+02  0.83618474449E+01 -0.30902879439E+02  0.54367089265E+02  0.40000011596E+02 0.  0.
         12    1    3    3    0    0  0.18189860281E+02 -0.83618474449E+01  0.30902879439E+02  0.36820910735E+02  0.00000000000E+00 0. -1.
         11    1    4    4    0    0 -0.25757573180E+01  0.84182979141E+01  0.32330334771E+01  0.93784205097E+01  0.51100000000E-03 0. -1.
        -11    1    4    4    0    0 -0.20506348427E+02  0.61422183033E+01 -0.25080743830E+02  0.32973942482E+02  0.51100000000E-03 0.  1.
        -12    1    4    4    0    0  0.48922454634E+01 -0.61986687725E+01 -0.90551690862E+01  0.12014726273E+02  0.00000000000E+00 0.  1.
</event>
<event>
 8    1  0.1261983E-006  0.9118800E+02  0.7816164E-02  0.1184000E+00
        -11   -1    0    0    0    0  0.00000000000E+00  0.00000000000E+00  0.45593999997E+02  0.45594000000E+02  0.51100000000E-03 0.  1.
         11   -1    0    0    0    0 -0.00000000000E+00 -0.00000000000E+00 -0.45593999997E+02  0.45594000000E+02  0.51100000000E-03 0. -1.
         23    2    1    2    0    0  0.00000000000E+00  0.69388939039E-15  0.00000000000E+00  0.91188000000E+02  0.91188000000E+02 0.  0.
    9900012    2    3    3    0    0 -0.78485367869E+01  0.98277353391E-01 -0.35974587963E+02  0.54367079761E+02  0.39999989932E+02 0.  0.
        -12    1    3    3    0    0  0.78485367869E+01 -0.98277353391E-01  0.35974587963E+02  0.36820920239E+02  0.00000000000E+00 0.  1.
         11    1    4    4    0    0 -0.43437566680E+01 -0.10664806072E+02 -0.15433558526E+02  0.19256194836E+02  0.51100000000E-03 0. -1.
        -11    1    4    4    0    0 -0.21600025207E+01  0.13789472642E+02 -0.25545467635E+02  0.29109896660E+02  0.51100000000E-03 0.  1.
        -12    1    4    4    0    0 -0.13447775982E+01 -0.30263892168E+01  0.50044381975E+01  0.60009882646E+01  0.00000000000E+00 0.  1.
</event>
<event>
 8    1  0.1261983E-006  0.9118800E+02  0.7816164E-02  0.1184000E+00
        -11   -1    0    0    0    0  0.00000000000E+00  0.00000000000E+00  0.45593999997E+02  0.45594000000E+02  0.51100000000E-03 0.  1.
         11   -1    0    0    0    0 -0.00000000000E+00 -0.00000000000E+00 -0.45593999997E+02  0.45594000000E+02  0.51100000000E-03 0. -1.
         23    2    1    2    0    0  0.44408920985E-15 -0.71054273576E-14  0.00000000000E+00  0.91188000000E+02  0.91188000000E+02 0.  0.
    9900012    2    3    3    0    0  0.51757436962E+00  0.31861337550E+02  0.18449049857E+02  0.54367079937E+02  0.39999990331E+02 0.  0.
        -12    1    3    3    0    0 -0.51757436962E+00 -0.31861337550E+02 -0.18449049857E+02  0.36820920063E+02  0.00000000000E+00 0.  1.
         11    1    4    4    0    0  0.36914328336E+01 -0.75122996328E+01  0.37793944631E+01  0.91839612862E+01  0.51100000000E-03 0. -1.
        -11    1    4    4    0    0  0.49000444100E+01  0.40428128395E+01  0.35335534129E+01  0.72691657607E+01  0.51100000000E-03 0.  1.
         12    1    4    4    0    0 -0.80739028739E+01  0.35330824343E+02  0.11136101981E+02  0.37913952890E+02  0.00000000000E+00 0. -1.
</event>
<event>
 8    1  0.1261983E-006  0.9118800E+02  0.7816164E-02  0.1184000E+00
        -11   -1    0    0    0    0  0.00000000000E+00  0.00000000000E+00  0.45593999997E+02  0.45594000000E+02  0.51100000000E-03 0. -1.
         11   -1    0    0    0    0 -0.00000000000E+00 -0.00000000000E+00 -0.45593999997E+02  0.45594000000E+02  0.51100000000E-03 0.  1.
         23    2    1    2    0    0  0.00000000000E+00  0.00000000000E+00  0.00000000000E+00  0.91188000000E+02  0.91188000000E+02 0.  0.
    9900012    2    3    3    0    0 -0.22227258945E+02 -0.21809565940E+02 -0.19648722098E+02  0.54367075422E+02  0.39999980039E+02 0.  0.
         12    1    3    3    0    0  0.22227258945E+02  0.21809565940E+02  0.19648722098E+02  0.36820924578E+02  0.00000000000E+00 0. -1.
         11    1    4    4    0    0  0.31482303335E+01 -0.15357777946E+02 -0.15243212341E+02  0.21866143245E+02  0.51100000000E-03 0. -1.
        -11    1    4    4    0    0 -0.22781868540E+01 -0.40741769412E+01 -0.77447560128E+01  0.90426931303E+01  0.51100000000E-03 0.  1.
         12    1    4    4    0    0 -0.23097302425E+02 -0.23776110520E+01  0.33392462552E+01  0.23458239047E+02  0.00000000000E+00 0. -1.
</event>
<event>
 8    1  0.1261983E-006  0.9118800E+02  0.7816164E-02  0.1184000E+00
        -11   -1    0    0    0    0  0.00000000000E+00  0.00000000000E+00  0.45593999997E+02  0.45594000000E+02  0.51100000000E-03 0. -1.
         11   -1    0    0    0    0 -0.00000000000E+00 -0.00000000000E+00 -0.45593999997E+02  0.45594000000E+02  0.51100000000E-03 0.  1.
         23    2    1    2    0    0  0.00000000000E+00  0.17763568394E-14 -0.35527136788E-14  0.91188000000E+02  0.91188000000E+02 0.  0.
    9900012    2    3    3    0    0  0.27819304069E+02  0.13155883908E+02  0.20218564232E+02  0.54367064381E+02  0.39999954869E+02 0.  0.
         12    1    3    3    0    0 -0.27819304069E+02 -0.13155883908E+02 -0.20218564232E+02  0.36820935619E+02  0.00000000000E+00 0. -1.
         11    1    4    4    0    0  0.17811195024E+02  0.14749940089E+02  0.23297361730E+02  0.32826307509E+02  0.51100000000E-03 0. -1.
        -11    1    4    4    0    0 -0.31443019102E+00  0.22201872401E+01  0.65469342996E+01  0.69202923862E+01  0.51100000000E-03 0.  1.
        -12    1    4    4    0    0  0.10322539235E+02 -0.38142434210E+01 -0.96257317974E+01  0.14620464486E+02  0.00000000000E+00 0.  1.
</event>
<event>
 8    1  0.1261983E-006  0.9118800E+02  0.7816164E-02  0.1184000E+00
        -11   -1    0    0    0    0  0.00000000000E+00  0.00000000000E+00  0.45593999997E+02  0.45594000000E+02  0.51100000000E-03 0.  1.
         11   -1    0    0    0    0 -0.00000000000E+00 -0.00000000000E+00 -0.45593999997E+02  0.45594000000E+02  0.51100000000E-03 0. -1.
         23    2    1    2    0    0  0.00000000000E+00  0.35527136788E-14 -0.71054273576E-14  0.91188000000E+02  0.91188000000E+02 0.  0.
    9900012    2    3    3    0    0  0.17544258330E+02  0.23475366993E+02 -0.22290932944E+02  0.54367088179E+02  0.40000009122E+02 0.  0.
        -12    1    3    3    0    0 -0.17544258330E+02 -0.23475366993E+02  0.22290932944E+02  0.36820911821E+02  0.00000000000E+00 0.  1.
         11    1    4    4    0    0  0.10560828208E+02  0.93553092945E+01 -0.87484742631E+00  0.14135708780E+02  0.51100000000E-03 0. -1.
        -11    1    4    4    0    0  0.12413122534E+02 -0.66320734503E+00  0.13982073703E+01  0.12509214169E+02  0.51100000000E-03 0.  1.
         12    1    4    4    0    0 -0.54296924121E+01  0.14783265043E+02 -0.22814292888E+02  0.27722165230E+02  0.00000000000E+00 0. -1.
</event>
<event>
 8    1  0.1261983E-006  0.9118800E+02  0.7816164E-02  0.1184000E+00
        -11   -1    0    0    0    0  0.00000000000E+00  0.00000000000E+00  0.45593999997E+02  0.45594000000E+02  0.51100000000E-03 0. -1.
         11   -1    0    0    0    0 -0.00000000000E+00 -0.00000000000E+00 -0.45593999997E+02  0.45594000000E+02  0.51100000000E-03 0.  1.
         23    2    1    2    0    0  0.17763568394E-14  0.00000000000E+00 -0.35527136788E-14  0.91188000000E+02  0.91188000000E+02 0.  0.
    9900012    2    3    3    0    0 -0.10364603990E+02 -0.22516211460E+02  0.27228194997E+02  0.54367090218E+02  0.40000013769E+02 0.  0.
        -12    1    3    3    0    0  0.10364603990E+02  0.22516211460E+02 -0.27228194997E+02  0.36820909782E+02  0.00000000000E+00 0.  1.
         11    1    4    4    0    0 -0.23930400024E+01 -0.89351075885E+01  0.73776705695E+01  0.11831855787E+02  0.51100000000E-03 0. -1.
        -11    1    4    4    0    0 -0.20770426385E+02 -0.12425941954E+02  0.16375502170E+02  0.29222794481E+02  0.51100000000E-03 0.  1.
        -12    1    4    4    0    0  0.12798862398E+02 -0.11551619171E+01  0.34750222583E+01  0.13312439950E+02  0.00000000000E+00 0.  1.
</event>
<event>
 8    1  0.1261983E-006  0.9118800E+02  0.7816164E-02  0.1184000E+00
        -11   -1    0    0    0    0  0.00000000000E+00  0.00000000000E+00  0.45593999997E+02  0.45594000000E+02  0.51100000000E-03 0.  1.
         11   -1    0    0    0    0 -0.00000000000E+00 -0.00000000000E+00 -0.45593999997E+02  0.45594000000E+02  0.51100000000E-03 0. -1.
         23    2    1    2    0    0 -0.17763568394E-14 -0.71054273576E-14 -0.88817841970E-15  0.91188000000E+02  0.91188000000E+02 0.  0.
    9900012    2    3    3    0    0 -0.94132210070E+01 -0.35014881346E+02 -0.64131687959E+01  0.54367090459E+02  0.40000014320E+02 0.  0.
        -12    1    3    3    0    0  0.94132210070E+01  0.35014881346E+02  0.64131687959E+01  0.36820909541E+02  0.00000000000E+00 0.  1.
         11    1    4    4    0    0 -0.46866123966E+01 -0.21557197152E+02 -0.14878668732E+02  0.26609244039E+02  0.51100000000E-03 0. -1.
        -11    1    4    4    0    0 -0.75858264270E+01  0.34797787261E+01  0.62748547406E+01  0.10441619838E+02  0.51100000000E-03 0.  1.
        -12    1    4    4    0    0  0.28592178167E+01 -0.16937462920E+02  0.21906451954E+01  0.17316226583E+02  0.00000000000E+00 0.  1.
</event>
<event>
 8    1  0.1261983E-006  0.9118800E+02  0.7816164E-02  0.1184000E+00
        -11   -1    0    0    0    0  0.00000000000E+00  0.00000000000E+00  0.45593999997E+02  0.45594000000E+02  0.51100000000E-03 0.  1.
         11   -1    0    0    0    0 -0.00000000000E+00 -0.00000000000E+00 -0.45593999997E+02  0.45594000000E+02  0.51100000000E-03 0. -1.
         23    2    1    2    0    0 -0.26645352591E-14  0.00000000000E+00  0.00000000000E+00  0.91188000000E+02  0.91188000000E+02 0.  0.
    9900012    2    3    3    0    0  0.69405149295E+01 -0.23860636055E+02 -0.27171288612E+02  0.54367087120E+02  0.40000006708E+02 0.  0.
        -12    1    3    3    0    0 -0.69405149295E+01  0.23860636055E+02  0.27171288612E+02  0.36820912880E+02  0.00000000000E+00 0.  1.
         11    1    4    4    0    0 -0.12194821326E+02 -0.20029033938E+01 -0.10226418562E+02  0.16040727105E+02  0.51100000000E-03 0. -1.
        -11    1    4    4    0    0  0.27032546084E+01 -0.13345756054E+02 -0.59055179672E+00  0.13629583332E+02  0.51100000000E-03 0.  1.
         12    1    4    4    0    0  0.16432081647E+02 -0.85119766073E+01 -0.16354318253E+02  0.24696776683E+02  0.00000000000E+00 0. -1.
</event>
<event>
 8    1  0.1261983E-006  0.9118800E+02  0.7816164E-02  0.1184000E+00
        -11   -1    0    0    0    0  0.00000000000E+00  0.00000000000E+00  0.45593999997E+02  0.45594000000E+02  0.51100000000E-03 0. -1.
         11   -1    0    0    0    0 -0.00000000000E+00 -0.00000000000E+00 -0.45593999997E+02  0.45594000000E+02  0.51100000000E-03 0.  1.
         23    2    1    2    0    0 -0.35527136788E-14  0.00000000000E+00  0.35527136788E-14  0.91188000000E+02  0.91188000000E+02 0.  0.
    9900012    2    3    3    0    0  0.11159274000E+02  0.28868084393E+02 -0.19947041060E+02  0.54367080134E+02  0.39999990782E+02 0.  0.
         12    1    3    3    0    0 -0.11159274000E+02 -0.28868084393E+02  0.19947041060E+02  0.36820919866E+02  0.00000000000E+00 0. -1.
         11    1    4    4    0    0  0.27054309967E+01  0.36710839268E+01  0.34346071406E+01  0.57090052152E+01  0.51100000000E-03 0. -1.
        -11    1    4    4    0    0 -0.24542044829E+01  0.28309395681E+02 -0.24145856256E+02  0.37288971266E+02  0.51100000000E-03 0.  1.
        -12    1    4    4    0    0  0.10908047486E+02 -0.31123952148E+01  0.76420805544E+00  0.11369103653E+02  0.00000000000E+00 0.  1.
</event>
<event>
 8    1  0.1261983E-006  0.9118800E+02  0.7816164E-02  0.1184000E+00
        -11   -1    0    0    0    0  0.00000000000E+00  0.00000000000E+00  0.45593999997E+02  0.45594000000E+02  0.51100000000E-03 0. -1.
         11   -1    0    0    0    0 -0.00000000000E+00 -0.00000000000E+00 -0.45593999997E+02  0.45594000000E+02  0.51100000000E-03 0.  1.
         23    2    1    2    0    0  0.00000000000E+00  0.00000000000E+00  0.35527136788E-14  0.91188000000E+02  0.91188000000E+02 0.  0.
    9900012    2    3    3    0    0  0.10920923851E+02  0.20530713120E+02 -0.28548258926E+02  0.54367084114E+02  0.39999999854E+02 0.  0.
         12    1    3    3    0    0 -0.10920923851E+02 -0.20530713120E+02  0.28548258926E+02  0.36820915886E+02  0.00000000000E+00 0. -1.
         11    1    4    4    0    0 -0.96261246470E+00  0.51125448963E+01 -0.21832634081E+02  0.22443900045E+02  0.51100000000E-03 0. -1.
        -11    1    4    4    0    0  0.47281807862E+00 -0.56507229888E+01 -0.55498172278E+01  0.79343997098E+01  0.51100000000E-03 0.  1.
         12    1    4    4    0    0  0.11410718237E+02  0.21068891212E+02 -0.11658076176E+01  0.23988784359E+02  0.00000000000E+00 0. -1.
</event>
<event>
 8    1  0.1261983E-006  0.9118800E+02  0.7816164E-02  0.1184000E+00
        -11   -1    0    0    0    0  0.00000000000E+00  0.00000000000E+00  0.45593999997E+02  0.45594000000E+02  0.51100000000E-03 0.  1.
         11   -1    0    0    0    0 -0.00000000000E+00 -0.00000000000E+00 -0.45593999997E+02  0.45594000000E+02  0.51100000000E-03 0. -1.
         23    2    1    2    0    0  0.17763568394E-14  0.88817841970E-15 -0.71054273576E-14  0.91188000000E+02  0.91188000000E+02 0.  0.
    9900012    2    3    3    0    0 -0.69999933941E+01  0.78253944984E+01  0.35292265153E+02  0.54367072714E+02  0.39999973867E+02 0.  0.
         12    1    3    3    0    0  0.69999933941E+01 -0.78253944984E+01 -0.35292265153E+02  0.36820927286E+02  0.00000000000E+00 0. -1.
         11    1    4    4    0    0  0.67681581769E+01 -0.97080077779E+01  0.88162354106E+01  0.14757350277E+02  0.51100000000E-03 0. -1.
        -11    1    4    4    0    0  0.20664348490E+01  0.11034512604E+02  0.53961556087E+01  0.12455886842E+02  0.51100000000E-03 0.  1.
        -12    1    4    4    0    0 -0.15834586420E+02  0.64988896720E+01  0.21079874133E+02  0.27153835595E+02  0.00000000000E+00 0.  1.
</event>
<event>
 8    1  0.1261983E-006  0.9118800E+02  0.7816164E-02  0.1184000E+00
        -11   -1    0    0    0    0  0.00000000000E+00  0.00000000000E+00  0.45593999997E+02  0.45594000000E+02  0.51100000000E-03 0.  1.
         11   -1    0    0    0    0 -0.00000000000E+00 -0.00000000000E+00 -0.45593999997E+02  0.45594000000E+02  0.51100000000E-03 0. -1.
         23    2    1    2    0    0  0.17763568394E-14  0.00000000000E+00  0.00000000000E+00  0.91188000000E+02  0.91188000000E+02 0.  0.
    9900012    2    3    3    0    0 -0.13245055667E+02 -0.32907352972E+02 -0.98719061262E+01  0.54367083257E+02  0.39999997902E+02 0.  0.
        -12    1    3    3    0    0  0.13245055667E+02  0.32907352972E+02  0.98719061262E+01  0.36820916743E+02  0.00000000000E+00 0.  1.
         11    1    4    4    0    0  0.93391185110E+00 -0.27263949215E+02 -0.56885881794E+01  0.27866739205E+02  0.51100000000E-03 0. -1.
        -11    1    4    4    0    0 -0.22979730915E+01 -0.53141169615E+01  0.77393929025E+01  0.96653361126E+01  0.51100000000E-03 0.  1.
         12    1    4    4    0    0 -0.11880994426E+02 -0.32928679473E+00 -0.11922710849E+02  0.16835007940E+02  0.00000000000E+00 0. -1.
</event>
<event>
 8    1  0.1261983E-006  0.9118800E+02  0.7816164E-02  0.1184000E+00
        -11   -1    0    0    0    0  0.00000000000E+00  0.00000000000E+00  0.45593999997E+02  0.45594000000E+02  0.51100000000E-03 0. -1.
         11   -1    0    0    0    0 -0.00000000000E+00 -0.00000000000E+00 -0.45593999997E+02  0.45594000000E+02  0.51100000000E-03 0.  1.
         23    2    1    2    0    0  0.00000000000E+00  0.00000000000E+00  0.00000000000E+00  0.91188000000E+02  0.91188000000E+02 0.  0.
    9900012    2    3    3    0    0 -0.21059151351E+02 -0.12487043186E+02  0.27502084774E+02  0.54367098734E+02  0.40000033183E+02 0.  0.
        -12    1    3    3    0    0  0.21059151351E+02  0.12487043186E+02 -0.27502084774E+02  0.36820901266E+02  0.00000000000E+00 0.  1.
         11    1    4    4    0    0 -0.38778239051E+01 -0.59658343383E+01  0.10039704072E+01  0.71858649048E+01  0.51100000000E-03 0. -1.
        -11    1    4    4    0    0 -0.12966023328E+02 -0.33781384260E+01 -0.56968912649E+01  0.14559675495E+02  0.51100000000E-03 0.  1.
         12    1    4    4    0    0 -0.42153041172E+01 -0.31430704221E+01  0.32195005632E+02  0.32621558334E+02  0.00000000000E+00 0. -1.
</event>
<event>
 8    1  0.1261983E-006  0.9118800E+02  0.7816164E-02  0.1184000E+00
        -11   -1    0    0    0    0  0.00000000000E+00  0.00000000000E+00  0.45593999997E+02  0.45594000000E+02  0.51100000000E-03 0.  1.
         11   -1    0    0    0    0 -0.00000000000E+00 -0.00000000000E+00 -0.45593999997E+02  0.45594000000E+02  0.51100000000E-03 0. -1.
         23    2    1    2    0    0  0.00000000000E+00  0.00000000000E+00  0.00000000000E+00  0.91188000000E+02  0.91188000000E+02 0.  0.
    9900012    2    3    3    0    0 -0.50359112762E+01  0.17463401511E+02 -0.32022632649E+02  0.54367084796E+02  0.40000001409E+02 0.  0.
        -12    1    3    3    0    0  0.50359112762E+01 -0.17463401511E+02  0.32022632649E+02  0.36820915204E+02  0.00000000000E+00 0.  1.
         11    1    4    4    0    0 -0.44002737436E+01  0.51429355750E+01 -0.36058285438E+02  0.36688038164E+02  0.51100000000E-03 0. -1.
        -11    1    4    4    0    0 -0.62772138282E+01  0.75866517722E+01  0.22208168048E+01  0.10094192692E+02  0.51100000000E-03 0.  1.
         12    1    4    4    0    0  0.56415762956E+01  0.47338141636E+01  0.18148359844E+01  0.75848539396E+01  0.00000000000E+00 0. -1.
</event>
<event>
 8    1  0.1261983E-006  0.9118800E+02  0.7816164E-02  0.1184000E+00
        -11   -1    0    0    0    0  0.00000000000E+00  0.00000000000E+00  0.45593999997E+02  0.45594000000E+02  0.51100000000E-03 0. -1.
         11   -1    0    0    0    0 -0.00000000000E+00 -0.00000000000E+00 -0.45593999997E+02  0.45594000000E+02  0.51100000000E-03 0.  1.
         23    2    1    2    0    0  0.26645352591E-14 -0.17763568394E-14 -0.71054273576E-14  0.91188000000E+02  0.91188000000E+02 0.  0.
    9900012    2    3    3    0    0 -0.66237020840E+01 -0.10883133391E+02 -0.34546571079E+02  0.54367060372E+02  0.39999945731E+02 0.  0.
         12    1    3    3    0    0  0.66237020840E+01  0.10883133391E+02  0.34546571079E+02  0.36820939628E+02  0.00000000000E+00 0. -1.
         11    1    4    4    0    0 -0.16464307667E+02 -0.10900198532E+02 -0.35141878579E+02  0.40309296513E+02  0.51100000000E-03 0. -1.
        -11    1    4    4    0    0  0.25000154170E+01  0.38944419177E+01 -0.24237800576E+01  0.52241233680E+01  0.51100000000E-03 0.  1.
        -12    1    4    4    0    0  0.73405901666E+01 -0.38773767768E+01  0.30190875573E+01  0.88336404919E+01  0.00000000000E+00 0.  1.
</event>
<event>
 8    1  0.1261983E-006  0.9118800E+02  0.7816164E-02  0.1184000E+00
        -11   -1    0    0    0    0  0.00000000000E+00  0.00000000000E+00  0.45593999997E+02  0.45594000000E+02  0.51100000000E-03 0. -1.
         11   -1    0    0    0    0 -0.00000000000E+00 -0.00000000000E+00 -0.45593999997E+02  0.45594000000E+02  0.51100000000E-03 0.  1.
         23    2    1    2    0    0  0.00000000000E+00 -0.71054273576E-14  0.22204460493E-15  0.91188000000E+02  0.91188000000E+02 0.  0.
    9900012    2    3    3    0    0  0.76102118762E+01 -0.35974706862E+02 -0.19198589255E+01  0.54367072298E+02  0.39999972917E+02 0.  0.
         12    1    3    3    0    0 -0.76102118762E+01  0.35974706862E+02  0.19198589255E+01  0.36820927702E+02  0.00000000000E+00 0. -1.
         11    1    4    4    0    0  0.31941126562E+01 -0.44044711767E+01  0.38083953444E+01  0.66412045118E+01  0.51100000000E-03 0. -1.
        -11    1    4    4    0    0  0.74200015957E+01 -0.36404130342E+02 -0.12203032726E+02  0.39105385021E+02  0.51100000000E-03 0.  1.
         12    1    4    4    0    0 -0.30039023757E+01  0.48338946572E+01  0.64747784565E+01  0.86204827649E+01  0.00000000000E+00 0. -1.
</event>
<event>
 8    1  0.1261983E-006  0.9118800E+02  0.7816164E-02  0.1184000E+00
        -11   -1    0    0    0    0  0.00000000000E+00  0.00000000000E+00  0.45593999997E+02  0.45594000000E+02  0.51100000000E-03 0.  1.
         11   -1    0    0    0    0 -0.00000000000E+00 -0.00000000000E+00 -0.45593999997E+02  0.45594000000E+02  0.51100000000E-03 0. -1.
         23    2    1    2    0    0  0.71054273576E-14  0.00000000000E+00  0.00000000000E+00  0.91188000000E+02  0.91188000000E+02 0.  0.
    9900012    2    3    3    0    0 -0.34418771386E+02 -0.83209128175E+01  0.10094101670E+02  0.54367077926E+02  0.39999985748E+02 0.  0.
         12    1    3    3    0    0  0.34418771386E+02  0.83209128175E+01 -0.10094101670E+02  0.36820922074E+02  0.00000000000E+00 0. -1.
         11    1    4    4    0    0  0.30658319651E+00 -0.64061911887E+01  0.92743427858E+01  0.11275935135E+02  0.51100000000E-03 0. -1.
        -11    1    4    4    0    0 -0.17859838522E+01  0.66149922765E+01  0.54456166838E+01  0.87522912695E+01  0.51100000000E-03 0.  1.
         12    1    4    4    0    0 -0.32939370730E+02 -0.85297139053E+01 -0.46258577991E+01  0.34338851521E+02  0.00000000000E+00 0. -1.
</event>
<event>
 8    1  0.1261983E-006  0.9118800E+02  0.7816164E-02  0.1184000E+00
        -11   -1    0    0    0    0  0.00000000000E+00  0.00000000000E+00  0.45593999997E+02  0.45594000000E+02  0.51100000000E-03 0. -1.
         11   -1    0    0    0    0 -0.00000000000E+00 -0.00000000000E+00 -0.45593999997E+02  0.45594000000E+02  0.51100000000E-03 0.  1.
         23    2    1    2    0    0  0.00000000000E+00 -0.71054273576E-14  0.35527136788E-14  0.91188000000E+02  0.91188000000E+02 0.  0.
    9900012    2    3    3    0    0  0.17412061289E+02 -0.22760044853E+02  0.23120980454E+02  0.54367092119E+02  0.40000018105E+02 0.  0.
        -12    1    3    3    0    0 -0.17412061289E+02  0.22760044853E+02 -0.23120980454E+02  0.36820907881E+02  0.00000000000E+00 0.  1.
         11    1    4    4    0    0 -0.39270197857E+01 -0.61957294449E+01  0.38861431434E+01  0.83012442768E+01  0.51100000000E-03 0. -1.
        -11    1    4    4    0    0  0.13424490609E+02 -0.60873971722E+00 -0.63732386379E+01  0.14872985011E+02  0.51100000000E-03 0.  1.
         12    1    4    4    0    0  0.79145904655E+01 -0.15955575690E+02  0.25608075948E+02  0.31192862831E+02  0.00000000000E+00 0. -1.
</event>
<event>
 8    1  0.1261983E-006  0.9118800E+02  0.7816164E-02  0.1184000E+00
        -11   -1    0    0    0    0  0.00000000000E+00  0.00000000000E+00  0.45593999997E+02  0.45594000000E+02  0.51100000000E-03 0.  1.
         11   -1    0    0    0    0 -0.00000000000E+00 -0.00000000000E+00 -0.45593999997E+02  0.45594000000E+02  0.51100000000E-03 0. -1.
         23    2    1    2    0    0  0.44408920985E-15 -0.35527136788E-14  0.00000000000E+00  0.91188000000E+02  0.91188000000E+02 0.  0.
    9900012    2    3    3    0    0 -0.35907621058E+01 -0.29472403855E+02  0.21777599830E+02  0.54367081817E+02  0.39999994617E+02 0.  0.
         12    1    3    3    0    0  0.35907621058E+01  0.29472403855E+02 -0.21777599830E+02  0.36820918183E+02  0.00000000000E+00 0. -1.
         11    1    4    4    0    0  0.49106184050E+01  0.48601307582E+01  0.13573916973E+02  0.15231095376E+02  0.51100000000E-03 0. -1.
        -11    1    4    4    0    0 -0.63995863560E+01 -0.44901719462E+01 -0.88983115636E+00  0.78681731922E+01  0.51100000000E-03 0.  1.
        -12    1    4    4    0    0 -0.21017941548E+01 -0.29842362667E+02  0.90935140139E+01  0.31267813248E+02  0.00000000000E+00 0.  1.
</event>
<event>
 8    1  0.1261983E-006  0.9118800E+02  0.7816164E-02  0.1184000E+00
        -11   -1    0    0    0    0  0.00000000000E+00  0.00000000000E+00  0.45593999997E+02  0.45594000000E+02  0.51100000000E-03 0. -1.
         11   -1    0    0    0    0 -0.00000000000E+00 -0.00000000000E+00 -0.45593999997E+02  0.45594000000E+02  0.51100000000E-03 0.  1.
         23    2    1    2    0    0  0.00000000000E+00  0.35527136788E-14  0.35527136788E-14  0.91188000000E+02  0.91188000000E+02 0.  0.
    9900012    2    3    3    0    0  0.16988141305E+02 -0.11864394388E+02  0.30436984303E+02  0.54367206789E+02  0.40000279516E+02 0.  0.
        -12    1    3    3    0    0 -0.16988141305E+02  0.11864394388E+02 -0.30436984303E+02  0.36820793211E+02  0.00000000000E+00 0.  1.
         11    1    4    4    0    0  0.12206212986E+02  0.47993191993E+01  0.61917424179E+00  0.13130440862E+02  0.51100000000E-03 0. -1.
        -11    1    4    4    0    0  0.18850370578E+01  0.54965259868E+01  0.88801831591E+01  0.10612389732E+02  0.51100000000E-03 0.  1.
         12    1    4    4    0    0  0.28968912617E+01 -0.22160239575E+02  0.20937626903E+02  0.30624376194E+02  0.00000000000E+00 0. -1.
</event>
<event>
 8    1  0.1261983E-006  0.9118800E+02  0.7816164E-02  0.1184000E+00
        -11   -1    0    0    0    0  0.00000000000E+00  0.00000000000E+00  0.45593999997E+02  0.45594000000E+02  0.51100000000E-03 0. -1.
         11   -1    0    0    0    0 -0.00000000000E+00 -0.00000000000E+00 -0.45593999997E+02  0.45594000000E+02  0.51100000000E-03 0.  1.
         23    2    1    2    0    0  0.00000000000E+00  0.00000000000E+00  0.51347814889E-15  0.91188000000E+02  0.91188000000E+02 0.  0.
    9900012    2    3    3    0    0  0.33662201825E+02 -0.14920571825E+02  0.11466700223E+00  0.54367076006E+02  0.39999981370E+02 0.  0.
         12    1    3    3    0    0 -0.33662201825E+02  0.14920571825E+02 -0.11466700223E+00  0.36820923994E+02  0.00000000000E+00 0. -1.
         11    1    4    4    0    0  0.96963898201E+01 -0.24843205650E+01  0.14837090051E+02  0.17897794994E+02  0.51100000000E-03 0.  1.
        -11    1    4    4    0    0 -0.12140508996E+01 -0.59366829471E+01  0.90953565564E+00  0.61274284468E+01  0.51100000000E-03 0. -1.
         12    1    4    4    0    0  0.25179862904E+02 -0.64995683128E+01 -0.15631958704E+02  0.30341852565E+02  0.00000000000E+00 0. -1.
</event>
<event>
 8    1  0.1261983E-006  0.9118800E+02  0.7816164E-02  0.1184000E+00
        -11   -1    0    0    0    0  0.00000000000E+00  0.00000000000E+00  0.45593999997E+02  0.45594000000E+02  0.51100000000E-03 0.  1.
         11   -1    0    0    0    0 -0.00000000000E+00 -0.00000000000E+00 -0.45593999997E+02  0.45594000000E+02  0.51100000000E-03 0. -1.
         23    2    1    2    0    0  0.17763568394E-14  0.71054273576E-14  0.88817841970E-15  0.91188000000E+02  0.91188000000E+02 0.  0.
    9900012    2    3    3    0    0  0.15011705883E+02  0.33301728812E+02  0.46285337812E+01  0.54367085015E+02  0.40000001908E+02 0.  0.
         12    1    3    3    0    0 -0.15011705883E+02 -0.33301728812E+02 -0.46285337812E+01  0.36820914985E+02  0.00000000000E+00 0. -1.
         11    1    4    4    0    0  0.60557273419E+01 -0.35158609401E+01  0.13144603108E+01  0.71246696737E+01  0.51100000000E-03 0. -1.
        -11    1    4    4    0    0  0.25880425360E+01  0.12339707460E+01 -0.86913539622E+01  0.91520643533E+01  0.51100000000E-03 0.  1.
        -12    1    4    4    0    0  0.63679360053E+01  0.35583619006E+02  0.12005427433E+02  0.38090350988E+02  0.00000000000E+00 0.  1.
</event>
<event>
 8    1  0.1261983E-006  0.9118800E+02  0.7816164E-02  0.1184000E+00
        -11   -1    0    0    0    0  0.00000000000E+00  0.00000000000E+00  0.45593999997E+02  0.45594000000E+02  0.51100000000E-03 0. -1.
         11   -1    0    0    0    0 -0.00000000000E+00 -0.00000000000E+00 -0.45593999997E+02  0.45594000000E+02  0.51100000000E-03 0.  1.
         23    2    1    2    0    0 -0.44408920985E-15 -0.12767564783E-14  0.00000000000E+00  0.91188000000E+02  0.91188000000E+02 0.  0.
    9900012    2    3    3    0    0  0.21876802874E+01  0.31601232515E+00 -0.36754504313E+02  0.54367090232E+02  0.40000013802E+02 0.  0.
         12    1    3    3    0    0 -0.21876802874E+01 -0.31601232515E+00  0.36754504313E+02  0.36820909768E+02  0.00000000000E+00 0. -1.
         11    1    4    4    0    0  0.44555311217E+00  0.27407874181E+00  0.16606508141E+01  0.17410910717E+01  0.51100000000E-03 0. -1.
        -11    1    4    4    0    0  0.64094047306E+01  0.15697365753E+02 -0.29473692569E+02  0.34002739808E+02  0.51100000000E-03 0.  1.
         12    1    4    4    0    0 -0.46672775554E+01 -0.15655432170E+02 -0.89414625588E+01  0.18623259352E+02  0.00000000000E+00 0. -1.
</event>
<event>
 8    1  0.1261983E-006  0.9118800E+02  0.7816164E-02  0.1184000E+00
        -11   -1    0    0    0    0  0.00000000000E+00  0.00000000000E+00  0.45593999997E+02  0.45594000000E+02  0.51100000000E-03 0. -1.
         11   -1    0    0    0    0 -0.00000000000E+00 -0.00000000000E+00 -0.45593999997E+02  0.45594000000E+02  0.51100000000E-03 0.  1.
         23    2    1    2    0    0  0.00000000000E+00  0.00000000000E+00  0.00000000000E+00  0.91188000000E+02  0.91188000000E+02 0.  0.
    9900012    2    3    3    0    0  0.25486924484E+02  0.20458045277E+02 -0.16960681958E+02  0.54367086531E+02  0.40000005365E+02 0.  0.
         12    1    3    3    0    0 -0.25486924484E+02 -0.20458045277E+02  0.16960681958E+02  0.36820913469E+02  0.00000000000E+00 0. -1.
         11    1    4    4    0    0  0.16024396979E+01  0.51786235535E+01  0.84412386336E+01  0.10031972130E+02  0.51100000000E-03 0. -1.
        -11    1    4    4    0    0 -0.75829742205E-01  0.11996931795E+02 -0.65308861937E+01  0.13659597263E+02  0.51100000000E-03 0.  1.
         12    1    4    4    0    0  0.23960314528E+02  0.32824899277E+01 -0.18871034398E+02  0.30675517138E+02  0.00000000000E+00 0. -1.
</event>
<event>
 8    1  0.1261983E-006  0.9118800E+02  0.7816164E-02  0.1184000E+00
        -11   -1    0    0    0    0  0.00000000000E+00  0.00000000000E+00  0.45593999997E+02  0.45594000000E+02  0.51100000000E-03 0. -1.
         11   -1    0    0    0    0 -0.00000000000E+00 -0.00000000000E+00 -0.45593999997E+02  0.45594000000E+02  0.51100000000E-03 0.  1.
         23    2    1    2    0    0  0.00000000000E+00  0.35527136788E-14  0.17763568394E-14  0.91188000000E+02  0.91188000000E+02 0.  0.
    9900012    2    3    3    0    0 -0.22676742961E+02  0.28053378739E+02  0.73860272231E+01  0.54367080292E+02  0.39999991142E+02 0.  0.
        -12    1    3    3    0    0  0.22676742961E+02 -0.28053378739E+02 -0.73860272231E+01  0.36820919708E+02  0.00000000000E+00 0.  1.
         11    1    4    4    0    0 -0.31124416998E+02  0.26901879135E+02  0.85621419573E+01  0.42020836612E+02  0.51100000000E-03 0. -1.
        -11    1    4    4    0    0 -0.79089061454E+00 -0.22075025273E+01 -0.90127327561E+00  0.25121443332E+01  0.51100000000E-03 0.  1.
         12    1    4    4    0    0  0.92385646512E+01  0.33590021316E+01 -0.27484145861E+00  0.98340993468E+01  0.00000000000E+00 0. -1.
</event>
<event>
 8    1  0.1261983E-006  0.9118800E+02  0.7816164E-02  0.1184000E+00
        -11   -1    0    0    0    0  0.00000000000E+00  0.00000000000E+00  0.45593999997E+02  0.45594000000E+02  0.51100000000E-03 0.  1.
         11   -1    0    0    0    0 -0.00000000000E+00 -0.00000000000E+00 -0.45593999997E+02  0.45594000000E+02  0.51100000000E-03 0. -1.
         23    2    1    2    0    0  0.35527136788E-14  0.35527136788E-14  0.00000000000E+00  0.91188000000E+02  0.91188000000E+02 0.  0.
    9900012    2    3    3    0    0 -0.27335492702E+02 -0.22278535066E+02  0.10593273943E+02  0.54367085579E+02  0.40000003196E+02 0.  0.
         12    1    3    3    0    0  0.27335492702E+02  0.22278535066E+02 -0.10593273943E+02  0.36820914421E+02  0.00000000000E+00 0. -1.
         11    1    4    4    0    0  0.10477177612E+01 -0.30011130150E+01  0.33288169300E+01  0.46027615896E+01  0.51100000000E-03 0. -1.
        -11    1    4    4    0    0 -0.28999745440E+02 -0.19373998421E+02  0.17837509576E+02  0.39172870696E+02  0.51100000000E-03 0.  1.
         12    1    4    4    0    0  0.61653497768E+00  0.96576369634E-01 -0.10573052563E+02  0.10591453294E+02  0.00000000000E+00 0. -1.
</event>
<event>
 8    1  0.1261983E-006  0.9118800E+02  0.7816164E-02  0.1184000E+00
        -11   -1    0    0    0    0  0.00000000000E+00  0.00000000000E+00  0.45593999997E+02  0.45594000000E+02  0.51100000000E-03 0. -1.
         11   -1    0    0    0    0 -0.00000000000E+00 -0.00000000000E+00 -0.45593999997E+02  0.45594000000E+02  0.51100000000E-03 0.  1.
         23    2    1    2    0    0  0.00000000000E+00  0.00000000000E+00  0.44408920985E-15  0.91188000000E+02  0.91188000000E+02 0.  0.
    9900012    2    3    3    0    0  0.26634689973E+02 -0.25417420667E+02 -0.57087979878E+00  0.54367110724E+02  0.40000060518E+02 0.  0.
         12    1    3    3    0    0 -0.26634689973E+02  0.25417420667E+02  0.57087979878E+00  0.36820889276E+02  0.00000000000E+00 0. -1.
         11    1    4    4    0    0  0.64911707561E+01  0.57928817479E+01 -0.28423657881E+01  0.91526946996E+01  0.51100000000E-03 0. -1.
        -11    1    4    4    0    0  0.20851793180E+02 -0.15289471243E+02 -0.69864901637E+01  0.26783880502E+02  0.51100000000E-03 0.  1.
         12    1    4    4    0    0 -0.70827396260E+00 -0.15920831171E+02  0.92579761530E+01  0.18430535522E+02  0.00000000000E+00 0. -1.
</event>
<event>
 8    1  0.1261983E-006  0.9118800E+02  0.7816164E-02  0.1184000E+00
        -11   -1    0    0    0    0  0.00000000000E+00  0.00000000000E+00  0.45593999997E+02  0.45594000000E+02  0.51100000000E-03 0. -1.
         11   -1    0    0    0    0 -0.00000000000E+00 -0.00000000000E+00 -0.45593999997E+02  0.45594000000E+02  0.51100000000E-03 0.  1.
         23    2    1    2    0    0 -0.17763568394E-14  0.00000000000E+00  0.00000000000E+00  0.91188000000E+02  0.91188000000E+02 0.  0.
    9900012    2    3    3    0    0 -0.13127562102E+02  0.45204223309E+01  0.34102974368E+02  0.54367082500E+02  0.39999996174E+02 0.  0.
        -12    1    3    3    0    0  0.13127562102E+02 -0.45204223309E+01 -0.34102974368E+02  0.36820917500E+02  0.00000000000E+00 0.  1.
         11    1    4    4    0    0 -0.32630991142E+01  0.13018676872E+01  0.26939821730E+02  0.27167934600E+02  0.51100000000E-03 0. -1.
        -11    1    4    4    0    0 -0.14524978994E+02  0.97644964371E+01  0.19261188064E+01  0.17607678421E+02  0.51100000000E-03 0.  1.
        -12    1    4    4    0    0  0.46605160062E+01 -0.65459417934E+01  0.52370338319E+01  0.95914694788E+01  0.00000000000E+00 0.  1.
</event>
<event>
 8    1  0.1261983E-006  0.9118800E+02  0.7816164E-02  0.1184000E+00
        -11   -1    0    0    0    0  0.00000000000E+00  0.00000000000E+00  0.45593999997E+02  0.45594000000E+02  0.51100000000E-03 0.  1.
         11   -1    0    0    0    0 -0.00000000000E+00 -0.00000000000E+00 -0.45593999997E+02  0.45594000000E+02  0.51100000000E-03 0. -1.
         23    2    1    2    0    0 -0.35527136788E-14  0.00000000000E+00  0.00000000000E+00  0.91188000000E+02  0.91188000000E+02 0.  0.
    9900012    2    3    3    0    0  0.25080660044E+02 -0.11129362054E+02  0.24553586249E+02  0.54367071092E+02  0.39999970169E+02 0.  0.
         12    1    3    3    0    0 -0.25080660044E+02  0.11129362054E+02 -0.24553586249E+02  0.36820928908E+02  0.00000000000E+00 0. -1.
         11    1    4    4    0    0  0.18200266303E+02 -0.37486674112E+01  0.43083441157E+01  0.19075220317E+02  0.51100000000E-03 0. -1.
        -11    1    4    4    0    0 -0.60930472509E+01 -0.13164062682E+02  0.12287125408E+02  0.19010292532E+02  0.51100000000E-03 0.  1.
        -12    1    4    4    0    0  0.12973440991E+02  0.57833680391E+01  0.79581167247E+01  0.16281558244E+02  0.00000000000E+00 0.  1.
</event>
<event>
 8    1  0.1261983E-006  0.9118800E+02  0.7816164E-02  0.1184000E+00
        -11   -1    0    0    0    0  0.00000000000E+00  0.00000000000E+00  0.45593999997E+02  0.45594000000E+02  0.51100000000E-03 0.  1.
         11   -1    0    0    0    0 -0.00000000000E+00 -0.00000000000E+00 -0.45593999997E+02  0.45594000000E+02  0.51100000000E-03 0. -1.
         23    2    1    2    0    0 -0.11102230246E-15  0.00000000000E+00  0.00000000000E+00  0.91188000000E+02  0.91188000000E+02 0.  0.
    9900012    2    3    3    0    0 -0.37353937285E+00 -0.32606070167E+02  0.17102157011E+02  0.54367094011E+02  0.40000022417E+02 0.  0.
        -12    1    3    3    0    0  0.37353937285E+00  0.32606070167E+02 -0.17102157011E+02  0.36820905989E+02  0.00000000000E+00 0.  1.
         11    1    4    4    0    0 -0.79267071418E+01 -0.17104075633E+02  0.24805502951E+02  0.31155979623E+02  0.51100000000E-03 0. -1.
        -11    1    4    4    0    0  0.10130597409E+02 -0.55463583706E+01 -0.49461132916E+01  0.12564041229E+02  0.51100000000E-03 0.  1.
        -12    1    4    4    0    0 -0.25774296403E+01 -0.99556361641E+01 -0.27572326484E+01  0.10647073159E+02  0.00000000000E+00 0.  1.
</event>
<event>
 8    1  0.1261983E-006  0.9118800E+02  0.7816164E-02  0.1184000E+00
        -11   -1    0    0    0    0  0.00000000000E+00  0.00000000000E+00  0.45593999997E+02  0.45594000000E+02  0.51100000000E-03 0.  1.
         11   -1    0    0    0    0 -0.00000000000E+00 -0.00000000000E+00 -0.45593999997E+02  0.45594000000E+02  0.51100000000E-03 0. -1.
         23    2    1    2    0    0  0.00000000000E+00  0.00000000000E+00 -0.35527136788E-14  0.91188000000E+02  0.91188000000E+02 0.  0.
    9900012    2    3    3    0    0  0.23865726033E+02 -0.21973306486E+02  0.17417830800E+02  0.54367083298E+02  0.39999997994E+02 0.  0.
         12    1    3    3    0    0 -0.23865726033E+02  0.21973306486E+02 -0.17417830800E+02  0.36820916702E+02  0.00000000000E+00 0. -1.
         11    1    4    4    0    0  0.13519154712E+02  0.38193161027E+01  0.38447538742E+01  0.14564918545E+02  0.51100000000E-03 0. -1.
        -11    1    4    4    0    0  0.21752030191E+01 -0.16545018545E+02 -0.50737068810E+01  0.17441664158E+02  0.51100000000E-03 0.  1.
        -12    1    4    4    0    0  0.81713683018E+01 -0.92476040439E+01  0.18646783807E+02  0.22360500594E+02  0.00000000000E+00 0.  1.
</event>
<event>
 8    1  0.1261983E-006  0.9118800E+02  0.7816164E-02  0.1184000E+00
        -11   -1    0    0    0    0  0.00000000000E+00  0.00000000000E+00  0.45593999997E+02  0.45594000000E+02  0.51100000000E-03 0. -1.
         11   -1    0    0    0    0 -0.00000000000E+00 -0.00000000000E+00 -0.45593999997E+02  0.45594000000E+02  0.51100000000E-03 0.  1.
         23    2    1    2    0    0 -0.35527136788E-14 -0.35527136788E-14 -0.88817841970E-15  0.91188000000E+02  0.91188000000E+02 0.  0.
    9900012    2    3    3    0    0  0.29274912303E+02  0.21846217123E+02 -0.46370539932E+01  0.54367082540E+02  0.39999996265E+02 0.  0.
         12    1    3    3    0    0 -0.29274912303E+02 -0.21846217123E+02  0.46370539932E+01  0.36820917460E+02  0.00000000000E+00 0. -1.
         11    1    4    4    0    0 -0.25478638600E+01  0.52936868348E+00  0.82998587967E+01  0.86982468209E+01  0.51100000000E-03 0. -1.
        -11    1    4    4    0    0  0.34464627379E+02  0.16656598832E+02 -0.12608861492E+02  0.40301814021E+02  0.51100000000E-03 0.  1.
        -12    1    4    4    0    0 -0.26418512163E+01  0.46602496067E+01 -0.32805129832E+00  0.53670216974E+01  0.00000000000E+00 0.  1.
</event>
<event>
 8    1  0.1261983E-006  0.9118800E+02  0.7816164E-02  0.1184000E+00
        -11   -1    0    0    0    0  0.00000000000E+00  0.00000000000E+00  0.45593999997E+02  0.45594000000E+02  0.51100000000E-03 0. -1.
         11   -1    0    0    0    0 -0.00000000000E+00 -0.00000000000E+00 -0.45593999997E+02  0.45594000000E+02  0.51100000000E-03 0.  1.
         23    2    1    2    0    0  0.71054273576E-14 -0.17763568394E-14 -0.44408920985E-15  0.91188000000E+02  0.91188000000E+02 0.  0.
    9900012    2    3    3    0    0 -0.36294083068E+02  0.60969845638E+01 -0.11651878256E+01  0.54366927919E+02  0.39999643775E+02 0.  0.
         12    1    3    3    0    0  0.36294083068E+02 -0.60969845638E+01  0.11651878256E+01  0.36821072081E+02  0.00000000000E+00 0. -1.
         11    1    4    4    0    0 -0.31356679466E+00 -0.60141969845E+01  0.92349337256E+00  0.60927604395E+01  0.51100000000E-03 0. -1.
        -11    1    4    4    0    0 -0.22679476253E+02 -0.76278227765E+01  0.24156734074E+01  0.24049486516E+02  0.51100000000E-03 0.  1.
        -12    1    4    4    0    0 -0.13301040021E+02  0.19739004325E+02 -0.45043546056E+01  0.24224680964E+02  0.00000000000E+00 0.  1.
</event>
<event>
 8    1  0.1261983E-006  0.9118800E+02  0.7816164E-02  0.1184000E+00
        -11   -1    0    0    0    0  0.00000000000E+00  0.00000000000E+00  0.45593999997E+02  0.45594000000E+02  0.51100000000E-03 0. -1.
         11   -1    0    0    0    0 -0.00000000000E+00 -0.00000000000E+00 -0.45593999997E+02  0.45594000000E+02  0.51100000000E-03 0.  1.
         23    2    1    2    0    0  0.00000000000E+00 -0.17763568394E-14  0.99920072216E-15  0.91188000000E+02  0.91188000000E+02 0.  0.
    9900012    2    3    3    0    0 -0.35274832729E+02 -0.10552757385E+02 -0.32329296057E+00  0.54367095193E+02  0.40000025111E+02 0.  0.
         12    1    3    3    0    0  0.35274832729E+02  0.10552757385E+02  0.32329296057E+00  0.36820904807E+02  0.00000000000E+00 0. -1.
         11    1    4    4    0    0 -0.10219960093E+02 -0.89165452393E+00 -0.25824889845E+01  0.10578841227E+02  0.51100000000E-03 0. -1.
        -11    1    4    4    0    0 -0.16857424446E+02 -0.95141499324E+00 -0.15137594884E+02  0.22676523732E+02  0.51100000000E-03 0.  1.
         12    1    4    4    0    0 -0.81974481904E+01 -0.87096878676E+01  0.17396790908E+02  0.21111730234E+02  0.00000000000E+00 0. -1.
</event>
<event>
 8    1  0.1261983E-006  0.9118800E+02  0.7816164E-02  0.1184000E+00
        -11   -1    0    0    0    0  0.00000000000E+00  0.00000000000E+00  0.45593999997E+02  0.45594000000E+02  0.51100000000E-03 0. -1.
         11   -1    0    0    0    0 -0.00000000000E+00 -0.00000000000E+00 -0.45593999997E+02  0.45594000000E+02  0.51100000000E-03 0.  1.
         23    2    1    2    0    0  0.00000000000E+00 -0.35527136788E-14 -0.22204460493E-15  0.91188000000E+02  0.91188000000E+02 0.  0.
    9900012    2    3    3    0    0 -0.18736529425E+02 -0.31641919210E+02 -0.18739984313E+01  0.54367075836E+02  0.39999980983E+02 0.  0.
        -12    1    3    3    0    0  0.18736529425E+02  0.31641919210E+02  0.18739984313E+01  0.36820924164E+02  0.00000000000E+00 0.  1.
         11    1    4    4    0    0 -0.48989443155E+01 -0.17390031026E+02  0.10730231363E+02  0.21013107811E+02  0.51100000000E-03 0. -1.
        -11    1    4    4    0    0 -0.80617704230E+01 -0.19182387192E+02 -0.28649121393E+01  0.21003900651E+02  0.51100000000E-03 0.  1.
        -12    1    4    4    0    0 -0.57758146860E+01  0.49304990081E+01 -0.97393176548E+01  0.12350067374E+02  0.00000000000E+00 0.  1.
</event>
<event>
 8    1  0.1261983E-006  0.9118800E+02  0.7816164E-02  0.1184000E+00
        -11   -1    0    0    0    0  0.00000000000E+00  0.00000000000E+00  0.45593999997E+02  0.45594000000E+02  0.51100000000E-03 0.  1.
         11   -1    0    0    0    0 -0.00000000000E+00 -0.00000000000E+00 -0.45593999997E+02  0.45594000000E+02  0.51100000000E-03 0. -1.
         23    2    1    2    0    0  0.35527136788E-14 -0.35527136788E-14  0.35527136788E-14  0.91188000000E+02  0.91188000000E+02 0.  0.
    9900012    2    3    3    0    0 -0.22135705848E+02  0.19014157525E+02 -0.22455495959E+02  0.54367123333E+02  0.40000089263E+02 0.  0.
        -12    1    3    3    0    0  0.22135705848E+02 -0.19014157525E+02  0.22455495959E+02  0.36820876667E+02  0.00000000000E+00 0.  1.
         11    1    4    4    0    0 -0.43442068827E+01  0.88856892142E+01 -0.10065723568E+02  0.14111923946E+02  0.51100000000E-03 0. -1.
        -11    1    4    4    0    0 -0.21774095374E+02  0.71730217450E+01 -0.20496528532E+02  0.30751766656E+02  0.51100000000E-03 0.  1.
         12    1    4    4    0    0  0.39825964095E+01  0.29554465653E+01  0.81067561408E+01  0.95034327318E+01  0.00000000000E+00 0. -1.
</event>
<event>
 8    1  0.1261983E-006  0.9118800E+02  0.7816164E-02  0.1184000E+00
        -11   -1    0    0    0    0  0.00000000000E+00  0.00000000000E+00  0.45593999997E+02  0.45594000000E+02  0.51100000000E-03 0. -1.
         11   -1    0    0    0    0 -0.00000000000E+00 -0.00000000000E+00 -0.45593999997E+02  0.45594000000E+02  0.51100000000E-03 0.  1.
         23    2    1    2    0    0  0.35527136788E-14  0.44408920985E-15  0.35527136788E-14  0.91188000000E+02  0.91188000000E+02 0.  0.
    9900012    2    3    3    0    0 -0.31669094869E+02  0.24398507749E+01 -0.18625145092E+02  0.54367075632E+02  0.39999980518E+02 0.  0.
         12    1    3    3    0    0  0.31669094869E+02 -0.24398507749E+01  0.18625145092E+02  0.36820924368E+02  0.00000000000E+00 0. -1.
         11    1    4    4    0    0 -0.10337884156E+02 -0.22961676875E+01 -0.86848574563E+00  0.10625370705E+02  0.51100000000E-03 0. -1.
        -11    1    4    4    0    0  0.65951121615E+01 -0.52050809015E+01  0.12999778490E+01  0.85016653829E+01  0.51100000000E-03 0.  1.
         12    1    4    4    0    0 -0.27926322874E+02  0.99410993639E+01 -0.19056637196E+02  0.35240039544E+02  0.00000000000E+00 0. -1.
</event>
<event>
 8    1  0.1261983E-006  0.9118800E+02  0.7816164E-02  0.1184000E+00
        -11   -1    0    0    0    0  0.00000000000E+00  0.00000000000E+00  0.45593999997E+02  0.45594000000E+02  0.51100000000E-03 0.  1.
         11   -1    0    0    0    0 -0.00000000000E+00 -0.00000000000E+00 -0.45593999997E+02  0.45594000000E+02  0.51100000000E-03 0. -1.
         23    2    1    2    0    0  0.00000000000E+00 -0.17763568394E-14  0.00000000000E+00  0.91188000000E+02  0.91188000000E+02 0.  0.
    9900012    2    3    3    0    0  0.77505016039E+01 -0.15752164213E+02  0.32366259689E+02  0.54367140168E+02  0.40000127641E+02 0.  0.
        -12    1    3    3    0    0 -0.77505016039E+01  0.15752164213E+02 -0.32366259689E+02  0.36820859832E+02  0.00000000000E+00 0.  1.
         11    1    4    4    0    0  0.25378364129E+01 -0.12770493187E+02 -0.21252271106E+01  0.13192524415E+02  0.51100000000E-03 0. -1.
        -11    1    4    4    0    0  0.86131964675E+01 -0.10883217284E+02  0.20826205052E+02  0.25027232947E+02  0.51100000000E-03 0.  1.
         12    1    4    4    0    0 -0.34005312764E+01  0.79015462590E+01  0.13665281748E+02  0.16147382806E+02  0.00000000000E+00 0. -1.
</event>
<event>
 8    1  0.1261983E-006  0.9118800E+02  0.7816164E-02  0.1184000E+00
        -11   -1    0    0    0    0  0.00000000000E+00  0.00000000000E+00  0.45593999997E+02  0.45594000000E+02  0.51100000000E-03 0.  1.
         11   -1    0    0    0    0 -0.00000000000E+00 -0.00000000000E+00 -0.45593999997E+02  0.45594000000E+02  0.51100000000E-03 0. -1.
         23    2    1    2    0    0  0.00000000000E+00  0.00000000000E+00  0.17763568394E-14  0.91188000000E+02  0.91188000000E+02 0.  0.
    9900012    2    3    3    0    0  0.60425405542E+01  0.33085582052E+02  0.14987049493E+02  0.54367086261E+02  0.40000004750E+02 0.  0.
         12    1    3    3    0    0 -0.60425405542E+01 -0.33085582052E+02 -0.14987049493E+02  0.36820913739E+02  0.00000000000E+00 0. -1.
         11    1    4    4    0    0 -0.65358498687E+01  0.11592300781E+02  0.19151171934E+02  0.23320938180E+02  0.51100000000E-03 0. -1.
        -11    1    4    4    0    0  0.72255974698E+01  0.86456151687E+01 -0.10817319519E+02  0.15619549362E+02  0.51100000000E-03 0.  1.
        -12    1    4    4    0    0  0.53527929531E+01  0.12847666102E+02  0.66531970781E+01  0.15426598719E+02  0.00000000000E+00 0.  1.
</event>
<event>
 8    1  0.1261983E-006  0.9118800E+02  0.7816164E-02  0.1184000E+00
        -11   -1    0    0    0    0  0.00000000000E+00  0.00000000000E+00  0.45593999997E+02  0.45594000000E+02  0.51100000000E-03 0.  1.
         11   -1    0    0    0    0 -0.00000000000E+00 -0.00000000000E+00 -0.45593999997E+02  0.45594000000E+02  0.51100000000E-03 0. -1.
         23    2    1    2    0    0  0.00000000000E+00  0.00000000000E+00  0.22204460493E-15  0.91188000000E+02  0.91188000000E+02 0.  0.
    9900012    2    3    3    0    0  0.14261299359E+02 -0.33916630173E+02  0.14354029553E+01  0.54367043422E+02  0.39999907089E+02 0.  0.
         12    1    3    3    0    0 -0.14261299359E+02  0.33916630173E+02 -0.14354029553E+01  0.36820956578E+02  0.00000000000E+00 0. -1.
         11    1    4    4    0    0  0.30015952533E+01 -0.11378997001E+02  0.16422052512E+02  0.20203340213E+02  0.51100000000E-03 0. -1.
        -11    1    4    4    0    0  0.51793226191E+01 -0.16825838481E+02 -0.69897847323E+00  0.17618819329E+02  0.51100000000E-03 0.  1.
         12    1    4    4    0    0  0.60803814866E+01 -0.57117946907E+01 -0.14287671083E+02  0.16544883880E+02  0.00000000000E+00 0. -1.
</event>
<event>
 8    1  0.1261983E-006  0.9118800E+02  0.7816164E-02  0.1184000E+00
        -11   -1    0    0    0    0  0.00000000000E+00  0.00000000000E+00  0.45593999997E+02  0.45594000000E+02  0.51100000000E-03 0. -1.
         11   -1    0    0    0    0 -0.00000000000E+00 -0.00000000000E+00 -0.45593999997E+02  0.45594000000E+02  0.51100000000E-03 0.  1.
         23    2    1    2    0    0  0.00000000000E+00  0.00000000000E+00  0.00000000000E+00  0.91188000000E+02  0.91188000000E+02 0.  0.
    9900012    2    3    3    0    0 -0.20376752584E+02  0.59926571303E+01  0.30077510373E+02  0.54367073673E+02  0.39999976052E+02 0.  0.
        -12    1    3    3    0    0  0.20376752584E+02 -0.59926571303E+01 -0.30077510373E+02  0.36820926327E+02  0.00000000000E+00 0.  1.
         11    1    4    4    0    0 -0.56657847418E+01  0.82895953202E+01  0.11183862256E+02  0.15029879658E+02  0.51100000000E-03 0. -1.
        -11    1    4    4    0    0 -0.11077572529E+02  0.31155823854E+01 -0.64340904470E+01  0.13183967039E+02  0.51100000000E-03 0.  1.
        -12    1    4    4    0    0 -0.36333953130E+01 -0.54125205752E+01  0.25327738564E+02  0.26153226976E+02  0.00000000000E+00 0.  1.
</event>
<event>
 8    1  0.1261983E-006  0.9118800E+02  0.7816164E-02  0.1184000E+00
        -11   -1    0    0    0    0  0.00000000000E+00  0.00000000000E+00  0.45593999997E+02  0.45594000000E+02  0.51100000000E-03 0. -1.
         11   -1    0    0    0    0 -0.00000000000E+00 -0.00000000000E+00 -0.45593999997E+02  0.45594000000E+02  0.51100000000E-03 0.  1.
         23    2    1    2    0    0  0.00000000000E+00 -0.17763568394E-14  0.00000000000E+00  0.91188000000E+02  0.91188000000E+02 0.  0.
    9900012    2    3    3    0    0  0.29598874543E+02 -0.69829723731E+01  0.20758736875E+02  0.54367076138E+02  0.39999981672E+02 0.  0.
         12    1    3    3    0    0 -0.29598874543E+02  0.69829723731E+01 -0.20758736875E+02  0.36820923862E+02  0.00000000000E+00 0. -1.
         11    1    4    4    0    0 -0.48971789138E+01  0.42740525418E+01 -0.17785565797E+01  0.67389279720E+01  0.51100000000E-03 0. -1.
        -11    1    4    4    0    0 -0.19057911518E+01 -0.26589886193E+01 -0.10172262316E+01  0.34259319694E+01  0.51100000000E-03 0.  1.
        -12    1    4    4    0    0  0.36401844608E+02 -0.85980362956E+01  0.23554519687E+02  0.44202216197E+02  0.00000000000E+00 0.  1.
</event>
<event>
 8    1  0.1261983E-006  0.9118800E+02  0.7816164E-02  0.1184000E+00
        -11   -1    0    0    0    0  0.00000000000E+00  0.00000000000E+00  0.45593999997E+02  0.45594000000E+02  0.51100000000E-03 0.  1.
         11   -1    0    0    0    0 -0.00000000000E+00 -0.00000000000E+00 -0.45593999997E+02  0.45594000000E+02  0.51100000000E-03 0. -1.
         23    2    1    2    0    0  0.00000000000E+00  0.35527136788E-14 -0.35527136788E-14  0.91188000000E+02  0.91188000000E+02 0.  0.
    9900012    2    3    3    0    0  0.20288637463E+02 -0.16940905452E+02  0.25635074242E+02  0.54367080416E+02  0.39999991424E+02 0.  0.
         12    1    3    3    0    0 -0.20288637463E+02  0.16940905452E+02 -0.25635074242E+02  0.36820919584E+02  0.00000000000E+00 0. -1.
         11    1    4    4    0    0  0.10937568309E+01  0.44573900319E+01 -0.64947302945E+01  0.79527449199E+01  0.51100000000E-03 0. -1.
        -11    1    4    4    0    0  0.22186229643E+02 -0.16758923221E+02  0.28447226092E+02  0.39778574206E+02  0.51100000000E-03 0.  1.
         12    1    4    4    0    0 -0.29913490104E+01 -0.46393722635E+01  0.36825784447E+01  0.66357612904E+01  0.00000000000E+00 0. -1.
</event>
<event>
 8    1  0.1261983E-006  0.9118800E+02  0.7816164E-02  0.1184000E+00
        -11   -1    0    0    0    0  0.00000000000E+00  0.00000000000E+00  0.45593999997E+02  0.45594000000E+02  0.51100000000E-03 0.  1.
         11   -1    0    0    0    0 -0.00000000000E+00 -0.00000000000E+00 -0.45593999997E+02  0.45594000000E+02  0.51100000000E-03 0. -1.
         23    2    1    2    0    0  0.71054273576E-14  0.00000000000E+00 -0.17763568394E-14  0.91188000000E+02  0.91188000000E+02 0.  0.
    9900012    2    3    3    0    0  0.32445222083E+02 -0.10728944220E+02  0.13710479020E+02  0.54367083185E+02  0.39999997737E+02 0.  0.
         12    1    3    3    0    0 -0.32445222083E+02  0.10728944220E+02 -0.13710479020E+02  0.36820916815E+02  0.00000000000E+00 0. -1.
         11    1    4    4    0    0 -0.55126096616E+01 -0.73626627643E+01 -0.41519541690E+01  0.10091401882E+02  0.51100000000E-03 0. -1.
        -11    1    4    4    0    0  0.52915716519E+01  0.27496554796E+01  0.72523609720E+01  0.93892532042E+01  0.51100000000E-03 0.  1.
        -12    1    4    4    0    0  0.32666260093E+02 -0.61159369354E+01  0.10610072217E+02  0.34886428099E+02  0.00000000000E+00 0.  1.
</event>
<event>
 8    1  0.1261983E-006  0.9118800E+02  0.7816164E-02  0.1184000E+00
        -11   -1    0    0    0    0  0.00000000000E+00  0.00000000000E+00  0.45593999997E+02  0.45594000000E+02  0.51100000000E-03 0. -1.
         11   -1    0    0    0    0 -0.00000000000E+00 -0.00000000000E+00 -0.45593999997E+02  0.45594000000E+02  0.51100000000E-03 0.  1.
         23    2    1    2    0    0  0.00000000000E+00  0.35527136788E-14  0.00000000000E+00  0.91188000000E+02  0.91188000000E+02 0.  0.
    9900012    2    3    3    0    0  0.18767785357E+02 -0.24659711016E+02  0.19885851183E+02  0.54367106585E+02  0.40000051083E+02 0.  0.
        -12    1    3    3    0    0 -0.18767785357E+02  0.24659711016E+02 -0.19885851183E+02  0.36820893415E+02  0.00000000000E+00 0.  1.
         11    1    4    4    0    0  0.97012094686E+00 -0.59218126036E+01  0.12039111490E+02  0.13451736129E+02  0.51100000000E-03 0. -1.
        -11    1    4    4    0    0  0.18296786470E+02  0.24532177165E+01  0.45365707939E+00  0.18466089930E+02  0.51100000000E-03 0.  1.
         12    1    4    4    0    0 -0.49912206032E+00 -0.21191116129E+02  0.73930826138E+01  0.22449280526E+02  0.00000000000E+00 0. -1.
</event>
<event>
 8    1  0.1261983E-006  0.9118800E+02  0.7816164E-02  0.1184000E+00
        -11   -1    0    0    0    0  0.00000000000E+00  0.00000000000E+00  0.45593999997E+02  0.45594000000E+02  0.51100000000E-03 0. -1.
         11   -1    0    0    0    0 -0.00000000000E+00 -0.00000000000E+00 -0.45593999997E+02  0.45594000000E+02  0.51100000000E-03 0.  1.
         23    2    1    2    0    0  0.00000000000E+00 -0.35527136788E-14  0.35527136788E-14  0.91188000000E+02  0.91188000000E+02 0.  0.
    9900012    2    3    3    0    0  0.68732180723E+01  0.17489202348E+02  0.31664952078E+02  0.54367047874E+02  0.39999917237E+02 0.  0.
         12    1    3    3    0    0 -0.68732180723E+01 -0.17489202348E+02 -0.31664952078E+02  0.36820952126E+02  0.00000000000E+00 0. -1.
         11    1    4    4    0    0  0.14703223355E+02  0.18921201984E+02  0.16228546434E+02  0.28940670019E+02  0.51100000000E-03 0. -1.
        -11    1    4    4    0    0 -0.60377565249E+01  0.75862760907E+01  0.12405801937E+02  0.15745158327E+02  0.51100000000E-03 0.  1.
        -12    1    4    4    0    0 -0.17922487574E+01 -0.90182757276E+01  0.30306037065E+01  0.96812195272E+01  0.00000000000E+00 0.  1.
</event>
<event>
 8    1  0.1261983E-006  0.9118800E+02  0.7816164E-02  0.1184000E+00
        -11   -1    0    0    0    0  0.00000000000E+00  0.00000000000E+00  0.45593999997E+02  0.45594000000E+02  0.51100000000E-03 0.  1.
         11   -1    0    0    0    0 -0.00000000000E+00 -0.00000000000E+00 -0.45593999997E+02  0.45594000000E+02  0.51100000000E-03 0. -1.
         23    2    1    2    0    0  0.00000000000E+00  0.88817841970E-15  0.00000000000E+00  0.91188000000E+02  0.91188000000E+02 0.  0.
    9900012    2    3    3    0    0  0.17032580969E+02  0.47405099708E+01 -0.32298561163E+02  0.54367105083E+02  0.40000047659E+02 0.  0.
        -12    1    3    3    0    0 -0.17032580969E+02 -0.47405099708E+01  0.32298561163E+02  0.36820894917E+02  0.00000000000E+00 0.  1.
         11    1    4    4    0    0  0.19735101629E+02 -0.88566374435E+01 -0.21267313669E+02  0.30335011028E+02  0.51100000000E-03 0. -1.
        -11    1    4    4    0    0 -0.19117133851E+01 -0.21153751584E+01 -0.73373312624E+01  0.78718416170E+01  0.51100000000E-03 0.  1.
        -12    1    4    4    0    0 -0.79080727500E+00  0.15712522573E+02 -0.36939162318E+01  0.16160252438E+02  0.00000000000E+00 0.  1.
</event>
<event>
 8    1  0.1261983E-006  0.9118800E+02  0.7816164E-02  0.1184000E+00
        -11   -1    0    0    0    0  0.00000000000E+00  0.00000000000E+00  0.45593999997E+02  0.45594000000E+02  0.51100000000E-03 0.  1.
         11   -1    0    0    0    0 -0.00000000000E+00 -0.00000000000E+00 -0.45593999997E+02  0.45594000000E+02  0.51100000000E-03 0. -1.
         23    2    1    2    0    0  0.00000000000E+00  0.00000000000E+00 -0.35527136788E-14  0.91188000000E+02  0.91188000000E+02 0.  0.
    9900012    2    3    3    0    0 -0.12134354376E+02  0.27840725311E+02 -0.20819023818E+02  0.54367078030E+02  0.39999985985E+02 0.  0.
        -12    1    3    3    0    0  0.12134354376E+02 -0.27840725311E+02  0.20819023818E+02  0.36820921970E+02  0.00000000000E+00 0.  1.
         11    1    4    4    0    0 -0.48991194135E+01  0.69192522068E+01 -0.12351434830E+02  0.14981167002E+02  0.51100000000E-03 0. -1.
        -11    1    4    4    0    0 -0.13499089853E+02  0.13374558982E+02  0.76776689614E+01  0.20495142248E+02  0.51100000000E-03 0.  1.
        -12    1    4    4    0    0  0.62638548896E+01  0.75469141223E+01 -0.16145257950E+02  0.18890768780E+02  0.00000000000E+00 0.  1.
</event>
<event>
 8    1  0.1261983E-006  0.9118800E+02  0.7816164E-02  0.1184000E+00
        -11   -1    0    0    0    0  0.00000000000E+00  0.00000000000E+00  0.45593999997E+02  0.45594000000E+02  0.51100000000E-03 0. -1.
         11   -1    0    0    0    0 -0.00000000000E+00 -0.00000000000E+00 -0.45593999997E+02  0.45594000000E+02  0.51100000000E-03 0.  1.
         23    2    1    2    0    0 -0.35527136788E-14  0.71054273576E-14  0.88817841970E-15  0.91188000000E+02  0.91188000000E+02 0.  0.
    9900012    2    3    3    0    0 -0.53259392789E+01  0.36029566681E+02  0.54114814846E+01  0.54367089687E+02  0.40000012559E+02 0.  0.
        -12    1    3    3    0    0  0.53259392789E+01 -0.36029566681E+02 -0.54114814846E+01  0.36820910313E+02  0.00000000000E+00 0.  1.
         11    1    4    4    0    0 -0.80042101995E+01  0.34691311330E+02  0.68287083368E+01  0.36251699554E+02  0.51100000000E-03 0. -1.
        -11    1    4    4    0    0  0.45092139249E+01  0.45435004916E+01 -0.81943023396E+01  0.10398220907E+02  0.51100000000E-03 0.  1.
        -12    1    4    4    0    0 -0.18309430043E+01 -0.32052451409E+01  0.67770754875E+01  0.77171692259E+01  0.00000000000E+00 0.  1.
</event>
<event>
 8    1  0.1261983E-006  0.9118800E+02  0.7816164E-02  0.1184000E+00
        -11   -1    0    0    0    0  0.00000000000E+00  0.00000000000E+00  0.45593999997E+02  0.45594000000E+02  0.51100000000E-03 0. -1.
         11   -1    0    0    0    0 -0.00000000000E+00 -0.00000000000E+00 -0.45593999997E+02  0.45594000000E+02  0.51100000000E-03 0.  1.
         23    2    1    2    0    0  0.00000000000E+00  0.00000000000E+00 -0.35527136788E-14  0.91188000000E+02  0.91188000000E+02 0.  0.
    9900012    2    3    3    0    0 -0.22577588286E+02 -0.19233672598E+02 -0.21819679286E+02  0.54367081237E+02  0.39999993296E+02 0.  0.
         12    1    3    3    0    0  0.22577588286E+02  0.19233672598E+02  0.21819679286E+02  0.36820918763E+02  0.00000000000E+00 0. -1.
         11    1    4    4    0    0 -0.40147571414E+00  0.23783581800E+00 -0.14125117981E+02  0.14132823740E+02  0.51100000000E-03 0. -1.
        -11    1    4    4    0    0 -0.16767998646E+02 -0.43968895695E+01  0.68123333155E+01  0.18625420853E+02  0.51100000000E-03 0.  1.
        -12    1    4    4    0    0 -0.54081139257E+01 -0.15074618846E+02 -0.14506894621E+02  0.21608836645E+02  0.00000000000E+00 0.  1.
</event>
<event>
 8    1  0.1261983E-006  0.9118800E+02  0.7816164E-02  0.1184000E+00
        -11   -1    0    0    0    0  0.00000000000E+00  0.00000000000E+00  0.45593999997E+02  0.45594000000E+02  0.51100000000E-03 0. -1.
         11   -1    0    0    0    0 -0.00000000000E+00 -0.00000000000E+00 -0.45593999997E+02  0.45594000000E+02  0.51100000000E-03 0.  1.
         23    2    1    2    0    0  0.00000000000E+00  0.00000000000E+00  0.00000000000E+00  0.91188000000E+02  0.91188000000E+02 0.  0.
    9900012    2    3    3    0    0  0.27707531383E+02 -0.17043699221E+02  0.17250662407E+02  0.54367077524E+02  0.39999984832E+02 0.  0.
        -12    1    3    3    0    0 -0.27707531383E+02  0.17043699221E+02 -0.17250662407E+02  0.36820922476E+02  0.00000000000E+00 0.  1.
         11    1    4    4    0    0  0.15187772079E+02 -0.22324946572E+02  0.78265867220E+01  0.28112757249E+02  0.51100000000E-03 0. -1.
        -11    1    4    4    0    0  0.10639007307E+02  0.47005962182E+01 -0.42919500107E+01  0.12397778690E+02  0.51100000000E-03 0.  1.
         12    1    4    4    0    0  0.18807519959E+01  0.58065113231E+00  0.13716025696E+02  0.13856541585E+02  0.00000000000E+00 0. -1.
</event>
<event>
 8    1  0.1261983E-006  0.9118800E+02  0.7816164E-02  0.1184000E+00
        -11   -1    0    0    0    0  0.00000000000E+00  0.00000000000E+00  0.45593999997E+02  0.45594000000E+02  0.51100000000E-03 0.  1.
         11   -1    0    0    0    0 -0.00000000000E+00 -0.00000000000E+00 -0.45593999997E+02  0.45594000000E+02  0.51100000000E-03 0. -1.
         23    2    1    2    0    0  0.00000000000E+00  0.00000000000E+00  0.00000000000E+00  0.91188000000E+02  0.91188000000E+02 0.  0.
    9900012    2    3    3    0    0 -0.84108583037E+01 -0.14450313381E+02 -0.32805875677E+02  0.54367087828E+02  0.40000008322E+02 0.  0.
        -12    1    3    3    0    0  0.84108583037E+01  0.14450313381E+02  0.32805875677E+02  0.36820912172E+02  0.00000000000E+00 0.  1.
         11    1    4    4    0    0 -0.20754933770E+02 -0.58930714383E+00 -0.17370429376E+02  0.27071135471E+02  0.51100000000E-03 0.  1.
        -11    1    4    4    0    0  0.22955086548E+01  0.19351140698E+01 -0.50814006002E+01  0.59020893562E+01  0.51100000000E-03 0. -1.
         12    1    4    4    0    0  0.10048566812E+02 -0.15796120307E+02 -0.10354045701E+02  0.21393863001E+02  0.00000000000E+00 0. -1.
</event>
<event>
 8    1  0.1261983E-006  0.9118800E+02  0.7816164E-02  0.1184000E+00
        -11   -1    0    0    0    0  0.00000000000E+00  0.00000000000E+00  0.45593999997E+02  0.45594000000E+02  0.51100000000E-03 0.  1.
         11   -1    0    0    0    0 -0.00000000000E+00 -0.00000000000E+00 -0.45593999997E+02  0.45594000000E+02  0.51100000000E-03 0. -1.
         23    2    1    2    0    0  0.44408920985E-15  0.00000000000E+00  0.35527136788E-14  0.91188000000E+02  0.91188000000E+02 0.  0.
    9900012    2    3    3    0    0  0.31178724713E+01  0.35165121581E+02  0.10462901908E+02  0.54367092612E+02  0.40000019228E+02 0.  0.
        -12    1    3    3    0    0 -0.31178724713E+01 -0.35165121581E+02 -0.10462901908E+02  0.36820907388E+02  0.00000000000E+00 0.  1.
         11    1    4    4    0    0 -0.61235479378E+01  0.10013972868E+02 -0.54898974001E+01  0.12958258590E+02  0.51100000000E-03 0. -1.
        -11    1    4    4    0    0  0.10307019636E+02  0.77429208810E+01 -0.52804941040E+01  0.13930940233E+02  0.51100000000E-03 0.  1.
        -12    1    4    4    0    0 -0.10655992267E+01  0.17408227831E+02  0.21233293412E+02  0.27477893789E+02  0.00000000000E+00 0.  1.
</event>
<event>
 8    1  0.1261983E-006  0.9118800E+02  0.7816164E-02  0.1184000E+00
        -11   -1    0    0    0    0  0.00000000000E+00  0.00000000000E+00  0.45593999997E+02  0.45594000000E+02  0.51100000000E-03 0. -1.
         11   -1    0    0    0    0 -0.00000000000E+00 -0.00000000000E+00 -0.45593999997E+02  0.45594000000E+02  0.51100000000E-03 0.  1.
         23    2    1    2    0    0  0.00000000000E+00  0.35527136788E-14  0.00000000000E+00  0.91188000000E+02  0.91188000000E+02 0.  0.
    9900012    2    3    3    0    0  0.26149399785E+02  0.23805244802E+02  0.10261544059E+02  0.54367081004E+02  0.39999992766E+02 0.  0.
        -12    1    3    3    0    0 -0.26149399785E+02 -0.23805244802E+02 -0.10261544059E+02  0.36820918996E+02  0.00000000000E+00 0.  1.
         11    1    4    4    0    0  0.22488361150E+02  0.27384260736E+02  0.14603471682E+02  0.38326042174E+02  0.51100000000E-03 0. -1.
        -11    1    4    4    0    0  0.22112799903E+01 -0.15158743317E+00  0.52790108711E+01  0.57254426889E+01  0.51100000000E-03 0.  1.
        -12    1    4    4    0    0  0.14497586447E+01 -0.34274285009E+01 -0.96209384940E+01  0.10315596142E+02  0.00000000000E+00 0.  1.
</event>
<event>
 8    1  0.1261983E-006  0.9118800E+02  0.7816164E-02  0.1184000E+00
        -11   -1    0    0    0    0  0.00000000000E+00  0.00000000000E+00  0.45593999997E+02  0.45594000000E+02  0.51100000000E-03 0.  1.
         11   -1    0    0    0    0 -0.00000000000E+00 -0.00000000000E+00 -0.45593999997E+02  0.45594000000E+02  0.51100000000E-03 0. -1.
         23    2    1    2    0    0  0.17763568394E-14  0.00000000000E+00  0.00000000000E+00  0.91188000000E+02  0.91188000000E+02 0.  0.
    9900012    2    3    3    0    0 -0.35465757908E+01  0.14254264555E+02 -0.33764157764E+02  0.54367073785E+02  0.39999976307E+02 0.  0.
        -12    1    3    3    0    0  0.35465757908E+01 -0.14254264555E+02  0.33764157764E+02  0.36820926215E+02  0.00000000000E+00 0.  1.
         11    1    4    4    0    0 -0.15007888834E+02  0.65351382636E+01 -0.28938323334E+02  0.33247124944E+02  0.51100000000E-03 0. -1.
        -11    1    4    4    0    0  0.99951270050E+01 -0.33022985316E+00 -0.75128944544E+01  0.12508205265E+02  0.51100000000E-03 0.  1.
        -12    1    4    4    0    0  0.14661860386E+01  0.80493561443E+01  0.26870600250E+01  0.86117435758E+01  0.00000000000E+00 0.  1.
</event>
<event>
 8    1  0.1261983E-006  0.9118800E+02  0.7816164E-02  0.1184000E+00
        -11   -1    0    0    0    0  0.00000000000E+00  0.00000000000E+00  0.45593999997E+02  0.45594000000E+02  0.51100000000E-03 0.  1.
         11   -1    0    0    0    0 -0.00000000000E+00 -0.00000000000E+00 -0.45593999997E+02  0.45594000000E+02  0.51100000000E-03 0. -1.
         23    2    1    2    0    0  0.00000000000E+00 -0.39968028887E-14  0.00000000000E+00  0.91188000000E+02  0.91188000000E+02 0.  0.
    9900012    2    3    3    0    0  0.33828126668E+02 -0.26127796395E+01  0.14304097035E+02  0.54367136847E+02  0.40000120070E+02 0.  0.
         12    1    3    3    0    0 -0.33828126668E+02  0.26127796395E+01 -0.14304097035E+02  0.36820863153E+02  0.00000000000E+00 0. -1.
         11    1    4    4    0    0  0.26878736456E+01 -0.37656853431E+01 -0.28735585963E+01  0.54463189500E+01  0.51100000000E-03 0. -1.
        -11    1    4    4    0    0  0.25630274022E+02  0.15180422441E+02  0.66070951263E+01  0.30512454477E+02  0.51100000000E-03 0.  1.
        -12    1    4    4    0    0  0.55099790005E+01 -0.14027516738E+02  0.10570560505E+02  0.18408363420E+02  0.00000000000E+00 0.  1.
</event>
<event>
 8    1  0.1261983E-006  0.9118800E+02  0.7816164E-02  0.1184000E+00
        -11   -1    0    0    0    0  0.00000000000E+00  0.00000000000E+00  0.45593999997E+02  0.45594000000E+02  0.51100000000E-03 0. -1.
         11   -1    0    0    0    0 -0.00000000000E+00 -0.00000000000E+00 -0.45593999997E+02  0.45594000000E+02  0.51100000000E-03 0.  1.
         23    2    1    2    0    0  0.00000000000E+00  0.35527136788E-14  0.00000000000E+00  0.91188000000E+02  0.91188000000E+02 0.  0.
    9900012    2    3    3    0    0 -0.71804440754E+01 -0.19757783374E+02  0.30229957478E+02  0.54367094117E+02  0.40000022658E+02 0.  0.
        -12    1    3    3    0    0  0.71804440754E+01  0.19757783374E+02 -0.30229957478E+02  0.36820905883E+02  0.00000000000E+00 0.  1.
         11    1    4    4    0    0 -0.60784094028E+01 -0.15644109674E+02 -0.74945249244E+00  0.16800205584E+02  0.51100000000E-03 0. -1.
        -11    1    4    4    0    0 -0.91186829600E+01  0.37087124818E+01  0.11913546516E+02  0.15454368899E+02  0.51100000000E-03 0.  1.
        -12    1    4    4    0    0  0.80166482874E+01 -0.78223861813E+01  0.19065863454E+02  0.22112519634E+02  0.00000000000E+00 0.  1.
</event>
<event>
 8    1  0.1261983E-006  0.9118800E+02  0.7816164E-02  0.1184000E+00
        -11   -1    0    0    0    0  0.00000000000E+00  0.00000000000E+00  0.45593999997E+02  0.45594000000E+02  0.51100000000E-03 0.  1.
         11   -1    0    0    0    0 -0.00000000000E+00 -0.00000000000E+00 -0.45593999997E+02  0.45594000000E+02  0.51100000000E-03 0. -1.
         23    2    1    2    0    0  0.00000000000E+00  0.00000000000E+00  0.00000000000E+00  0.91188000000E+02  0.91188000000E+02 0.  0.
    9900012    2    3    3    0    0  0.49641465721E+01 -0.25063791099E+02  0.26513085860E+02  0.54367080711E+02  0.39999992097E+02 0.  0.
         12    1    3    3    0    0 -0.49641465721E+01  0.25063791099E+02 -0.26513085860E+02  0.36820919289E+02  0.00000000000E+00 0. -1.
         11    1    4    4    0    0  0.10499603198E+01  0.41863037441E+01  0.17248949977E+02  0.17780715151E+02  0.51100000000E-03 0.  1.
        -11    1    4    4    0    0  0.94174893612E+00  0.28251671013E+01  0.19318400455E+01  0.35497135703E+01  0.51100000000E-03 0. -1.
        -12    1    4    4    0    0  0.29724373161E+01 -0.32075261945E+02  0.73322958374E+01  0.33036651989E+02  0.00000000000E+00 0.  1.
</event>
<event>
 8    1  0.1261983E-006  0.9118800E+02  0.7816164E-02  0.1184000E+00
        -11   -1    0    0    0    0  0.00000000000E+00  0.00000000000E+00  0.45593999997E+02  0.45594000000E+02  0.51100000000E-03 0. -1.
         11   -1    0    0    0    0 -0.00000000000E+00 -0.00000000000E+00 -0.45593999997E+02  0.45594000000E+02  0.51100000000E-03 0.  1.
         23    2    1    2    0    0  0.00000000000E+00  0.00000000000E+00  0.00000000000E+00  0.91188000000E+02  0.91188000000E+02 0.  0.
    9900012    2    3    3    0    0  0.24616146706E+02 -0.19828850735E+02 -0.18884851288E+02  0.54367141668E+02  0.40000131060E+02 0.  0.
         12    1    3    3    0    0 -0.24616146706E+02  0.19828850735E+02  0.18884851288E+02  0.36820858332E+02  0.00000000000E+00 0. -1.
         11    1    4    4    0    0  0.59308356832E-01 -0.18363984344E+02 -0.55793267508E+01  0.19192923845E+02  0.51100000000E-03 0. -1.
        -11    1    4    4    0    0 -0.33946699382E+00 -0.12845228851E+01 -0.99661319126E+01  0.10054303678E+02  0.51100000000E-03 0.  1.
         12    1    4    4    0    0  0.24896305343E+02 -0.18034350548E+00 -0.33393926250E+01  0.25119914145E+02  0.00000000000E+00 0. -1.
</event>
<event>
 8    1  0.1261983E-006  0.9118800E+02  0.7816164E-02  0.1184000E+00
        -11   -1    0    0    0    0  0.00000000000E+00  0.00000000000E+00  0.45593999997E+02  0.45594000000E+02  0.51100000000E-03 0.  1.
         11   -1    0    0    0    0 -0.00000000000E+00 -0.00000000000E+00 -0.45593999997E+02  0.45594000000E+02  0.51100000000E-03 0. -1.
         23    2    1    2    0    0  0.00000000000E+00 -0.35527136788E-14  0.00000000000E+00  0.91188000000E+02  0.91188000000E+02 0.  0.
    9900012    2    3    3    0    0  0.27783013255E+02 -0.17577000022E+02  0.16581036741E+02  0.54367115509E+02  0.40000071425E+02 0.  0.
         12    1    3    3    0    0 -0.27783013255E+02  0.17577000022E+02 -0.16581036741E+02  0.36820884491E+02  0.00000000000E+00 0. -1.
         11    1    4    4    0    0  0.66775103321E+01  0.55748622202E+01  0.13139655085E+02  0.15758133425E+02  0.51100000000E-03 0. -1.
        -11    1    4    4    0    0  0.17063121830E+02 -0.16200284312E+02 -0.77996385238E+01  0.24787773190E+02  0.51100000000E-03 0.  1.
        -12    1    4    4    0    0  0.40423810935E+01 -0.69515779299E+01  0.11241020179E+02  0.13821208894E+02  0.00000000000E+00 0.  1.
</event>
<event>
 8    1  0.1261983E-006  0.9118800E+02  0.7816164E-02  0.1184000E+00
        -11   -1    0    0    0    0  0.00000000000E+00  0.00000000000E+00  0.45593999997E+02  0.45594000000E+02  0.51100000000E-03 0.  1.
         11   -1    0    0    0    0 -0.00000000000E+00 -0.00000000000E+00 -0.45593999997E+02  0.45594000000E+02  0.51100000000E-03 0. -1.
         23    2    1    2    0    0  0.00000000000E+00  0.00000000000E+00  0.17763568394E-14  0.91188000000E+02  0.91188000000E+02 0.  0.
    9900012    2    3    3    0    0  0.23016372297E+02 -0.24639239258E+02 -0.14797076293E+02  0.54366824411E+02  0.39999407805E+02 0.  0.
         12    1    3    3    0    0 -0.23016372297E+02  0.24639239258E+02  0.14797076293E+02  0.36821175589E+02  0.00000000000E+00 0. -1.
         11    1    4    4    0    0  0.62885639552E+01 -0.25268017931E+02 -0.40282309549E+01  0.26348537183E+02  0.51100000000E-03 0. -1.
        -11    1    4    4    0    0  0.21124655536E+02 -0.10693335956E+01 -0.87086250692E+01  0.22874323962E+02  0.51100000000E-03 0.  1.
        -12    1    4    4    0    0 -0.43968471940E+01  0.16981122690E+01 -0.20602202692E+01  0.51439632661E+01  0.00000000000E+00 0.  1.
</event>
<event>
 8    1  0.1261983E-006  0.9118800E+02  0.7816164E-02  0.1184000E+00
        -11   -1    0    0    0    0  0.00000000000E+00  0.00000000000E+00  0.45593999997E+02  0.45594000000E+02  0.51100000000E-03 0.  1.
         11   -1    0    0    0    0 -0.00000000000E+00 -0.00000000000E+00 -0.45593999997E+02  0.45594000000E+02  0.51100000000E-03 0. -1.
         23    2    1    2    0    0  0.35527136788E-14 -0.33306690739E-15  0.00000000000E+00  0.91188000000E+02  0.91188000000E+02 0.  0.
    9900012    2    3    3    0    0 -0.19122031702E+02  0.97007903712E+00 -0.31451335294E+02  0.54367086899E+02  0.40000006204E+02 0.  0.
        -12    1    3    3    0    0  0.19122031702E+02 -0.97007903712E+00  0.31451335294E+02  0.36820913101E+02  0.00000000000E+00 0.  1.
         11    1    4    4    0    0  0.32215915885E+01 -0.15083255608E+02 -0.13581258218E+02  0.20550762204E+02  0.51100000000E-03 0. -1.
        -11    1    4    4    0    0 -0.18591907040E+02  0.92941900595E+01 -0.11228511500E+02  0.23624572949E+02  0.51100000000E-03 0.  1.
         12    1    4    4    0    0 -0.37517162508E+01  0.67591445860E+01 -0.66415655761E+01  0.10191751747E+02  0.00000000000E+00 0. -1.
</event>
<event>
 8    1  0.1261983E-006  0.9118800E+02  0.7816164E-02  0.1184000E+00
        -11   -1    0    0    0    0  0.00000000000E+00  0.00000000000E+00  0.45593999997E+02  0.45594000000E+02  0.51100000000E-03 0.  1.
         11   -1    0    0    0    0 -0.00000000000E+00 -0.00000000000E+00 -0.45593999997E+02  0.45594000000E+02  0.51100000000E-03 0. -1.
         23    2    1    2    0    0  0.17763568394E-14  0.00000000000E+00  0.00000000000E+00  0.91188000000E+02  0.91188000000E+02 0.  0.
    9900012    2    3    3    0    0 -0.13841784285E+02  0.30120386927E+02 -0.16029555865E+02  0.54367090695E+02  0.40000014858E+02 0.  0.
        -12    1    3    3    0    0  0.13841784285E+02 -0.30120386927E+02  0.16029555865E+02  0.36820909305E+02  0.00000000000E+00 0.  1.
         11    1    4    4    0    0 -0.24883387333E+01 -0.98150832505E+00 -0.23340183917E+01  0.35500465290E+01  0.51100000000E-03 0. -1.
        -11    1    4    4    0    0 -0.19032148919E+02  0.39763556629E+01 -0.11384847354E+02  0.22531064031E+02  0.51100000000E-03 0.  1.
        -12    1    4    4    0    0  0.76787033669E+01  0.27125539589E+02 -0.23106901191E+01  0.28285980135E+02  0.00000000000E+00 0.  1.
</event>
<event>
 8    1  0.1261983E-006  0.9118800E+02  0.7816164E-02  0.1184000E+00
        -11   -1    0    0    0    0  0.00000000000E+00  0.00000000000E+00  0.45593999997E+02  0.45594000000E+02  0.51100000000E-03 0.  1.
         11   -1    0    0    0    0 -0.00000000000E+00 -0.00000000000E+00 -0.45593999997E+02  0.45594000000E+02  0.51100000000E-03 0. -1.
         23    2    1    2    0    0  0.00000000000E+00  0.00000000000E+00  0.00000000000E+00  0.91188000000E+02  0.91188000000E+02 0.  0.
    9900012    2    3    3    0    0  0.24315908460E+02 -0.23734757888E+02  0.14183690459E+02  0.54367092742E+02  0.40000019524E+02 0.  0.
         12    1    3    3    0    0 -0.24315908460E+02  0.23734757888E+02 -0.14183690459E+02  0.36820907258E+02  0.00000000000E+00 0. -1.
         11    1    4    4    0    0  0.24853017418E+00  0.41715996960E+01 -0.33700481616E+01  0.53685413423E+01  0.51100000000E-03 0. -1.
        -11    1    4    4    0    0  0.21417308079E+02 -0.11750490914E+02  0.21062165641E+02  0.32255076249E+02  0.51100000000E-03 0.  1.
         12    1    4    4    0    0  0.26500702061E+01 -0.16155866671E+02 -0.35084270196E+01  0.16743475151E+02  0.00000000000E+00 0. -1.
</event>
<event>
 8    1  0.1261983E-006  0.9118800E+02  0.7816164E-02  0.1184000E+00
        -11   -1    0    0    0    0  0.00000000000E+00  0.00000000000E+00  0.45593999997E+02  0.45594000000E+02  0.51100000000E-03 0. -1.
         11   -1    0    0    0    0 -0.00000000000E+00 -0.00000000000E+00 -0.45593999997E+02  0.45594000000E+02  0.51100000000E-03 0.  1.
         23    2    1    2    0    0  0.00000000000E+00  0.00000000000E+00  0.00000000000E+00  0.91188000000E+02  0.91188000000E+02 0.  0.
    9900012    2    3    3    0    0 -0.26623485775E+01  0.20698910146E+02  0.30335585883E+02  0.54367071820E+02  0.39999971828E+02 0.  0.
        -12    1    3    3    0    0  0.26623485775E+01 -0.20698910146E+02 -0.30335585883E+02  0.36820928180E+02  0.00000000000E+00 0.  1.
         11    1    4    4    0    0  0.63704020619E+01  0.52639930382E+01  0.30292967765E+01  0.88016069191E+01  0.51100000000E-03 0. -1.
        -11    1    4    4    0    0  0.13876091975E+01  0.55646605572E+01 -0.66016684078E+01  0.87448803553E+01  0.51100000000E-03 0.  1.
        -12    1    4    4    0    0 -0.10420359837E+02  0.98702565506E+01  0.33907957514E+02  0.36820584546E+02  0.00000000000E+00 0.  1.
</event>
<event>
 8    1  0.1261983E-006  0.9118800E+02  0.7816164E-02  0.1184000E+00
        -11   -1    0    0    0    0  0.00000000000E+00  0.00000000000E+00  0.45593999997E+02  0.45594000000E+02  0.51100000000E-03 0. -1.
         11   -1    0    0    0    0 -0.00000000000E+00 -0.00000000000E+00 -0.45593999997E+02  0.45594000000E+02  0.51100000000E-03 0.  1.
         23    2    1    2    0    0  0.00000000000E+00 -0.17763568394E-14 -0.71054273576E-14  0.91188000000E+02  0.91188000000E+02 0.  0.
    9900012    2    3    3    0    0  0.62428047953E+01 -0.15491599899E+02 -0.32814913782E+02  0.54367070548E+02  0.39999968929E+02 0.  0.
         12    1    3    3    0    0 -0.62428047953E+01  0.15491599899E+02  0.32814913782E+02  0.36820929452E+02  0.00000000000E+00 0. -1.
         11    1    4    4    0    0  0.13074627488E+01 -0.18096387614E+02 -0.81349621198E+01  0.19883820369E+02  0.51100000000E-03 0. -1.
        -11    1    4    4    0    0  0.62311347853E+01 -0.70367063925E+01 -0.17304617602E+01  0.95570275573E+01  0.51100000000E-03 0.  1.
        -12    1    4    4    0    0 -0.12957927388E+01  0.96414941070E+01 -0.22949489902E+02  0.24926222622E+02  0.00000000000E+00 0.  1.
</event>
<event>
 8    1  0.1261983E-006  0.9118800E+02  0.7816164E-02  0.1184000E+00
        -11   -1    0    0    0    0  0.00000000000E+00  0.00000000000E+00  0.45593999997E+02  0.45594000000E+02  0.51100000000E-03 0.  1.
         11   -1    0    0    0    0 -0.00000000000E+00 -0.00000000000E+00 -0.45593999997E+02  0.45594000000E+02  0.51100000000E-03 0. -1.
         23    2    1    2    0    0  0.17763568394E-14  0.71054273576E-14 -0.17763568394E-14  0.91188000000E+02  0.91188000000E+02 0.  0.
    9900012    2    3    3    0    0 -0.13938263354E+02 -0.33506504317E+02  0.62304414572E+01  0.54367089940E+02  0.40000013137E+02 0.  0.
         12    1    3    3    0    0  0.13938263354E+02  0.33506504317E+02 -0.62304414572E+01  0.36820910060E+02  0.00000000000E+00 0. -1.
         11    1    4    4    0    0 -0.12417198577E+02 -0.47747460636E+01  0.38531979067E+01  0.13850348546E+02  0.51100000000E-03 0. -1.
        -11    1    4    4    0    0 -0.75378468915E+01 -0.20283897833E+02  0.13343729160E+02  0.25422642570E+02  0.51100000000E-03 0.  1.
         12    1    4    4    0    0  0.60167821149E+01 -0.84478604203E+01 -0.10966485609E+02  0.15094098824E+02  0.00000000000E+00 0. -1.
</event>
<event>
 8    1  0.1261983E-006  0.9118800E+02  0.7816164E-02  0.1184000E+00
        -11   -1    0    0    0    0  0.00000000000E+00  0.00000000000E+00  0.45593999997E+02  0.45594000000E+02  0.51100000000E-03 0.  1.
         11   -1    0    0    0    0 -0.00000000000E+00 -0.00000000000E+00 -0.45593999997E+02  0.45594000000E+02  0.51100000000E-03 0. -1.
         23    2    1    2    0    0  0.88817841970E-15  0.71054273576E-14  0.00000000000E+00  0.91188000000E+02  0.91188000000E+02 0.  0.
    9900012    2    3    3    0    0 -0.52898470223E+01 -0.32569229959E+02 -0.16341466304E+02  0.54367071948E+02  0.39999972121E+02 0.  0.
        -12    1    3    3    0    0  0.52898470223E+01  0.32569229959E+02  0.16341466304E+02  0.36820928052E+02  0.00000000000E+00 0.  1.
         11    1    4    4    0    0  0.51249469970E+01 -0.20137849285E+01 -0.13640850289E+02  0.14710309593E+02  0.51100000000E-03 0. -1.
        -11    1    4    4    0    0 -0.66195965207E+01 -0.31594208354E+02 -0.78063759146E+01  0.33210729664E+02  0.51100000000E-03 0.  1.
         12    1    4    4    0    0 -0.37951974985E+01  0.10387633242E+01  0.51057599002E+01  0.64460326911E+01  0.00000000000E+00 0. -1.
</event>
<event>
 8    1  0.1261983E-006  0.9118800E+02  0.7816164E-02  0.1184000E+00
        -11   -1    0    0    0    0  0.00000000000E+00  0.00000000000E+00  0.45593999997E+02  0.45594000000E+02  0.51100000000E-03 0. -1.
         11   -1    0    0    0    0 -0.00000000000E+00 -0.00000000000E+00 -0.45593999997E+02  0.45594000000E+02  0.51100000000E-03 0.  1.
         23    2    1    2    0    0  0.44408920985E-15  0.53290705182E-14  0.00000000000E+00  0.91188000000E+02  0.91188000000E+02 0.  0.
    9900012    2    3    3    0    0  0.32712671630E+01  0.14211130448E+02  0.33810094768E+02  0.54367083042E+02  0.39999997410E+02 0.  0.
        -12    1    3    3    0    0 -0.32712671630E+01 -0.14211130448E+02 -0.33810094768E+02  0.36820916958E+02  0.00000000000E+00 0.  1.
         11    1    4    4    0    0  0.11030270964E+02 -0.52743374843E+01  0.25896740694E+02  0.28637854184E+02  0.51100000000E-03 0. -1.
        -11    1    4    4    0    0 -0.19178549257E+01  0.18224538579E+02  0.72867510563E+01  0.19720768625E+02  0.51100000000E-03 0.  1.
         12    1    4    4    0    0 -0.58411488757E+01  0.12609293532E+01  0.62660301744E+00  0.60084602323E+01  0.00000000000E+00 0. -1.
</event>
<event>
 8    1  0.1261983E-006  0.9118800E+02  0.7816164E-02  0.1184000E+00
        -11   -1    0    0    0    0  0.00000000000E+00  0.00000000000E+00  0.45593999997E+02  0.45594000000E+02  0.51100000000E-03 0. -1.
         11   -1    0    0    0    0 -0.00000000000E+00 -0.00000000000E+00 -0.45593999997E+02  0.45594000000E+02  0.51100000000E-03 0.  1.
         23    2    1    2    0    0 -0.17763568394E-14 -0.35527136788E-14  0.35527136788E-14  0.91188000000E+02  0.91188000000E+02 0.  0.
    9900012    2    3    3    0    0  0.10719956440E+02 -0.28483456628E+02  0.20725710288E+02  0.54367084280E+02  0.40000000233E+02 0.  0.
        -12    1    3    3    0    0 -0.10719956440E+02  0.28483456628E+02 -0.20725710288E+02  0.36820915720E+02  0.00000000000E+00 0.  1.
         11    1    4    4    0    0  0.14291787830E+02 -0.57620328985E+01  0.12713270367E+02  0.19977073514E+02  0.51100000000E-03 0. -1.
        -11    1    4    4    0    0  0.63040014057E+01 -0.16551650982E+02  0.12744926904E+02  0.21820420390E+02  0.51100000000E-03 0.  1.
        -12    1    4    4    0    0 -0.98758327961E+01 -0.61697727471E+01 -0.47324869829E+01  0.12569590376E+02  0.00000000000E+00 0.  1.
</event>
<event>
 8    1  0.1261983E-006  0.9118800E+02  0.7816164E-02  0.1184000E+00
        -11   -1    0    0    0    0  0.00000000000E+00  0.00000000000E+00  0.45593999997E+02  0.45594000000E+02  0.51100000000E-03 0.  1.
         11   -1    0    0    0    0 -0.00000000000E+00 -0.00000000000E+00 -0.45593999997E+02  0.45594000000E+02  0.51100000000E-03 0. -1.
         23    2    1    2    0    0  0.00000000000E+00  0.00000000000E+00  0.00000000000E+00  0.91188000000E+02  0.91188000000E+02 0.  0.
    9900012    2    3    3    0    0  0.15711393741E+02 -0.33203924272E+02  0.25361384994E+01  0.54367075530E+02  0.39999980286E+02 0.  0.
         12    1    3    3    0    0 -0.15711393741E+02  0.33203924272E+02 -0.25361384994E+01  0.36820924470E+02  0.00000000000E+00 0. -1.
         11    1    4    4    0    0  0.55552992660E+01  0.45196476823E+01  0.68989370040E+01  0.99440382720E+01  0.51100000000E-03 0. -1.
        -11    1    4    4    0    0 -0.57990434827E+01 -0.85090474714E+01  0.21123375399E+01  0.10511648982E+02  0.51100000000E-03 0.  1.
         12    1    4    4    0    0  0.15955137957E+02 -0.29214524483E+02 -0.64751360445E+01  0.33911388276E+02  0.00000000000E+00 0. -1.
</event>
<event>
 8    1  0.1261983E-006  0.9118800E+02  0.7816164E-02  0.1184000E+00
        -11   -1    0    0    0    0  0.00000000000E+00  0.00000000000E+00  0.45593999997E+02  0.45594000000E+02  0.51100000000E-03 0. -1.
         11   -1    0    0    0    0 -0.00000000000E+00 -0.00000000000E+00 -0.45593999997E+02  0.45594000000E+02  0.51100000000E-03 0.  1.
         23    2    1    2    0    0 -0.35527136788E-14  0.00000000000E+00 -0.15543122345E-14  0.91188000000E+02  0.91188000000E+02 0.  0.
    9900012    2    3    3    0    0  0.30824433728E+02  0.20087007550E+02 -0.14651358443E+01  0.54367079181E+02  0.39999988609E+02 0.  0.
         12    1    3    3    0    0 -0.30824433728E+02 -0.20087007550E+02  0.14651358443E+01  0.36820920819E+02  0.00000000000E+00 0. -1.
         11    1    4    4    0    0  0.34020357501E+01  0.29791330111E+01 -0.93564803217E+01  0.10391958671E+02  0.51100000000E-03 0.  1.
        -11    1    4    4    0    0  0.11444120829E+02  0.36015162718E+01 -0.10632784967E+02  0.16031061643E+02  0.51100000000E-03 0. -1.
         12    1    4    4    0    0  0.15978277149E+02  0.13506358267E+02  0.18524129444E+02  0.27944058867E+02  0.00000000000E+00 0. -1.
</event>
<event>
 8    1  0.1261983E-006  0.9118800E+02  0.7816164E-02  0.1184000E+00
        -11   -1    0    0    0    0  0.00000000000E+00  0.00000000000E+00  0.45593999997E+02  0.45594000000E+02  0.51100000000E-03 0.  1.
         11   -1    0    0    0    0 -0.00000000000E+00 -0.00000000000E+00 -0.45593999997E+02  0.45594000000E+02  0.51100000000E-03 0. -1.
         23    2    1    2    0    0  0.00000000000E+00  0.00000000000E+00  0.00000000000E+00  0.91188000000E+02  0.91188000000E+02 0.  0.
    9900012    2    3    3    0    0 -0.31444901233E+02 -0.18114246093E+02 -0.62347400345E+01  0.54367085992E+02  0.40000004137E+02 0.  0.
         12    1    3    3    0    0  0.31444901233E+02  0.18114246093E+02  0.62347400345E+01  0.36820914008E+02  0.00000000000E+00 0. -1.
         11    1    4    4    0    0 -0.66551493792E+01 -0.15930035579E+02 -0.90179044102E+01  0.19477670472E+02  0.51100000000E-03 0. -1.
        -11    1    4    4    0    0 -0.29457249853E+02 -0.24774758272E+01  0.23206496896E+00  0.29562160101E+02  0.51100000000E-03 0.  1.
         12    1    4    4    0    0  0.46674979996E+01  0.29326531340E+00  0.25510994067E+01  0.53272554194E+01  0.00000000000E+00 0. -1.
</event>
<event>
 8    1  0.1261983E-006  0.9118800E+02  0.7816164E-02  0.1184000E+00
        -11   -1    0    0    0    0  0.00000000000E+00  0.00000000000E+00  0.45593999997E+02  0.45594000000E+02  0.51100000000E-03 0.  1.
         11   -1    0    0    0    0 -0.00000000000E+00 -0.00000000000E+00 -0.45593999997E+02  0.45594000000E+02  0.51100000000E-03 0. -1.
         23    2    1    2    0    0  0.00000000000E+00  0.00000000000E+00  0.00000000000E+00  0.91188000000E+02  0.91188000000E+02 0.  0.
    9900012    2    3    3    0    0  0.23957285559E+02  0.17151923756E+02  0.22082538770E+02  0.54367101879E+02  0.40000040354E+02 0.  0.
         12    1    3    3    0    0 -0.23957285559E+02 -0.17151923756E+02 -0.22082538770E+02  0.36820898121E+02  0.00000000000E+00 0. -1.
         11    1    4    4    0    0  0.12883708432E+02 -0.11370563579E+02  0.28076634576E+01  0.17411566082E+02  0.51100000000E-03 0. -1.
        -11    1    4    4    0    0  0.67495587534E+00  0.25932031042E+01 -0.50319216699E+00  0.27264391413E+01  0.51100000000E-03 0.  1.
        -12    1    4    4    0    0  0.10398621251E+02  0.25929284231E+02  0.19778067479E+02  0.34229096656E+02  0.00000000000E+00 0.  1.
</event>
<event>
 8    1  0.1261983E-006  0.9118800E+02  0.7816164E-02  0.1184000E+00
        -11   -1    0    0    0    0  0.00000000000E+00  0.00000000000E+00  0.45593999997E+02  0.45594000000E+02  0.51100000000E-03 0.  1.
         11   -1    0    0    0    0 -0.00000000000E+00 -0.00000000000E+00 -0.45593999997E+02  0.45594000000E+02  0.51100000000E-03 0. -1.
         23    2    1    2    0    0  0.22204460493E-14 -0.88817841970E-15  0.00000000000E+00  0.91188000000E+02  0.91188000000E+02 0.  0.
    9900012    2    3    3    0    0  0.21205933358E+01 -0.40779881259E+01 -0.36532916902E+02  0.54367069531E+02  0.39999966609E+02 0.  0.
        -12    1    3    3    0    0 -0.21205933358E+01  0.40779881259E+01  0.36532916902E+02  0.36820930469E+02  0.00000000000E+00 0.  1.
         11    1    4    4    0    0 -0.71278282169E+01 -0.69233638637E+01 -0.27974626013E+01  0.10323017948E+02  0.51100000000E-03 0. -1.
        -11    1    4    4    0    0 -0.71032488036E+01 -0.47533829967E+01 -0.44071331057E+01  0.96163202916E+01  0.51100000000E-03 0.  1.
         12    1    4    4    0    0  0.16351670356E+02  0.75987587345E+01 -0.29328321195E+02  0.34427731291E+02  0.00000000000E+00 0. -1.
</event>
<event>
 8    1  0.1261983E-006  0.9118800E+02  0.7816164E-02  0.1184000E+00
        -11   -1    0    0    0    0  0.00000000000E+00  0.00000000000E+00  0.45593999997E+02  0.45594000000E+02  0.51100000000E-03 0.  1.
         11   -1    0    0    0    0 -0.00000000000E+00 -0.00000000000E+00 -0.45593999997E+02  0.45594000000E+02  0.51100000000E-03 0. -1.
         23    2    1    2    0    0 -0.17763568394E-14  0.00000000000E+00  0.00000000000E+00  0.91188000000E+02  0.91188000000E+02 0.  0.
    9900012    2    3    3    0    0  0.95721410005E+01  0.35219170488E+02 -0.48748142904E+01  0.54367086547E+02  0.40000005401E+02 0.  0.
        -12    1    3    3    0    0 -0.95721410005E+01 -0.35219170488E+02  0.48748142904E+01  0.36820913453E+02  0.00000000000E+00 0.  1.
         11    1    4    4    0    0 -0.85523875502E+01  0.19986141280E+02 -0.84086096483E+01  0.23308665610E+02  0.51100000000E-03 0. -1.
        -11    1    4    4    0    0  0.11721000413E+02  0.15482115627E+02 -0.53150953722E+01  0.20132759226E+02  0.51100000000E-03 0.  1.
        -12    1    4    4    0    0  0.64035281375E+01 -0.24908641921E+00  0.88488907302E+01  0.10925661710E+02  0.00000000000E+00 0.  1.
</event>
<event>
 8    1  0.1261983E-006  0.9118800E+02  0.7816164E-02  0.1184000E+00
        -11   -1    0    0    0    0  0.00000000000E+00  0.00000000000E+00  0.45593999997E+02  0.45594000000E+02  0.51100000000E-03 0. -1.
         11   -1    0    0    0    0 -0.00000000000E+00 -0.00000000000E+00 -0.45593999997E+02  0.45594000000E+02  0.51100000000E-03 0.  1.
         23    2    1    2    0    0  0.00000000000E+00  0.00000000000E+00  0.88817841970E-15  0.91188000000E+02  0.91188000000E+02 0.  0.
    9900012    2    3    3    0    0 -0.34084608358E+02 -0.13011557043E+02 -0.49717737030E+01  0.54367086414E+02  0.40000005097E+02 0.  0.
        -12    1    3    3    0    0  0.34084608358E+02  0.13011557043E+02  0.49717737030E+01  0.36820913586E+02  0.00000000000E+00 0.  1.
         11    1    4    4    0    0 -0.13450767297E+02 -0.21439469579E+01  0.14090889424E+02  0.19597775753E+02  0.51100000000E-03 0. -1.
        -11    1    4    4    0    0 -0.20696628779E+02 -0.14563974483E+02 -0.17424181943E+02  0.30725590511E+02  0.51100000000E-03 0.  1.
         12    1    4    4    0    0  0.62787718465E-01  0.36963643987E+01 -0.16384811838E+01  0.40437201504E+01  0.00000000000E+00 0. -1.
</event>
<event>
 8    1  0.1261983E-006  0.9118800E+02  0.7816164E-02  0.1184000E+00
        -11   -1    0    0    0    0  0.00000000000E+00  0.00000000000E+00  0.45593999997E+02  0.45594000000E+02  0.51100000000E-03 0. -1.
         11   -1    0    0    0    0 -0.00000000000E+00 -0.00000000000E+00 -0.45593999997E+02  0.45594000000E+02  0.51100000000E-03 0.  1.
         23    2    1    2    0    0  0.17763568394E-14 -0.35527136788E-14  0.35527136788E-14  0.91188000000E+02  0.91188000000E+02 0.  0.
    9900012    2    3    3    0    0 -0.13195805904E+02  0.16201020834E+02 -0.30317956866E+02  0.54367070109E+02  0.39999967927E+02 0.  0.
         12    1    3    3    0    0  0.13195805904E+02 -0.16201020834E+02  0.30317956866E+02  0.36820929891E+02  0.00000000000E+00 0. -1.
         11    1    4    4    0    0  0.16135456658E+01 -0.52782889331E+01 -0.89943519199E+01  0.10552830445E+02  0.51100000000E-03 0. -1.
        -11    1    4    4    0    0 -0.17833885322E+02  0.22828669522E+02 -0.25424160752E+02  0.38543268777E+02  0.51100000000E-03 0.  1.
        -12    1    4    4    0    0  0.30245337528E+01 -0.13493597540E+01  0.41005558061E+01  0.52709708865E+01  0.00000000000E+00 0.  1.
</event>
<event>
 8    1  0.1261983E-006  0.9118800E+02  0.7816164E-02  0.1184000E+00
        -11   -1    0    0    0    0  0.00000000000E+00  0.00000000000E+00  0.45593999997E+02  0.45594000000E+02  0.51100000000E-03 0.  1.
         11   -1    0    0    0    0 -0.00000000000E+00 -0.00000000000E+00 -0.45593999997E+02  0.45594000000E+02  0.51100000000E-03 0. -1.
         23    2    1    2    0    0  0.00000000000E+00 -0.35527136788E-14  0.35527136788E-14  0.91188000000E+02  0.91188000000E+02 0.  0.
    9900012    2    3    3    0    0 -0.18359262584E+02 -0.30652193642E+02 -0.88971859978E+01  0.54367089957E+02  0.40000013175E+02 0.  0.
        -12    1    3    3    0    0  0.18359262584E+02  0.30652193642E+02  0.88971859978E+01  0.36820910043E+02  0.00000000000E+00 0.  1.
         11    1    4    4    0    0  0.40517274972E+01 -0.16874088360E+02 -0.17397592405E+02  0.24572903276E+02  0.51100000000E-03 0. -1.
        -11    1    4    4    0    0 -0.17008593363E+02 -0.48206842886E+01  0.77625594576E+01  0.19307733549E+02  0.51100000000E-03 0.  1.
        -12    1    4    4    0    0 -0.54023967183E+01 -0.89574209937E+01  0.73784694942E+00  0.10486453132E+02  0.00000000000E+00 0.  1.
</event>
<event>
 8    1  0.1261983E-006  0.9118800E+02  0.7816164E-02  0.1184000E+00
        -11   -1    0    0    0    0  0.00000000000E+00  0.00000000000E+00  0.45593999997E+02  0.45594000000E+02  0.51100000000E-03 0.  1.
         11   -1    0    0    0    0 -0.00000000000E+00 -0.00000000000E+00 -0.45593999997E+02  0.45594000000E+02  0.51100000000E-03 0. -1.
         23    2    1    2    0    0 -0.71054273576E-14  0.35527136788E-14  0.26645352591E-14  0.91188000000E+02  0.91188000000E+02 0.  0.
    9900012    2    3    3    0    0 -0.17812905337E+02  0.31540441951E+02  0.66092494562E+01  0.54367065012E+02  0.39999956309E+02 0.  0.
         12    1    3    3    0    0  0.17812905337E+02 -0.31540441951E+02 -0.66092494562E+01  0.36820934988E+02  0.00000000000E+00 0. -1.
         11    1    4    4    0    0 -0.38983210124E+01 -0.99947343507E+00  0.54427765506E+01  0.67690228766E+01  0.51100000000E-03 0. -1.
        -11    1    4    4    0    0  0.94866575993E+01  0.10030813555E+02 -0.47365106718E+01  0.14596178492E+02  0.51100000000E-03 0.  1.
        -12    1    4    4    0    0 -0.23401241924E+02  0.22509101831E+02  0.59029835774E+01  0.33001863643E+02  0.00000000000E+00 0.  1.
</event>
<event>
 8    1  0.1261983E-006  0.9118800E+02  0.7816164E-02  0.1184000E+00
        -11   -1    0    0    0    0  0.00000000000E+00  0.00000000000E+00  0.45593999997E+02  0.45594000000E+02  0.51100000000E-03 0.  1.
         11   -1    0    0    0    0 -0.00000000000E+00 -0.00000000000E+00 -0.45593999997E+02  0.45594000000E+02  0.51100000000E-03 0. -1.
         23    2    1    2    0    0  0.00000000000E+00  0.35527136788E-14  0.00000000000E+00  0.91188000000E+02  0.91188000000E+02 0.  0.
    9900012    2    3    3    0    0 -0.17296250464E+02  0.30320297926E+02 -0.11717410645E+02  0.54367102962E+02  0.40000042822E+02 0.  0.
        -12    1    3    3    0    0  0.17296250464E+02 -0.30320297926E+02  0.11717410645E+02  0.36820897038E+02  0.00000000000E+00 0.  1.
         11    1    4    4    0    0 -0.25668590749E+01  0.74533632302E+01 -0.25939882423E+01  0.82988049871E+01  0.51100000000E-03 0. -1.
        -11    1    4    4    0    0 -0.73148023520E+01  0.27243826127E+02 -0.18189892485E+02  0.33564930871E+02  0.51100000000E-03 0.  1.
        -12    1    4    4    0    0 -0.74145890373E+01 -0.43768914312E+01  0.90664700818E+01  0.12503367104E+02  0.00000000000E+00 0.  1.
</event>
<event>
 8    1  0.1261983E-006  0.9118800E+02  0.7816164E-02  0.1184000E+00
        -11   -1    0    0    0    0  0.00000000000E+00  0.00000000000E+00  0.45593999997E+02  0.45594000000E+02  0.51100000000E-03 0. -1.
         11   -1    0    0    0    0 -0.00000000000E+00 -0.00000000000E+00 -0.45593999997E+02  0.45594000000E+02  0.51100000000E-03 0.  1.
         23    2    1    2    0    0  0.17763568394E-14  0.00000000000E+00  0.00000000000E+00  0.91188000000E+02  0.91188000000E+02 0.  0.
    9900012    2    3    3    0    0 -0.80561267969E+01 -0.29332677505E+02  0.20747837740E+02  0.54367083126E+02  0.39999997602E+02 0.  0.
        -12    1    3    3    0    0  0.80561267969E+01  0.29332677505E+02 -0.20747837740E+02  0.36820916874E+02  0.00000000000E+00 0.  1.
         11    1    4    4    0    0 -0.47880531892E+00 -0.12457040129E+02  0.15784691616E+02  0.20113766255E+02  0.51100000000E-03 0. -1.
        -11    1    4    4    0    0  0.92192645179E+01 -0.12461706926E+02  0.65203502317E+01  0.16816775706E+02  0.51100000000E-03 0.  1.
         12    1    4    4    0    0 -0.16796585996E+02 -0.44139304506E+01 -0.15572041076E+01  0.17436541164E+02  0.00000000000E+00 0. -1.
</event>
<event>
 8    1  0.1261983E-006  0.9118800E+02  0.7816164E-02  0.1184000E+00
        -11   -1    0    0    0    0  0.00000000000E+00  0.00000000000E+00  0.45593999997E+02  0.45594000000E+02  0.51100000000E-03 0. -1.
         11   -1    0    0    0    0 -0.00000000000E+00 -0.00000000000E+00 -0.45593999997E+02  0.45594000000E+02  0.51100000000E-03 0.  1.
         23    2    1    2    0    0  0.00000000000E+00  0.00000000000E+00  0.00000000000E+00  0.91188000000E+02  0.91188000000E+02 0.  0.
    9900012    2    3    3    0    0  0.22751902703E+02  0.14549669461E+02  0.25028706812E+02  0.54367107525E+02  0.40000053224E+02 0.  0.
        -12    1    3    3    0    0 -0.22751902703E+02 -0.14549669461E+02 -0.25028706812E+02  0.36820892475E+02  0.00000000000E+00 0.  1.
         11    1    4    4    0    0  0.27168021642E+00  0.83296916983E+01  0.98793482666E+00  0.83924721871E+01  0.51100000000E-03 0. -1.
        -11    1    4    4    0    0  0.11545614340E+02 -0.54638897186E+01  0.26844450794E+02  0.29728434874E+02  0.51100000000E-03 0.  1.
        -12    1    4    4    0    0  0.10934608146E+02  0.11683867481E+02 -0.28036788090E+01  0.16246200463E+02  0.00000000000E+00 0.  1.
</event>
<event>
 8    1  0.1261983E-006  0.9118800E+02  0.7816164E-02  0.1184000E+00
        -11   -1    0    0    0    0  0.00000000000E+00  0.00000000000E+00  0.45593999997E+02  0.45594000000E+02  0.51100000000E-03 0.  1.
         11   -1    0    0    0    0 -0.00000000000E+00 -0.00000000000E+00 -0.45593999997E+02  0.45594000000E+02  0.51100000000E-03 0. -1.
         23    2    1    2    0    0 -0.35527136788E-14  0.00000000000E+00  0.35527136788E-14  0.91188000000E+02  0.91188000000E+02 0.  0.
    9900012    2    3    3    0    0 -0.27189845057E+02 -0.10599075219E+02  0.22453227748E+02  0.54367143056E+02  0.40000134225E+02 0.  0.
         12    1    3    3    0    0  0.27189845057E+02  0.10599075219E+02 -0.22453227748E+02  0.36820856944E+02  0.00000000000E+00 0. -1.
         11    1    4    4    0    0 -0.35920747356E+02 -0.47094488472E+01  0.11841366981E+02  0.38114262046E+02  0.51100000000E-03 0. -1.
        -11    1    4    4    0    0  0.13288022312E+01 -0.29615519919E+01  0.65636762955E+01  0.73224553493E+01  0.51100000000E-03 0.  1.
         12    1    4    4    0    0  0.74021000671E+01 -0.29280743801E+01  0.40481844714E+01  0.89304256614E+01  0.00000000000E+00 0. -1.
</event>
<event>
 8    1  0.1261983E-006  0.9118800E+02  0.7816164E-02  0.1184000E+00
        -11   -1    0    0    0    0  0.00000000000E+00  0.00000000000E+00  0.45593999997E+02  0.45594000000E+02  0.51100000000E-03 0. -1.
         11   -1    0    0    0    0 -0.00000000000E+00 -0.00000000000E+00 -0.45593999997E+02  0.45594000000E+02  0.51100000000E-03 0.  1.
         23    2    1    2    0    0 -0.35527136788E-14  0.00000000000E+00  0.00000000000E+00  0.91188000000E+02  0.91188000000E+02 0.  0.
    9900012    2    3    3    0    0 -0.26009668092E+02  0.19550333974E+02  0.17235510001E+02  0.54367065767E+02  0.39999958030E+02 0.  0.
        -12    1    3    3    0    0  0.26009668092E+02 -0.19550333974E+02 -0.17235510001E+02  0.36820934233E+02  0.00000000000E+00 0.  1.
         11    1    4    4    0    0 -0.79409113993E+01  0.16330514196E+02 -0.75395087814E+01  0.19661840216E+02  0.51100000000E-03 0. -1.
        -11    1    4    4    0    0  0.82342279998E+00 -0.37284022949E+01  0.63880750302E+01  0.74422114746E+01  0.51100000000E-03 0.  1.
         12    1    4    4    0    0 -0.18892179493E+02  0.69482220726E+01  0.18386943753E+02  0.27263014076E+02  0.00000000000E+00 0. -1.
</event>
<event>
 8    1  0.1261983E-006  0.9118800E+02  0.7816164E-02  0.1184000E+00
        -11   -1    0    0    0    0  0.00000000000E+00  0.00000000000E+00  0.45593999997E+02  0.45594000000E+02  0.51100000000E-03 0.  1.
         11   -1    0    0    0    0 -0.00000000000E+00 -0.00000000000E+00 -0.45593999997E+02  0.45594000000E+02  0.51100000000E-03 0. -1.
         23    2    1    2    0    0  0.00000000000E+00 -0.88817841970E-15 -0.71054273576E-14  0.91188000000E+02  0.91188000000E+02 0.  0.
    9900012    2    3    3    0    0 -0.11799906531E+02 -0.53569371960E+01 -0.34465140313E+02  0.54367075690E+02  0.39999980650E+02 0.  0.
        -12    1    3    3    0    0  0.11799906531E+02  0.53569371960E+01  0.34465140313E+02  0.36820924310E+02  0.00000000000E+00 0.  1.
         11    1    4    4    0    0 -0.38049167355E+01 -0.13349745565E+01 -0.27601828524E+02  0.27894811104E+02  0.51100000000E-03 0. -1.
        -11    1    4    4    0    0  0.25440555572E+01  0.86768407882E+01 -0.29623847268E+01  0.95150148855E+01  0.51100000000E-03 0.  1.
        -12    1    4    4    0    0 -0.10539045352E+02 -0.12698803428E+02 -0.39009270625E+01  0.16957249700E+02  0.00000000000E+00 0.  1.
</event>
<event>
 8    1  0.1261983E-006  0.9118800E+02  0.7816164E-02  0.1184000E+00
        -11   -1    0    0    0    0  0.00000000000E+00  0.00000000000E+00  0.45593999997E+02  0.45594000000E+02  0.51100000000E-03 0.  1.
         11   -1    0    0    0    0 -0.00000000000E+00 -0.00000000000E+00 -0.45593999997E+02  0.45594000000E+02  0.51100000000E-03 0. -1.
         23    2    1    2    0    0  0.00000000000E+00 -0.17763568394E-14 -0.66613381478E-15  0.91188000000E+02  0.91188000000E+02 0.  0.
    9900012    2    3    3    0    0  0.35105056608E+02  0.10988193955E+02  0.16343666318E+01  0.54367128742E+02  0.40000101594E+02 0.  0.
         12    1    3    3    0    0 -0.35105056608E+02 -0.10988193955E+02 -0.16343666318E+01  0.36820871258E+02  0.00000000000E+00 0. -1.
         11    1    4    4    0    0 -0.30156209647E+01  0.39733250660E+00  0.64178222538E+01  0.71021324731E+01  0.51100000000E-03 0. -1.
        -11    1    4    4    0    0  0.19808797894E+02  0.18430252336E+02 -0.17180827887E+01  0.27111150545E+02  0.51100000000E-03 0.  1.
         12    1    4    4    0    0  0.18311879679E+02 -0.78393908870E+01 -0.30653728333E+01  0.20153845724E+02  0.00000000000E+00 0. -1.
</event>
<event>
 8    1  0.1261983E-006  0.9118800E+02  0.7816164E-02  0.1184000E+00
        -11   -1    0    0    0    0  0.00000000000E+00  0.00000000000E+00  0.45593999997E+02  0.45594000000E+02  0.51100000000E-03 0.  1.
         11   -1    0    0    0    0 -0.00000000000E+00 -0.00000000000E+00 -0.45593999997E+02  0.45594000000E+02  0.51100000000E-03 0. -1.
         23    2    1    2    0    0 -0.88817841970E-15 -0.71054273576E-14  0.00000000000E+00  0.91188000000E+02  0.91188000000E+02 0.  0.
    9900012    2    3    3    0    0 -0.54783539032E+01 -0.28158639346E+02 -0.23083677365E+02  0.54367116088E+02  0.40000072746E+02 0.  0.
         12    1    3    3    0    0  0.54783539032E+01  0.28158639346E+02  0.23083677365E+02  0.36820883912E+02  0.00000000000E+00 0. -1.
         11    1    4    4    0    0  0.40140339309E+01 -0.23249920806E+01  0.60234700563E+01  0.76026474569E+01  0.51100000000E-03 0. -1.
        -11    1    4    4    0    0  0.35904023625E+01  0.99303847826E+00  0.14980218627E+01  0.40151194635E+01  0.51100000000E-03 0.  1.
         12    1    4    4    0    0 -0.13082790197E+02 -0.26826685744E+02 -0.30605169284E+02  0.42749349168E+02  0.00000000000E+00 0. -1.
</event>
<event>
 8    1  0.1261983E-006  0.9118800E+02  0.7816164E-02  0.1184000E+00
        -11   -1    0    0    0    0  0.00000000000E+00  0.00000000000E+00  0.45593999997E+02  0.45594000000E+02  0.51100000000E-03 0.  1.
         11   -1    0    0    0    0 -0.00000000000E+00 -0.00000000000E+00 -0.45593999997E+02  0.45594000000E+02  0.51100000000E-03 0. -1.
         23    2    1    2    0    0  0.00000000000E+00  0.35527136788E-14  0.00000000000E+00  0.91188000000E+02  0.91188000000E+02 0.  0.
    9900012    2    3    3    0    0  0.98132983540E+00 -0.31917926631E+02 -0.18332004439E+02  0.54367089699E+02  0.40000012586E+02 0.  0.
        -12    1    3    3    0    0 -0.98132983540E+00  0.31917926631E+02  0.18332004439E+02  0.36820910301E+02  0.00000000000E+00 0.  1.
         11    1    4    4    0    0  0.28461900014E+01  0.49869651656E+00 -0.14673536414E+02  0.14955339076E+02  0.51100000000E-03 0. -1.
        -11    1    4    4    0    0 -0.23461088361E+00 -0.78136265178E+00  0.61863856245E+01  0.62399468921E+01  0.51100000000E-03 0.  1.
         12    1    4    4    0    0 -0.16302492824E+01 -0.31635260496E+02 -0.98448536498E+01  0.33171803731E+02  0.00000000000E+00 0. -1.
</event>
<event>
 8    1  0.1261983E-006  0.9118800E+02  0.7816164E-02  0.1184000E+00
        -11   -1    0    0    0    0  0.00000000000E+00  0.00000000000E+00  0.45593999997E+02  0.45594000000E+02  0.51100000000E-03 0.  1.
         11   -1    0    0    0    0 -0.00000000000E+00 -0.00000000000E+00 -0.45593999997E+02  0.45594000000E+02  0.51100000000E-03 0. -1.
         23    2    1    2    0    0  0.00000000000E+00  0.00000000000E+00  0.00000000000E+00  0.91188000000E+02  0.91188000000E+02 0.  0.
    9900012    2    3    3    0    0 -0.64334138126E+01  0.28607199421E+02 -0.22271502209E+02  0.54367075478E+02  0.39999980166E+02 0.  0.
        -12    1    3    3    0    0  0.64334138126E+01 -0.28607199421E+02  0.22271502209E+02  0.36820924522E+02  0.00000000000E+00 0.  1.
         11    1    4    4    0    0 -0.40869153816E+00  0.13881553896E+02 -0.10049116918E+02  0.17142033672E+02  0.51100000000E-03 0. -1.
        -11    1    4    4    0    0 -0.93812046655E+01 -0.12707171641E+01 -0.17628362757E+02  0.20009520155E+02  0.51100000000E-03 0.  1.
        -12    1    4    4    0    0  0.33564823911E+01  0.15996362690E+02  0.54059774651E+01  0.17215521650E+02  0.00000000000E+00 0.  1.
</event>
<event>
 8    1  0.1261983E-006  0.9118800E+02  0.7816164E-02  0.1184000E+00
        -11   -1    0    0    0    0  0.00000000000E+00  0.00000000000E+00  0.45593999997E+02  0.45594000000E+02  0.51100000000E-03 0.  1.
         11   -1    0    0    0    0 -0.00000000000E+00 -0.00000000000E+00 -0.45593999997E+02  0.45594000000E+02  0.51100000000E-03 0. -1.
         23    2    1    2    0    0  0.00000000000E+00  0.11102230246E-15  0.00000000000E+00  0.91188000000E+02  0.91188000000E+02 0.  0.
    9900012    2    3    3    0    0  0.16425544998E+02  0.64579052295E+00  0.32947887446E+02  0.54367097498E+02  0.40000030367E+02 0.  0.
         12    1    3    3    0    0 -0.16425544998E+02 -0.64579052295E+00 -0.32947887446E+02  0.36820902502E+02  0.00000000000E+00 0. -1.
         11    1    4    4    0    0  0.70102236175E+01 -0.17488864643E+01  0.14649679723E+02  0.16334471380E+02  0.51100000000E-03 0. -1.
        -11    1    4    4    0    0  0.14547312545E+02 -0.31534193325E+01  0.24221909794E+02  0.28430076857E+02  0.51100000000E-03 0.  1.
         12    1    4    4    0    0 -0.51319911653E+01  0.55480963198E+01 -0.59237020702E+01  0.96025492610E+01  0.00000000000E+00 0. -1.
</event>
<event>
 8    1  0.1261983E-006  0.9118800E+02  0.7816164E-02  0.1184000E+00
        -11   -1    0    0    0    0  0.00000000000E+00  0.00000000000E+00  0.45593999997E+02  0.45594000000E+02  0.51100000000E-03 0.  1.
         11   -1    0    0    0    0 -0.00000000000E+00 -0.00000000000E+00 -0.45593999997E+02  0.45594000000E+02  0.51100000000E-03 0. -1.
         23    2    1    2    0    0  0.35527136788E-14 -0.26645352591E-14  0.00000000000E+00  0.91188000000E+02  0.91188000000E+02 0.  0.
    9900012    2    3    3    0    0 -0.17946377776E+02  0.51481213423E+01 -0.31736480040E+02  0.54367084830E+02  0.40000001488E+02 0.  0.
        -12    1    3    3    0    0  0.17946377776E+02 -0.51481213423E+01  0.31736480040E+02  0.36820915170E+02  0.00000000000E+00 0.  1.
         11    1    4    4    0    0 -0.61657897985E+00  0.12932715448E+02 -0.54002937143E+01  0.14028487836E+02  0.51100000000E-03 0. -1.
        -11    1    4    4    0    0 -0.23070982345E+02 -0.48151735474E+01 -0.23492972694E+02  0.33277257833E+02  0.51100000000E-03 0.  1.
        -12    1    4    4    0    0  0.57411835493E+01 -0.29694205580E+01 -0.28432136318E+01  0.70613391615E+01  0.00000000000E+00 0.  1.
</event>
<event>
 8    1  0.1261983E-006  0.9118800E+02  0.7816164E-02  0.1184000E+00
        -11   -1    0    0    0    0  0.00000000000E+00  0.00000000000E+00  0.45593999997E+02  0.45594000000E+02  0.51100000000E-03 0. -1.
         11   -1    0    0    0    0 -0.00000000000E+00 -0.00000000000E+00 -0.45593999997E+02  0.45594000000E+02  0.51100000000E-03 0.  1.
         23    2    1    2    0    0 -0.17763568394E-14  0.00000000000E+00 -0.17763568394E-14  0.91188000000E+02  0.91188000000E+02 0.  0.
    9900012    2    3    3    0    0  0.51847875057E+01 -0.34078922498E+02  0.12943134173E+02  0.54367086074E+02  0.40000004324E+02 0.  0.
        -12    1    3    3    0    0 -0.51847875057E+01  0.34078922498E+02 -0.12943134173E+02  0.36820913926E+02  0.00000000000E+00 0.  1.
         11    1    4    4    0    0 -0.11249029796E+02 -0.16656714132E+02  0.19550135175E+01  0.20194278278E+02  0.51100000000E-03 0. -1.
        -11    1    4    4    0    0 -0.12560658468E+01 -0.33245390656E+01  0.10992317659E+02  0.11552545571E+02  0.51100000000E-03 0.  1.
         12    1    4    4    0    0  0.17689883149E+02 -0.14097669300E+02 -0.41970033092E-02  0.22620262225E+02  0.00000000000E+00 0. -1.
</event>
<event>
 8    1  0.1261983E-006  0.9118800E+02  0.7816164E-02  0.1184000E+00
        -11   -1    0    0    0    0  0.00000000000E+00  0.00000000000E+00  0.45593999997E+02  0.45594000000E+02  0.51100000000E-03 0.  1.
         11   -1    0    0    0    0 -0.00000000000E+00 -0.00000000000E+00 -0.45593999997E+02  0.45594000000E+02  0.51100000000E-03 0. -1.
         23    2    1    2    0    0  0.00000000000E+00 -0.35527136788E-14 -0.17763568394E-14  0.91188000000E+02  0.91188000000E+02 0.  0.
    9900012    2    3    3    0    0  0.26383049339E+02  0.20479148344E+02  0.15502500616E+02  0.54366968854E+02  0.39999737095E+02 0.  0.
         12    1    3    3    0    0 -0.26383049339E+02 -0.20479148344E+02 -0.15502500616E+02  0.36821031146E+02  0.00000000000E+00 0. -1.
         11    1    4    4    0    0  0.18905846906E+01  0.10780997501E+02  0.95763015001E+01  0.14543375408E+02  0.51100000000E-03 0. -1.
        -11    1    4    4    0    0  0.10779254490E+01  0.10202181553E+02  0.11842244664E+02  0.15667967024E+02  0.51100000000E-03 0.  1.
         12    1    4    4    0    0  0.23414539200E+02 -0.50403071080E+00 -0.59160455481E+01  0.24155626422E+02  0.00000000000E+00 0. -1.
</event>
<event>
 8    1  0.1261983E-006  0.9118800E+02  0.7816164E-02  0.1184000E+00
        -11   -1    0    0    0    0  0.00000000000E+00  0.00000000000E+00  0.45593999997E+02  0.45594000000E+02  0.51100000000E-03 0. -1.
         11   -1    0    0    0    0 -0.00000000000E+00 -0.00000000000E+00 -0.45593999997E+02  0.45594000000E+02  0.51100000000E-03 0.  1.
         23    2    1    2    0    0 -0.35527136788E-14 -0.35527136788E-14  0.35527136788E-14  0.91188000000E+02  0.91188000000E+02 0.  0.
    9900012    2    3    3    0    0 -0.16490100351E+02 -0.18279680640E+02  0.27380823287E+02  0.54367087222E+02  0.40000006941E+02 0.  0.
        -12    1    3    3    0    0  0.16490100351E+02  0.18279680640E+02 -0.27380823287E+02  0.36820912778E+02  0.00000000000E+00 0.  1.
         11    1    4    4    0    0  0.47682345170E+01  0.15151347794E+01  0.59181587539E+01  0.77495998030E+01  0.51100000000E-03 0. -1.
        -11    1    4    4    0    0  0.61066628524E+01 -0.33341440076E+01 -0.17062955762E+01  0.71637484818E+01  0.51100000000E-03 0.  1.
         12    1    4    4    0    0 -0.27364997721E+02 -0.16460671412E+02  0.23168960110E+02  0.39453738937E+02  0.00000000000E+00 0. -1.
</event>
<event>
 8    1  0.1261983E-006  0.9118800E+02  0.7816164E-02  0.1184000E+00
        -11   -1    0    0    0    0  0.00000000000E+00  0.00000000000E+00  0.45593999997E+02  0.45594000000E+02  0.51100000000E-03 0.  1.
         11   -1    0    0    0    0 -0.00000000000E+00 -0.00000000000E+00 -0.45593999997E+02  0.45594000000E+02  0.51100000000E-03 0. -1.
         23    2    1    2    0    0  0.00000000000E+00  0.00000000000E+00  0.00000000000E+00  0.91188000000E+02  0.91188000000E+02 0.  0.
    9900012    2    3    3    0    0 -0.12079877899E+02 -0.11153195964E+02 -0.32946359006E+02  0.54367084721E+02  0.40000001238E+02 0.  0.
        -12    1    3    3    0    0  0.12079877899E+02  0.11153195964E+02  0.32946359006E+02  0.36820915279E+02  0.00000000000E+00 0.  1.
         11    1    4    4    0    0 -0.55796732508E+01 -0.92665682476E+01 -0.16323305732E+02  0.19581939407E+02  0.51100000000E-03 0. -1.
        -11    1    4    4    0    0  0.35449727109E+01 -0.14121554544E+02 -0.97775461098E+01  0.17538116845E+02  0.51100000000E-03 0.  1.
        -12    1    4    4    0    0 -0.10045177359E+02  0.12234926828E+02 -0.68455071639E+01  0.17247028469E+02  0.00000000000E+00 0.  1.
</event>
<event>
 8    1  0.1261983E-006  0.9118800E+02  0.7816164E-02  0.1184000E+00
        -11   -1    0    0    0    0  0.00000000000E+00  0.00000000000E+00  0.45593999997E+02  0.45594000000E+02  0.51100000000E-03 0. -1.
         11   -1    0    0    0    0 -0.00000000000E+00 -0.00000000000E+00 -0.45593999997E+02  0.45594000000E+02  0.51100000000E-03 0.  1.
         23    2    1    2    0    0 -0.66613381478E-15  0.00000000000E+00  0.00000000000E+00  0.91188000000E+02  0.91188000000E+02 0.  0.
    9900012    2    3    3    0    0 -0.14178563192E+01 -0.23053580962E+02 -0.28675813594E+02  0.54367079357E+02  0.39999989011E+02 0.  0.
        -12    1    3    3    0    0  0.14178563192E+01  0.23053580962E+02  0.28675813594E+02  0.36820920643E+02  0.00000000000E+00 0.  1.
         11    1    4    4    0    0 -0.13447787805E+02 -0.11447775891E+02  0.18847169480E+01  0.17760820024E+02  0.51100000000E-03 0. -1.
        -11    1    4    4    0    0  0.70457981703E+01 -0.10894807692E+02 -0.13113419269E+02  0.18447272744E+02  0.51100000000E-03 0.  1.
         12    1    4    4    0    0  0.49841333157E+01 -0.71099737872E+00 -0.17447111273E+02  0.18158986589E+02  0.00000000000E+00 0. -1.
</event>
<event>
 8    1  0.1261983E-006  0.9118800E+02  0.7816164E-02  0.1184000E+00
        -11   -1    0    0    0    0  0.00000000000E+00  0.00000000000E+00  0.45593999997E+02  0.45594000000E+02  0.51100000000E-03 0. -1.
         11   -1    0    0    0    0 -0.00000000000E+00 -0.00000000000E+00 -0.45593999997E+02  0.45594000000E+02  0.51100000000E-03 0.  1.
         23    2    1    2    0    0 -0.26645352591E-14  0.00000000000E+00  0.00000000000E+00  0.91188000000E+02  0.91188000000E+02 0.  0.
    9900012    2    3    3    0    0 -0.56069507810E+01  0.32340636899E+02 -0.16686095224E+02  0.54367075705E+02  0.39999980686E+02 0.  0.
         12    1    3    3    0    0  0.56069507810E+01 -0.32340636899E+02  0.16686095224E+02  0.36820924295E+02  0.00000000000E+00 0. -1.
         11    1    4    4    0    0 -0.54957852420E+01  0.78408403743E+01 -0.25819218943E+01  0.99170940366E+01  0.51100000000E-03 0. -1.
        -11    1    4    4    0    0 -0.16669720040E+02  0.14357078645E+02 -0.11600472420E+02  0.24871192856E+02  0.51100000000E-03 0.  1.
         12    1    4    4    0    0  0.16558554501E+02  0.10142717879E+02 -0.25037009098E+01  0.19578788813E+02  0.00000000000E+00 0. -1.
</event>
<event>
 8    1  0.1261983E-006  0.9118800E+02  0.7816164E-02  0.1184000E+00
        -11   -1    0    0    0    0  0.00000000000E+00  0.00000000000E+00  0.45593999997E+02  0.45594000000E+02  0.51100000000E-03 0.  1.
         11   -1    0    0    0    0 -0.00000000000E+00 -0.00000000000E+00 -0.45593999997E+02  0.45594000000E+02  0.51100000000E-03 0. -1.
         23    2    1    2    0    0 -0.18873791419E-14 -0.71054273576E-14  0.35527136788E-14  0.91188000000E+02  0.91188000000E+02 0.  0.
    9900012    2    3    3    0    0  0.56103596491E+00  0.22999971516E+02  0.28748365408E+02  0.54367055353E+02  0.39999934287E+02 0.  0.
         12    1    3    3    0    0 -0.56103596491E+00 -0.22999971516E+02 -0.28748365408E+02  0.36820944647E+02  0.00000000000E+00 0. -1.
         11    1    4    4    0    0 -0.15234335900E+02  0.29619623036E+01  0.44960599117E+00  0.15526118537E+02  0.51100000000E-03 0. -1.
        -11    1    4    4    0    0  0.33609372333E+01  0.64560868896E+01  0.13007662630E+02  0.14905577626E+02  0.51100000000E-03 0.  1.
         12    1    4    4    0    0  0.12434434632E+02  0.13581922323E+02  0.15291096787E+02  0.23935359190E+02  0.00000000000E+00 0. -1.
</event>
<event>
 8    1  0.1261983E-006  0.9118800E+02  0.7816164E-02  0.1184000E+00
        -11   -1    0    0    0    0  0.00000000000E+00  0.00000000000E+00  0.45593999997E+02  0.45594000000E+02  0.51100000000E-03 0. -1.
         11   -1    0    0    0    0 -0.00000000000E+00 -0.00000000000E+00 -0.45593999997E+02  0.45594000000E+02  0.51100000000E-03 0.  1.
         23    2    1    2    0    0 -0.17763568394E-14  0.35527136788E-14  0.00000000000E+00  0.91188000000E+02  0.91188000000E+02 0.  0.
    9900012    2    3    3    0    0  0.14799359541E+02 -0.22186625899E+02 -0.25387257302E+02  0.54367078706E+02  0.39999987526E+02 0.  0.
         12    1    3    3    0    0 -0.14799359541E+02  0.22186625899E+02  0.25387257302E+02  0.36820921294E+02  0.00000000000E+00 0. -1.
         11    1    4    4    0    0 -0.53674318338E+01 -0.23316341820E+02 -0.19555931816E+02  0.30901384917E+02  0.51100000000E-03 0. -1.
        -11    1    4    4    0    0  0.22502673076E+01  0.39547518449E+01 -0.60724600715E+00  0.45904807030E+01  0.51100000000E-03 0.  1.
        -12    1    4    4    0    0  0.17916524068E+02 -0.28250359235E+01 -0.52240794792E+01  0.18875213086E+02  0.00000000000E+00 0.  1.
</event>
<event>
 8    1  0.1261983E-006  0.9118800E+02  0.7816164E-02  0.1184000E+00
        -11   -1    0    0    0    0  0.00000000000E+00  0.00000000000E+00  0.45593999997E+02  0.45594000000E+02  0.51100000000E-03 0. -1.
         11   -1    0    0    0    0 -0.00000000000E+00 -0.00000000000E+00 -0.45593999997E+02  0.45594000000E+02  0.51100000000E-03 0.  1.
         23    2    1    2    0    0 -0.88817841970E-15  0.00000000000E+00  0.00000000000E+00  0.91188000000E+02  0.91188000000E+02 0.  0.
    9900012    2    3    3    0    0  0.69187531364E+01  0.34690994146E+02 -0.10219904576E+02  0.54367072943E+02  0.39999974389E+02 0.  0.
         12    1    3    3    0    0 -0.69187531364E+01 -0.34690994146E+02  0.10219904576E+02  0.36820927057E+02  0.00000000000E+00 0. -1.
         11    1    4    4    0    0  0.71092774855E+00  0.34297849782E+01  0.70055243042E+01  0.78323824152E+01  0.51100000000E-03 0. -1.
        -11    1    4    4    0    0 -0.80369565769E+00 -0.56132102774E+01 -0.27873560314E+01  0.63184974666E+01  0.51100000000E-03 0.  1.
        -12    1    4    4    0    0  0.70115210455E+01  0.36874419445E+02 -0.14438072849E+02  0.40216193061E+02  0.00000000000E+00 0.  1.
</event>
<event>
 8    1  0.1261983E-006  0.9118800E+02  0.7816164E-02  0.1184000E+00
        -11   -1    0    0    0    0  0.00000000000E+00  0.00000000000E+00  0.45593999997E+02  0.45594000000E+02  0.51100000000E-03 0. -1.
         11   -1    0    0    0    0 -0.00000000000E+00 -0.00000000000E+00 -0.45593999997E+02  0.45594000000E+02  0.51100000000E-03 0.  1.
         23    2    1    2    0    0  0.00000000000E+00  0.00000000000E+00  0.00000000000E+00  0.91188000000E+02  0.91188000000E+02 0.  0.
    9900012    2    3    3    0    0 -0.30347071653E+02 -0.16452372631E+02  0.12812290635E+02  0.54367080479E+02  0.39999991567E+02 0.  0.
        -12    1    3    3    0    0  0.30347071653E+02  0.16452372631E+02 -0.12812290635E+02  0.36820919521E+02  0.00000000000E+00 0.  1.
         11    1    4    4    0    0 -0.14683749899E+01  0.50237047822E+01  0.37469170653E+01  0.64368565779E+01  0.51100000000E-03 0. -1.
        -11    1    4    4    0    0 -0.13662743894E+02 -0.22856043530E+02  0.16092457824E+02  0.31113284873E+02  0.51100000000E-03 0.  1.
        -12    1    4    4    0    0 -0.15215952769E+02  0.13799661166E+01 -0.70270842535E+01  0.16816939027E+02  0.00000000000E+00 0.  1.
</event>
<event>
 8    1  0.1261983E-006  0.9118800E+02  0.7816164E-02  0.1184000E+00
        -11   -1    0    0    0    0  0.00000000000E+00  0.00000000000E+00  0.45593999997E+02  0.45594000000E+02  0.51100000000E-03 0. -1.
         11   -1    0    0    0    0 -0.00000000000E+00 -0.00000000000E+00 -0.45593999997E+02  0.45594000000E+02  0.51100000000E-03 0.  1.
         23    2    1    2    0    0  0.88817841970E-15  0.77715611724E-15 -0.71054273576E-14  0.91188000000E+02  0.91188000000E+02 0.  0.
    9900012    2    3    3    0    0 -0.70333477329E+01  0.85389773582E+00  0.36132845048E+02  0.54367087288E+02  0.40000007091E+02 0.  0.
        -12    1    3    3    0    0  0.70333477329E+01 -0.85389773582E+00 -0.36132845048E+02  0.36820912712E+02  0.00000000000E+00 0.  1.
         11    1    4    4    0    0 -0.67824725619E+01 -0.11168987482E+02  0.22682864837E+02  0.26177482172E+02  0.51100000000E-03 0. -1.
        -11    1    4    4    0    0  0.10260111960E+02  0.64372869315E+01  0.33186271862E+01  0.12558735889E+02  0.51100000000E-03 0.  1.
         12    1    4    4    0    0 -0.10510987131E+02  0.55855982864E+01  0.10131353025E+02  0.15630869227E+02  0.00000000000E+00 0. -1.
</event>
<event>
 8    1  0.1261983E-006  0.9118800E+02  0.7816164E-02  0.1184000E+00
        -11   -1    0    0    0    0  0.00000000000E+00  0.00000000000E+00  0.45593999997E+02  0.45594000000E+02  0.51100000000E-03 0. -1.
         11   -1    0    0    0    0 -0.00000000000E+00 -0.00000000000E+00 -0.45593999997E+02  0.45594000000E+02  0.51100000000E-03 0.  1.
         23    2    1    2    0    0  0.00000000000E+00  0.00000000000E+00  0.00000000000E+00  0.91188000000E+02  0.91188000000E+02 0.  0.
    9900012    2    3    3    0    0 -0.29698075697E+02  0.16372932693E+02  0.14343327862E+02  0.54367086388E+02  0.40000005039E+02 0.  0.
         12    1    3    3    0    0  0.29698075697E+02 -0.16372932693E+02 -0.14343327862E+02  0.36820913612E+02  0.00000000000E+00 0. -1.
         11    1    4    4    0    0 -0.32410970750E+01  0.10720375539E+00  0.16452513060E+02  0.16769060473E+02  0.51100000000E-03 0. -1.
        -11    1    4    4    0    0  0.41398152926E+00  0.67207473913E+01 -0.57450465059E+01  0.88512928898E+01  0.51100000000E-03 0.  1.
         12    1    4    4    0    0 -0.26870960151E+02  0.95449815461E+01  0.36358613077E+01  0.28746733025E+02  0.00000000000E+00 0. -1.
</event>
<event>
 8    1  0.1261983E-006  0.9118800E+02  0.7816164E-02  0.1184000E+00
        -11   -1    0    0    0    0  0.00000000000E+00  0.00000000000E+00  0.45593999997E+02  0.45594000000E+02  0.51100000000E-03 0.  1.
         11   -1    0    0    0    0 -0.00000000000E+00 -0.00000000000E+00 -0.45593999997E+02  0.45594000000E+02  0.51100000000E-03 0. -1.
         23    2    1    2    0    0  0.00000000000E+00  0.00000000000E+00  0.00000000000E+00  0.91188000000E+02  0.91188000000E+02 0.  0.
    9900012    2    3    3    0    0 -0.20430160118E+02  0.13644486449E+01  0.30602718818E+02  0.54367087986E+02  0.40000008681E+02 0.  0.
         12    1    3    3    0    0  0.20430160118E+02 -0.13644486449E+01 -0.30602718818E+02  0.36820912014E+02  0.00000000000E+00 0. -1.
         11    1    4    4    0    0 -0.85674322076E+01 -0.65131845051E+00 -0.50674541472E-01  0.85923034470E+01  0.51100000000E-03 0. -1.
        -11    1    4    4    0    0 -0.16383709498E+02  0.40732330821E+01  0.35201147205E+02  0.39040209137E+02  0.51100000000E-03 0.  1.
         12    1    4    4    0    0  0.45209815878E+01 -0.20574659867E+01 -0.45477538454E+01  0.67345754018E+01  0.00000000000E+00 0. -1.
</event>
<event>
 8    1  0.1261983E-006  0.9118800E+02  0.7816164E-02  0.1184000E+00
        -11   -1    0    0    0    0  0.00000000000E+00  0.00000000000E+00  0.45593999997E+02  0.45594000000E+02  0.51100000000E-03 0.  1.
         11   -1    0    0    0    0 -0.00000000000E+00 -0.00000000000E+00 -0.45593999997E+02  0.45594000000E+02  0.51100000000E-03 0. -1.
         23    2    1    2    0    0  0.00000000000E+00  0.17763568394E-14  0.35527136788E-14  0.91188000000E+02  0.91188000000E+02 0.  0.
    9900012    2    3    3    0    0 -0.20337380643E+02 -0.11801058750E+02  0.28335571869E+02  0.54367100062E+02  0.40000036212E+02 0.  0.
         12    1    3    3    0    0  0.20337380643E+02  0.11801058750E+02 -0.28335571869E+02  0.36820899938E+02  0.00000000000E+00 0. -1.
         11    1    4    4    0    0 -0.66785816701E+01 -0.41759655238E+01  0.86121987006E+01  0.11670994298E+02  0.51100000000E-03 0.  1.
        -11    1    4    4    0    0  0.87520724205E+01  0.68867520866E+01  0.50160708645E+01  0.12214216845E+02  0.51100000000E-03 0. -1.
         12    1    4    4    0    0 -0.22410871394E+02 -0.14511845313E+02  0.14707302304E+02  0.30481888919E+02  0.00000000000E+00 0. -1.
</event>
<event>
 8    1  0.1261983E-006  0.9118800E+02  0.7816164E-02  0.1184000E+00
        -11   -1    0    0    0    0  0.00000000000E+00  0.00000000000E+00  0.45593999997E+02  0.45594000000E+02  0.51100000000E-03 0.  1.
         11   -1    0    0    0    0 -0.00000000000E+00 -0.00000000000E+00 -0.45593999997E+02  0.45594000000E+02  0.51100000000E-03 0. -1.
         23    2    1    2    0    0 -0.66613381478E-15  0.00000000000E+00  0.00000000000E+00  0.91188000000E+02  0.91188000000E+02 0.  0.
    9900012    2    3    3    0    0 -0.10806989108E+01 -0.26735209623E+02 -0.25295064049E+02  0.54367087342E+02  0.40000007213E+02 0.  0.
        -12    1    3    3    0    0  0.10806989108E+01  0.26735209623E+02  0.25295064049E+02  0.36820912658E+02  0.00000000000E+00 0.  1.
         11    1    4    4    0    0 -0.12356789544E+02 -0.27919568864E+02 -0.14301916361E+02  0.33715536259E+02  0.51100000000E-03 0. -1.
        -11    1    4    4    0    0  0.12823221522E+02  0.22870629235E+01 -0.43355472685E+01  0.13728169485E+02  0.51100000000E-03 0.  1.
        -12    1    4    4    0    0 -0.15471308894E+01 -0.11027036828E+01 -0.66576004198E+01  0.69233815979E+01  0.00000000000E+00 0.  1.
</event>
<event>
 8    1  0.1261983E-006  0.9118800E+02  0.7816164E-02  0.1184000E+00
        -11   -1    0    0    0    0  0.00000000000E+00  0.00000000000E+00  0.45593999997E+02  0.45594000000E+02  0.51100000000E-03 0.  1.
         11   -1    0    0    0    0 -0.00000000000E+00 -0.00000000000E+00 -0.45593999997E+02  0.45594000000E+02  0.51100000000E-03 0. -1.
         23    2    1    2    0    0  0.00000000000E+00 -0.17763568394E-14  0.00000000000E+00  0.91188000000E+02  0.91188000000E+02 0.  0.
    9900012    2    3    3    0    0  0.62819041999E+01 -0.12642318334E+02  0.34007189048E+02  0.54367089634E+02  0.40000012438E+02 0.  0.
         12    1    3    3    0    0 -0.62819041999E+01  0.12642318334E+02 -0.34007189048E+02  0.36820910366E+02  0.00000000000E+00 0. -1.
         11    1    4    4    0    0  0.59292182213E+01 -0.98343777027E+01  0.13560108184E+02  0.17769275386E+02  0.51100000000E-03 0.  1.
        -11    1    4    4    0    0 -0.52514617886E+01  0.63298554591E+01  0.23948174558E+02  0.25321137138E+02  0.51100000000E-03 0. -1.
         12    1    4    4    0    0  0.56041477673E+01 -0.91377960903E+01 -0.35010936934E+01  0.11276677110E+02  0.00000000000E+00 0. -1.
</event>
<event>
 8    1  0.1261983E-006  0.9118800E+02  0.7816164E-02  0.1184000E+00
        -11   -1    0    0    0    0  0.00000000000E+00  0.00000000000E+00  0.45593999997E+02  0.45594000000E+02  0.51100000000E-03 0.  1.
         11   -1    0    0    0    0 -0.00000000000E+00 -0.00000000000E+00 -0.45593999997E+02  0.45594000000E+02  0.51100000000E-03 0. -1.
         23    2    1    2    0    0  0.71054273576E-14 -0.17763568394E-14 -0.71054273576E-14  0.91188000000E+02  0.91188000000E+02 0.  0.
    9900012    2    3    3    0    0 -0.23766508613E+02  0.13550503864E+02  0.24643801951E+02  0.54367081200E+02  0.39999993212E+02 0.  0.
         12    1    3    3    0    0  0.23766508613E+02 -0.13550503864E+02 -0.24643801951E+02  0.36820918800E+02  0.00000000000E+00 0. -1.
         11    1    4    4    0    0  0.75415108099E+01  0.33272443742E+01 -0.49302208735E+01  0.96047914368E+01  0.51100000000E-03 0. -1.
        -11    1    4    4    0    0 -0.11549557761E+01  0.13571611640E+01  0.34905227051E+01  0.39191272352E+01  0.51100000000E-03 0.  1.
        -12    1    4    4    0    0 -0.30153063647E+02  0.88660983260E+01  0.26083500120E+02  0.40843162528E+02  0.00000000000E+00 0.  1.
</event>
<event>
 8    1  0.1261983E-006  0.9118800E+02  0.7816164E-02  0.1184000E+00
        -11   -1    0    0    0    0  0.00000000000E+00  0.00000000000E+00  0.45593999997E+02  0.45594000000E+02  0.51100000000E-03 0. -1.
         11   -1    0    0    0    0 -0.00000000000E+00 -0.00000000000E+00 -0.45593999997E+02  0.45594000000E+02  0.51100000000E-03 0.  1.
         23    2    1    2    0    0 -0.88817841970E-15  0.00000000000E+00  0.00000000000E+00  0.91188000000E+02  0.91188000000E+02 0.  0.
    9900012    2    3    3    0    0 -0.27283230672E+01  0.24719804574E+02  0.27152662788E+02  0.54367087716E+02  0.40000008067E+02 0.  0.
        -12    1    3    3    0    0  0.27283230672E+01 -0.24719804574E+02 -0.27152662788E+02  0.36820912284E+02  0.00000000000E+00 0.  1.
         11    1    4    4    0    0 -0.84152476064E+01  0.16884907073E+02  0.11305380814E+02  0.21993819922E+02  0.51100000000E-03 0. -1.
        -11    1    4    4    0    0  0.11960119122E+02  0.40933839443E+01 -0.22660027288E+01  0.12842702603E+02  0.51100000000E-03 0.  1.
        -12    1    4    4    0    0 -0.62731945828E+01  0.37415135566E+01  0.18113284702E+02  0.19530565191E+02  0.00000000000E+00 0.  1.
</event>
<event>
 8    1  0.1261983E-006  0.9118800E+02  0.7816164E-02  0.1184000E+00
        -11   -1    0    0    0    0  0.00000000000E+00  0.00000000000E+00  0.45593999997E+02  0.45594000000E+02  0.51100000000E-03 0.  1.
         11   -1    0    0    0    0 -0.00000000000E+00 -0.00000000000E+00 -0.45593999997E+02  0.45594000000E+02  0.51100000000E-03 0. -1.
         23    2    1    2    0    0 -0.71054273576E-14 -0.35527136788E-14  0.00000000000E+00  0.91188000000E+02  0.91188000000E+02 0.  0.
    9900012    2    3    3    0    0 -0.29758459631E+02 -0.12508981593E+02  0.17712683235E+02  0.54367086276E+02  0.40000004783E+02 0.  0.
         12    1    3    3    0    0  0.29758459631E+02  0.12508981593E+02 -0.17712683235E+02  0.36820913724E+02  0.00000000000E+00 0. -1.
         11    1    4    4    0    0 -0.36770377149E+01  0.56294774155E+01  0.11856531840E+02  0.13630442761E+02  0.51100000000E-03 0. -1.
        -11    1    4    4    0    0 -0.29170789399E+02 -0.88556619591E+01  0.52534920650E+01  0.30934719685E+02  0.51100000000E-03 0.  1.
         12    1    4    4    0    0  0.30893674825E+01 -0.92827970490E+01  0.60265933056E+00  0.98019238297E+01  0.00000000000E+00 0. -1.
</event>
<event>
 8    1  0.1261983E-006  0.9118800E+02  0.7816164E-02  0.1184000E+00
        -11   -1    0    0    0    0  0.00000000000E+00  0.00000000000E+00  0.45593999997E+02  0.45594000000E+02  0.51100000000E-03 0.  1.
         11   -1    0    0    0    0 -0.00000000000E+00 -0.00000000000E+00 -0.45593999997E+02  0.45594000000E+02  0.51100000000E-03 0. -1.
         23    2    1    2    0    0  0.17763568394E-14 -0.35527136788E-14  0.00000000000E+00  0.91188000000E+02  0.91188000000E+02 0.  0.
    9900012    2    3    3    0    0 -0.10893463941E+02 -0.30925578817E+02  0.16754723675E+02  0.54367085465E+02  0.40000002934E+02 0.  0.
         12    1    3    3    0    0  0.10893463941E+02  0.30925578817E+02 -0.16754723675E+02  0.36820914535E+02  0.00000000000E+00 0. -1.
         11    1    4    4    0    0 -0.87174040340E+00  0.51147763449E+01 -0.18350648131E+01  0.55034835803E+01  0.51100000000E-03 0. -1.
        -11    1    4    4    0    0 -0.82534523149E+01  0.92097805503E-01  0.14083188034E+00  0.82551675331E+01  0.51100000000E-03 0.  1.
        -12    1    4    4    0    0 -0.17682712222E+01 -0.36132452967E+02  0.18448956608E+02  0.40608434351E+02  0.00000000000E+00 0.  1.
</event>
<event>
 8    1  0.1261983E-006  0.9118800E+02  0.7816164E-02  0.1184000E+00
        -11   -1    0    0    0    0  0.00000000000E+00  0.00000000000E+00  0.45593999997E+02  0.45594000000E+02  0.51100000000E-03 0. -1.
         11   -1    0    0    0    0 -0.00000000000E+00 -0.00000000000E+00 -0.45593999997E+02  0.45594000000E+02  0.51100000000E-03 0.  1.
         23    2    1    2    0    0  0.00000000000E+00  0.00000000000E+00  0.35527136788E-14  0.91188000000E+02  0.91188000000E+02 0.  0.
    9900012    2    3    3    0    0 -0.19663904629E+02  0.17186153808E+02  0.25956619800E+02  0.54367093718E+02  0.40000021750E+02 0.  0.
        -12    1    3    3    0    0  0.19663904629E+02 -0.17186153808E+02 -0.25956619800E+02  0.36820906282E+02  0.00000000000E+00 0.  1.
         11    1    4    4    0    0 -0.53490821157E+01  0.72540997866E+01 -0.15866800999E+01  0.91516226537E+01  0.51100000000E-03 0. -1.
        -11    1    4    4    0    0 -0.17111038681E+02 -0.23857601584E+01  0.28926298788E+01  0.17517043248E+02  0.51100000000E-03 0.  1.
         12    1    4    4    0    0  0.27962161679E+01  0.12317814180E+02  0.24650670021E+02  0.27698427816E+02  0.00000000000E+00 0. -1.
</event>
<event>
 8    1  0.1261983E-006  0.9118800E+02  0.7816164E-02  0.1184000E+00
        -11   -1    0    0    0    0  0.00000000000E+00  0.00000000000E+00  0.45593999997E+02  0.45594000000E+02  0.51100000000E-03 0.  1.
         11   -1    0    0    0    0 -0.00000000000E+00 -0.00000000000E+00 -0.45593999997E+02  0.45594000000E+02  0.51100000000E-03 0. -1.
         23    2    1    2    0    0  0.00000000000E+00 -0.17763568394E-14  0.00000000000E+00  0.91188000000E+02  0.91188000000E+02 0.  0.
    9900012    2    3    3    0    0  0.34840374164E+02 -0.93458930832E+01  0.73880157298E+01  0.54367079780E+02  0.39999989974E+02 0.  0.
         12    1    3    3    0    0 -0.34840374164E+02  0.93458930832E+01 -0.73880157298E+01  0.36820920220E+02  0.00000000000E+00 0. -1.
         11    1    4    4    0    0  0.12744262508E+01  0.41559485577E+00  0.11984862280E+02  0.12059593919E+02  0.51100000000E-03 0.  1.
        -11    1    4    4    0    0  0.21149657066E+02 -0.16683877649E+02 -0.71352028892E+01  0.27867021512E+02  0.51100000000E-03 0. -1.
        -12    1    4    4    0    0  0.12416290848E+02  0.69223897100E+01  0.25383563388E+01  0.14440464349E+02  0.00000000000E+00 0.  1.
</event>
<event>
 8    1  0.1261983E-006  0.9118800E+02  0.7816164E-02  0.1184000E+00
        -11   -1    0    0    0    0  0.00000000000E+00  0.00000000000E+00  0.45593999997E+02  0.45594000000E+02  0.51100000000E-03 0.  1.
         11   -1    0    0    0    0 -0.00000000000E+00 -0.00000000000E+00 -0.45593999997E+02  0.45594000000E+02  0.51100000000E-03 0. -1.
         23    2    1    2    0    0  0.00000000000E+00  0.00000000000E+00  0.00000000000E+00  0.91188000000E+02  0.91188000000E+02 0.  0.
    9900012    2    3    3    0    0 -0.32551685172E+02  0.10045404815E+02  0.13973638496E+02  0.54367014975E+02  0.39999842237E+02 0.  0.
         12    1    3    3    0    0  0.32551685172E+02 -0.10045404815E+02 -0.13973638496E+02  0.36820985025E+02  0.00000000000E+00 0. -1.
         11    1    4    4    0    0  0.10503109157E+00  0.21258763866E+01 -0.18565607915E+01  0.28243937712E+01  0.51100000000E-03 0. -1.
        -11    1    4    4    0    0 -0.53293043443E+01  0.18846394435E+02  0.72819449712E+01  0.20895329402E+02  0.51100000000E-03 0.  1.
         12    1    4    4    0    0 -0.27327411919E+02 -0.10926866006E+02  0.85482543166E+01  0.30647291801E+02  0.00000000000E+00 0. -1.
</event>
<event>
 8    1  0.1261983E-006  0.9118800E+02  0.7816164E-02  0.1184000E+00
        -11   -1    0    0    0    0  0.00000000000E+00  0.00000000000E+00  0.45593999997E+02  0.45594000000E+02  0.51100000000E-03 0.  1.
         11   -1    0    0    0    0 -0.00000000000E+00 -0.00000000000E+00 -0.45593999997E+02  0.45594000000E+02  0.51100000000E-03 0. -1.
         23    2    1    2    0    0  0.88817841970E-15  0.35527136788E-14 -0.71054273576E-14  0.91188000000E+02  0.91188000000E+02 0.  0.
    9900012    2    3    3    0    0  0.50843507851E+01  0.26692697826E+02 -0.24848074438E+02  0.54367115391E+02  0.40000071156E+02 0.  0.
        -12    1    3    3    0    0 -0.50843507851E+01 -0.26692697826E+02  0.24848074438E+02  0.36820884609E+02  0.00000000000E+00 0.  1.
         11    1    4    4    0    0  0.49630939681E+01  0.40323250762E+01  0.40738341798E+01  0.75820889234E+01  0.51100000000E-03 0. -1.
        -11    1    4    4    0    0  0.57586221523E+01  0.27881788864E+02 -0.18967707727E+02  0.34210083543E+02  0.51100000000E-03 0.  1.
         12    1    4    4    0    0 -0.56373653353E+01 -0.52214161144E+01 -0.99542008908E+01  0.12574942924E+02  0.00000000000E+00 0. -1.
</event>
<event>
 8    1  0.1261983E-006  0.9118800E+02  0.7816164E-02  0.1184000E+00
        -11   -1    0    0    0    0  0.00000000000E+00  0.00000000000E+00  0.45593999997E+02  0.45594000000E+02  0.51100000000E-03 0.  1.
         11   -1    0    0    0    0 -0.00000000000E+00 -0.00000000000E+00 -0.45593999997E+02  0.45594000000E+02  0.51100000000E-03 0. -1.
         23    2    1    2    0    0  0.00000000000E+00  0.88817841970E-15  0.00000000000E+00  0.91188000000E+02  0.91188000000E+02 0.  0.
    9900012    2    3    3    0    0 -0.18741506549E+02 -0.31862581341E+01 -0.31533843018E+02  0.54367087951E+02  0.40000008602E+02 0.  0.
        -12    1    3    3    0    0  0.18741506549E+02  0.31862581341E+01  0.31533843018E+02  0.36820912049E+02  0.00000000000E+00 0.  1.
         11    1    4    4    0    0 -0.10459266379E+02  0.66050560855E+01 -0.33184051745E+02  0.35414747063E+02  0.51100000000E-03 0. -1.
        -11    1    4    4    0    0  0.27860704412E+01 -0.18022892801E+01  0.38970181199E+01  0.51183186341E+01  0.51100000000E-03 0.  1.
         12    1    4    4    0    0 -0.11068310611E+02 -0.79890249396E+01 -0.22468093938E+01  0.13834022254E+02  0.00000000000E+00 0. -1.
</event>
<event>
 8    1  0.1261983E-006  0.9118800E+02  0.7816164E-02  0.1184000E+00
        -11   -1    0    0    0    0  0.00000000000E+00  0.00000000000E+00  0.45593999997E+02  0.45594000000E+02  0.51100000000E-03 0.  1.
         11   -1    0    0    0    0 -0.00000000000E+00 -0.00000000000E+00 -0.45593999997E+02  0.45594000000E+02  0.51100000000E-03 0. -1.
         23    2    1    2    0    0  0.00000000000E+00  0.35527136788E-14  0.00000000000E+00  0.91188000000E+02  0.91188000000E+02 0.  0.
    9900012    2    3    3    0    0 -0.17788335929E+02 -0.25999255231E+02 -0.19062890120E+02  0.54367082746E+02  0.39999996736E+02 0.  0.
        -12    1    3    3    0    0  0.17788335929E+02  0.25999255231E+02  0.19062890120E+02  0.36820917254E+02  0.00000000000E+00 0.  1.
         11    1    4    4    0    0  0.11012193051E+01 -0.17347296590E+01 -0.15126174549E+02  0.15265095077E+02  0.51100000000E-03 0. -1.
        -11    1    4    4    0    0 -0.10488278577E+02 -0.68511233725E+01  0.93589281563E+01  0.15637500295E+02  0.51100000000E-03 0.  1.
         12    1    4    4    0    0 -0.84012766572E+01 -0.17413402199E+02 -0.13295643728E+02  0.23464487375E+02  0.00000000000E+00 0. -1.
</event>
<event>
 8    1  0.1261983E-006  0.9118800E+02  0.7816164E-02  0.1184000E+00
        -11   -1    0    0    0    0  0.00000000000E+00  0.00000000000E+00  0.45593999997E+02  0.45594000000E+02  0.51100000000E-03 0.  1.
         11   -1    0    0    0    0 -0.00000000000E+00 -0.00000000000E+00 -0.45593999997E+02  0.45594000000E+02  0.51100000000E-03 0. -1.
         23    2    1    2    0    0 -0.88817841970E-15  0.00000000000E+00  0.44408920985E-15  0.91188000000E+02  0.91188000000E+02 0.  0.
    9900012    2    3    3    0    0 -0.56712591521E+01 -0.36335574049E+02 -0.18284799156E+01  0.54367075777E+02  0.39999980848E+02 0.  0.
        -12    1    3    3    0    0  0.56712591521E+01  0.36335574049E+02  0.18284799156E+01  0.36820924223E+02  0.00000000000E+00 0.  1.
         11    1    4    4    0    0 -0.45518562753E+01  0.53813739919E+01  0.10299565468E+00  0.70490559621E+01  0.51100000000E-03 0.  1.
        -11    1    4    4    0    0  0.74563662604E+01 -0.15299365532E+02 -0.81274597127E+01  0.18860635862E+02  0.51100000000E-03 0. -1.
         12    1    4    4    0    0 -0.85757691373E+01 -0.26417582509E+02  0.61959841424E+01  0.28457383953E+02  0.00000000000E+00 0. -1.
</event>
<event>
 8    1  0.1261983E-006  0.9118800E+02  0.7816164E-02  0.1184000E+00
        -11   -1    0    0    0    0  0.00000000000E+00  0.00000000000E+00  0.45593999997E+02  0.45594000000E+02  0.51100000000E-03 0.  1.
         11   -1    0    0    0    0 -0.00000000000E+00 -0.00000000000E+00 -0.45593999997E+02  0.45594000000E+02  0.51100000000E-03 0. -1.
         23    2    1    2    0    0  0.00000000000E+00  0.00000000000E+00  0.17763568394E-14  0.91188000000E+02  0.91188000000E+02 0.  0.
    9900012    2    3    3    0    0  0.28244718890E+02 -0.20892632828E+02 -0.11023548475E+02  0.54367015865E+02  0.39999844267E+02 0.  0.
        -12    1    3    3    0    0 -0.28244718890E+02  0.20892632828E+02  0.11023548475E+02  0.36820984135E+02  0.00000000000E+00 0.  1.
         11    1    4    4    0    0  0.89966440388E+01 -0.81916614594E+01 -0.16102058327E+02  0.20182150630E+02  0.51100000000E-03 0. -1.
        -11    1    4    4    0    0  0.22578797040E+02 -0.10819057398E+02 -0.30294739943E+01  0.25219670729E+02  0.51100000000E-03 0.  1.
        -12    1    4    4    0    0 -0.33307221878E+01 -0.18819139708E+01  0.81079838460E+01  0.89651945061E+01  0.00000000000E+00 0.  1.
</event>
<event>
 8    1  0.1261983E-006  0.9118800E+02  0.7816164E-02  0.1184000E+00
        -11   -1    0    0    0    0  0.00000000000E+00  0.00000000000E+00  0.45593999997E+02  0.45594000000E+02  0.51100000000E-03 0.  1.
         11   -1    0    0    0    0 -0.00000000000E+00 -0.00000000000E+00 -0.45593999997E+02  0.45594000000E+02  0.51100000000E-03 0. -1.
         23    2    1    2    0    0  0.88817841970E-15 -0.11102230246E-14  0.00000000000E+00  0.91188000000E+02  0.91188000000E+02 0.  0.
    9900012    2    3    3    0    0 -0.75199826467E+01 -0.16456292934E+01  0.36007232148E+02  0.54367095588E+02  0.40000026011E+02 0.  0.
         12    1    3    3    0    0  0.75199826467E+01  0.16456292934E+01 -0.36007232148E+02  0.36820904412E+02  0.00000000000E+00 0. -1.
         11    1    4    4    0    0 -0.84400455057E+01 -0.17747168675E+01  0.14665786718E+02  0.17013797001E+02  0.51100000000E-03 0. -1.
        -11    1    4    4    0    0  0.19438659968E+01 -0.12978218697E+02  0.20290175180E+02  0.24164105294E+02  0.51100000000E-03 0.  1.
        -12    1    4    4    0    0 -0.10238031377E+01  0.13107306272E+02  0.10512702508E+01  0.13189193292E+02  0.00000000000E+00 0.  1.
</event>
<event>
 8    1  0.1261983E-006  0.9118800E+02  0.7816164E-02  0.1184000E+00
        -11   -1    0    0    0    0  0.00000000000E+00  0.00000000000E+00  0.45593999997E+02  0.45594000000E+02  0.51100000000E-03 0.  1.
         11   -1    0    0    0    0 -0.00000000000E+00 -0.00000000000E+00 -0.45593999997E+02  0.45594000000E+02  0.51100000000E-03 0. -1.
         23    2    1    2    0    0  0.00000000000E+00  0.00000000000E+00  0.00000000000E+00  0.91188000000E+02  0.91188000000E+02 0.  0.
    9900012    2    3    3    0    0  0.11672288791E+02  0.11828519759E+02  0.32857627378E+02  0.54367083632E+02  0.39999998755E+02 0.  0.
         12    1    3    3    0    0 -0.11672288791E+02 -0.11828519759E+02 -0.32857627378E+02  0.36820916368E+02  0.00000000000E+00 0. -1.
         11    1    4    4    0    0  0.68255732659E+01 -0.26469756013E+01  0.23543485303E+02  0.24655438157E+02  0.51100000000E-03 0. -1.
        -11    1    4    4    0    0  0.13047010822E+02  0.13611708223E+02  0.10168244772E+02  0.21421864862E+02  0.51100000000E-03 0.  1.
         12    1    4    4    0    0 -0.82002952976E+01  0.86378713706E+00 -0.85410269767E+00  0.82897806126E+01  0.00000000000E+00 0. -1.
</event>
<event>
 8    1  0.1261983E-006  0.9118800E+02  0.7816164E-02  0.1184000E+00
        -11   -1    0    0    0    0  0.00000000000E+00  0.00000000000E+00  0.45593999997E+02  0.45594000000E+02  0.51100000000E-03 0. -1.
         11   -1    0    0    0    0 -0.00000000000E+00 -0.00000000000E+00 -0.45593999997E+02  0.45594000000E+02  0.51100000000E-03 0.  1.
         23    2    1    2    0    0  0.00000000000E+00  0.00000000000E+00 -0.88817841970E-15  0.91188000000E+02  0.91188000000E+02 0.  0.
    9900012    2    3    3    0    0 -0.36587792489E+02  0.30942368189E+01  0.27456420334E+01  0.54367090032E+02  0.40000013346E+02 0.  0.
        -12    1    3    3    0    0  0.36587792489E+02 -0.30942368189E+01 -0.27456420334E+01  0.36820909968E+02  0.00000000000E+00 0.  1.
         11    1    4    4    0    0 -0.66337254290E+01  0.71054621399E+01  0.36707417275E+01  0.10390777179E+02  0.51100000000E-03 0. -1.
        -11    1    4    4    0    0  0.15854911268E+01  0.42026005215E+00 -0.10571639521E+02  0.10698128951E+02  0.51100000000E-03 0.  1.
         12    1    4    4    0    0 -0.31539558187E+02 -0.44314853731E+01  0.96465398267E+01  0.33278183903E+02  0.00000000000E+00 0. -1.
</event>
<event>
 8    1  0.1261983E-006  0.9118800E+02  0.7816164E-02  0.1184000E+00
        -11   -1    0    0    0    0  0.00000000000E+00  0.00000000000E+00  0.45593999997E+02  0.45594000000E+02  0.51100000000E-03 0.  1.
         11   -1    0    0    0    0 -0.00000000000E+00 -0.00000000000E+00 -0.45593999997E+02  0.45594000000E+02  0.51100000000E-03 0. -1.
         23    2    1    2    0    0  0.17763568394E-14  0.00000000000E+00  0.35527136788E-14  0.91188000000E+02  0.91188000000E+02 0.  0.
    9900012    2    3    3    0    0  0.23120804451E+01 -0.27388897318E+02  0.24500669802E+02  0.54367078868E+02  0.39999987895E+02 0.  0.
         12    1    3    3    0    0 -0.23120804451E+01  0.27388897318E+02 -0.24500669802E+02  0.36820921132E+02  0.00000000000E+00 0. -1.
         11    1    4    4    0    0  0.99050833120E+01 -0.26751409566E+02  0.22283501892E+01  0.28613181123E+02  0.51100000000E-03 0. -1.
        -11    1    4    4    0    0  0.25758775804E+01  0.40444931849E+00  0.59298533199E+01  0.64777994116E+01  0.51100000000E-03 0.  1.
         12    1    4    4    0    0 -0.10168880447E+02 -0.10419370708E+01  0.16342466293E+02  0.19276098333E+02  0.00000000000E+00 0. -1.
</event>
<event>
 8    1  0.1261983E-006  0.9118800E+02  0.7816164E-02  0.1184000E+00
        -11   -1    0    0    0    0  0.00000000000E+00  0.00000000000E+00  0.45593999997E+02  0.45594000000E+02  0.51100000000E-03 0.  1.
         11   -1    0    0    0    0 -0.00000000000E+00 -0.00000000000E+00 -0.45593999997E+02  0.45594000000E+02  0.51100000000E-03 0. -1.
         23    2    1    2    0    0  0.00000000000E+00  0.88817841970E-15  0.00000000000E+00  0.91188000000E+02  0.91188000000E+02 0.  0.
    9900012    2    3    3    0    0 -0.20094464693E+02 -0.50043455829E+01  0.30445799024E+02  0.54367113750E+02  0.40000067416E+02 0.  0.
        -12    1    3    3    0    0  0.20094464693E+02  0.50043455829E+01 -0.30445799024E+02  0.36820886250E+02  0.00000000000E+00 0.  1.
         11    1    4    4    0    0 -0.15424132603E+02 -0.10934585728E+02  0.11145708146E+02  0.21947570297E+02  0.51100000000E-03 0. -1.
        -11    1    4    4    0    0  0.17337332088E+01 -0.98235579826E+00  0.22408502855E+02  0.22496929884E+02  0.51100000000E-03 0.  1.
        -12    1    4    4    0    0 -0.64040652989E+01  0.69125959434E+01 -0.31084119767E+01  0.99226135693E+01  0.00000000000E+00 0.  1.
</event>
<event>
 8    1  0.1261983E-006  0.9118800E+02  0.7816164E-02  0.1184000E+00
        -11   -1    0    0    0    0  0.00000000000E+00  0.00000000000E+00  0.45593999997E+02  0.45594000000E+02  0.51100000000E-03 0.  1.
         11   -1    0    0    0    0 -0.00000000000E+00 -0.00000000000E+00 -0.45593999997E+02  0.45594000000E+02  0.51100000000E-03 0. -1.
         23    2    1    2    0    0 -0.33306690739E-15  0.17763568394E-14  0.00000000000E+00  0.91188000000E+02  0.91188000000E+02 0.  0.
    9900012    2    3    3    0    0 -0.79826850404E+00 -0.11004628336E+02 -0.35128916852E+02  0.54367083707E+02  0.39999998928E+02 0.  0.
        -12    1    3    3    0    0  0.79826850404E+00  0.11004628336E+02  0.35128916852E+02  0.36820916293E+02  0.00000000000E+00 0.  1.
         11    1    4    4    0    0 -0.57527587060E+01 -0.15257652176E+02 -0.93505449743E+01  0.18796884695E+02  0.51100000000E-03 0. -1.
        -11    1    4    4    0    0 -0.41840175042E+01 -0.78040760902E+01 -0.13201833162E+02  0.15896477761E+02  0.51100000000E-03 0.  1.
        -12    1    4    4    0    0  0.91385077062E+01  0.12057099930E+02 -0.12576538716E+02  0.19673721252E+02  0.00000000000E+00 0.  1.
</event>
<event>
 8    1  0.1261983E-006  0.9118800E+02  0.7816164E-02  0.1184000E+00
        -11   -1    0    0    0    0  0.00000000000E+00  0.00000000000E+00  0.45593999997E+02  0.45594000000E+02  0.51100000000E-03 0. -1.
         11   -1    0    0    0    0 -0.00000000000E+00 -0.00000000000E+00 -0.45593999997E+02  0.45594000000E+02  0.51100000000E-03 0.  1.
         23    2    1    2    0    0  0.00000000000E+00 -0.35527136788E-14 -0.35527136788E-14  0.91188000000E+02  0.91188000000E+02 0.  0.
    9900012    2    3    3    0    0  0.15816167371E+02 -0.16191559694E+02 -0.29042398278E+02  0.54367100318E+02  0.40000036796E+02 0.  0.
         12    1    3    3    0    0 -0.15816167371E+02  0.16191559694E+02  0.29042398278E+02  0.36820899682E+02  0.00000000000E+00 0. -1.
         11    1    4    4    0    0  0.15213384128E+02 -0.18346434865E+02 -0.86915041957E+01  0.25368897775E+02  0.51100000000E-03 0. -1.
        -11    1    4    4    0    0 -0.30383410164E+01 -0.74564549439E+01 -0.15850210356E+02  0.17778059654E+02  0.51100000000E-03 0.  1.
        -12    1    4    4    0    0  0.36411242599E+01  0.96113301153E+01 -0.45006837264E+01  0.11220142890E+02  0.00000000000E+00 0.  1.
</event>
<event>
 8    1  0.1261983E-006  0.9118800E+02  0.7816164E-02  0.1184000E+00
        -11   -1    0    0    0    0  0.00000000000E+00  0.00000000000E+00  0.45593999997E+02  0.45594000000E+02  0.51100000000E-03 0.  1.
         11   -1    0    0    0    0 -0.00000000000E+00 -0.00000000000E+00 -0.45593999997E+02  0.45594000000E+02  0.51100000000E-03 0. -1.
         23    2    1    2    0    0  0.00000000000E+00  0.35527136788E-14 -0.17763568394E-14  0.91188000000E+02  0.91188000000E+02 0.  0.
    9900012    2    3    3    0    0  0.16336729312E+02 -0.30025993027E+02  0.13686872511E+02  0.54367089351E+02  0.40000011794E+02 0.  0.
         12    1    3    3    0    0 -0.16336729312E+02  0.30025993027E+02 -0.13686872511E+02  0.36820910649E+02  0.00000000000E+00 0. -1.
         11    1    4    4    0    0 -0.75539437282E+01 -0.64228859145E+00 -0.30549438823E+00  0.75873531331E+01  0.51100000000E-03 0. -1.
        -11    1    4    4    0    0  0.12658995963E+02 -0.25237524074E+02 -0.16984372159E+00  0.28234936644E+02  0.51100000000E-03 0.  1.
        -12    1    4    4    0    0  0.11231677077E+02 -0.41461803620E+01  0.14162210621E+02  0.18544799574E+02  0.00000000000E+00 0.  1.
</event>
<event>
 8    1  0.1261983E-006  0.9118800E+02  0.7816164E-02  0.1184000E+00
        -11   -1    0    0    0    0  0.00000000000E+00  0.00000000000E+00  0.45593999997E+02  0.45594000000E+02  0.51100000000E-03 0.  1.
         11   -1    0    0    0    0 -0.00000000000E+00 -0.00000000000E+00 -0.45593999997E+02  0.45594000000E+02  0.51100000000E-03 0. -1.
         23    2    1    2    0    0  0.35527136788E-14  0.00000000000E+00  0.00000000000E+00  0.91188000000E+02  0.91188000000E+02 0.  0.
    9900012    2    3    3    0    0  0.24174300922E+02 -0.19554433447E+02 -0.19723268653E+02  0.54367081776E+02  0.39999994526E+02 0.  0.
        -12    1    3    3    0    0 -0.24174300922E+02  0.19554433447E+02  0.19723268653E+02  0.36820918224E+02  0.00000000000E+00 0.  1.
         11    1    4    4    0    0  0.20593704031E+02 -0.25466856593E+02 -0.15513416417E+02  0.36239860921E+02  0.51100000000E-03 0. -1.
        -11    1    4    4    0    0  0.88729303145E+01 -0.93923068936E+00 -0.14442874773E+01  0.90386400101E+01  0.51100000000E-03 0.  1.
         12    1    4    4    0    0 -0.52923334233E+01  0.68516538353E+01 -0.27655647586E+01  0.90885808450E+01  0.00000000000E+00 0. -1.
</event>
<event>
 8    1  0.1261983E-006  0.9118800E+02  0.7816164E-02  0.1184000E+00
        -11   -1    0    0    0    0  0.00000000000E+00  0.00000000000E+00  0.45593999997E+02  0.45594000000E+02  0.51100000000E-03 0.  1.
         11   -1    0    0    0    0 -0.00000000000E+00 -0.00000000000E+00 -0.45593999997E+02  0.45594000000E+02  0.51100000000E-03 0. -1.
         23    2    1    2    0    0  0.00000000000E+00  0.00000000000E+00 -0.17763568394E-14  0.91188000000E+02  0.91188000000E+02 0.  0.
    9900012    2    3    3    0    0  0.82650330520E+01  0.33102773614E+02  0.13844923475E+02  0.54366996506E+02  0.39999800133E+02 0.  0.
        -12    1    3    3    0    0 -0.82650330520E+01 -0.33102773614E+02 -0.13844923475E+02  0.36821003494E+02  0.00000000000E+00 0.  1.
         11    1    4    4    0    0 -0.66224680812E+01  0.26238357380E+02  0.17606774045E+02  0.32284779293E+02  0.51100000000E-03 0. -1.
        -11    1    4    4    0    0  0.34610156699E+01  0.94251254484E+01 -0.20537836147E+01  0.10248397269E+02  0.51100000000E-03 0.  1.
        -12    1    4    4    0    0  0.11426485463E+02 -0.25607092141E+01 -0.17080669556E+01  0.11833819943E+02  0.00000000000E+00 0.  1.
</event>
<event>
 8    1  0.1261983E-006  0.9118800E+02  0.7816164E-02  0.1184000E+00
        -11   -1    0    0    0    0  0.00000000000E+00  0.00000000000E+00  0.45593999997E+02  0.45594000000E+02  0.51100000000E-03 0.  1.
         11   -1    0    0    0    0 -0.00000000000E+00 -0.00000000000E+00 -0.45593999997E+02  0.45594000000E+02  0.51100000000E-03 0. -1.
         23    2    1    2    0    0  0.00000000000E+00  0.17763568394E-14  0.35527136788E-14  0.91188000000E+02  0.91188000000E+02 0.  0.
    9900012    2    3    3    0    0 -0.31526190762E+02  0.12602042742E+02  0.14250179385E+02  0.54367084779E+02  0.40000001371E+02 0.  0.
         12    1    3    3    0    0  0.31526190762E+02 -0.12602042742E+02 -0.14250179385E+02  0.36820915221E+02  0.00000000000E+00 0. -1.
         11    1    4    4    0    0 -0.15025761565E+02  0.24231286048E+01 -0.89508325613E+01  0.17656796613E+02  0.51100000000E-03 0. -1.
        -11    1    4    4    0    0 -0.11059198438E+02  0.14576374184E+02  0.23408891357E+02  0.29711155300E+02  0.51100000000E-03 0.  1.
         12    1    4    4    0    0 -0.54412307588E+01 -0.43974600467E+01 -0.20787941046E+00  0.69991328664E+01  0.00000000000E+00 0. -1.
</event>
<event>
 8    1  0.1261983E-006  0.9118800E+02  0.7816164E-02  0.1184000E+00
        -11   -1    0    0    0    0  0.00000000000E+00  0.00000000000E+00  0.45593999997E+02  0.45594000000E+02  0.51100000000E-03 0.  1.
         11   -1    0    0    0    0 -0.00000000000E+00 -0.00000000000E+00 -0.45593999997E+02  0.45594000000E+02  0.51100000000E-03 0. -1.
         23    2    1    2    0    0  0.88817841970E-15  0.00000000000E+00  0.00000000000E+00  0.91188000000E+02  0.91188000000E+02 0.  0.
    9900012    2    3    3    0    0  0.64626580212E+01 -0.34713896763E+02  0.10438351967E+02  0.54367085170E+02  0.40000002261E+02 0.  0.
        -12    1    3    3    0    0 -0.64626580212E+01  0.34713896763E+02 -0.10438351967E+02  0.36820914830E+02  0.00000000000E+00 0.  1.
         11    1    4    4    0    0  0.12642725225E+02 -0.38129641460E+02  0.82775331281E+01  0.41014943788E+02  0.51100000000E-03 0. -1.
        -11    1    4    4    0    0  0.15031376545E+01 -0.26346474469E+01 -0.79493449593E+00  0.31357154035E+01  0.51100000000E-03 0.  1.
        -12    1    4    4    0    0 -0.76832048580E+01  0.60503921443E+01  0.29557533349E+01  0.10216425978E+02  0.00000000000E+00 0.  1.
</event>
<event>
 8    1  0.1261983E-006  0.9118800E+02  0.7816164E-02  0.1184000E+00
        -11   -1    0    0    0    0  0.00000000000E+00  0.00000000000E+00  0.45593999997E+02  0.45594000000E+02  0.51100000000E-03 0.  1.
         11   -1    0    0    0    0 -0.00000000000E+00 -0.00000000000E+00 -0.45593999997E+02  0.45594000000E+02  0.51100000000E-03 0. -1.
         23    2    1    2    0    0 -0.35527136788E-14  0.88817841970E-15  0.00000000000E+00  0.91188000000E+02  0.91188000000E+02 0.  0.
    9900012    2    3    3    0    0  0.16406198960E+02 -0.65839445455E+01 -0.32299649810E+02  0.54367094689E+02  0.40000023962E+02 0.  0.
        -12    1    3    3    0    0 -0.16406198960E+02  0.65839445455E+01  0.32299649810E+02  0.36820905311E+02  0.00000000000E+00 0.  1.
         11    1    4    4    0    0 -0.19758818205E+01  0.35897580212E+01 -0.39708032386E+01  0.57059399085E+01  0.51100000000E-03 0.  1.
        -11    1    4    4    0    0  0.22718889095E+02 -0.12697278380E+02 -0.32847653994E+02  0.41908676586E+02  0.51100000000E-03 0. -1.
        -12    1    4    4    0    0 -0.43368083141E+01  0.25235758132E+01  0.45188074231E+01  0.67524781944E+01  0.00000000000E+00 0.  1.
</event>
<event>
 8    1  0.1261983E-006  0.9118800E+02  0.7816164E-02  0.1184000E+00
        -11   -1    0    0    0    0  0.00000000000E+00  0.00000000000E+00  0.45593999997E+02  0.45594000000E+02  0.51100000000E-03 0.  1.
         11   -1    0    0    0    0 -0.00000000000E+00 -0.00000000000E+00 -0.45593999997E+02  0.45594000000E+02  0.51100000000E-03 0. -1.
         23    2    1    2    0    0 -0.17763568394E-14  0.44408920985E-15  0.00000000000E+00  0.91188000000E+02  0.91188000000E+02 0.  0.
    9900012    2    3    3    0    0  0.62555748087E+01 -0.13022864792E+01 -0.36262270927E+02  0.54367075799E+02  0.39999980898E+02 0.  0.
        -12    1    3    3    0    0 -0.62555748087E+01  0.13022864792E+01  0.36262270927E+02  0.36820924201E+02  0.00000000000E+00 0.  1.
         11    1    4    4    0    0  0.16189182943E+02 -0.95927907839E+01 -0.30683795624E+02  0.35994535607E+02  0.51100000000E-03 0. -1.
        -11    1    4    4    0    0 -0.51858754105E+01  0.54083220474E+01  0.30673729158E+01  0.80964206911E+01  0.51100000000E-03 0.  1.
         12    1    4    4    0    0 -0.47477327235E+01  0.28821822573E+01 -0.86458482182E+01  0.10276119501E+02  0.00000000000E+00 0. -1.
</event>
<event>
 8    1  0.1261983E-006  0.9118800E+02  0.7816164E-02  0.1184000E+00
        -11   -1    0    0    0    0  0.00000000000E+00  0.00000000000E+00  0.45593999997E+02  0.45594000000E+02  0.51100000000E-03 0.  1.
         11   -1    0    0    0    0 -0.00000000000E+00 -0.00000000000E+00 -0.45593999997E+02  0.45594000000E+02  0.51100000000E-03 0. -1.
         23    2    1    2    0    0  0.35527136788E-14  0.00000000000E+00  0.35527136788E-14  0.91188000000E+02  0.91188000000E+02 0.  0.
    9900012    2    3    3    0    0  0.17572808229E+02  0.87535439390E+01  0.31150496538E+02  0.54367060915E+02  0.39999946968E+02 0.  0.
         12    1    3    3    0    0 -0.17572808229E+02 -0.87535439390E+01 -0.31150496538E+02  0.36820939085E+02  0.00000000000E+00 0. -1.
         11    1    4    4    0    0  0.13486383629E+01 -0.39656982507E+01 -0.20140233217E+01  0.46477820787E+01  0.51100000000E-03 0. -1.
        -11    1    4    4    0    0 -0.56977599073E+01  0.35663283751E+01 -0.22382973858E+01  0.70847118141E+01  0.51100000000E-03 0.  1.
        -12    1    4    4    0    0  0.21921929773E+02  0.91529138146E+01  0.35402817245E+02  0.42634567022E+02  0.00000000000E+00 0.  1.
</event>
<event>
 8    1  0.1261983E-006  0.9118800E+02  0.7816164E-02  0.1184000E+00
        -11   -1    0    0    0    0  0.00000000000E+00  0.00000000000E+00  0.45593999997E+02  0.45594000000E+02  0.51100000000E-03 0. -1.
         11   -1    0    0    0    0 -0.00000000000E+00 -0.00000000000E+00 -0.45593999997E+02  0.45594000000E+02  0.51100000000E-03 0.  1.
         23    2    1    2    0    0  0.35527136788E-14  0.00000000000E+00  0.17763568394E-14  0.91188000000E+02  0.91188000000E+02 0.  0.
    9900012    2    3    3    0    0  0.22815783610E+02  0.25285755445E+02  0.13994635388E+02  0.54367092491E+02  0.40000018952E+02 0.  0.
        -12    1    3    3    0    0 -0.22815783610E+02 -0.25285755445E+02 -0.13994635388E+02  0.36820907509E+02  0.00000000000E+00 0.  1.
         11    1    4    4    0    0 -0.36284842214E+01  0.26005866616E+01 -0.30123033268E+01  0.53854359455E+01  0.51100000000E-03 0. -1.
        -11    1    4    4    0    0  0.24720576583E+02  0.40692268301E+01  0.22317491660E+01  0.25152459486E+02  0.51100000000E-03 0.  1.
         12    1    4    4    0    0  0.17236912489E+01  0.18615941953E+02  0.14775189549E+02  0.23829197060E+02  0.00000000000E+00 0. -1.
</event>
<event>
 8    1  0.1261983E-006  0.9118800E+02  0.7816164E-02  0.1184000E+00
        -11   -1    0    0    0    0  0.00000000000E+00  0.00000000000E+00  0.45593999997E+02  0.45594000000E+02  0.51100000000E-03 0. -1.
         11   -1    0    0    0    0 -0.00000000000E+00 -0.00000000000E+00 -0.45593999997E+02  0.45594000000E+02  0.51100000000E-03 0.  1.
         23    2    1    2    0    0  0.00000000000E+00 -0.17763568394E-14  0.00000000000E+00  0.91188000000E+02  0.91188000000E+02 0.  0.
    9900012    2    3    3    0    0 -0.81949331190E+01 -0.14614510813E+02 -0.32787751564E+02  0.54367115875E+02  0.40000072261E+02 0.  0.
         12    1    3    3    0    0  0.81949331190E+01  0.14614510813E+02  0.32787751564E+02  0.36820884125E+02  0.00000000000E+00 0. -1.
         11    1    4    4    0    0 -0.11964263022E+02  0.65635000761E+01 -0.19559796612E+02  0.23849712088E+02  0.51100000000E-03 0. -1.
        -11    1    4    4    0    0 -0.57694253833E+00 -0.19887023298E+02 -0.15708514899E+02  0.25349240599E+02  0.51100000000E-03 0.  1.
         12    1    4    4    0    0  0.43462724417E+01 -0.12909875910E+01  0.24805599467E+01  0.51681631889E+01  0.00000000000E+00 0. -1.
</event>
<event>
 8    1  0.1261983E-006  0.9118800E+02  0.7816164E-02  0.1184000E+00
        -11   -1    0    0    0    0  0.00000000000E+00  0.00000000000E+00  0.45593999997E+02  0.45594000000E+02  0.51100000000E-03 0.  1.
         11   -1    0    0    0    0 -0.00000000000E+00 -0.00000000000E+00 -0.45593999997E+02  0.45594000000E+02  0.51100000000E-03 0. -1.
         23    2    1    2    0    0  0.00000000000E+00  0.17763568394E-14  0.00000000000E+00  0.91188000000E+02  0.91188000000E+02 0.  0.
    9900012    2    3    3    0    0  0.89564807542E+01  0.15417528995E+02  0.32215781242E+02  0.54367145735E+02  0.40000140331E+02 0.  0.
         12    1    3    3    0    0 -0.89564807542E+01 -0.15417528995E+02 -0.32215781242E+02  0.36820854265E+02  0.00000000000E+00 0. -1.
         11    1    4    4    0    0 -0.29617269148E+00  0.70255414997E+00 -0.25578017782E+01  0.26690168217E+01  0.51100000000E-03 0. -1.
        -11    1    4    4    0    0  0.75415655341E+01  0.12573949325E+02  0.41724857280E+02  0.44226045806E+02  0.51100000000E-03 0.  1.
        -12    1    4    4    0    0  0.17110879117E+01  0.21410255203E+01 -0.69512742603E+01  0.74720831073E+01  0.00000000000E+00 0.  1.
</event>
<event>
 8    1  0.1261983E-006  0.9118800E+02  0.7816164E-02  0.1184000E+00
        -11   -1    0    0    0    0  0.00000000000E+00  0.00000000000E+00  0.45593999997E+02  0.45594000000E+02  0.51100000000E-03 0.  1.
         11   -1    0    0    0    0 -0.00000000000E+00 -0.00000000000E+00 -0.45593999997E+02  0.45594000000E+02  0.51100000000E-03 0. -1.
         23    2    1    2    0    0 -0.35527136788E-14  0.00000000000E+00  0.00000000000E+00  0.91188000000E+02  0.91188000000E+02 0.  0.
    9900012    2    3    3    0    0 -0.20473268540E+02  0.27643412327E+02  0.13132652202E+02  0.54367088501E+02  0.40000009855E+02 0.  0.
         12    1    3    3    0    0  0.20473268540E+02 -0.27643412327E+02 -0.13132652202E+02  0.36820911499E+02  0.00000000000E+00 0. -1.
         11    1    4    4    0    0  0.53439565243E+01  0.94569025183E+01  0.13547653917E+01  0.10946518447E+02  0.51100000000E-03 0. -1.
        -11    1    4    4    0    0  0.58964216539E+01  0.32227010191E+01  0.16168351760E+01  0.69114214476E+01  0.51100000000E-03 0.  1.
         12    1    4    4    0    0 -0.31713646718E+02  0.14963808789E+02  0.10161051634E+02  0.36509148607E+02  0.00000000000E+00 0. -1.
</event>
<event>
 8    1  0.1261983E-006  0.9118800E+02  0.7816164E-02  0.1184000E+00
        -11   -1    0    0    0    0  0.00000000000E+00  0.00000000000E+00  0.45593999997E+02  0.45594000000E+02  0.51100000000E-03 0.  1.
         11   -1    0    0    0    0 -0.00000000000E+00 -0.00000000000E+00 -0.45593999997E+02  0.45594000000E+02  0.51100000000E-03 0. -1.
         23    2    1    2    0    0  0.00000000000E+00  0.11102230246E-15  0.00000000000E+00  0.91188000000E+02  0.91188000000E+02 0.  0.
    9900012    2    3    3    0    0  0.18194554696E+02  0.96774124481E+00  0.31996900518E+02  0.54367082216E+02  0.39999995528E+02 0.  0.
         12    1    3    3    0    0 -0.18194554696E+02 -0.96774124481E+00 -0.31996900518E+02  0.36820917784E+02  0.00000000000E+00 0. -1.
         11    1    4    4    0    0  0.16086639391E+02  0.46854102181E+01 -0.37262428381E+01  0.17164437706E+02  0.51100000000E-03 0. -1.
        -11    1    4    4    0    0  0.29954568963E+01 -0.29287283487E+01  0.52972986609E+01  0.67536349563E+01  0.51100000000E-03 0.  1.
         12    1    4    4    0    0 -0.88754159140E+00 -0.78894062460E+00  0.30425844695E+02  0.30449009554E+02  0.00000000000E+00 0. -1.
</event>
<event>
 8    1  0.1261983E-006  0.9118800E+02  0.7816164E-02  0.1184000E+00
        -11   -1    0    0    0    0  0.00000000000E+00  0.00000000000E+00  0.45593999997E+02  0.45594000000E+02  0.51100000000E-03 0.  1.
         11   -1    0    0    0    0 -0.00000000000E+00 -0.00000000000E+00 -0.45593999997E+02  0.45594000000E+02  0.51100000000E-03 0. -1.
         23    2    1    2    0    0  0.00000000000E+00  0.00000000000E+00 -0.17763568394E-14  0.91188000000E+02  0.91188000000E+02 0.  0.
    9900012    2    3    3    0    0 -0.17188721136E+02 -0.31428153954E+02 -0.85204536632E+01  0.54367093902E+02  0.40000022168E+02 0.  0.
        -12    1    3    3    0    0  0.17188721136E+02  0.31428153954E+02  0.85204536632E+01  0.36820906098E+02  0.00000000000E+00 0.  1.
         11    1    4    4    0    0 -0.36350982329E+01 -0.24973827929E+01 -0.39524212126E+01  0.59222034480E+01  0.51100000000E-03 0. -1.
        -11    1    4    4    0    0 -0.30523265111E+01 -0.20549659950E+01  0.13771996046E+02  0.14255085328E+02  0.51100000000E-03 0.  1.
        -12    1    4    4    0    0 -0.10501296392E+02 -0.26875805167E+02 -0.18340028497E+02  0.34189805125E+02  0.00000000000E+00 0.  1.
</event>
<event>
 8    1  0.1261983E-006  0.9118800E+02  0.7816164E-02  0.1184000E+00
        -11   -1    0    0    0    0  0.00000000000E+00  0.00000000000E+00  0.45593999997E+02  0.45594000000E+02  0.51100000000E-03 0.  1.
         11   -1    0    0    0    0 -0.00000000000E+00 -0.00000000000E+00 -0.45593999997E+02  0.45594000000E+02  0.51100000000E-03 0. -1.
         23    2    1    2    0    0 -0.44408920985E-15  0.17763568394E-14  0.00000000000E+00  0.91188000000E+02  0.91188000000E+02 0.  0.
    9900012    2    3    3    0    0 -0.39821059460E+01  0.94944260801E+01 -0.35352198595E+02  0.54367092354E+02  0.40000018640E+02 0.  0.
        -12    1    3    3    0    0  0.39821059460E+01 -0.94944260801E+01  0.35352198595E+02  0.36820907646E+02  0.00000000000E+00 0.  1.
         11    1    4    4    0    0 -0.14653575589E+01  0.12548662725E+02 -0.53950113980E+01  0.13737625603E+02  0.51100000000E-03 0. -1.
        -11    1    4    4    0    0 -0.59487666323E+01  0.11104962795E+02 -0.11029234321E+02  0.16743716228E+02  0.51100000000E-03 0.  1.
        -12    1    4    4    0    0  0.34320182453E+01 -0.14159199440E+02 -0.18927952876E+02  0.23885750524E+02  0.00000000000E+00 0.  1.
</event>
<event>
 8    1  0.1261983E-006  0.9118800E+02  0.7816164E-02  0.1184000E+00
        -11   -1    0    0    0    0  0.00000000000E+00  0.00000000000E+00  0.45593999997E+02  0.45594000000E+02  0.51100000000E-03 0.  1.
         11   -1    0    0    0    0 -0.00000000000E+00 -0.00000000000E+00 -0.45593999997E+02  0.45594000000E+02  0.51100000000E-03 0. -1.
         23    2    1    2    0    0  0.00000000000E+00 -0.88817841970E-15  0.35527136788E-14  0.91188000000E+02  0.91188000000E+02 0.  0.
    9900012    2    3    3    0    0 -0.30419209685E+02 -0.47861770535E+01  0.20187744687E+02  0.54367070569E+02  0.39999968975E+02 0.  0.
         12    1    3    3    0    0  0.30419209685E+02  0.47861770535E+01 -0.20187744687E+02  0.36820929431E+02  0.00000000000E+00 0. -1.
         11    1    4    4    0    0 -0.10659706288E+02  0.14747194396E+02 -0.19602413739E+01  0.18301683726E+02  0.51100000000E-03 0. -1.
        -11    1    4    4    0    0 -0.95585418648E+00 -0.30939180829E+01  0.42261489309E+01  0.53241263487E+01  0.51100000000E-03 0.  1.
        -12    1    4    4    0    0 -0.18803649210E+02 -0.16439453367E+02  0.17921837130E+02  0.30741260494E+02  0.00000000000E+00 0.  1.
</event>
<event>
 8    1  0.1261983E-006  0.9118800E+02  0.7816164E-02  0.1184000E+00
        -11   -1    0    0    0    0  0.00000000000E+00  0.00000000000E+00  0.45593999997E+02  0.45594000000E+02  0.51100000000E-03 0. -1.
         11   -1    0    0    0    0 -0.00000000000E+00 -0.00000000000E+00 -0.45593999997E+02  0.45594000000E+02  0.51100000000E-03 0.  1.
         23    2    1    2    0    0  0.00000000000E+00  0.00000000000E+00 -0.17763568394E-14  0.91188000000E+02  0.91188000000E+02 0.  0.
    9900012    2    3    3    0    0 -0.33503537321E+02  0.11451981972E+02  0.10106616449E+02  0.54367101041E+02  0.40000038443E+02 0.  0.
        -12    1    3    3    0    0  0.33503537321E+02 -0.11451981972E+02 -0.10106616449E+02  0.36820898959E+02  0.00000000000E+00 0.  1.
         11    1    4    4    0    0 -0.32257981342E+02  0.15754004709E+02  0.18975290105E+02  0.40605758945E+02  0.51100000000E-03 0. -1.
        -11    1    4    4    0    0 -0.42739182740E+01  0.10226516331E+01 -0.38448808834E+01  0.58391183448E+01  0.51100000000E-03 0.  1.
         12    1    4    4    0    0  0.30283622949E+01 -0.53246743703E+01 -0.50237927734E+01  0.79222237515E+01  0.00000000000E+00 0. -1.
</event>
<event>
 8    1  0.1261983E-006  0.9118800E+02  0.7816164E-02  0.1184000E+00
        -11   -1    0    0    0    0  0.00000000000E+00  0.00000000000E+00  0.45593999997E+02  0.45594000000E+02  0.51100000000E-03 0. -1.
         11   -1    0    0    0    0 -0.00000000000E+00 -0.00000000000E+00 -0.45593999997E+02  0.45594000000E+02  0.51100000000E-03 0.  1.
         23    2    1    2    0    0  0.00000000000E+00  0.66613381478E-15  0.00000000000E+00  0.91188000000E+02  0.91188000000E+02 0.  0.
    9900012    2    3    3    0    0  0.29087199325E+02  0.33081967566E+00 -0.22574584562E+02  0.54366994115E+02  0.39999794683E+02 0.  0.
         12    1    3    3    0    0 -0.29087199325E+02 -0.33081967566E+00  0.22574584562E+02  0.36821005885E+02  0.00000000000E+00 0. -1.
         11    1    4    4    0    0 -0.13613342687E+01 -0.28526583392E+01 -0.11989469068E+02  0.12399123332E+02  0.51100000000E-03 0. -1.
        -11    1    4    4    0    0  0.12087323337E+02  0.92517200505E+01 -0.15799659314E+02  0.21939164616E+02  0.51100000000E-03 0.  1.
         12    1    4    4    0    0  0.18361210256E+02 -0.60682420356E+01  0.52145438199E+01  0.20028706167E+02  0.00000000000E+00 0. -1.
</event>
<event>
 8    1  0.1261983E-006  0.9118800E+02  0.7816164E-02  0.1184000E+00
        -11   -1    0    0    0    0  0.00000000000E+00  0.00000000000E+00  0.45593999997E+02  0.45594000000E+02  0.51100000000E-03 0.  1.
         11   -1    0    0    0    0 -0.00000000000E+00 -0.00000000000E+00 -0.45593999997E+02  0.45594000000E+02  0.51100000000E-03 0. -1.
         23    2    1    2    0    0  0.00000000000E+00  0.00000000000E+00  0.35527136788E-14  0.91188000000E+02  0.91188000000E+02 0.  0.
    9900012    2    3    3    0    0  0.16885268395E+02 -0.11987267869E+02  0.30446235037E+02  0.54367080571E+02  0.39999991777E+02 0.  0.
         12    1    3    3    0    0 -0.16885268395E+02  0.11987267869E+02 -0.30446235037E+02  0.36820919429E+02  0.00000000000E+00 0. -1.
         11    1    4    4    0    0  0.77052152610E+00  0.10689731099E+02  0.29584162597E+01  0.11118285903E+02  0.51100000000E-03 0. -1.
        -11    1    4    4    0    0 -0.32365117713E+01 -0.21451141503E+01  0.35398153144E-01  0.38830112611E+01  0.51100000000E-03 0.  1.
        -12    1    4    4    0    0  0.19351258640E+02 -0.20531884818E+02  0.27452420624E+02  0.39365783407E+02  0.00000000000E+00 0.  1.
</event>
<event>
 8    1  0.1261983E-006  0.9118800E+02  0.7816164E-02  0.1184000E+00
        -11   -1    0    0    0    0  0.00000000000E+00  0.00000000000E+00  0.45593999997E+02  0.45594000000E+02  0.51100000000E-03 0.  1.
         11   -1    0    0    0    0 -0.00000000000E+00 -0.00000000000E+00 -0.45593999997E+02  0.45594000000E+02  0.51100000000E-03 0. -1.
         23    2    1    2    0    0  0.17763568394E-14  0.00000000000E+00  0.00000000000E+00  0.91188000000E+02  0.91188000000E+02 0.  0.
    9900012    2    3    3    0    0 -0.14947015167E+02 -0.32816782773E+02 -0.74448517053E+01  0.54367077811E+02  0.39999985485E+02 0.  0.
         12    1    3    3    0    0  0.14947015167E+02  0.32816782773E+02  0.74448517053E+01  0.36820922189E+02  0.00000000000E+00 0. -1.
         11    1    4    4    0    0  0.16315998252E+01 -0.36046719837E+01 -0.12347274306E+02  0.12965761109E+02  0.51100000000E-03 0. -1.
        -11    1    4    4    0    0  0.42066931281E+01 -0.14053648975E+02  0.55049714822E+01  0.15668631972E+02  0.51100000000E-03 0.  1.
        -12    1    4    4    0    0 -0.20785308121E+02 -0.15158461813E+02 -0.60254888160E+00  0.25732684729E+02  0.00000000000E+00 0.  1.
</event>
<event>
 8    1  0.1261983E-006  0.9118800E+02  0.7816164E-02  0.1184000E+00
        -11   -1    0    0    0    0  0.00000000000E+00  0.00000000000E+00  0.45593999997E+02  0.45594000000E+02  0.51100000000E-03 0.  1.
         11   -1    0    0    0    0 -0.00000000000E+00 -0.00000000000E+00 -0.45593999997E+02  0.45594000000E+02  0.51100000000E-03 0. -1.
         23    2    1    2    0    0 -0.35527136788E-14  0.88817841970E-15  0.00000000000E+00  0.91188000000E+02  0.91188000000E+02 0.  0.
    9900012    2    3    3    0    0  0.22754486098E+02  0.79084829705E+01  0.27847266521E+02  0.54367068546E+02  0.39999964363E+02 0.  0.
         12    1    3    3    0    0 -0.22754486098E+02 -0.79084829705E+01 -0.27847266521E+02  0.36820931454E+02  0.00000000000E+00 0. -1.
         11    1    4    4    0    0  0.28108846497E+01  0.80688818827E+01 -0.14480436955E+01  0.86663001423E+01  0.51100000000E-03 0. -1.
        -11    1    4    4    0    0 -0.16408863205E+01 -0.78160892341E+01  0.18962558157E+02  0.20575771455E+02  0.51100000000E-03 0.  1.
        -12    1    4    4    0    0  0.21584487768E+02  0.76556903219E+01  0.10332752060E+02  0.25124996948E+02  0.00000000000E+00 0.  1.
</event>
<event>
 8    1  0.1261983E-006  0.9118800E+02  0.7816164E-02  0.1184000E+00
        -11   -1    0    0    0    0  0.00000000000E+00  0.00000000000E+00  0.45593999997E+02  0.45594000000E+02  0.51100000000E-03 0. -1.
         11   -1    0    0    0    0 -0.00000000000E+00 -0.00000000000E+00 -0.45593999997E+02  0.45594000000E+02  0.51100000000E-03 0.  1.
         23    2    1    2    0    0  0.00000000000E+00 -0.88817841970E-15  0.00000000000E+00  0.91188000000E+02  0.91188000000E+02 0.  0.
    9900012    2    3    3    0    0  0.45540270569E+01  0.74482558275E+01  0.35770996853E+02  0.54367083483E+02  0.39999998417E+02 0.  0.
        -12    1    3    3    0    0 -0.45540270569E+01 -0.74482558275E+01 -0.35770996853E+02  0.36820916517E+02  0.00000000000E+00 0.  1.
         11    1    4    4    0    0  0.99262857721E+01  0.16095071269E+02  0.31731125774E+02  0.36938419180E+02  0.51100000000E-03 0. -1.
        -11    1    4    4    0    0 -0.52606154585E+00 -0.59450155725E+01  0.84471244877E+01  0.10342816990E+02  0.51100000000E-03 0.  1.
         12    1    4    4    0    0 -0.48461971694E+01 -0.27017998687E+01 -0.44072534092E+01  0.70858473134E+01  0.00000000000E+00 0. -1.
</event>
<event>
 8    1  0.1261983E-006  0.9118800E+02  0.7816164E-02  0.1184000E+00
        -11   -1    0    0    0    0  0.00000000000E+00  0.00000000000E+00  0.45593999997E+02  0.45594000000E+02  0.51100000000E-03 0.  1.
         11   -1    0    0    0    0 -0.00000000000E+00 -0.00000000000E+00 -0.45593999997E+02  0.45594000000E+02  0.51100000000E-03 0. -1.
         23    2    1    2    0    0  0.17763568394E-14  0.00000000000E+00  0.00000000000E+00  0.91188000000E+02  0.91188000000E+02 0.  0.
    9900012    2    3    3    0    0  0.14796547235E+02 -0.30275346092E+02  0.14840696098E+02  0.54367073182E+02  0.39999974933E+02 0.  0.
        -12    1    3    3    0    0 -0.14796547235E+02  0.30275346092E+02 -0.14840696098E+02  0.36820926818E+02  0.00000000000E+00 0.  1.
         11    1    4    4    0    0  0.11985718099E+02 -0.21302860942E+02  0.24410137276E+02  0.34544523803E+02  0.51100000000E-03 0.  1.
        -11    1    4    4    0    0  0.34324380308E+01 -0.80156477786E+00 -0.10958231209E+02  0.11511167118E+02  0.51100000000E-03 0. -1.
         12    1    4    4    0    0 -0.62160889465E+00 -0.81709203715E+01  0.13887900308E+01  0.83113822608E+01  0.00000000000E+00 0. -1.
</event>
<event>
 8    1  0.1261983E-006  0.9118800E+02  0.7816164E-02  0.1184000E+00
        -11   -1    0    0    0    0  0.00000000000E+00  0.00000000000E+00  0.45593999997E+02  0.45594000000E+02  0.51100000000E-03 0.  1.
         11   -1    0    0    0    0 -0.00000000000E+00 -0.00000000000E+00 -0.45593999997E+02  0.45594000000E+02  0.51100000000E-03 0. -1.
         23    2    1    2    0    0  0.17763568394E-14 -0.35527136788E-14  0.00000000000E+00  0.91188000000E+02  0.91188000000E+02 0.  0.
    9900012    2    3    3    0    0  0.15237796084E+02  0.24083907859E+02  0.23314259390E+02  0.54367085588E+02  0.40000003214E+02 0.  0.
         12    1    3    3    0    0 -0.15237796084E+02 -0.24083907859E+02 -0.23314259390E+02  0.36820914412E+02  0.00000000000E+00 0. -1.
         11    1    4    4    0    0  0.17608719399E+02  0.75102337677E+01  0.11943270393E+01  0.19180641998E+02  0.51100000000E-03 0. -1.
        -11    1    4    4    0    0  0.51604903736E+00  0.21460970510E+02  0.19211784331E+02  0.28808544206E+02  0.51100000000E-03 0.  1.
        -12    1    4    4    0    0 -0.28869723529E+01 -0.48872964182E+01  0.29081480202E+01  0.63778993840E+01  0.00000000000E+00 0.  1.
</event>
<event>
 8    1  0.1261983E-006  0.9118800E+02  0.7816164E-02  0.1184000E+00
        -11   -1    0    0    0    0  0.00000000000E+00  0.00000000000E+00  0.45593999997E+02  0.45594000000E+02  0.51100000000E-03 0. -1.
         11   -1    0    0    0    0 -0.00000000000E+00 -0.00000000000E+00 -0.45593999997E+02  0.45594000000E+02  0.51100000000E-03 0.  1.
         23    2    1    2    0    0  0.00000000000E+00  0.35527136788E-14  0.17763568394E-14  0.91188000000E+02  0.91188000000E+02 0.  0.
    9900012    2    3    3    0    0 -0.14433794557E+02 -0.30340505767E+02  0.15063394642E+02  0.54366992767E+02  0.39999791611E+02 0.  0.
        -12    1    3    3    0    0  0.14433794557E+02  0.30340505767E+02 -0.15063394642E+02  0.36821007233E+02  0.00000000000E+00 0.  1.
         11    1    4    4    0    0 -0.16072735345E+02 -0.33319879976E+02  0.12471617020E+02  0.39039575490E+02  0.51100000000E-03 0. -1.
        -11    1    4    4    0    0 -0.22644526587E+01 -0.48577010370E+01  0.36848624722E+01  0.65040923201E+01  0.51100000000E-03 0.  1.
        -12    1    4    4    0    0  0.39033934468E+01  0.78370752460E+01 -0.10930848496E+01  0.88233249572E+01  0.00000000000E+00 0.  1.
</event>
<event>
 8    1  0.1261983E-006  0.9118800E+02  0.7816164E-02  0.1184000E+00
        -11   -1    0    0    0    0  0.00000000000E+00  0.00000000000E+00  0.45593999997E+02  0.45594000000E+02  0.51100000000E-03 0. -1.
         11   -1    0    0    0    0 -0.00000000000E+00 -0.00000000000E+00 -0.45593999997E+02  0.45594000000E+02  0.51100000000E-03 0.  1.
         23    2    1    2    0    0 -0.35527136788E-14  0.00000000000E+00 -0.17763568394E-14  0.91188000000E+02  0.91188000000E+02 0.  0.
    9900012    2    3    3    0    0 -0.15670841818E+02 -0.29854351865E+02  0.14796015992E+02  0.54367086135E+02  0.40000004463E+02 0.  0.
        -12    1    3    3    0    0  0.15670841818E+02  0.29854351865E+02 -0.14796015992E+02  0.36820913865E+02  0.00000000000E+00 0.  1.
         11    1    4    4    0    0 -0.30116025780E+00  0.30102944677E+01 -0.13300029094E+01  0.33047659952E+01  0.51100000000E-03 0. -1.
        -11    1    4    4    0    0  0.56981082425E+01 -0.20020155009E+02 -0.12982922366E+01  0.20855709221E+02  0.51100000000E-03 0.  1.
         12    1    4    4    0    0 -0.21067789803E+02 -0.12844491324E+02  0.17424311138E+02  0.30206610919E+02  0.00000000000E+00 0. -1.
</event>
<event>
 8    1  0.1261983E-006  0.9118800E+02  0.7816164E-02  0.1184000E+00
        -11   -1    0    0    0    0  0.00000000000E+00  0.00000000000E+00  0.45593999997E+02  0.45594000000E+02  0.51100000000E-03 0. -1.
         11   -1    0    0    0    0 -0.00000000000E+00 -0.00000000000E+00 -0.45593999997E+02  0.45594000000E+02  0.51100000000E-03 0.  1.
         23    2    1    2    0    0  0.00000000000E+00 -0.44408920985E-15  0.00000000000E+00  0.91188000000E+02  0.91188000000E+02 0.  0.
    9900012    2    3    3    0    0 -0.35181153524E+02  0.37854500921E+01  0.10185184082E+02  0.54367066138E+02  0.39999958874E+02 0.  0.
        -12    1    3    3    0    0  0.35181153524E+02 -0.37854500921E+01 -0.10185184082E+02  0.36820933862E+02  0.00000000000E+00 0.  1.
         11    1    4    4    0    0 -0.58243430506E+01  0.74769958149E+01  0.14890325557E+02  0.17650785644E+02  0.51100000000E-03 0. -1.
        -11    1    4    4    0    0 -0.14449249907E+02  0.88319059212E+01 -0.17794884125E+01  0.17027917205E+02  0.51100000000E-03 0.  1.
         12    1    4    4    0    0 -0.14907560567E+02 -0.12523451644E+02 -0.29256530624E+01  0.19688363289E+02  0.00000000000E+00 0. -1.
</event>
<event>
 8    1  0.1261983E-006  0.9118800E+02  0.7816164E-02  0.1184000E+00
        -11   -1    0    0    0    0  0.00000000000E+00  0.00000000000E+00  0.45593999997E+02  0.45594000000E+02  0.51100000000E-03 0.  1.
         11   -1    0    0    0    0 -0.00000000000E+00 -0.00000000000E+00 -0.45593999997E+02  0.45594000000E+02  0.51100000000E-03 0. -1.
         23    2    1    2    0    0  0.00000000000E+00  0.11102230246E-15 -0.88817841970E-15  0.91188000000E+02  0.91188000000E+02 0.  0.
    9900012    2    3    3    0    0 -0.36398555753E+02 -0.38740840113E+00 -0.55475433613E+01  0.54367079540E+02  0.39999989427E+02 0.  0.
        -12    1    3    3    0    0  0.36398555753E+02  0.38740840113E+00  0.55475433613E+01  0.36820920460E+02  0.00000000000E+00 0.  1.
         11    1    4    4    0    0 -0.14600968797E+02 -0.53316283648E+01  0.16151449451E+01  0.15627643593E+02  0.51100000000E-03 0. -1.
        -11    1    4    4    0    0  0.56824959678E+01  0.32437019609E+01 -0.90210603936E+01  0.11144141677E+02  0.51100000000E-03 0.  1.
        -12    1    4    4    0    0 -0.27480082924E+02  0.17005180027E+01  0.18583720872E+01  0.27595294270E+02  0.00000000000E+00 0.  1.
</event>
<event>
 8    1  0.1261983E-006  0.9118800E+02  0.7816164E-02  0.1184000E+00
        -11   -1    0    0    0    0  0.00000000000E+00  0.00000000000E+00  0.45593999997E+02  0.45594000000E+02  0.51100000000E-03 0. -1.
         11   -1    0    0    0    0 -0.00000000000E+00 -0.00000000000E+00 -0.45593999997E+02  0.45594000000E+02  0.51100000000E-03 0.  1.
         23    2    1    2    0    0  0.00000000000E+00  0.00000000000E+00  0.00000000000E+00  0.91188000000E+02  0.91188000000E+02 0.  0.
    9900012    2    3    3    0    0 -0.21996435527E+02  0.15149801409E+02 -0.25346034578E+02  0.54367066722E+02  0.39999960206E+02 0.  0.
         12    1    3    3    0    0  0.21996435527E+02 -0.15149801409E+02  0.25346034578E+02  0.36820933278E+02  0.00000000000E+00 0. -1.
         11    1    4    4    0    0 -0.29474135761E+02  0.16522186088E+02 -0.97985298749E+01  0.35181223685E+02  0.51100000000E-03 0. -1.
        -11    1    4    4    0    0  0.53694321795E+01  0.30194512553E+01 -0.68162003325E+01  0.91874085055E+01  0.51100000000E-03 0.  1.
        -12    1    4    4    0    0  0.21082680548E+01 -0.43918359345E+01 -0.87313043707E+01  0.99984345315E+01  0.00000000000E+00 0.  1.
</event>
<event>
 8    1  0.1261983E-006  0.9118800E+02  0.7816164E-02  0.1184000E+00
        -11   -1    0    0    0    0  0.00000000000E+00  0.00000000000E+00  0.45593999997E+02  0.45594000000E+02  0.51100000000E-03 0.  1.
         11   -1    0    0    0    0 -0.00000000000E+00 -0.00000000000E+00 -0.45593999997E+02  0.45594000000E+02  0.51100000000E-03 0. -1.
         23    2    1    2    0    0  0.71054273576E-14  0.17763568394E-14  0.00000000000E+00  0.91188000000E+02  0.91188000000E+02 0.  0.
    9900012    2    3    3    0    0  0.34022335361E+02  0.82199547524E+01 -0.11432100852E+02  0.54367083533E+02  0.39999998530E+02 0.  0.
        -12    1    3    3    0    0 -0.34022335361E+02 -0.82199547524E+01  0.11432100852E+02  0.36820916467E+02  0.00000000000E+00 0.  1.
         11    1    4    4    0    0 -0.70291786847E+01 -0.40136558954E+01  0.66545369480E+00  0.81216756589E+01  0.51100000000E-03 0. -1.
        -11    1    4    4    0    0  0.66461842974E+00 -0.11888673151E+01  0.10302014394E+01  0.17077583016E+01  0.51100000000E-03 0.  1.
        -12    1    4    4    0    0  0.40386895616E+02  0.13422477963E+02 -0.13127755986E+02  0.44537649572E+02  0.00000000000E+00 0.  1.
</event>
<event>
 8    1  0.1261983E-006  0.9118800E+02  0.7816164E-02  0.1184000E+00
        -11   -1    0    0    0    0  0.00000000000E+00  0.00000000000E+00  0.45593999997E+02  0.45594000000E+02  0.51100000000E-03 0. -1.
         11   -1    0    0    0    0 -0.00000000000E+00 -0.00000000000E+00 -0.45593999997E+02  0.45594000000E+02  0.51100000000E-03 0.  1.
         23    2    1    2    0    0 -0.35527136788E-14 -0.35527136788E-14  0.00000000000E+00  0.91188000000E+02  0.91188000000E+02 0.  0.
    9900012    2    3    3    0    0  0.21956922657E+02  0.28801870579E+02 -0.66426709737E+01  0.54367091822E+02  0.40000017427E+02 0.  0.
         12    1    3    3    0    0 -0.21956922657E+02 -0.28801870579E+02  0.66426709737E+01  0.36820908178E+02  0.00000000000E+00 0. -1.
         11    1    4    4    0    0  0.12072877523E+02  0.29870380053E+01 -0.15147438084E+00  0.12437833914E+02  0.51100000000E-03 0. -1.
        -11    1    4    4    0    0  0.19921211634E+02  0.12578080537E+02  0.12694335617E+01  0.23593945087E+02  0.51100000000E-03 0.  1.
         12    1    4    4    0    0 -0.10037166500E+02  0.13236752037E+02 -0.77606301545E+01  0.18335312820E+02  0.00000000000E+00 0. -1.
</event>
<event>
 8    1  0.1261983E-006  0.9118800E+02  0.7816164E-02  0.1184000E+00
        -11   -1    0    0    0    0  0.00000000000E+00  0.00000000000E+00  0.45593999997E+02  0.45594000000E+02  0.51100000000E-03 0.  1.
         11   -1    0    0    0    0 -0.00000000000E+00 -0.00000000000E+00 -0.45593999997E+02  0.45594000000E+02  0.51100000000E-03 0. -1.
         23    2    1    2    0    0  0.00000000000E+00  0.35527136788E-14 -0.88817841970E-15  0.91188000000E+02  0.91188000000E+02 0.  0.
    9900012    2    3    3    0    0  0.26028977769E+02 -0.26034400451E+02 -0.68903407607E+00  0.54367184440E+02  0.40000228567E+02 0.  0.
         12    1    3    3    0    0 -0.26028977769E+02  0.26034400451E+02  0.68903407607E+00  0.36820815560E+02  0.00000000000E+00 0. -1.
         11    1    4    4    0    0  0.75356576128E+01 -0.14595449462E+02 -0.27491834852E+01  0.16654467591E+02  0.51100000000E-03 0. -1.
        -11    1    4    4    0    0  0.94845689434E+01 -0.20412812316E+02 -0.51567157250E+01  0.23091809630E+02  0.51100000000E-03 0.  1.
         12    1    4    4    0    0  0.90087512129E+01  0.89738613263E+01  0.72168651341E+01  0.14620907218E+02  0.00000000000E+00 0. -1.
</event>
<event>
 8    1  0.1261983E-006  0.9118800E+02  0.7816164E-02  0.1184000E+00
        -11   -1    0    0    0    0  0.00000000000E+00  0.00000000000E+00  0.45593999997E+02  0.45594000000E+02  0.51100000000E-03 0. -1.
         11   -1    0    0    0    0 -0.00000000000E+00 -0.00000000000E+00 -0.45593999997E+02  0.45594000000E+02  0.51100000000E-03 0.  1.
         23    2    1    2    0    0  0.17763568394E-14 -0.17763568394E-14  0.00000000000E+00  0.91188000000E+02  0.91188000000E+02 0.  0.
    9900012    2    3    3    0    0 -0.12457780613E+02  0.59356254392E+01 -0.34137251736E+02  0.54367083346E+02  0.39999998103E+02 0.  0.
         12    1    3    3    0    0  0.12457780613E+02 -0.59356254392E+01  0.34137251736E+02  0.36820916654E+02  0.00000000000E+00 0. -1.
         11    1    4    4    0    0 -0.16841601244E+01 -0.15505028907E+02 -0.15181456970E+02  0.21765085636E+02  0.51100000000E-03 0.  1.
        -11    1    4    4    0    0  0.13301452993E+01  0.34624257498E+01 -0.68180138497E+01  0.77616358912E+01  0.51100000000E-03 0. -1.
         12    1    4    4    0    0 -0.12103765788E+02  0.17978228596E+02 -0.12137780916E+02  0.24840361819E+02  0.00000000000E+00 0. -1.
</event>
<event>
 8    1  0.1261983E-006  0.9118800E+02  0.7816164E-02  0.1184000E+00
        -11   -1    0    0    0    0  0.00000000000E+00  0.00000000000E+00  0.45593999997E+02  0.45594000000E+02  0.51100000000E-03 0.  1.
         11   -1    0    0    0    0 -0.00000000000E+00 -0.00000000000E+00 -0.45593999997E+02  0.45594000000E+02  0.51100000000E-03 0. -1.
         23    2    1    2    0    0  0.47184478547E-15  0.17763568394E-14  0.00000000000E+00  0.91188000000E+02  0.91188000000E+02 0.  0.
    9900012    2    3    3    0    0  0.22491567497E+00 -0.15091155886E+02 -0.33585511595E+02  0.54367079830E+02  0.39999990089E+02 0.  0.
        -12    1    3    3    0    0 -0.22491567497E+00  0.15091155886E+02  0.33585511595E+02  0.36820920170E+02  0.00000000000E+00 0.  1.
         11    1    4    4    0    0 -0.12832687633E+02  0.25889887816E+01 -0.98810039555E+01  0.16401675958E+02  0.51100000000E-03 0. -1.
        -11    1    4    4    0    0  0.62702486028E+01 -0.20797990719E+02 -0.14526528863E+02  0.26132211475E+02  0.51100000000E-03 0.  1.
        -12    1    4    4    0    0  0.67873547051E+01  0.31178460514E+01 -0.91779787766E+01  0.11833192398E+02  0.00000000000E+00 0.  1.
</event>
<event>
 8    1  0.1261983E-006  0.9118800E+02  0.7816164E-02  0.1184000E+00
        -11   -1    0    0    0    0  0.00000000000E+00  0.00000000000E+00  0.45593999997E+02  0.45594000000E+02  0.51100000000E-03 0. -1.
         11   -1    0    0    0    0 -0.00000000000E+00 -0.00000000000E+00 -0.45593999997E+02  0.45594000000E+02  0.51100000000E-03 0.  1.
         23    2    1    2    0    0  0.00000000000E+00 -0.35527136788E-14  0.35527136788E-14  0.91188000000E+02  0.91188000000E+02 0.  0.
    9900012    2    3    3    0    0 -0.11301670463E+02 -0.25600486319E+02  0.23930493342E+02  0.54367066191E+02  0.39999958995E+02 0.  0.
        -12    1    3    3    0    0  0.11301670463E+02  0.25600486319E+02 -0.23930493342E+02  0.36820933809E+02  0.00000000000E+00 0.  1.
         11    1    4    4    0    0  0.36907372053E+01  0.45099421357E+01 -0.46078245887E-01  0.58277991259E+01  0.51100000000E-03 0. -1.
        -11    1    4    4    0    0  0.15853192243E+01 -0.19134175905E+02  0.26488839331E+01  0.19381602383E+02  0.51100000000E-03 0.  1.
         12    1    4    4    0    0 -0.16577726893E+02 -0.10976252550E+02  0.21327687655E+02  0.29157664681E+02  0.00000000000E+00 0. -1.
</event>
<event>
 8    1  0.1261983E-006  0.9118800E+02  0.7816164E-02  0.1184000E+00
        -11   -1    0    0    0    0  0.00000000000E+00  0.00000000000E+00  0.45593999997E+02  0.45594000000E+02  0.51100000000E-03 0. -1.
         11   -1    0    0    0    0 -0.00000000000E+00 -0.00000000000E+00 -0.45593999997E+02  0.45594000000E+02  0.51100000000E-03 0.  1.
         23    2    1    2    0    0  0.00000000000E+00  0.00000000000E+00  0.00000000000E+00  0.91188000000E+02  0.91188000000E+02 0.  0.
    9900012    2    3    3    0    0  0.26151859477E+02 -0.14848573114E+01 -0.25877670029E+02  0.54367104282E+02  0.40000045831E+02 0.  0.
         12    1    3    3    0    0 -0.26151859477E+02  0.14848573114E+01  0.25877670029E+02  0.36820895718E+02  0.00000000000E+00 0. -1.
         11    1    4    4    0    0 -0.57647269305E+00 -0.17570605096E+01 -0.14729329933E+02  0.14844956818E+02  0.51100000000E-03 0. -1.
        -11    1    4    4    0    0 -0.18583616075E+00 -0.99961962546E+00 -0.12502656913E+02  0.12543930987E+02  0.51100000000E-03 0.  1.
        -12    1    4    4    0    0  0.26914168331E+02  0.12718228236E+01  0.13543168160E+01  0.26978216477E+02  0.00000000000E+00 0.  1.
</event>
<event>
 8    1  0.1261983E-006  0.9118800E+02  0.7816164E-02  0.1184000E+00
        -11   -1    0    0    0    0  0.00000000000E+00  0.00000000000E+00  0.45593999997E+02  0.45594000000E+02  0.51100000000E-03 0.  1.
         11   -1    0    0    0    0 -0.00000000000E+00 -0.00000000000E+00 -0.45593999997E+02  0.45594000000E+02  0.51100000000E-03 0. -1.
         23    2    1    2    0    0  0.00000000000E+00 -0.35527136788E-14  0.00000000000E+00  0.91188000000E+02  0.91188000000E+02 0.  0.
    9900012    2    3    3    0    0  0.22173411425E+02  0.19590452795E+02  0.21916523850E+02  0.54367081590E+02  0.39999994101E+02 0.  0.
         12    1    3    3    0    0 -0.22173411425E+02 -0.19590452795E+02 -0.21916523850E+02  0.36820918410E+02  0.00000000000E+00 0. -1.
         11    1    4    4    0    0  0.10861819393E+02  0.61170054843E+00 -0.10239135670E+01  0.10927108371E+02  0.51100000000E-03 0. -1.
        -11    1    4    4    0    0  0.31272225997E+01 -0.26531536332E+01 -0.54503014060E+01  0.68208893164E+01  0.51100000000E-03 0.  1.
        -12    1    4    4    0    0  0.81843694315E+01  0.21631905880E+02  0.28390738823E+02  0.36619083903E+02  0.00000000000E+00 0.  1.
</event>
<event>
 8    1  0.1261983E-006  0.9118800E+02  0.7816164E-02  0.1184000E+00
        -11   -1    0    0    0    0  0.00000000000E+00  0.00000000000E+00  0.45593999997E+02  0.45594000000E+02  0.51100000000E-03 0.  1.
         11   -1    0    0    0    0 -0.00000000000E+00 -0.00000000000E+00 -0.45593999997E+02  0.45594000000E+02  0.51100000000E-03 0. -1.
         23    2    1    2    0    0  0.35527136788E-14  0.35527136788E-14  0.00000000000E+00  0.91188000000E+02  0.91188000000E+02 0.  0.
    9900012    2    3    3    0    0 -0.19447433218E+02 -0.16394883823E+02 -0.26623014833E+02  0.54367084841E+02  0.40000001512E+02 0.  0.
        -12    1    3    3    0    0  0.19447433218E+02  0.16394883823E+02  0.26623014833E+02  0.36820915159E+02  0.00000000000E+00 0.  1.
         11    1    4    4    0    0  0.76294040884E+01 -0.11990197865E+02 -0.56046773073E+01  0.15276945362E+02  0.51100000000E-03 0.  1.
        -11    1    4    4    0    0 -0.16403758801E+02 -0.10798723286E+02 -0.17115283014E+02  0.26050501729E+02  0.51100000000E-03 0. -1.
         12    1    4    4    0    0 -0.10673078506E+02  0.63940373285E+01 -0.39030545122E+01  0.13039637751E+02  0.00000000000E+00 0. -1.
</event>
<event>
 8    1  0.1261983E-006  0.9118800E+02  0.7816164E-02  0.1184000E+00
        -11   -1    0    0    0    0  0.00000000000E+00  0.00000000000E+00  0.45593999997E+02  0.45594000000E+02  0.51100000000E-03 0. -1.
         11   -1    0    0    0    0 -0.00000000000E+00 -0.00000000000E+00 -0.45593999997E+02  0.45594000000E+02  0.51100000000E-03 0.  1.
         23    2    1    2    0    0 -0.44408920985E-15  0.00000000000E+00 -0.71054273576E-14  0.91188000000E+02  0.91188000000E+02 0.  0.
    9900012    2    3    3    0    0  0.15340108406E+01 -0.40851572127E+01 -0.36561436222E+02  0.54367077723E+02  0.39999985285E+02 0.  0.
         12    1    3    3    0    0 -0.15340108406E+01  0.40851572127E+01  0.36561436222E+02  0.36820922277E+02  0.00000000000E+00 0. -1.
         11    1    4    4    0    0 -0.10006711092E+02 -0.17897935058E+01 -0.12021588810E+02  0.15743450240E+02  0.51100000000E-03 0. -1.
        -11    1    4    4    0    0  0.45407250116E+01 -0.14316741675E+02 -0.17405378539E+02  0.22989877733E+02  0.51100000000E-03 0.  1.
        -12    1    4    4    0    0  0.69999969213E+01  0.12021377968E+02 -0.71344688730E+01  0.15633749750E+02  0.00000000000E+00 0.  1.
</event>
<event>
 8    1  0.1261983E-006  0.9118800E+02  0.7816164E-02  0.1184000E+00
        -11   -1    0    0    0    0  0.00000000000E+00  0.00000000000E+00  0.45593999997E+02  0.45594000000E+02  0.51100000000E-03 0. -1.
         11   -1    0    0    0    0 -0.00000000000E+00 -0.00000000000E+00 -0.45593999997E+02  0.45594000000E+02  0.51100000000E-03 0.  1.
         23    2    1    2    0    0  0.00000000000E+00 -0.88817841970E-15  0.00000000000E+00  0.91188000000E+02  0.91188000000E+02 0.  0.
    9900012    2    3    3    0    0 -0.19240778373E+02 -0.70059320428E+01  0.30602107730E+02  0.54367087006E+02  0.40000006447E+02 0.  0.
        -12    1    3    3    0    0  0.19240778373E+02  0.70059320428E+01 -0.30602107730E+02  0.36820912994E+02  0.00000000000E+00 0.  1.
         11    1    4    4    0    0 -0.75153025647E+01  0.30264287808E+01  0.18270830034E+01  0.83052559483E+01  0.51100000000E-03 0. -1.
        -11    1    4    4    0    0 -0.13197886916E+02  0.33152891700E+00 -0.21835312695E+01  0.13381402750E+02  0.51100000000E-03 0.  1.
         12    1    4    4    0    0  0.14724111079E+01 -0.10363889741E+02  0.30958555996E+02  0.32680428308E+02  0.00000000000E+00 0. -1.
</event>
<event>
 8    1  0.1261983E-006  0.9118800E+02  0.7816164E-02  0.1184000E+00
        -11   -1    0    0    0    0  0.00000000000E+00  0.00000000000E+00  0.45593999997E+02  0.45594000000E+02  0.51100000000E-03 0. -1.
         11   -1    0    0    0    0 -0.00000000000E+00 -0.00000000000E+00 -0.45593999997E+02  0.45594000000E+02  0.51100000000E-03 0.  1.
         23    2    1    2    0    0  0.00000000000E+00 -0.35527136788E-14  0.00000000000E+00  0.91188000000E+02  0.91188000000E+02 0.  0.
    9900012    2    3    3    0    0  0.14981692081E+02  0.30736503560E+02 -0.13660184520E+02  0.54367022422E+02  0.39999859214E+02 0.  0.
         12    1    3    3    0    0 -0.14981692081E+02 -0.30736503560E+02  0.13660184520E+02  0.36820977578E+02  0.00000000000E+00 0. -1.
         11    1    4    4    0    0  0.14703155871E+02  0.13251310654E+02  0.59456927756E+01  0.20667154847E+02  0.51100000000E-03 0. -1.
        -11    1    4    4    0    0 -0.17722679292E+01 -0.26583727899E+01 -0.11422616715E+02  0.11861030832E+02  0.51100000000E-03 0.  1.
         12    1    4    4    0    0  0.20508041391E+01  0.20143565696E+02 -0.81832605798E+01  0.21838836743E+02  0.00000000000E+00 0. -1.
</event>
<event>
 8    1  0.1261983E-006  0.9118800E+02  0.7816164E-02  0.1184000E+00
        -11   -1    0    0    0    0  0.00000000000E+00  0.00000000000E+00  0.45593999997E+02  0.45594000000E+02  0.51100000000E-03 0.  1.
         11   -1    0    0    0    0 -0.00000000000E+00 -0.00000000000E+00 -0.45593999997E+02  0.45594000000E+02  0.51100000000E-03 0. -1.
         23    2    1    2    0    0  0.35527136788E-14  0.35527136788E-14  0.00000000000E+00  0.91188000000E+02  0.91188000000E+02 0.  0.
    9900012    2    3    3    0    0 -0.23384845611E+02  0.28095328279E+02  0.44251430949E+01  0.54367077052E+02  0.39999983756E+02 0.  0.
        -12    1    3    3    0    0  0.23384845611E+02 -0.28095328279E+02 -0.44251430949E+01  0.36820922948E+02  0.00000000000E+00 0.  1.
         11    1    4    4    0    0  0.12000598564E+01  0.17869510580E+02 -0.33283898037E+01  0.18216413779E+02  0.51100000000E-03 0. -1.
        -11    1    4    4    0    0 -0.36348363526E+01  0.13600062049E+02  0.35526169289E+01  0.14518774409E+02  0.51100000000E-03 0.  1.
         12    1    4    4    0    0 -0.20950069114E+02 -0.33742443501E+01  0.42009159697E+01  0.21631888864E+02  0.00000000000E+00 0. -1.
</event>
<event>
 8    1  0.1261983E-006  0.9118800E+02  0.7816164E-02  0.1184000E+00
        -11   -1    0    0    0    0  0.00000000000E+00  0.00000000000E+00  0.45593999997E+02  0.45594000000E+02  0.51100000000E-03 0. -1.
         11   -1    0    0    0    0 -0.00000000000E+00 -0.00000000000E+00 -0.45593999997E+02  0.45594000000E+02  0.51100000000E-03 0.  1.
         23    2    1    2    0    0  0.00000000000E+00 -0.35527136788E-14  0.17763568394E-14  0.91188000000E+02  0.91188000000E+02 0.  0.
    9900012    2    3    3    0    0  0.16268974482E+02 -0.30277508683E+02  0.13205072991E+02  0.54367068243E+02  0.39999963674E+02 0.  0.
        -12    1    3    3    0    0 -0.16268974482E+02  0.30277508683E+02 -0.13205072991E+02  0.36820931757E+02  0.00000000000E+00 0.  1.
         11    1    4    4    0    0  0.15827735788E+02 -0.83756836171E+01  0.13410617898E+02  0.22372169517E+02  0.51100000000E-03 0. -1.
        -11    1    4    4    0    0  0.90773596434E+00 -0.26788459333E+02  0.13716191402E+01  0.26838906039E+02  0.51100000000E-03 0.  1.
         12    1    4    4    0    0 -0.46649727115E+00  0.48866342668E+01 -0.15771640469E+01  0.51559926874E+01  0.00000000000E+00 0. -1.
</event>
<event>
 8    1  0.1261983E-006  0.9118800E+02  0.7816164E-02  0.1184000E+00
        -11   -1    0    0    0    0  0.00000000000E+00  0.00000000000E+00  0.45593999997E+02  0.45594000000E+02  0.51100000000E-03 0.  1.
         11   -1    0    0    0    0 -0.00000000000E+00 -0.00000000000E+00 -0.45593999997E+02  0.45594000000E+02  0.51100000000E-03 0. -1.
         23    2    1    2    0    0  0.00000000000E+00  0.44408920985E-15  0.71054273576E-14  0.91188000000E+02  0.91188000000E+02 0.  0.
    9900012    2    3    3    0    0  0.10704778834E+02 -0.24875081862E+01 -0.35142552408E+02  0.54367095929E+02  0.40000026789E+02 0.  0.
        -12    1    3    3    0    0 -0.10704778834E+02  0.24875081862E+01  0.35142552408E+02  0.36820904071E+02  0.00000000000E+00 0.  1.
         11    1    4    4    0    0  0.28888454080E+00 -0.60775127337E+01 -0.26216409839E+02  0.26913189339E+02  0.51100000000E-03 0. -1.
        -11    1    4    4    0    0  0.16946321022E+02 -0.10588756064E+01 -0.94294351889E+01  0.19421978838E+02  0.51100000000E-03 0.  1.
         12    1    4    4    0    0 -0.65304267289E+01  0.46488801539E+01  0.50329261953E+00  0.80319277516E+01  0.00000000000E+00 0. -1.
</event>
<event>
 8    1  0.1261983E-006  0.9118800E+02  0.7816164E-02  0.1184000E+00
        -11   -1    0    0    0    0  0.00000000000E+00  0.00000000000E+00  0.45593999997E+02  0.45594000000E+02  0.51100000000E-03 0.  1.
         11   -1    0    0    0    0 -0.00000000000E+00 -0.00000000000E+00 -0.45593999997E+02  0.45594000000E+02  0.51100000000E-03 0. -1.
         23    2    1    2    0    0  0.13322676296E-14 -0.17763568394E-14  0.00000000000E+00  0.91188000000E+02  0.91188000000E+02 0.  0.
    9900012    2    3    3    0    0 -0.21918263465E+01  0.15160558277E+02 -0.33483383369E+02  0.54367033258E+02  0.39999883917E+02 0.  0.
        -12    1    3    3    0    0  0.21918263465E+01 -0.15160558277E+02  0.33483383369E+02  0.36820966742E+02  0.00000000000E+00 0.  1.
         11    1    4    4    0    0  0.80490135676E+01 -0.63842358350E+01 -0.24225529116E+01  0.10555275907E+02  0.51100000000E-03 0. -1.
        -11    1    4    4    0    0 -0.34660522051E+01 -0.33700028002E+01 -0.30478295661E+01  0.57148667602E+01  0.51100000000E-03 0.  1.
         12    1    4    4    0    0 -0.67747877090E+01  0.24914796913E+02 -0.28013000891E+02  0.38096890590E+02  0.00000000000E+00 0. -1.
</event>
<event>
 8    1  0.1261983E-006  0.9118800E+02  0.7816164E-02  0.1184000E+00
        -11   -1    0    0    0    0  0.00000000000E+00  0.00000000000E+00  0.45593999997E+02  0.45594000000E+02  0.51100000000E-03 0. -1.
         11   -1    0    0    0    0 -0.00000000000E+00 -0.00000000000E+00 -0.45593999997E+02  0.45594000000E+02  0.51100000000E-03 0.  1.
         23    2    1    2    0    0  0.00000000000E+00  0.00000000000E+00  0.35527136788E-14  0.91188000000E+02  0.91188000000E+02 0.  0.
    9900012    2    3    3    0    0  0.27838777505E+02 -0.11883665696E+02  0.20965738309E+02  0.54367065382E+02  0.39999957150E+02 0.  0.
        -12    1    3    3    0    0 -0.27838777505E+02  0.11883665696E+02 -0.20965738309E+02  0.36820934618E+02  0.00000000000E+00 0.  1.
         11    1    4    4    0    0 -0.84424709931E+00 -0.90735969731E+01  0.83750001088E+01  0.12376733910E+02  0.51100000000E-03 0. -1.
        -11    1    4    4    0    0  0.17476721158E+02 -0.14502620853E+02  0.23569409917E+01  0.22832366613E+02  0.51100000000E-03 0.  1.
        -12    1    4    4    0    0  0.11206303446E+02  0.11692552130E+02  0.10233797208E+02  0.19157964859E+02  0.00000000000E+00 0.  1.
</event>
<event>
 8    1  0.1261983E-006  0.9118800E+02  0.7816164E-02  0.1184000E+00
        -11   -1    0    0    0    0  0.00000000000E+00  0.00000000000E+00  0.45593999997E+02  0.45594000000E+02  0.51100000000E-03 0. -1.
         11   -1    0    0    0    0 -0.00000000000E+00 -0.00000000000E+00 -0.45593999997E+02  0.45594000000E+02  0.51100000000E-03 0.  1.
         23    2    1    2    0    0 -0.17763568394E-14 -0.35527136788E-14 -0.35527136788E-14  0.91188000000E+02  0.91188000000E+02 0.  0.
    9900012    2    3    3    0    0 -0.12058512447E+02 -0.22516498214E+02  0.26521288623E+02  0.54367093378E+02  0.40000020974E+02 0.  0.
        -12    1    3    3    0    0  0.12058512447E+02  0.22516498214E+02 -0.26521288623E+02  0.36820906622E+02  0.00000000000E+00 0.  1.
         11    1    4    4    0    0 -0.87981114910E+01 -0.17020327605E+02  0.33013200077E+02  0.38170272427E+02  0.51100000000E-03 0. -1.
        -11    1    4    4    0    0 -0.67243942426E+00 -0.91032122470E+01 -0.10718548325E+01  0.91907301688E+01  0.51100000000E-03 0.  1.
        -12    1    4    4    0    0 -0.25879615314E+01  0.36070416380E+01 -0.54200566213E+01  0.70060907820E+01  0.00000000000E+00 0.  1.
</event>
<event>
 8    1  0.1261983E-006  0.9118800E+02  0.7816164E-02  0.1184000E+00
        -11   -1    0    0    0    0  0.00000000000E+00  0.00000000000E+00  0.45593999997E+02  0.45594000000E+02  0.51100000000E-03 0. -1.
         11   -1    0    0    0    0 -0.00000000000E+00 -0.00000000000E+00 -0.45593999997E+02  0.45594000000E+02  0.51100000000E-03 0.  1.
         23    2    1    2    0    0 -0.35527136788E-14 -0.71054273576E-14  0.35527136788E-14  0.91188000000E+02  0.91188000000E+02 0.  0.
    9900012    2    3    3    0    0 -0.21724243309E+02 -0.24699870788E+02  0.16545500585E+02  0.54367082658E+02  0.39999996536E+02 0.  0.
        -12    1    3    3    0    0  0.21724243309E+02  0.24699870788E+02 -0.16545500585E+02  0.36820917342E+02  0.00000000000E+00 0.  1.
         11    1    4    4    0    0 -0.53149128222E+01  0.40710473771E+01  0.85665196632E+01  0.10872303549E+02  0.51100000000E-03 0.  1.
        -11    1    4    4    0    0 -0.39906303087E+01  0.51952191615E+01  0.54666645305E+00  0.65737566786E+01  0.51100000000E-03 0. -1.
        -12    1    4    4    0    0 -0.12418700178E+02 -0.33966137326E+02  0.74323144692E+01  0.36921022431E+02  0.00000000000E+00 0.  1.
</event>
<event>
 8    1  0.1261983E-006  0.9118800E+02  0.7816164E-02  0.1184000E+00
        -11   -1    0    0    0    0  0.00000000000E+00  0.00000000000E+00  0.45593999997E+02  0.45594000000E+02  0.51100000000E-03 0.  1.
         11   -1    0    0    0    0 -0.00000000000E+00 -0.00000000000E+00 -0.45593999997E+02  0.45594000000E+02  0.51100000000E-03 0. -1.
         23    2    1    2    0    0  0.00000000000E+00 -0.88817841970E-15 -0.35527136788E-14  0.91188000000E+02  0.91188000000E+02 0.  0.
    9900012    2    3    3    0    0 -0.19817958423E+02 -0.63363618225E+01  0.30378907416E+02  0.54367095978E+02  0.40000026901E+02 0.  0.
         12    1    3    3    0    0  0.19817958423E+02  0.63363618225E+01 -0.30378907416E+02  0.36820904022E+02  0.00000000000E+00 0. -1.
         11    1    4    4    0    0 -0.37078669518E+01 -0.39344482798E+01  0.25980667466E+02  0.26537204880E+02  0.51100000000E-03 0. -1.
        -11    1    4    4    0    0 -0.18891394235E+02 -0.84805462225E+01  0.23616923712E+01  0.20841833689E+02  0.51100000000E-03 0.  1.
         12    1    4    4    0    0  0.27813027639E+01  0.60786326799E+01  0.20365475787E+01  0.69880574097E+01  0.00000000000E+00 0. -1.
</event>
<event>
 8    1  0.1261983E-006  0.9118800E+02  0.7816164E-02  0.1184000E+00
        -11   -1    0    0    0    0  0.00000000000E+00  0.00000000000E+00  0.45593999997E+02  0.45594000000E+02  0.51100000000E-03 0.  1.
         11   -1    0    0    0    0 -0.00000000000E+00 -0.00000000000E+00 -0.45593999997E+02  0.45594000000E+02  0.51100000000E-03 0. -1.
         23    2    1    2    0    0  0.00000000000E+00  0.00000000000E+00  0.00000000000E+00  0.91188000000E+02  0.91188000000E+02 0.  0.
    9900012    2    3    3    0    0  0.19288549732E+02 -0.93719871616E+01  0.29931544191E+02  0.54367087032E+02  0.40000006507E+02 0.  0.
         12    1    3    3    0    0 -0.19288549732E+02  0.93719871616E+01 -0.29931544191E+02  0.36820912968E+02  0.00000000000E+00 0. -1.
         11    1    4    4    0    0  0.39719232400E+01 -0.41711796579E+01 -0.24568292375E+01  0.62618626723E+01  0.51100000000E-03 0. -1.
        -11    1    4    4    0    0  0.80340844969E+01 -0.65549524391E+01  0.37628990948E+02  0.39031460070E+02  0.51100000000E-03 0.  1.
        -12    1    4    4    0    0  0.72825419948E+01  0.13541449354E+01 -0.52406175189E+01  0.90737642901E+01  0.00000000000E+00 0.  1.
</event>
<event>
 8    1  0.1261983E-006  0.9118800E+02  0.7816164E-02  0.1184000E+00
        -11   -1    0    0    0    0  0.00000000000E+00  0.00000000000E+00  0.45593999997E+02  0.45594000000E+02  0.51100000000E-03 0. -1.
         11   -1    0    0    0    0 -0.00000000000E+00 -0.00000000000E+00 -0.45593999997E+02  0.45594000000E+02  0.51100000000E-03 0.  1.
         23    2    1    2    0    0 -0.17763568394E-14  0.00000000000E+00  0.00000000000E+00  0.91188000000E+02  0.91188000000E+02 0.  0.
    9900012    2    3    3    0    0 -0.10132860117E+02  0.10135196657E+02  0.33917286866E+02  0.54367089993E+02  0.40000013257E+02 0.  0.
        -12    1    3    3    0    0  0.10132860117E+02 -0.10135196657E+02 -0.33917286866E+02  0.36820910007E+02  0.00000000000E+00 0.  1.
         11    1    4    4    0    0 -0.16002477493E+02  0.20458917933E+02  0.18323047575E+02  0.31786485833E+02  0.51100000000E-03 0. -1.
        -11    1    4    4    0    0  0.32220583773E+01 -0.11587528853E+02  0.80142947215E+01  0.14452730027E+02  0.51100000000E-03 0.  1.
         12    1    4    4    0    0  0.26475589987E+01  0.12638075766E+01  0.75799445692E+01  0.81278741326E+01  0.00000000000E+00 0. -1.
</event>
<event>
 8    1  0.1261983E-006  0.9118800E+02  0.7816164E-02  0.1184000E+00
        -11   -1    0    0    0    0  0.00000000000E+00  0.00000000000E+00  0.45593999997E+02  0.45594000000E+02  0.51100000000E-03 0.  1.
         11   -1    0    0    0    0 -0.00000000000E+00 -0.00000000000E+00 -0.45593999997E+02  0.45594000000E+02  0.51100000000E-03 0. -1.
         23    2    1    2    0    0 -0.14210854715E-13 -0.17763568394E-14  0.00000000000E+00  0.91188000000E+02  0.91188000000E+02 0.  0.
    9900012    2    3    3    0    0 -0.35179797974E+02 -0.93928623166E+01 -0.54713028655E+01  0.54367092854E+02  0.40000019780E+02 0.  0.
         12    1    3    3    0    0  0.35179797974E+02  0.93928623166E+01  0.54713028655E+01  0.36820907146E+02  0.00000000000E+00 0. -1.
         11    1    4    4    0    0  0.32896513682E+01 -0.97585682437E+01  0.12887640626E+01  0.10378457176E+02  0.51100000000E-03 0. -1.
        -11    1    4    4    0    0 -0.38428605452E+02 -0.33130493435E+01 -0.90980128989E+01  0.39629633507E+02  0.51100000000E-03 0.  1.
         12    1    4    4    0    0 -0.40843890094E-01  0.36787552706E+01  0.23379459708E+01  0.43590021710E+01  0.00000000000E+00 0. -1.
</event>
<event>
 8    1  0.1261983E-006  0.9118800E+02  0.7816164E-02  0.1184000E+00
        -11   -1    0    0    0    0  0.00000000000E+00  0.00000000000E+00  0.45593999997E+02  0.45594000000E+02  0.51100000000E-03 0. -1.
         11   -1    0    0    0    0 -0.00000000000E+00 -0.00000000000E+00 -0.45593999997E+02  0.45594000000E+02  0.51100000000E-03 0.  1.
         23    2    1    2    0    0  0.00000000000E+00  0.00000000000E+00  0.17763568394E-14  0.91188000000E+02  0.91188000000E+02 0.  0.
    9900012    2    3    3    0    0 -0.28232940606E+02 -0.21952296326E+02  0.87623045624E+01  0.54367078903E+02  0.39999987975E+02 0.  0.
         12    1    3    3    0    0  0.28232940606E+02  0.21952296326E+02 -0.87623045624E+01  0.36820921097E+02  0.00000000000E+00 0. -1.
         11    1    4    4    0    0 -0.47813555223E+01 -0.12218706294E+02  0.57820659394E+01  0.14338424980E+02  0.51100000000E-03 0. -1.
        -11    1    4    4    0    0 -0.24910351747E+02 -0.12054679571E+02 -0.79233070607E+01  0.28785755484E+02  0.51100000000E-03 0.  1.
         12    1    4    4    0    0  0.14587666640E+01  0.23210895394E+01  0.10903545684E+02  0.11242898439E+02  0.00000000000E+00 0. -1.
</event>
<event>
 8    1  0.1261983E-006  0.9118800E+02  0.7816164E-02  0.1184000E+00
        -11   -1    0    0    0    0  0.00000000000E+00  0.00000000000E+00  0.45593999997E+02  0.45594000000E+02  0.51100000000E-03 0. -1.
         11   -1    0    0    0    0 -0.00000000000E+00 -0.00000000000E+00 -0.45593999997E+02  0.45594000000E+02  0.51100000000E-03 0.  1.
         23    2    1    2    0    0  0.28865798640E-14  0.00000000000E+00  0.00000000000E+00  0.91188000000E+02  0.91188000000E+02 0.  0.
    9900012    2    3    3    0    0  0.18539115662E+01 -0.36578480434E+02 -0.37891012540E+01  0.54367088723E+02  0.40000010363E+02 0.  0.
         12    1    3    3    0    0 -0.18539115662E+01  0.36578480434E+02  0.37891012540E+01  0.36820911277E+02  0.00000000000E+00 0. -1.
         11    1    4    4    0    0  0.43934507172E+01 -0.10565273103E+02  0.81848105227E+00  0.11471587355E+02  0.51100000000E-03 0. -1.
        -11    1    4    4    0    0  0.12792500802E+02 -0.11717075379E+02  0.72609325282E+01  0.18805825524E+02  0.51100000000E-03 0.  1.
        -12    1    4    4    0    0 -0.15332039953E+02 -0.14296131951E+02 -0.11868514834E+02  0.24089675844E+02  0.00000000000E+00 0.  1.
</event>
<event>
 8    1  0.1261983E-006  0.9118800E+02  0.7816164E-02  0.1184000E+00
        -11   -1    0    0    0    0  0.00000000000E+00  0.00000000000E+00  0.45593999997E+02  0.45594000000E+02  0.51100000000E-03 0.  1.
         11   -1    0    0    0    0 -0.00000000000E+00 -0.00000000000E+00 -0.45593999997E+02  0.45594000000E+02  0.51100000000E-03 0. -1.
         23    2    1    2    0    0  0.00000000000E+00  0.00000000000E+00  0.00000000000E+00  0.91188000000E+02  0.91188000000E+02 0.  0.
    9900012    2    3    3    0    0 -0.31958109015E+02  0.13118496147E+02  0.12742206779E+02  0.54367088732E+02  0.40000010382E+02 0.  0.
         12    1    3    3    0    0  0.31958109015E+02 -0.13118496147E+02 -0.12742206779E+02  0.36820911268E+02  0.00000000000E+00 0. -1.
         11    1    4    4    0    0 -0.15220528544E+02  0.36999827748E+01 -0.49086050649E+01  0.16414894628E+02  0.51100000000E-03 0. -1.
        -11    1    4    4    0    0 -0.19287186173E+02 -0.41864287378E+01  0.11014090211E+02  0.22601591083E+02  0.51100000000E-03 0.  1.
        -12    1    4    4    0    0  0.25496057020E+01  0.13604942110E+02  0.66367216335E+01  0.15350603021E+02  0.00000000000E+00 0.  1.
</event>
<event>
 8    1  0.1261983E-006  0.9118800E+02  0.7816164E-02  0.1184000E+00
        -11   -1    0    0    0    0  0.00000000000E+00  0.00000000000E+00  0.45593999997E+02  0.45594000000E+02  0.51100000000E-03 0. -1.
         11   -1    0    0    0    0 -0.00000000000E+00 -0.00000000000E+00 -0.45593999997E+02  0.45594000000E+02  0.51100000000E-03 0.  1.
         23    2    1    2    0    0  0.55511151231E-16  0.00000000000E+00  0.00000000000E+00  0.91188000000E+02  0.91188000000E+02 0.  0.
    9900012    2    3    3    0    0  0.48815609090E+00  0.36537663088E+02  0.45321416689E+01  0.54367089794E+02  0.40000012804E+02 0.  0.
        -12    1    3    3    0    0 -0.48815609090E+00 -0.36537663088E+02 -0.45321416689E+01  0.36820910206E+02  0.00000000000E+00 0.  1.
         11    1    4    4    0    0  0.79551725731E+01  0.19692350422E+02  0.94841592172E+00  0.21259654956E+02  0.51100000000E-03 0. -1.
        -11    1    4    4    0    0 -0.29186155776E+00 -0.39791770737E+01  0.94973943061E+01  0.10301433503E+02  0.51100000000E-03 0.  1.
         12    1    4    4    0    0 -0.71751549244E+01  0.20824489739E+02 -0.59136685589E+01  0.22806001336E+02  0.00000000000E+00 0. -1.
</event>
<event>
 8    1  0.1261983E-006  0.9118800E+02  0.7816164E-02  0.1184000E+00
        -11   -1    0    0    0    0  0.00000000000E+00  0.00000000000E+00  0.45593999997E+02  0.45594000000E+02  0.51100000000E-03 0.  1.
         11   -1    0    0    0    0 -0.00000000000E+00 -0.00000000000E+00 -0.45593999997E+02  0.45594000000E+02  0.51100000000E-03 0. -1.
         23    2    1    2    0    0 -0.35527136788E-14 -0.88817841970E-15  0.00000000000E+00  0.91188000000E+02  0.91188000000E+02 0.  0.
    9900012    2    3    3    0    0  0.27189950589E+02 -0.75321390721E+01 -0.23659129063E+02  0.54367069538E+02  0.39999966627E+02 0.  0.
        -12    1    3    3    0    0 -0.27189950589E+02  0.75321390721E+01  0.23659129063E+02  0.36820930462E+02  0.00000000000E+00 0.  1.
         11    1    4    4    0    0  0.27968203843E+02 -0.17420105184E+02 -0.22414260298E+02  0.39850715875E+02  0.51100000000E-03 0. -1.
        -11    1    4    4    0    0  0.42353725145E+00 -0.19865622135E+01  0.11631511249E+01  0.23406695691E+01  0.51100000000E-03 0.  1.
         12    1    4    4    0    0 -0.12017905056E+01  0.11874528325E+02 -0.24080198900E+01  0.12175684094E+02  0.00000000000E+00 0. -1.
</event>
<event>
 8    1  0.1261983E-006  0.9118800E+02  0.7816164E-02  0.1184000E+00
        -11   -1    0    0    0    0  0.00000000000E+00  0.00000000000E+00  0.45593999997E+02  0.45594000000E+02  0.51100000000E-03 0. -1.
         11   -1    0    0    0    0 -0.00000000000E+00 -0.00000000000E+00 -0.45593999997E+02  0.45594000000E+02  0.51100000000E-03 0.  1.
         23    2    1    2    0    0  0.00000000000E+00  0.00000000000E+00  0.00000000000E+00  0.91188000000E+02  0.91188000000E+02 0.  0.
    9900012    2    3    3    0    0  0.52739921526E+01  0.20502598166E+02 -0.30126525408E+02  0.54367094824E+02  0.40000024270E+02 0.  0.
         12    1    3    3    0    0 -0.52739921526E+01 -0.20502598166E+02  0.30126525408E+02  0.36820905176E+02  0.00000000000E+00 0. -1.
         11    1    4    4    0    0  0.13518907877E+02  0.84225378034E+00 -0.16498479524E+01  0.13645228476E+02  0.51100000000E-03 0. -1.
        -11    1    4    4    0    0  0.25448243170E+01  0.25433983482E+01 -0.17170634754E+02  0.17543537388E+02  0.51100000000E-03 0.  1.
        -12    1    4    4    0    0 -0.10789740042E+02  0.17116946038E+02 -0.11306042702E+02  0.23178328960E+02  0.00000000000E+00 0.  1.
</event>
<event>
 8    1  0.1261983E-006  0.9118800E+02  0.7816164E-02  0.1184000E+00
        -11   -1    0    0    0    0  0.00000000000E+00  0.00000000000E+00  0.45593999997E+02  0.45594000000E+02  0.51100000000E-03 0. -1.
         11   -1    0    0    0    0 -0.00000000000E+00 -0.00000000000E+00 -0.45593999997E+02  0.45594000000E+02  0.51100000000E-03 0.  1.
         23    2    1    2    0    0  0.00000000000E+00  0.00000000000E+00  0.00000000000E+00  0.91188000000E+02  0.91188000000E+02 0.  0.
    9900012    2    3    3    0    0  0.22320017023E+02 -0.14713647998E+02  0.25320043494E+02  0.54367092898E+02  0.40000019879E+02 0.  0.
        -12    1    3    3    0    0 -0.22320017023E+02  0.14713647998E+02 -0.25320043494E+02  0.36820907102E+02  0.00000000000E+00 0.  1.
         11    1    4    4    0    0  0.11606507242E+02  0.43201702098E+01  0.30531808409E+01  0.12755265364E+02  0.51100000000E-03 0.  1.
        -11    1    4    4    0    0  0.90335089130E+01  0.45521615703E+01  0.16683563779E+01  0.10252310545E+02  0.51100000000E-03 0. -1.
         12    1    4    4    0    0  0.16800008677E+01 -0.23585979778E+02  0.20598506275E+02  0.31359516989E+02  0.00000000000E+00 0. -1.
</event>
<event>
 8    1  0.1261983E-006  0.9118800E+02  0.7816164E-02  0.1184000E+00
        -11   -1    0    0    0    0  0.00000000000E+00  0.00000000000E+00  0.45593999997E+02  0.45594000000E+02  0.51100000000E-03 0. -1.
         11   -1    0    0    0    0 -0.00000000000E+00 -0.00000000000E+00 -0.45593999997E+02  0.45594000000E+02  0.51100000000E-03 0.  1.
         23    2    1    2    0    0  0.00000000000E+00 -0.35527136788E-14 -0.71054273576E-14  0.91188000000E+02  0.91188000000E+02 0.  0.
    9900012    2    3    3    0    0  0.27495856696E+02  0.16272822730E+02 -0.18301695228E+02  0.54367096382E+02  0.40000027821E+02 0.  0.
         12    1    3    3    0    0 -0.27495856696E+02 -0.16272822730E+02  0.18301695228E+02  0.36820903618E+02  0.00000000000E+00 0. -1.
         11    1    4    4    0    0  0.93280590371E+00 -0.27904518403E+01  0.54347832310E+00  0.29920089031E+01  0.51100000000E-03 0. -1.
        -11    1    4    4    0    0  0.99720069853E+00  0.23683361288E+01  0.94215444228E+01  0.97657014507E+01  0.51100000000E-03 0.  1.
        -12    1    4    4    0    0  0.25565850094E+02  0.16694938441E+02 -0.28266717974E+02  0.41609386028E+02  0.00000000000E+00 0.  1.
</event>
<event>
 8    1  0.1261983E-006  0.9118800E+02  0.7816164E-02  0.1184000E+00
        -11   -1    0    0    0    0  0.00000000000E+00  0.00000000000E+00  0.45593999997E+02  0.45594000000E+02  0.51100000000E-03 0. -1.
         11   -1    0    0    0    0 -0.00000000000E+00 -0.00000000000E+00 -0.45593999997E+02  0.45594000000E+02  0.51100000000E-03 0.  1.
         23    2    1    2    0    0  0.00000000000E+00  0.00000000000E+00  0.35527136788E-14  0.91188000000E+02  0.91188000000E+02 0.  0.
    9900012    2    3    3    0    0  0.30229441852E+02  0.88397355934E+01 -0.19074067596E+02  0.54367080203E+02  0.39999990939E+02 0.  0.
         12    1    3    3    0    0 -0.30229441852E+02 -0.88397355934E+01  0.19074067596E+02  0.36820919797E+02  0.00000000000E+00 0. -1.
         11    1    4    4    0    0  0.64606689889E+01  0.51949706410E+01 -0.26639073063E+02  0.27899250486E+02  0.51100000000E-03 0. -1.
        -11    1    4    4    0    0  0.69304525412E+01 -0.23482384390E+01  0.81526045038E+00  0.73627471812E+01  0.51100000000E-03 0.  1.
         12    1    4    4    0    0  0.16838320322E+02  0.59930033914E+01  0.67497450172E+01  0.19105082536E+02  0.00000000000E+00 0. -1.
</event>
<event>
 8    1  0.1261983E-006  0.9118800E+02  0.7816164E-02  0.1184000E+00
        -11   -1    0    0    0    0  0.00000000000E+00  0.00000000000E+00  0.45593999997E+02  0.45594000000E+02  0.51100000000E-03 0. -1.
         11   -1    0    0    0    0 -0.00000000000E+00 -0.00000000000E+00 -0.45593999997E+02  0.45594000000E+02  0.51100000000E-03 0.  1.
         23    2    1    2    0    0  0.36637359813E-14  0.00000000000E+00  0.00000000000E+00  0.91188000000E+02  0.91188000000E+02 0.  0.
    9900012    2    3    3    0    0 -0.59999219544E+00 -0.32677602388E+02  0.16958617380E+02  0.54367076710E+02  0.39999982976E+02 0.  0.
        -12    1    3    3    0    0  0.59999219544E+00  0.32677602388E+02 -0.16958617380E+02  0.36820923290E+02  0.00000000000E+00 0.  1.
         11    1    4    4    0    0 -0.12713203605E+01 -0.58403310707E+00  0.35659961055E+00  0.14437844965E+01  0.51100000000E-03 0. -1.
        -11    1    4    4    0    0  0.18838602627E+02 -0.11365294122E+02  0.11730435241E+02  0.24933230249E+02  0.51100000000E-03 0.  1.
        -12    1    4    4    0    0 -0.18167274462E+02 -0.20728275159E+02  0.48715825283E+01  0.27990061965E+02  0.00000000000E+00 0.  1.
</event>
<event>
 8    1  0.1261983E-006  0.9118800E+02  0.7816164E-02  0.1184000E+00
        -11   -1    0    0    0    0  0.00000000000E+00  0.00000000000E+00  0.45593999997E+02  0.45594000000E+02  0.51100000000E-03 0. -1.
         11   -1    0    0    0    0 -0.00000000000E+00 -0.00000000000E+00 -0.45593999997E+02  0.45594000000E+02  0.51100000000E-03 0.  1.
         23    2    1    2    0    0 -0.88817841970E-15 -0.71054273576E-14 -0.17763568394E-14  0.91188000000E+02  0.91188000000E+02 0.  0.
    9900012    2    3    3    0    0  0.74066409395E+01 -0.33434337863E+02 -0.13530299103E+02  0.54367051178E+02  0.39999924770E+02 0.  0.
         12    1    3    3    0    0 -0.74066409395E+01  0.33434337863E+02  0.13530299103E+02  0.36820948822E+02  0.00000000000E+00 0. -1.
         11    1    4    4    0    0 -0.15419287410E+02 -0.11564075308E+02 -0.69546840677E+01  0.20490238961E+02  0.51100000000E-03 0.  1.
        -11    1    4    4    0    0  0.10881702456E+02 -0.37113059419E+01 -0.22088858503E+01  0.11707451349E+02  0.51100000000E-03 0. -1.
        -12    1    4    4    0    0  0.11944225893E+02 -0.18158956613E+02 -0.43667291850E+01  0.22169360867E+02  0.00000000000E+00 0.  1.
</event>
<event>
 8    1  0.1261983E-006  0.9118800E+02  0.7816164E-02  0.1184000E+00
        -11   -1    0    0    0    0  0.00000000000E+00  0.00000000000E+00  0.45593999997E+02  0.45594000000E+02  0.51100000000E-03 0.  1.
         11   -1    0    0    0    0 -0.00000000000E+00 -0.00000000000E+00 -0.45593999997E+02  0.45594000000E+02  0.51100000000E-03 0. -1.
         23    2    1    2    0    0  0.00000000000E+00  0.13322676296E-14  0.00000000000E+00  0.91188000000E+02  0.91188000000E+02 0.  0.
    9900012    2    3    3    0    0 -0.34105033563E+02 -0.23830478047E+01  0.13672873345E+02  0.54367086151E+02  0.40000004498E+02 0.  0.
         12    1    3    3    0    0  0.34105033563E+02  0.23830478047E+01 -0.13672873345E+02  0.36820913849E+02  0.00000000000E+00 0. -1.
         11    1    4    4    0    0 -0.65732765898E+01 -0.11161951791E+02 -0.19775883980E+01  0.13103739506E+02  0.51100000000E-03 0. -1.
        -11    1    4    4    0    0 -0.14690418883E+02 -0.21425298138E+01 -0.39976183217E+01  0.15374647751E+02  0.51100000000E-03 0.  1.
         12    1    4    4    0    0 -0.12841338091E+02  0.10921433800E+02  0.19648080065E+02  0.25888698894E+02  0.00000000000E+00 0. -1.
</event>
<event>
 8    1  0.1261983E-006  0.9118800E+02  0.7816164E-02  0.1184000E+00
        -11   -1    0    0    0    0  0.00000000000E+00  0.00000000000E+00  0.45593999997E+02  0.45594000000E+02  0.51100000000E-03 0.  1.
         11   -1    0    0    0    0 -0.00000000000E+00 -0.00000000000E+00 -0.45593999997E+02  0.45594000000E+02  0.51100000000E-03 0. -1.
         23    2    1    2    0    0 -0.88817841970E-15  0.00000000000E+00 -0.17763568394E-14  0.91188000000E+02  0.91188000000E+02 0.  0.
    9900012    2    3    3    0    0 -0.75672120206E+01  0.33272449920E+02 -0.13836964813E+02  0.54367079090E+02  0.39999988400E+02 0.  0.
        -12    1    3    3    0    0  0.75672120206E+01 -0.33272449920E+02  0.13836964813E+02  0.36820920910E+02  0.00000000000E+00 0.  1.
         11    1    4    4    0    0 -0.17881735827E+02  0.16702922506E+02 -0.12558461610E+02  0.27503800732E+02  0.51100000000E-03 0. -1.
        -11    1    4    4    0    0 -0.48663209451E+01  0.33519853065E+01 -0.30629446773E+01  0.66557129891E+01  0.51100000000E-03 0.  1.
        -12    1    4    4    0    0  0.15180844752E+02  0.13217542108E+02  0.17844414744E+01  0.20207565369E+02  0.00000000000E+00 0.  1.
</event>
<event>
 8    1  0.1261983E-006  0.9118800E+02  0.7816164E-02  0.1184000E+00
        -11   -1    0    0    0    0  0.00000000000E+00  0.00000000000E+00  0.45593999997E+02  0.45594000000E+02  0.51100000000E-03 0.  1.
         11   -1    0    0    0    0 -0.00000000000E+00 -0.00000000000E+00 -0.45593999997E+02  0.45594000000E+02  0.51100000000E-03 0. -1.
         23    2    1    2    0    0  0.00000000000E+00  0.35527136788E-14 -0.35527136788E-14  0.91188000000E+02  0.91188000000E+02 0.  0.
    9900012    2    3    3    0    0 -0.17335841300E+02 -0.17663426426E+02  0.27262720425E+02  0.54367028371E+02  0.39999872778E+02 0.  0.
         12    1    3    3    0    0  0.17335841300E+02  0.17663426426E+02 -0.27262720425E+02  0.36820971629E+02  0.00000000000E+00 0. -1.
         11    1    4    4    0    0  0.69747808197E+01  0.32350563835E+01  0.12459426694E+01  0.77888080400E+01  0.51100000000E-03 0. -1.
        -11    1    4    4    0    0  0.11120153802E+01  0.10581725721E+01  0.86073168357E+01  0.87431236277E+01  0.51100000000E-03 0.  1.
        -12    1    4    4    0    0 -0.25422637500E+02 -0.21956655382E+02  0.17409460920E+02  0.37835096704E+02  0.00000000000E+00 0.  1.
</event>
<event>
 8    1  0.1261983E-006  0.9118800E+02  0.7816164E-02  0.1184000E+00
        -11   -1    0    0    0    0  0.00000000000E+00  0.00000000000E+00  0.45593999997E+02  0.45594000000E+02  0.51100000000E-03 0. -1.
         11   -1    0    0    0    0 -0.00000000000E+00 -0.00000000000E+00 -0.45593999997E+02  0.45594000000E+02  0.51100000000E-03 0.  1.
         23    2    1    2    0    0  0.35527136788E-14  0.00000000000E+00  0.00000000000E+00  0.91188000000E+02  0.91188000000E+02 0.  0.
    9900012    2    3    3    0    0 -0.22092155764E+02 -0.22762738625E+02  0.18696905877E+02  0.54367083316E+02  0.39999998036E+02 0.  0.
        -12    1    3    3    0    0  0.22092155764E+02  0.22762738625E+02 -0.18696905877E+02  0.36820916684E+02  0.00000000000E+00 0.  1.
         11    1    4    4    0    0  0.16929500805E+00 -0.12337578114E+02  0.11340150725E+02  0.16758386356E+02  0.51100000000E-03 0. -1.
        -11    1    4    4    0    0 -0.25034718151E+02 -0.16153696271E+02  0.31064579417E+01  0.29955451879E+02  0.51100000000E-03 0.  1.
        -12    1    4    4    0    0  0.27732673784E+01  0.57285357592E+01  0.42502972107E+01  0.76532450814E+01  0.00000000000E+00 0.  1.
</event>
<event>
 8    1  0.1261983E-006  0.9118800E+02  0.7816164E-02  0.1184000E+00
        -11   -1    0    0    0    0  0.00000000000E+00  0.00000000000E+00  0.45593999997E+02  0.45594000000E+02  0.51100000000E-03 0. -1.
         11   -1    0    0    0    0 -0.00000000000E+00 -0.00000000000E+00 -0.45593999997E+02  0.45594000000E+02  0.51100000000E-03 0.  1.
         23    2    1    2    0    0  0.00000000000E+00  0.88817841970E-15  0.00000000000E+00  0.91188000000E+02  0.91188000000E+02 0.  0.
    9900012    2    3    3    0    0 -0.30176721799E+02  0.54940171703E+01  0.20370612568E+02  0.54367073618E+02  0.39999975927E+02 0.  0.
        -12    1    3    3    0    0  0.30176721799E+02 -0.54940171703E+01 -0.20370612568E+02  0.36820926382E+02  0.00000000000E+00 0.  1.
         11    1    4    4    0    0  0.16775167903E+01 -0.41967884305E+01 -0.23499955212E+01  0.50940725282E+01  0.51100000000E-03 0. -1.
        -11    1    4    4    0    0 -0.27442867266E+02  0.26329360331E+01  0.28097763243E+02  0.39364039623E+02  0.51100000000E-03 0.  1.
        -12    1    4    4    0    0 -0.44113713238E+01  0.70578695677E+01 -0.53771551540E+01  0.99089614663E+01  0.00000000000E+00 0.  1.
</event>
<event>
 8    1  0.1261983E-006  0.9118800E+02  0.7816164E-02  0.1184000E+00
        -11   -1    0    0    0    0  0.00000000000E+00  0.00000000000E+00  0.45593999997E+02  0.45594000000E+02  0.51100000000E-03 0. -1.
         11   -1    0    0    0    0 -0.00000000000E+00 -0.00000000000E+00 -0.45593999997E+02  0.45594000000E+02  0.51100000000E-03 0.  1.
         23    2    1    2    0    0  0.00000000000E+00  0.00000000000E+00  0.17763568394E-14  0.91188000000E+02  0.91188000000E+02 0.  0.
    9900012    2    3    3    0    0  0.16810957158E+02 -0.29470178149E+02 -0.14306836628E+02  0.54367010673E+02  0.39999832432E+02 0.  0.
         12    1    3    3    0    0 -0.16810957158E+02  0.29470178149E+02  0.14306836628E+02  0.36820989327E+02  0.00000000000E+00 0. -1.
         11    1    4    4    0    0  0.14410808600E+02 -0.15193784818E+02 -0.15154623802E+02  0.25849277058E+02  0.51100000000E-03 0. -1.
        -11    1    4    4    0    0  0.56235401846E+01 -0.10410455069E+02 -0.10679726857E+02  0.15939207790E+02  0.51100000000E-03 0.  1.
         12    1    4    4    0    0 -0.32233916258E+01 -0.38659382611E+01  0.11527514031E+02  0.12578525826E+02  0.00000000000E+00 0. -1.
</event>
<event>
 8    1  0.1261983E-006  0.9118800E+02  0.7816164E-02  0.1184000E+00
        -11   -1    0    0    0    0  0.00000000000E+00  0.00000000000E+00  0.45593999997E+02  0.45594000000E+02  0.51100000000E-03 0.  1.
         11   -1    0    0    0    0 -0.00000000000E+00 -0.00000000000E+00 -0.45593999997E+02  0.45594000000E+02  0.51100000000E-03 0. -1.
         23    2    1    2    0    0  0.00000000000E+00  0.00000000000E+00  0.00000000000E+00  0.91188000000E+02  0.91188000000E+02 0.  0.
    9900012    2    3    3    0    0 -0.32804077101E+02 -0.13094614347E+02 -0.10402086923E+02  0.54367084589E+02  0.40000000937E+02 0.  0.
        -12    1    3    3    0    0  0.32804077101E+02  0.13094614347E+02  0.10402086923E+02  0.36820915411E+02  0.00000000000E+00 0.  1.
         11    1    4    4    0    0 -0.13303819927E+02 -0.11016498725E+02  0.46081429764E+01  0.17877076125E+02  0.51100000000E-03 0.  1.
        -11    1    4    4    0    0 -0.14649659606E+02 -0.13398760312E+02 -0.13663744597E+02  0.24100564747E+02  0.51100000000E-03 0. -1.
        -12    1    4    4    0    0 -0.48505975682E+01  0.11320644690E+02 -0.13464853024E+01  0.12389443717E+02  0.00000000000E+00 0.  1.
</event>
<event>
 8    1  0.1261983E-006  0.9118800E+02  0.7816164E-02  0.1184000E+00
        -11   -1    0    0    0    0  0.00000000000E+00  0.00000000000E+00  0.45593999997E+02  0.45594000000E+02  0.51100000000E-03 0. -1.
         11   -1    0    0    0    0 -0.00000000000E+00 -0.00000000000E+00 -0.45593999997E+02  0.45594000000E+02  0.51100000000E-03 0.  1.
         23    2    1    2    0    0 -0.17763568394E-14  0.00000000000E+00  0.00000000000E+00  0.91188000000E+02  0.91188000000E+02 0.  0.
    9900012    2    3    3    0    0  0.10069106974E+02  0.32518320584E+02  0.14034058763E+02  0.54367042731E+02  0.39999905513E+02 0.  0.
        -12    1    3    3    0    0 -0.10069106974E+02 -0.32518320584E+02 -0.14034058763E+02  0.36820957269E+02  0.00000000000E+00 0.  1.
         11    1    4    4    0    0 -0.16385328642E+01  0.29710204580E+01  0.45426341407E+01  0.56698569388E+01  0.51100000000E-03 0. -1.
        -11    1    4    4    0    0 -0.78562328837E+01  0.26813853881E+02  0.68402666502E+01  0.28766167683E+02  0.51100000000E-03 0.  1.
        -12    1    4    4    0    0  0.19563872722E+02  0.27334462456E+01  0.26511579719E+01  0.19931018109E+02  0.00000000000E+00 0.  1.
</event>
<event>
 8    1  0.1261983E-006  0.9118800E+02  0.7816164E-02  0.1184000E+00
        -11   -1    0    0    0    0  0.00000000000E+00  0.00000000000E+00  0.45593999997E+02  0.45594000000E+02  0.51100000000E-03 0. -1.
         11   -1    0    0    0    0 -0.00000000000E+00 -0.00000000000E+00 -0.45593999997E+02  0.45594000000E+02  0.51100000000E-03 0.  1.
         23    2    1    2    0    0  0.35527136788E-14  0.00000000000E+00  0.35527136788E-14  0.91188000000E+02  0.91188000000E+02 0.  0.
    9900012    2    3    3    0    0 -0.23069163384E+02 -0.18567332411E+02 -0.21882500825E+02  0.54367136696E+02  0.40000119727E+02 0.  0.
        -12    1    3    3    0    0  0.23069163384E+02  0.18567332411E+02  0.21882500825E+02  0.36820863304E+02  0.00000000000E+00 0.  1.
         11    1    4    4    0    0 -0.20477576497E+02 -0.19739264303E+01 -0.10716616785E+02  0.23196409212E+02  0.51100000000E-03 0. -1.
        -11    1    4    4    0    0 -0.13238347768E+02 -0.98254154914E+01 -0.62653077921E+01  0.17636516754E+02  0.51100000000E-03 0.  1.
        -12    1    4    4    0    0  0.10646760882E+02 -0.67679904891E+01 -0.49005762474E+01  0.13534210730E+02  0.00000000000E+00 0.  1.
</event>
<event>
 8    1  0.1261983E-006  0.9118800E+02  0.7816164E-02  0.1184000E+00
        -11   -1    0    0    0    0  0.00000000000E+00  0.00000000000E+00  0.45593999997E+02  0.45594000000E+02  0.51100000000E-03 0.  1.
         11   -1    0    0    0    0 -0.00000000000E+00 -0.00000000000E+00 -0.45593999997E+02  0.45594000000E+02  0.51100000000E-03 0. -1.
         23    2    1    2    0    0 -0.17763568394E-14 -0.88817841970E-15  0.00000000000E+00  0.91188000000E+02  0.91188000000E+02 0.  0.
    9900012    2    3    3    0    0  0.14771935740E+02  0.48702835421E+01 -0.33374401638E+02  0.54367076166E+02  0.39999981737E+02 0.  0.
        -12    1    3    3    0    0 -0.14771935740E+02 -0.48702835421E+01  0.33374401638E+02  0.36820923834E+02  0.00000000000E+00 0.  1.
         11    1    4    4    0    0 -0.27238735110E+01 -0.38265099952E+00  0.22406383563E+01  0.35477273283E+01  0.51100000000E-03 0. -1.
        -11    1    4    4    0    0  0.55454001603E+00  0.16033834802E+02 -0.17946745424E+02  0.24072329440E+02  0.51100000000E-03 0.  1.
         12    1    4    4    0    0  0.16941269235E+02 -0.10780900260E+02 -0.17668294570E+02  0.26747019399E+02  0.00000000000E+00 0. -1.
</event>
<event>
 8    1  0.1261983E-006  0.9118800E+02  0.7816164E-02  0.1184000E+00
        -11   -1    0    0    0    0  0.00000000000E+00  0.00000000000E+00  0.45593999997E+02  0.45594000000E+02  0.51100000000E-03 0. -1.
         11   -1    0    0    0    0 -0.00000000000E+00 -0.00000000000E+00 -0.45593999997E+02  0.45594000000E+02  0.51100000000E-03 0.  1.
         23    2    1    2    0    0 -0.13322676296E-14  0.00000000000E+00 -0.17763568394E-14  0.91188000000E+02  0.91188000000E+02 0.  0.
    9900012    2    3    3    0    0  0.33101479833E+01  0.35947825885E+02  0.72509318184E+01  0.54367091839E+02  0.40000017466E+02 0.  0.
         12    1    3    3    0    0 -0.33101479833E+01 -0.35947825885E+02 -0.72509318184E+01  0.36820908161E+02  0.00000000000E+00 0. -1.
         11    1    4    4    0    0 -0.10372351190E+01  0.12836089457E+02  0.19659124867E+02  0.23501536972E+02  0.51100000000E-03 0. -1.
        -11    1    4    4    0    0 -0.40557502750E+01  0.17439212693E+02 -0.97371762541E+01  0.20381066000E+02  0.51100000000E-03 0.  1.
         12    1    4    4    0    0  0.84031333773E+01  0.56725237352E+01 -0.26710167949E+01  0.10484488867E+02  0.00000000000E+00 0. -1.
</event>
<event>
 8    1  0.1261983E-006  0.9118800E+02  0.7816164E-02  0.1184000E+00
        -11   -1    0    0    0    0  0.00000000000E+00  0.00000000000E+00  0.45593999997E+02  0.45594000000E+02  0.51100000000E-03 0.  1.
         11   -1    0    0    0    0 -0.00000000000E+00 -0.00000000000E+00 -0.45593999997E+02  0.45594000000E+02  0.51100000000E-03 0. -1.
         23    2    1    2    0    0  0.00000000000E+00  0.00000000000E+00  0.74940054162E-15  0.91188000000E+02  0.91188000000E+02 0.  0.
    9900012    2    3    3    0    0 -0.36122156197E+02  0.71372199940E+01  0.17213814029E+00  0.54367085982E+02  0.40000004113E+02 0.  0.
        -12    1    3    3    0    0  0.36122156197E+02 -0.71372199940E+01 -0.17213814029E+00  0.36820914018E+02  0.00000000000E+00 0.  1.
         11    1    4    4    0    0 -0.35334714857E+02  0.11453791679E+02 -0.68355939203E+01  0.37768462536E+02  0.51100000000E-03 0. -1.
        -11    1    4    4    0    0  0.36993976762E+01 -0.39161530618E+01 -0.26040978973E+01  0.59835711820E+01  0.51100000000E-03 0.  1.
        -12    1    4    4    0    0 -0.44868390168E+01 -0.40041862265E+00  0.96118299579E+01  0.10615052264E+02  0.00000000000E+00 0.  1.
</event>
<event>
 8    1  0.1261983E-006  0.9118800E+02  0.7816164E-02  0.1184000E+00
        -11   -1    0    0    0    0  0.00000000000E+00  0.00000000000E+00  0.45593999997E+02  0.45594000000E+02  0.51100000000E-03 0.  1.
         11   -1    0    0    0    0 -0.00000000000E+00 -0.00000000000E+00 -0.45593999997E+02  0.45594000000E+02  0.51100000000E-03 0. -1.
         23    2    1    2    0    0  0.00000000000E+00  0.71054273576E-14  0.00000000000E+00  0.91188000000E+02  0.91188000000E+02 0.  0.
    9900012    2    3    3    0    0  0.19382860985E+02 -0.20955070601E+02  0.23258753665E+02  0.54367083310E+02  0.39999998022E+02 0.  0.
         12    1    3    3    0    0 -0.19382860985E+02  0.20955070601E+02 -0.23258753665E+02  0.36820916690E+02  0.00000000000E+00 0. -1.
         11    1    4    4    0    0  0.30328868732E+01  0.40212982055E+01  0.15151942455E+02  0.15967172651E+02  0.51100000000E-03 0. -1.
        -11    1    4    4    0    0  0.59068938227E+01 -0.25499410750E+02  0.95127053683E+01  0.27849648237E+02  0.51100000000E-03 0.  1.
         12    1    4    4    0    0  0.10443080289E+02  0.52304194336E+00 -0.14058941584E+01  0.10550262422E+02  0.00000000000E+00 0. -1.
</event>
<event>
 8    1  0.1261983E-006  0.9118800E+02  0.7816164E-02  0.1184000E+00
        -11   -1    0    0    0    0  0.00000000000E+00  0.00000000000E+00  0.45593999997E+02  0.45594000000E+02  0.51100000000E-03 0.  1.
         11   -1    0    0    0    0 -0.00000000000E+00 -0.00000000000E+00 -0.45593999997E+02  0.45594000000E+02  0.51100000000E-03 0. -1.
         23    2    1    2    0    0  0.44408920985E-15  0.35527136788E-14 -0.35527136788E-14  0.91188000000E+02  0.91188000000E+02 0.  0.
    9900012    2    3    3    0    0  0.20994246001E+01 -0.23490090011E+02 -0.28276986673E+02  0.54367083557E+02  0.39999998584E+02 0.  0.
        -12    1    3    3    0    0 -0.20994246001E+01  0.23490090011E+02  0.28276986673E+02  0.36820916443E+02  0.00000000000E+00 0.  1.
         11    1    4    4    0    0  0.74249751724E+01 -0.22060280377E+01 -0.11283191246E+02  0.13686022832E+02  0.51100000000E-03 0. -1.
        -11    1    4    4    0    0  0.39739889368E+01 -0.19712977654E+01  0.71379172061E+01  0.84040743245E+01  0.51100000000E-03 0.  1.
         12    1    4    4    0    0 -0.92995395091E+01 -0.19312764208E+02 -0.24131712634E+02  0.32276986400E+02  0.00000000000E+00 0. -1.
</event>
<event>
 8    1  0.1261983E-006  0.9118800E+02  0.7816164E-02  0.1184000E+00
        -11   -1    0    0    0    0  0.00000000000E+00  0.00000000000E+00  0.45593999997E+02  0.45594000000E+02  0.51100000000E-03 0. -1.
         11   -1    0    0    0    0 -0.00000000000E+00 -0.00000000000E+00 -0.45593999997E+02  0.45594000000E+02  0.51100000000E-03 0.  1.
         23    2    1    2    0    0  0.00000000000E+00  0.00000000000E+00  0.00000000000E+00  0.91188000000E+02  0.91188000000E+02 0.  0.
    9900012    2    3    3    0    0 -0.24410188430E+02  0.22389985855E+02  0.16081465242E+02  0.54367050934E+02  0.39999924215E+02 0.  0.
        -12    1    3    3    0    0  0.24410188430E+02 -0.22389985855E+02 -0.16081465242E+02  0.36820949066E+02  0.00000000000E+00 0.  1.
         11    1    4    4    0    0  0.86936533492E+01  0.17872220408E+01  0.26227230848E+01  0.92548607672E+01  0.51100000000E-03 0.  1.
        -11    1    4    4    0    0 -0.19289293808E+02  0.19640113034E+02  0.14702210261E+02  0.31208426465E+02  0.51100000000E-03 0. -1.
        -12    1    4    4    0    0 -0.13814547971E+02  0.96265078038E+00 -0.12434681035E+01  0.13903763703E+02  0.00000000000E+00 0.  1.
</event>
<event>
 8    1  0.1261983E-006  0.9118800E+02  0.7816164E-02  0.1184000E+00
        -11   -1    0    0    0    0  0.00000000000E+00  0.00000000000E+00  0.45593999997E+02  0.45594000000E+02  0.51100000000E-03 0. -1.
         11   -1    0    0    0    0 -0.00000000000E+00 -0.00000000000E+00 -0.45593999997E+02  0.45594000000E+02  0.51100000000E-03 0.  1.
         23    2    1    2    0    0  0.00000000000E+00  0.00000000000E+00  0.00000000000E+00  0.91188000000E+02  0.91188000000E+02 0.  0.
    9900012    2    3    3    0    0 -0.13506539436E+02 -0.21511204673E+02 -0.26657465990E+02  0.54367095244E+02  0.40000025229E+02 0.  0.
         12    1    3    3    0    0  0.13506539436E+02  0.21511204673E+02  0.26657465990E+02  0.36820904756E+02  0.00000000000E+00 0. -1.
         11    1    4    4    0    0 -0.14870581507E+02 -0.12166598422E+02  0.31671115946E+01  0.19472824850E+02  0.51100000000E-03 0. -1.
        -11    1    4    4    0    0 -0.19231467086E+01  0.18214765071E+01 -0.18382137943E+02  0.18572002195E+02  0.51100000000E-03 0.  1.
         12    1    4    4    0    0  0.32871887789E+01 -0.11166082758E+02 -0.11442439641E+02  0.16322268199E+02  0.00000000000E+00 0. -1.
</event>
<event>
 8    1  0.1261983E-006  0.9118800E+02  0.7816164E-02  0.1184000E+00
        -11   -1    0    0    0    0  0.00000000000E+00  0.00000000000E+00  0.45593999997E+02  0.45594000000E+02  0.51100000000E-03 0. -1.
         11   -1    0    0    0    0 -0.00000000000E+00 -0.00000000000E+00 -0.45593999997E+02  0.45594000000E+02  0.51100000000E-03 0.  1.
         23    2    1    2    0    0  0.77715611724E-15  0.00000000000E+00  0.88817841970E-15  0.91188000000E+02  0.91188000000E+02 0.  0.
    9900012    2    3    3    0    0  0.90782062420E+00  0.36097839201E+02 -0.72043458017E+01  0.54367072096E+02  0.39999972457E+02 0.  0.
         12    1    3    3    0    0 -0.90782062420E+00 -0.36097839201E+02  0.72043458017E+01  0.36820927904E+02  0.00000000000E+00 0. -1.
         11    1    4    4    0    0 -0.77208629704E+01  0.15418500842E+02  0.48054708933E+01  0.17900682780E+02  0.51100000000E-03 0. -1.
        -11    1    4    4    0    0 -0.42616516349E+01  0.64750281001E+01 -0.15161204123E+02  0.17027911624E+02  0.51100000000E-03 0.  1.
        -12    1    4    4    0    0  0.12890335229E+02  0.14204310259E+02  0.31513874278E+01  0.19438477692E+02  0.00000000000E+00 0.  1.
</event>
<event>
 8    1  0.1261983E-006  0.9118800E+02  0.7816164E-02  0.1184000E+00
        -11   -1    0    0    0    0  0.00000000000E+00  0.00000000000E+00  0.45593999997E+02  0.45594000000E+02  0.51100000000E-03 0.  1.
         11   -1    0    0    0    0 -0.00000000000E+00 -0.00000000000E+00 -0.45593999997E+02  0.45594000000E+02  0.51100000000E-03 0. -1.
         23    2    1    2    0    0  0.35527136788E-14  0.00000000000E+00  0.35527136788E-14  0.91188000000E+02  0.91188000000E+02 0.  0.
    9900012    2    3    3    0    0  0.19876786262E+02  0.68944206164E+01  0.30218538920E+02  0.54367085261E+02  0.40000002469E+02 0.  0.
         12    1    3    3    0    0 -0.19876786262E+02 -0.68944206164E+01 -0.30218538920E+02  0.36820914739E+02  0.00000000000E+00 0. -1.
         11    1    4    4    0    0  0.55605742492E+01 -0.12881420376E+02  0.53753265575E+01  0.15024816562E+02  0.51100000000E-03 0. -1.
        -11    1    4    4    0    0  0.14504100290E+02  0.10106679315E+02  0.23753849517E+02  0.29610120891E+02  0.51100000000E-03 0.  1.
        -12    1    4    4    0    0 -0.18788827693E+00  0.96691616768E+01  0.10893628455E+01  0.97321478074E+01  0.00000000000E+00 0.  1.
</event>
<event>
 8    1  0.1261983E-006  0.9118800E+02  0.7816164E-02  0.1184000E+00
        -11   -1    0    0    0    0  0.00000000000E+00  0.00000000000E+00  0.45593999997E+02  0.45594000000E+02  0.51100000000E-03 0.  1.
         11   -1    0    0    0    0 -0.00000000000E+00 -0.00000000000E+00 -0.45593999997E+02  0.45594000000E+02  0.51100000000E-03 0. -1.
         23    2    1    2    0    0  0.00000000000E+00  0.35527136788E-14  0.00000000000E+00  0.91188000000E+02  0.91188000000E+02 0.  0.
    9900012    2    3    3    0    0 -0.98231143588E+01 -0.23751415819E+02 -0.26365820863E+02  0.54367084219E+02  0.40000000095E+02 0.  0.
        -12    1    3    3    0    0  0.98231143588E+01  0.23751415819E+02  0.26365820863E+02  0.36820915781E+02  0.00000000000E+00 0.  1.
         11    1    4    4    0    0  0.24615492122E+01 -0.25661649293E+01  0.53595215118E+01  0.64318658308E+01  0.51100000000E-03 0.  1.
        -11    1    4    4    0    0  0.76321339261E+00 -0.40338830421E+01 -0.25036265632E+02  0.25370638623E+02  0.51100000000E-03 0. -1.
        -12    1    4    4    0    0 -0.13047876964E+02 -0.17151367848E+02 -0.66890767424E+01  0.22564579765E+02  0.00000000000E+00 0.  1.
</event>
<event>
 8    1  0.1261983E-006  0.9118800E+02  0.7816164E-02  0.1184000E+00
        -11   -1    0    0    0    0  0.00000000000E+00  0.00000000000E+00  0.45593999997E+02  0.45594000000E+02  0.51100000000E-03 0.  1.
         11   -1    0    0    0    0 -0.00000000000E+00 -0.00000000000E+00 -0.45593999997E+02  0.45594000000E+02  0.51100000000E-03 0. -1.
         23    2    1    2    0    0 -0.71054273576E-14  0.00000000000E+00  0.00000000000E+00  0.91188000000E+02  0.91188000000E+02 0.  0.
    9900012    2    3    3    0    0 -0.33675654086E+02 -0.99479076411E+01  0.11080144875E+02  0.54367079928E+02  0.39999990311E+02 0.  0.
        -12    1    3    3    0    0  0.33675654086E+02  0.99479076411E+01 -0.11080144875E+02  0.36820920072E+02  0.00000000000E+00 0.  1.
         11    1    4    4    0    0 -0.18557726728E+02 -0.99849396161E+01  0.17987099196E+01  0.21150025960E+02  0.51100000000E-03 0. -1.
        -11    1    4    4    0    0  0.69882625024E+01  0.37215494468E+01  0.72134132103E+01  0.10710699020E+02  0.51100000000E-03 0.  1.
        -12    1    4    4    0    0 -0.22106189860E+02 -0.36845174718E+01  0.20680217451E+01  0.22506354948E+02  0.00000000000E+00 0.  1.
</event>
<event>
 8    1  0.1261983E-006  0.9118800E+02  0.7816164E-02  0.1184000E+00
        -11   -1    0    0    0    0  0.00000000000E+00  0.00000000000E+00  0.45593999997E+02  0.45594000000E+02  0.51100000000E-03 0.  1.
         11   -1    0    0    0    0 -0.00000000000E+00 -0.00000000000E+00 -0.45593999997E+02  0.45594000000E+02  0.51100000000E-03 0. -1.
         23    2    1    2    0    0  0.00000000000E+00  0.00000000000E+00  0.35527136788E-14  0.91188000000E+02  0.91188000000E+02 0.  0.
    9900012    2    3    3    0    0 -0.17870383527E+02 -0.17256168847E+02  0.27178056759E+02  0.54367180620E+02  0.40000219858E+02 0.  0.
         12    1    3    3    0    0  0.17870383527E+02  0.17256168847E+02 -0.27178056759E+02  0.36820819380E+02  0.00000000000E+00 0. -1.
         11    1    4    4    0    0 -0.25021101488E+02 -0.13449509746E+02  0.53527800772E+01  0.28906696230E+02  0.51100000000E-03 0. -1.
        -11    1    4    4    0    0  0.16828333714E+01 -0.57156468069E+01  0.16684563923E+02  0.17716523929E+02  0.51100000000E-03 0.  1.
         12    1    4    4    0    0  0.54678845904E+01  0.19089877061E+01  0.51407127587E+01  0.77439604611E+01  0.00000000000E+00 0. -1.
</event>
<event>
 8    1  0.1261983E-006  0.9118800E+02  0.7816164E-02  0.1184000E+00
        -11   -1    0    0    0    0  0.00000000000E+00  0.00000000000E+00  0.45593999997E+02  0.45594000000E+02  0.51100000000E-03 0. -1.
         11   -1    0    0    0    0 -0.00000000000E+00 -0.00000000000E+00 -0.45593999997E+02  0.45594000000E+02  0.51100000000E-03 0.  1.
         23    2    1    2    0    0  0.35527136788E-14  0.35527136788E-14 -0.88817841970E-15  0.91188000000E+02  0.91188000000E+02 0.  0.
    9900012    2    3    3    0    0 -0.22542048434E+02 -0.28467664657E+02 -0.61014798974E+01  0.54367082907E+02  0.39999997102E+02 0.  0.
         12    1    3    3    0    0  0.22542048434E+02  0.28467664657E+02  0.61014798974E+01  0.36820917093E+02  0.00000000000E+00 0. -1.
         11    1    4    4    0    0 -0.45379485588E+01  0.59803985530E+01 -0.11068705541E+02  0.13374392943E+02  0.51100000000E-03 0. -1.
        -11    1    4    4    0    0 -0.19683577025E+02 -0.33089401407E+02  0.43516665976E+01  0.38746466838E+02  0.51100000000E-03 0.  1.
         12    1    4    4    0    0  0.16794771496E+01 -0.13586618034E+01  0.61555904595E+00  0.22462231258E+01  0.00000000000E+00 0. -1.
</event>
<event>
 8    1  0.1261983E-006  0.9118800E+02  0.7816164E-02  0.1184000E+00
        -11   -1    0    0    0    0  0.00000000000E+00  0.00000000000E+00  0.45593999997E+02  0.45594000000E+02  0.51100000000E-03 0.  1.
         11   -1    0    0    0    0 -0.00000000000E+00 -0.00000000000E+00 -0.45593999997E+02  0.45594000000E+02  0.51100000000E-03 0. -1.
         23    2    1    2    0    0  0.00000000000E+00  0.00000000000E+00  0.35527136788E-14  0.91188000000E+02  0.91188000000E+02 0.  0.
    9900012    2    3    3    0    0 -0.22242947532E+02  0.90306344794E+01 -0.27919012304E+02  0.54367186293E+02  0.40000232791E+02 0.  0.
        -12    1    3    3    0    0  0.22242947532E+02 -0.90306344794E+01  0.27919012304E+02  0.36820813707E+02  0.00000000000E+00 0.  1.
         11    1    4    4    0    0 -0.63858513657E+01 -0.15910775818E+01 -0.56793331323E+00  0.66055411622E+01  0.51100000000E-03 0. -1.
        -11    1    4    4    0    0 -0.76694697231E+01 -0.66420983526E+01 -0.26789537728E+02  0.28646423307E+02  0.51100000000E-03 0.  1.
         12    1    4    4    0    0 -0.81876264435E+01  0.17263810414E+02 -0.56154126302E+00  0.19115221824E+02  0.00000000000E+00 0. -1.
</event>
<event>
 8    1  0.1261983E-006  0.9118800E+02  0.7816164E-02  0.1184000E+00
        -11   -1    0    0    0    0  0.00000000000E+00  0.00000000000E+00  0.45593999997E+02  0.45594000000E+02  0.51100000000E-03 0.  1.
         11   -1    0    0    0    0 -0.00000000000E+00 -0.00000000000E+00 -0.45593999997E+02  0.45594000000E+02  0.51100000000E-03 0. -1.
         23    2    1    2    0    0  0.17763568394E-14  0.35527136788E-14  0.00000000000E+00  0.91188000000E+02  0.91188000000E+02 0.  0.
    9900012    2    3    3    0    0  0.10157104595E+02 -0.30115449473E+02  0.18592108217E+02  0.54367169501E+02  0.40000194510E+02 0.  0.
         12    1    3    3    0    0 -0.10157104595E+02  0.30115449473E+02 -0.18592108217E+02  0.36820830499E+02  0.00000000000E+00 0. -1.
         11    1    4    4    0    0  0.57453065065E+01  0.50587344403E+01  0.14700960921E+02  0.16574606881E+02  0.51100000000E-03 0. -1.
        -11    1    4    4    0    0 -0.15632466082E+00  0.34394893236E+00  0.18884984283E+01  0.19259192201E+01  0.51100000000E-03 0.  1.
         12    1    4    4    0    0  0.45681227497E+01 -0.35518132845E+02  0.20026488675E+01  0.35866643400E+02  0.00000000000E+00 0. -1.
</event>
<event>
 8    1  0.1261983E-006  0.9118800E+02  0.7816164E-02  0.1184000E+00
        -11   -1    0    0    0    0  0.00000000000E+00  0.00000000000E+00  0.45593999997E+02  0.45594000000E+02  0.51100000000E-03 0.  1.
         11   -1    0    0    0    0 -0.00000000000E+00 -0.00000000000E+00 -0.45593999997E+02  0.45594000000E+02  0.51100000000E-03 0. -1.
         23    2    1    2    0    0  0.00000000000E+00 -0.35527136788E-14  0.17763568394E-14  0.91188000000E+02  0.91188000000E+02 0.  0.
    9900012    2    3    3    0    0  0.12153552236E+02 -0.31334605093E+02  0.15040381850E+02  0.54367090255E+02  0.40000013853E+02 0.  0.
         12    1    3    3    0    0 -0.12153552236E+02  0.31334605093E+02 -0.15040381850E+02  0.36820909745E+02  0.00000000000E+00 0. -1.
         11    1    4    4    0    0 -0.13009345489E+01 -0.99851449854E+01  0.68207944042E-01  0.10069766813E+02  0.51100000000E-03 0. -1.
        -11    1    4    4    0    0  0.17248704870E+01 -0.92667075918E+01 -0.10278725274E+02  0.13946298480E+02  0.51100000000E-03 0.  1.
         12    1    4    4    0    0  0.11729616298E+02 -0.12082752516E+02  0.25250899179E+02  0.30351024962E+02  0.00000000000E+00 0. -1.
</event>
<event>
 8    1  0.1261983E-006  0.9118800E+02  0.7816164E-02  0.1184000E+00
        -11   -1    0    0    0    0  0.00000000000E+00  0.00000000000E+00  0.45593999997E+02  0.45594000000E+02  0.51100000000E-03 0.  1.
         11   -1    0    0    0    0 -0.00000000000E+00 -0.00000000000E+00 -0.45593999997E+02  0.45594000000E+02  0.51100000000E-03 0. -1.
         23    2    1    2    0    0  0.00000000000E+00  0.35527136788E-14  0.00000000000E+00  0.91188000000E+02  0.91188000000E+02 0.  0.
    9900012    2    3    3    0    0  0.51033384103E+01 -0.16961884017E+02  0.32280519220E+02  0.54367061752E+02  0.39999948877E+02 0.  0.
         12    1    3    3    0    0 -0.51033384103E+01  0.16961884017E+02 -0.32280519220E+02  0.36820938248E+02  0.00000000000E+00 0. -1.
         11    1    4    4    0    0  0.12148247239E+01 -0.26710727095E+00 -0.84395698463E+01  0.85307376502E+01  0.51100000000E-03 0. -1.
        -11    1    4    4    0    0  0.97320914614E+00 -0.60863685603E+01  0.36393488340E+01  0.71579241747E+01  0.51100000000E-03 0.  1.
         12    1    4    4    0    0  0.29153045402E+01 -0.10608408185E+02  0.37080740232E+02  0.38678399928E+02  0.00000000000E+00 0. -1.
</event>
<event>
 8    1  0.1261983E-006  0.9118800E+02  0.7816164E-02  0.1184000E+00
        -11   -1    0    0    0    0  0.00000000000E+00  0.00000000000E+00  0.45593999997E+02  0.45594000000E+02  0.51100000000E-03 0.  1.
         11   -1    0    0    0    0 -0.00000000000E+00 -0.00000000000E+00 -0.45593999997E+02  0.45594000000E+02  0.51100000000E-03 0. -1.
         23    2    1    2    0    0  0.88817841970E-15 -0.71054273576E-14  0.00000000000E+00  0.91188000000E+02  0.91188000000E+02 0.  0.
    9900012    2    3    3    0    0  0.42880050660E+01 -0.28614586308E+02  0.22772780712E+02  0.54367067388E+02  0.39999961725E+02 0.  0.
         12    1    3    3    0    0 -0.42880050660E+01  0.28614586308E+02 -0.22772780712E+02  0.36820932612E+02  0.00000000000E+00 0. -1.
         11    1    4    4    0    0 -0.90905063447E+01 -0.32484067915E+01  0.76661924711E+01  0.12327204044E+02  0.51100000000E-03 0. -1.
        -11    1    4    4    0    0  0.16532337820E+01  0.57470153323E+01  0.24758774446E+01  0.64723517016E+01  0.51100000000E-03 0.  1.
        -12    1    4    4    0    0  0.11725277629E+02 -0.31113194849E+02  0.12630710797E+02  0.35567511642E+02  0.00000000000E+00 0.  1.
</event>
<event>
 8    1  0.1261983E-006  0.9118800E+02  0.7816164E-02  0.1184000E+00
        -11   -1    0    0    0    0  0.00000000000E+00  0.00000000000E+00  0.45593999997E+02  0.45594000000E+02  0.51100000000E-03 0.  1.
         11   -1    0    0    0    0 -0.00000000000E+00 -0.00000000000E+00 -0.45593999997E+02  0.45594000000E+02  0.51100000000E-03 0. -1.
         23    2    1    2    0    0 -0.35527136788E-14 -0.94368957093E-15  0.35527136788E-14  0.91188000000E+02  0.91188000000E+02 0.  0.
    9900012    2    3    3    0    0 -0.18355511930E+02 -0.13739927254E+00  0.31919219946E+02  0.54367077975E+02  0.39999985861E+02 0.  0.
         12    1    3    3    0    0  0.18355511930E+02  0.13739927254E+00 -0.31919219946E+02  0.36820922025E+02  0.00000000000E+00 0. -1.
         11    1    4    4    0    0  0.55938984158E+01 -0.25923466876E+01  0.59538549047E+01  0.85709013133E+01  0.51100000000E-03 0. -1.
        -11    1    4    4    0    0 -0.55724730024E+01  0.11059347378E+02  0.21814311848E+02  0.25084374049E+02  0.51100000000E-03 0.  1.
         12    1    4    4    0    0 -0.18376937344E+02 -0.86043999630E+01  0.41510531935E+01  0.20711802613E+02  0.00000000000E+00 0. -1.
</event>
<event>
 8    1  0.1261983E-006  0.9118800E+02  0.7816164E-02  0.1184000E+00
        -11   -1    0    0    0    0  0.00000000000E+00  0.00000000000E+00  0.45593999997E+02  0.45594000000E+02  0.51100000000E-03 0. -1.
         11   -1    0    0    0    0 -0.00000000000E+00 -0.00000000000E+00 -0.45593999997E+02  0.45594000000E+02  0.51100000000E-03 0.  1.
         23    2    1    2    0    0  0.00000000000E+00  0.00000000000E+00  0.00000000000E+00  0.91188000000E+02  0.91188000000E+02 0.  0.
    9900012    2    3    3    0    0  0.33931224829E+02  0.12398665955E+02  0.71222513235E+01  0.54367063024E+02  0.39999951776E+02 0.  0.
        -12    1    3    3    0    0 -0.33931224829E+02 -0.12398665955E+02 -0.71222513235E+01  0.36820936976E+02  0.00000000000E+00 0.  1.
         11    1    4    4    0    0  0.25959724194E+01  0.15907371721E+01  0.98130128068E+01  0.10274470213E+02  0.51100000000E-03 0.  1.
        -11    1    4    4    0    0  0.27593948177E+02 -0.34474855364E+01  0.36524865470E+01  0.28047313432E+02  0.51100000000E-03 0. -1.
        -12    1    4    4    0    0  0.37413042330E+01  0.14255414319E+02 -0.63432480302E+01  0.16045279379E+02  0.00000000000E+00 0.  1.
</event>
<event>
 8    1  0.1261983E-006  0.9118800E+02  0.7816164E-02  0.1184000E+00
        -11   -1    0    0    0    0  0.00000000000E+00  0.00000000000E+00  0.45593999997E+02  0.45594000000E+02  0.51100000000E-03 0.  1.
         11   -1    0    0    0    0 -0.00000000000E+00 -0.00000000000E+00 -0.45593999997E+02  0.45594000000E+02  0.51100000000E-03 0. -1.
         23    2    1    2    0    0  0.35527136788E-14  0.00000000000E+00 -0.35527136788E-14  0.91188000000E+02  0.91188000000E+02 0.  0.
    9900012    2    3    3    0    0 -0.17738116396E+02 -0.14340706821E+02 -0.28904730486E+02  0.54367080812E+02  0.39999992327E+02 0.  0.
        -12    1    3    3    0    0  0.17738116396E+02  0.14340706821E+02  0.28904730486E+02  0.36820919188E+02  0.00000000000E+00 0.  1.
         11    1    4    4    0    0 -0.29361867754E+01  0.83063528324E+01 -0.22421961206E+02  0.24090683567E+02  0.51100000000E-03 0. -1.
        -11    1    4    4    0    0 -0.14438142193E+02 -0.11713634786E+02 -0.48630772709E+01  0.19217666629E+02  0.51100000000E-03 0.  1.
         12    1    4    4    0    0 -0.36378742804E+00 -0.10933424867E+02 -0.16196920091E+01  0.11058730615E+02  0.00000000000E+00 0. -1.
</event>
<event>
 8    1  0.1261983E-006  0.9118800E+02  0.7816164E-02  0.1184000E+00
        -11   -1    0    0    0    0  0.00000000000E+00  0.00000000000E+00  0.45593999997E+02  0.45594000000E+02  0.51100000000E-03 0. -1.
         11   -1    0    0    0    0 -0.00000000000E+00 -0.00000000000E+00 -0.45593999997E+02  0.45594000000E+02  0.51100000000E-03 0.  1.
         23    2    1    2    0    0 -0.35527136788E-14 -0.35527136788E-14 -0.44408920985E-15  0.91188000000E+02  0.91188000000E+02 0.  0.
    9900012    2    3    3    0    0  0.28966977907E+02  0.22531236331E+02 -0.30065787223E+01  0.54367055753E+02  0.39999935199E+02 0.  0.
        -12    1    3    3    0    0 -0.28966977907E+02 -0.22531236331E+02  0.30065787223E+01  0.36820944247E+02  0.00000000000E+00 0.  1.
         11    1    4    4    0    0  0.22536599346E+02  0.19887250631E+02  0.21005803167E+01  0.30129943340E+02  0.51100000000E-03 0.  1.
        -11    1    4    4    0    0  0.43053654187E+01 -0.66882309360E+01  0.57115583280E+01  0.97923696437E+01  0.51100000000E-03 0. -1.
        -12    1    4    4    0    0  0.21250131424E+01  0.93322166363E+01 -0.10818717367E+02  0.14444742769E+02  0.00000000000E+00 0.  1.
</event>
<event>
 8    1  0.1261983E-006  0.9118800E+02  0.7816164E-02  0.1184000E+00
        -11   -1    0    0    0    0  0.00000000000E+00  0.00000000000E+00  0.45593999997E+02  0.45594000000E+02  0.51100000000E-03 0.  1.
         11   -1    0    0    0    0 -0.00000000000E+00 -0.00000000000E+00 -0.45593999997E+02  0.45594000000E+02  0.51100000000E-03 0. -1.
         23    2    1    2    0    0  0.44408920985E-15  0.17763568394E-14  0.00000000000E+00  0.91188000000E+02  0.91188000000E+02 0.  0.
    9900012    2    3    3    0    0 -0.35038534349E+01 -0.15703099041E+02 -0.33119710927E+02  0.54367088003E+02  0.40000008721E+02 0.  0.
        -12    1    3    3    0    0  0.35038534349E+01  0.15703099041E+02  0.33119710927E+02  0.36820911997E+02  0.00000000000E+00 0.  1.
         11    1    4    4    0    0  0.36472037348E+01 -0.72906876817E+01 -0.83698817773E+01  0.11683798320E+02  0.51100000000E-03 0. -1.
        -11    1    4    4    0    0  0.76764039601E+01  0.17797798460E+01  0.39462743998E+01  0.88129379867E+01  0.51100000000E-03 0.  1.
        -12    1    4    4    0    0 -0.14827461130E+02 -0.10192191206E+02 -0.28696103549E+02  0.33870351697E+02  0.00000000000E+00 0.  1.
</event>
<event>
 8    1  0.1261983E-006  0.9118800E+02  0.7816164E-02  0.1184000E+00
        -11   -1    0    0    0    0  0.00000000000E+00  0.00000000000E+00  0.45593999997E+02  0.45594000000E+02  0.51100000000E-03 0. -1.
         11   -1    0    0    0    0 -0.00000000000E+00 -0.00000000000E+00 -0.45593999997E+02  0.45594000000E+02  0.51100000000E-03 0.  1.
         23    2    1    2    0    0  0.88817841970E-15  0.00000000000E+00  0.00000000000E+00  0.91188000000E+02  0.91188000000E+02 0.  0.
    9900012    2    3    3    0    0  0.74528448207E+01 -0.29191032041E+02 -0.21168839092E+02  0.54367068507E+02  0.39999964275E+02 0.  0.
        -12    1    3    3    0    0 -0.74528448207E+01  0.29191032041E+02  0.21168839092E+02  0.36820931493E+02  0.00000000000E+00 0.  1.
         11    1    4    4    0    0 -0.91704580805E+01 -0.12411876584E+02  0.30743775328E+01  0.15735430697E+02  0.51100000000E-03 0. -1.
        -11    1    4    4    0    0  0.84414032931E+01 -0.18154295225E+02 -0.22565906127E+02  0.30167131854E+02  0.51100000000E-03 0.  1.
        -12    1    4    4    0    0  0.81818996081E+01  0.13751397681E+01 -0.16773104971E+01  0.84645059562E+01  0.00000000000E+00 0.  1.
</event>
<event>
 8    1  0.1261983E-006  0.9118800E+02  0.7816164E-02  0.1184000E+00
        -11   -1    0    0    0    0  0.00000000000E+00  0.00000000000E+00  0.45593999997E+02  0.45594000000E+02  0.51100000000E-03 0.  1.
         11   -1    0    0    0    0 -0.00000000000E+00 -0.00000000000E+00 -0.45593999997E+02  0.45594000000E+02  0.51100000000E-03 0. -1.
         23    2    1    2    0    0  0.00000000000E+00 -0.35527136788E-14  0.00000000000E+00  0.91188000000E+02  0.91188000000E+02 0.  0.
    9900012    2    3    3    0    0 -0.21243351558E+02  0.18162513781E+02  0.23971307483E+02  0.54367075586E+02  0.39999980413E+02 0.  0.
         12    1    3    3    0    0  0.21243351558E+02 -0.18162513781E+02 -0.23971307483E+02  0.36820924414E+02  0.00000000000E+00 0. -1.
         11    1    4    4    0    0  0.26709737254E+01  0.10437867246E+00 -0.33361180741E+00  0.26937506655E+01  0.51100000000E-03 0. -1.
        -11    1    4    4    0    0  0.48766551201E+01  0.10669692324E+02  0.17683288766E+02  0.21220810571E+02  0.51100000000E-03 0.  1.
         12    1    4    4    0    0 -0.28790980404E+02  0.73884427848E+01  0.66216305244E+01  0.30452514349E+02  0.00000000000E+00 0. -1.
</event>
<event>
 8    1  0.1261983E-006  0.9118800E+02  0.7816164E-02  0.1184000E+00
        -11   -1    0    0    0    0  0.00000000000E+00  0.00000000000E+00  0.45593999997E+02  0.45594000000E+02  0.51100000000E-03 0. -1.
         11   -1    0    0    0    0 -0.00000000000E+00 -0.00000000000E+00 -0.45593999997E+02  0.45594000000E+02  0.51100000000E-03 0.  1.
         23    2    1    2    0    0  0.17763568394E-14  0.00000000000E+00  0.00000000000E+00  0.91188000000E+02  0.91188000000E+02 0.  0.
    9900012    2    3    3    0    0 -0.11604476929E+02 -0.25499884126E+02  0.23892933242E+02  0.54367078853E+02  0.39999987861E+02 0.  0.
        -12    1    3    3    0    0  0.11604476929E+02  0.25499884126E+02 -0.23892933242E+02  0.36820921147E+02  0.00000000000E+00 0.  1.
         11    1    4    4    0    0 -0.44034554143E+00  0.20317304796E+01  0.22209781683E+02  0.22306865212E+02  0.51100000000E-03 0. -1.
        -11    1    4    4    0    0 -0.19073754445E+01 -0.12310468796E+02  0.58529492834E+01  0.13763819915E+02  0.51100000000E-03 0.  1.
         12    1    4    4    0    0 -0.92567559426E+01 -0.15221145809E+02 -0.41697977241E+01  0.18296393726E+02  0.00000000000E+00 0. -1.
</event>
<event>
 8    1  0.1261983E-006  0.9118800E+02  0.7816164E-02  0.1184000E+00
        -11   -1    0    0    0    0  0.00000000000E+00  0.00000000000E+00  0.45593999997E+02  0.45594000000E+02  0.51100000000E-03 0.  1.
         11   -1    0    0    0    0 -0.00000000000E+00 -0.00000000000E+00 -0.45593999997E+02  0.45594000000E+02  0.51100000000E-03 0. -1.
         23    2    1    2    0    0  0.00000000000E+00 -0.71054273576E-14  0.88817841970E-15  0.91188000000E+02  0.91188000000E+02 0.  0.
    9900012    2    3    3    0    0 -0.13329155986E+02 -0.34102306720E+02  0.38914397463E+01  0.54367122414E+02  0.40000087167E+02 0.  0.
        -12    1    3    3    0    0  0.13329155986E+02  0.34102306720E+02 -0.38914397463E+01  0.36820877586E+02  0.00000000000E+00 0.  1.
         11    1    4    4    0    0  0.10605616965E+02 -0.15906901620E+02  0.92516580968E-01  0.19118503862E+02  0.51100000000E-03 0. -1.
        -11    1    4    4    0    0 -0.20068900905E+00 -0.21556541584E+01  0.61369088639E+01  0.65075933796E+01  0.51100000000E-03 0.  1.
         12    1    4    4    0    0 -0.23734083941E+02 -0.16039750941E+02 -0.23379856985E+01  0.28741025172E+02  0.00000000000E+00 0. -1.
</event>
<event>
 8    1  0.1261983E-006  0.9118800E+02  0.7816164E-02  0.1184000E+00
        -11   -1    0    0    0    0  0.00000000000E+00  0.00000000000E+00  0.45593999997E+02  0.45594000000E+02  0.51100000000E-03 0.  1.
         11   -1    0    0    0    0 -0.00000000000E+00 -0.00000000000E+00 -0.45593999997E+02  0.45594000000E+02  0.51100000000E-03 0. -1.
         23    2    1    2    0    0  0.00000000000E+00  0.00000000000E+00  0.00000000000E+00  0.91188000000E+02  0.91188000000E+02 0.  0.
    9900012    2    3    3    0    0  0.18466446864E+02 -0.16405987639E+02 -0.27305942164E+02  0.54367074324E+02  0.39999977536E+02 0.  0.
        -12    1    3    3    0    0 -0.18466446864E+02  0.16405987639E+02  0.27305942164E+02  0.36820925676E+02  0.00000000000E+00 0.  1.
         11    1    4    4    0    0  0.17694107339E+02 -0.21755429338E+02 -0.92467641963E+01  0.29527661414E+02  0.51100000000E-03 0. -1.
        -11    1    4    4    0    0 -0.47823779027E+01 -0.39614264876E+01 -0.67934585653E+01  0.92040815816E+01  0.51100000000E-03 0.  1.
         12    1    4    4    0    0  0.55547174277E+01  0.93108681866E+01 -0.11265719403E+02  0.15635331328E+02  0.00000000000E+00 0. -1.
</event>
<event>
 8    1  0.1261983E-006  0.9118800E+02  0.7816164E-02  0.1184000E+00
        -11   -1    0    0    0    0  0.00000000000E+00  0.00000000000E+00  0.45593999997E+02  0.45594000000E+02  0.51100000000E-03 0. -1.
         11   -1    0    0    0    0 -0.00000000000E+00 -0.00000000000E+00 -0.45593999997E+02  0.45594000000E+02  0.51100000000E-03 0.  1.
         23    2    1    2    0    0  0.00000000000E+00  0.35527136788E-14  0.00000000000E+00  0.91188000000E+02  0.91188000000E+02 0.  0.
    9900012    2    3    3    0    0  0.70328027638E+01 -0.21456360182E+02 -0.29085130154E+02  0.54367075201E+02  0.39999979536E+02 0.  0.
         12    1    3    3    0    0 -0.70328027638E+01  0.21456360182E+02  0.29085130154E+02  0.36820924799E+02  0.00000000000E+00 0. -1.
         11    1    4    4    0    0 -0.20790869287E+01  0.33145922361E+01  0.24083099810E+01  0.45944620332E+01  0.51100000000E-03 0. -1.
        -11    1    4    4    0    0  0.55777576888E+01 -0.20029814044E+02 -0.36511770984E+02  0.42016832962E+02  0.51100000000E-03 0.  1.
        -12    1    4    4    0    0  0.35341320037E+01 -0.47411383738E+01  0.50183308487E+01  0.77557802062E+01  0.00000000000E+00 0.  1.
</event>
<event>
 8    1  0.1261983E-006  0.9118800E+02  0.7816164E-02  0.1184000E+00
        -11   -1    0    0    0    0  0.00000000000E+00  0.00000000000E+00  0.45593999997E+02  0.45594000000E+02  0.51100000000E-03 0. -1.
         11   -1    0    0    0    0 -0.00000000000E+00 -0.00000000000E+00 -0.45593999997E+02  0.45594000000E+02  0.51100000000E-03 0.  1.
         23    2    1    2    0    0  0.44408920985E-15  0.35527136788E-14  0.00000000000E+00  0.91188000000E+02  0.91188000000E+02 0.  0.
    9900012    2    3    3    0    0  0.31523459310E+01  0.27387660869E+02 -0.24408127444E+02  0.54367110032E+02  0.40000058939E+02 0.  0.
         12    1    3    3    0    0 -0.31523459310E+01 -0.27387660869E+02  0.24408127444E+02  0.36820889968E+02  0.00000000000E+00 0. -1.
         11    1    4    4    0    0 -0.61681656345E+00  0.13697595600E+01 -0.17375125584E+02  0.17439945334E+02  0.51100000000E-03 0. -1.
        -11    1    4    4    0    0  0.12580135021E+02  0.21927802128E+02 -0.93271024786E+01  0.26945930013E+02  0.51100000000E-03 0.  1.
        -12    1    4    4    0    0 -0.88109725270E+01  0.40900991811E+01  0.22941006193E+01  0.99812346849E+01  0.00000000000E+00 0.  1.
</event>
<event>
 8    1  0.1261983E-006  0.9118800E+02  0.7816164E-02  0.1184000E+00
        -11   -1    0    0    0    0  0.00000000000E+00  0.00000000000E+00  0.45593999997E+02  0.45594000000E+02  0.51100000000E-03 0. -1.
         11   -1    0    0    0    0 -0.00000000000E+00 -0.00000000000E+00 -0.45593999997E+02  0.45594000000E+02  0.51100000000E-03 0.  1.
         23    2    1    2    0    0  0.00000000000E+00  0.17763568394E-14  0.35527136788E-14  0.91188000000E+02  0.91188000000E+02 0.  0.
    9900012    2    3    3    0    0  0.16788839230E+02 -0.10537836979E+02 -0.31030115586E+02  0.54367092838E+02  0.40000019744E+02 0.  0.
         12    1    3    3    0    0 -0.16788839230E+02  0.10537836979E+02  0.31030115586E+02  0.36820907162E+02  0.00000000000E+00 0. -1.
         11    1    4    4    0    0  0.12920813608E+02  0.81232761515E+01 -0.63151598766E+01  0.16517151214E+02  0.51100000000E-03 0. -1.
        -11    1    4    4    0    0  0.10188230726E+01 -0.23047523536E+01 -0.20588534027E+02  0.20742170029E+02  0.51100000000E-03 0.  1.
        -12    1    4    4    0    0  0.28492025501E+01 -0.16356360777E+02 -0.41264216828E+01  0.17107771595E+02  0.00000000000E+00 0.  1.
</event>
<event>
 8    1  0.1261983E-006  0.9118800E+02  0.7816164E-02  0.1184000E+00
        -11   -1    0    0    0    0  0.00000000000E+00  0.00000000000E+00  0.45593999997E+02  0.45594000000E+02  0.51100000000E-03 0.  1.
         11   -1    0    0    0    0 -0.00000000000E+00 -0.00000000000E+00 -0.45593999997E+02  0.45594000000E+02  0.51100000000E-03 0. -1.
         23    2    1    2    0    0 -0.38857805862E-15 -0.71054273576E-14 -0.71054273576E-14  0.91188000000E+02  0.91188000000E+02 0.  0.
    9900012    2    3    3    0    0  0.29878370205E+00 -0.16437726904E+02 -0.32946795777E+02  0.54367088965E+02  0.40000010914E+02 0.  0.
         12    1    3    3    0    0 -0.29878370205E+00  0.16437726904E+02  0.32946795777E+02  0.36820911035E+02  0.00000000000E+00 0. -1.
         11    1    4    4    0    0 -0.45229361728E+01  0.17290309851E+01 -0.19168730047E+00  0.48459513052E+01  0.51100000000E-03 0.  1.
        -11    1    4    4    0    0 -0.87091032018E+01 -0.20959013593E+02 -0.15822890585E+02  0.27667536864E+02  0.51100000000E-03 0. -1.
         12    1    4    4    0    0  0.13530823077E+02  0.27922557041E+01 -0.16932217891E+02  0.21853600796E+02  0.00000000000E+00 0. -1.
</event>
<event>
 8    1  0.1261983E-006  0.9118800E+02  0.7816164E-02  0.1184000E+00
        -11   -1    0    0    0    0  0.00000000000E+00  0.00000000000E+00  0.45593999997E+02  0.45594000000E+02  0.51100000000E-03 0.  1.
         11   -1    0    0    0    0 -0.00000000000E+00 -0.00000000000E+00 -0.45593999997E+02  0.45594000000E+02  0.51100000000E-03 0. -1.
         23    2    1    2    0    0  0.00000000000E+00  0.17763568394E-14  0.00000000000E+00  0.91188000000E+02  0.91188000000E+02 0.  0.
    9900012    2    3    3    0    0 -0.35085345859E+02  0.94378500454E+01  0.59769428839E+01  0.54367104386E+02  0.40000046070E+02 0.  0.
        -12    1    3    3    0    0  0.35085345859E+02 -0.94378500454E+01 -0.59769428839E+01  0.36820895614E+02  0.00000000000E+00 0.  1.
         11    1    4    4    0    0 -0.10910607022E+02 -0.14409858012E+01 -0.11868886704E+02  0.16186051326E+02  0.51100000000E-03 0. -1.
        -11    1    4    4    0    0 -0.12147142394E+02  0.14271072050E+02  0.33426589980E+01  0.19036542103E+02  0.51100000000E-03 0.  1.
         12    1    4    4    0    0 -0.12027596443E+02 -0.33922362034E+01  0.14503170590E+02  0.19144510958E+02  0.00000000000E+00 0. -1.
</event>
<event>
 8    1  0.1261983E-006  0.9118800E+02  0.7816164E-02  0.1184000E+00
        -11   -1    0    0    0    0  0.00000000000E+00  0.00000000000E+00  0.45593999997E+02  0.45594000000E+02  0.51100000000E-03 0. -1.
         11   -1    0    0    0    0 -0.00000000000E+00 -0.00000000000E+00 -0.45593999997E+02  0.45594000000E+02  0.51100000000E-03 0.  1.
         23    2    1    2    0    0 -0.88817841970E-15  0.00000000000E+00  0.00000000000E+00  0.91188000000E+02  0.91188000000E+02 0.  0.
    9900012    2    3    3    0    0  0.47378784227E+01 -0.41881124301E+01  0.36273866579E+02  0.54367066086E+02  0.39999958756E+02 0.  0.
        -12    1    3    3    0    0 -0.47378784227E+01  0.41881124301E+01 -0.36273866579E+02  0.36820933914E+02  0.00000000000E+00 0.  1.
         11    1    4    4    0    0 -0.13072057358E+02  0.13093368705E+01  0.30671597863E+02  0.33366749352E+02  0.51100000000E-03 0. -1.
        -11    1    4    4    0    0  0.34810259570E+01  0.12819657583E+01 -0.97910530331E+00  0.38366163966E+01  0.51100000000E-03 0.  1.
        -12    1    4    4    0    0  0.14328909824E+02 -0.67794150590E+01  0.65813740195E+01  0.17163700337E+02  0.00000000000E+00 0.  1.
</event>
<event>
 8    1  0.1261983E-006  0.9118800E+02  0.7816164E-02  0.1184000E+00
        -11   -1    0    0    0    0  0.00000000000E+00  0.00000000000E+00  0.45593999997E+02  0.45594000000E+02  0.51100000000E-03 0.  1.
         11   -1    0    0    0    0 -0.00000000000E+00 -0.00000000000E+00 -0.45593999997E+02  0.45594000000E+02  0.51100000000E-03 0. -1.
         23    2    1    2    0    0  0.00000000000E+00  0.00000000000E+00  0.00000000000E+00  0.91188000000E+02  0.91188000000E+02 0.  0.
    9900012    2    3    3    0    0 -0.18160889097E+02  0.12200959768E+02 -0.29615856599E+02  0.54367078310E+02  0.39999986623E+02 0.  0.
        -12    1    3    3    0    0  0.18160889097E+02 -0.12200959768E+02  0.29615856599E+02  0.36820921690E+02  0.00000000000E+00 0.  1.
         11    1    4    4    0    0 -0.24591630778E+02  0.14491421675E+02 -0.62902091485E+01  0.29228690321E+02  0.51100000000E-03 0. -1.
        -11    1    4    4    0    0  0.50348970739E+01 -0.21565419392E+01 -0.76968928437E+01  0.94468524593E+01  0.51100000000E-03 0.  1.
         12    1    4    4    0    0  0.13958446071E+01 -0.13391996803E+00 -0.15628754606E+02  0.15691535529E+02  0.00000000000E+00 0. -1.
</event>
<event>
 8    1  0.1261983E-006  0.9118800E+02  0.7816164E-02  0.1184000E+00
        -11   -1    0    0    0    0  0.00000000000E+00  0.00000000000E+00  0.45593999997E+02  0.45594000000E+02  0.51100000000E-03 0.  1.
         11   -1    0    0    0    0 -0.00000000000E+00 -0.00000000000E+00 -0.45593999997E+02  0.45594000000E+02  0.51100000000E-03 0. -1.
         23    2    1    2    0    0  0.00000000000E+00 -0.17763568394E-14  0.35527136788E-14  0.91188000000E+02  0.91188000000E+02 0.  0.
    9900012    2    3    3    0    0  0.24156600479E+02  0.14090038648E+02 -0.23952234747E+02  0.54367080876E+02  0.39999992473E+02 0.  0.
        -12    1    3    3    0    0 -0.24156600479E+02 -0.14090038648E+02  0.23952234747E+02  0.36820919124E+02  0.00000000000E+00 0.  1.
         11    1    4    4    0    0  0.14848559629E+02  0.18306823365E+02 -0.98214239617E+01  0.25535854669E+02  0.51100000000E-03 0. -1.
        -11    1    4    4    0    0  0.16606895733E+02 -0.74553831929E+00 -0.69434330818E+01  0.18015439948E+02  0.51100000000E-03 0.  1.
        -12    1    4    4    0    0 -0.72988548833E+01 -0.34712463980E+01 -0.71873777030E+01  0.10815786259E+02  0.00000000000E+00 0.  1.
</event>
<event>
 8    1  0.1261983E-006  0.9118800E+02  0.7816164E-02  0.1184000E+00
        -11   -1    0    0    0    0  0.00000000000E+00  0.00000000000E+00  0.45593999997E+02  0.45594000000E+02  0.51100000000E-03 0.  1.
         11   -1    0    0    0    0 -0.00000000000E+00 -0.00000000000E+00 -0.45593999997E+02  0.45594000000E+02  0.51100000000E-03 0. -1.
         23    2    1    2    0    0  0.00000000000E+00  0.00000000000E+00  0.00000000000E+00  0.91188000000E+02  0.91188000000E+02 0.  0.
    9900012    2    3    3    0    0 -0.79523934596E+01  0.28196216144E+02 -0.22304999502E+02  0.54367079733E+02  0.39999989867E+02 0.  0.
        -12    1    3    3    0    0  0.79523934596E+01 -0.28196216144E+02  0.22304999502E+02  0.36820920267E+02  0.00000000000E+00 0.  1.
         11    1    4    4    0    0  0.56974611092E+01 -0.14062425362E+01  0.93925579892E+00  0.59431290478E+01  0.51100000000E-03 0. -1.
        -11    1    4    4    0    0 -0.20889984157E+01  0.47934685403E+00  0.55000175067E+01  0.59028705409E+01  0.51100000000E-03 0.  1.
         12    1    4    4    0    0 -0.11560856153E+02  0.29123111826E+02 -0.28744272807E+02  0.42521080144E+02  0.00000000000E+00 0. -1.
</event>
<event>
 8    1  0.1261983E-006  0.9118800E+02  0.7816164E-02  0.1184000E+00
        -11   -1    0    0    0    0  0.00000000000E+00  0.00000000000E+00  0.45593999997E+02  0.45594000000E+02  0.51100000000E-03 0. -1.
         11   -1    0    0    0    0 -0.00000000000E+00 -0.00000000000E+00 -0.45593999997E+02  0.45594000000E+02  0.51100000000E-03 0.  1.
         23    2    1    2    0    0  0.35527136788E-14  0.00000000000E+00  0.17763568394E-14  0.91188000000E+02  0.91188000000E+02 0.  0.
    9900012    2    3    3    0    0 -0.16495212404E+02 -0.29571311999E+02 -0.14464628286E+02  0.54367082072E+02  0.39999995200E+02 0.  0.
         12    1    3    3    0    0  0.16495212404E+02  0.29571311999E+02  0.14464628286E+02  0.36820917928E+02  0.00000000000E+00 0. -1.
         11    1    4    4    0    0 -0.78191688778E+01  0.19705111971E+01  0.36462501886E+01  0.88497150810E+01  0.51100000000E-03 0. -1.
        -11    1    4    4    0    0  0.14562960227E+01  0.13586947503E+01 -0.99373219435E+01  0.10134950281E+02  0.51100000000E-03 0.  1.
         12    1    4    4    0    0 -0.10132339548E+02 -0.32900517947E+02 -0.81735565314E+01  0.35382416710E+02  0.00000000000E+00 0. -1.
</event>
<event>
 8    1  0.1261983E-006  0.9118800E+02  0.7816164E-02  0.1184000E+00
        -11   -1    0    0    0    0  0.00000000000E+00  0.00000000000E+00  0.45593999997E+02  0.45594000000E+02  0.51100000000E-03 0.  1.
         11   -1    0    0    0    0 -0.00000000000E+00 -0.00000000000E+00 -0.45593999997E+02  0.45594000000E+02  0.51100000000E-03 0. -1.
         23    2    1    2    0    0  0.00000000000E+00  0.88817841970E-15 -0.35527136788E-14  0.91188000000E+02  0.91188000000E+02 0.  0.
    9900012    2    3    3    0    0 -0.29489774965E+02 -0.29761698087E+01  0.21846648163E+02  0.54367075919E+02  0.39999981174E+02 0.  0.
         12    1    3    3    0    0  0.29489774965E+02  0.29761698087E+01 -0.21846648163E+02  0.36820924081E+02  0.00000000000E+00 0. -1.
         11    1    4    4    0    0 -0.15564928304E+02  0.11608104778E+02  0.46439568791E+01  0.19964504136E+02  0.51100000000E-03 0. -1.
        -11    1    4    4    0    0 -0.84179810282E+01 -0.99286881248E+01  0.22126040997E+02  0.25671052626E+02  0.51100000000E-03 0.  1.
         12    1    4    4    0    0 -0.55068656322E+01 -0.46555864614E+01 -0.49233497135E+01  0.87315191572E+01  0.00000000000E+00 0. -1.
</event>
<event>
 8    1  0.1261983E-006  0.9118800E+02  0.7816164E-02  0.1184000E+00
        -11   -1    0    0    0    0  0.00000000000E+00  0.00000000000E+00  0.45593999997E+02  0.45594000000E+02  0.51100000000E-03 0. -1.
         11   -1    0    0    0    0 -0.00000000000E+00 -0.00000000000E+00 -0.45593999997E+02  0.45594000000E+02  0.51100000000E-03 0.  1.
         23    2    1    2    0    0  0.35527136788E-14  0.00000000000E+00  0.00000000000E+00  0.91188000000E+02  0.91188000000E+02 0.  0.
    9900012    2    3    3    0    0 -0.20743208752E+02  0.18616706582E+02 -0.24060697810E+02  0.54367086753E+02  0.40000005870E+02 0.  0.
         12    1    3    3    0    0  0.20743208752E+02 -0.18616706582E+02  0.24060697810E+02  0.36820913247E+02  0.00000000000E+00 0. -1.
         11    1    4    4    0    0 -0.37571272470E+01  0.17562662593E+02  0.60969066902E+01  0.18966691698E+02  0.51100000000E-03 0. -1.
        -11    1    4    4    0    0 -0.47780029119E+01  0.33361775022E+01 -0.12727882723E+02  0.13998513886E+02  0.51100000000E-03 0.  1.
         12    1    4    4    0    0 -0.12208078593E+02 -0.22821335137E+01 -0.17429721778E+02  0.21401881168E+02  0.00000000000E+00 0. -1.
</event>
<event>
 8    1  0.1261983E-006  0.9118800E+02  0.7816164E-02  0.1184000E+00
        -11   -1    0    0    0    0  0.00000000000E+00  0.00000000000E+00  0.45593999997E+02  0.45594000000E+02  0.51100000000E-03 0. -1.
         11   -1    0    0    0    0 -0.00000000000E+00 -0.00000000000E+00 -0.45593999997E+02  0.45594000000E+02  0.51100000000E-03 0.  1.
         23    2    1    2    0    0 -0.71054273576E-14 -0.44408920985E-15  0.00000000000E+00  0.91188000000E+02  0.91188000000E+02 0.  0.
    9900012    2    3    3    0    0 -0.31315488610E+02  0.21334924449E+01 -0.19250095478E+02  0.54367112004E+02  0.40000063435E+02 0.  0.
         12    1    3    3    0    0  0.31315488610E+02 -0.21334924449E+01  0.19250095478E+02  0.36820887996E+02  0.00000000000E+00 0. -1.
         11    1    4    4    0    0  0.58405826966E+01  0.15286143336E+01 -0.29943017439E+01  0.67390586294E+01  0.51100000000E-03 0. -1.
        -11    1    4    4    0    0 -0.46139092188E+01  0.80543396138E+01  0.21194210912E+01  0.95211601665E+01  0.51100000000E-03 0.  1.
        -12    1    4    4    0    0 -0.32542162088E+02 -0.74494615025E+01 -0.18375214825E+02  0.38106893208E+02  0.00000000000E+00 0.  1.
</event>
<event>
 8    1  0.1261983E-006  0.9118800E+02  0.7816164E-02  0.1184000E+00
        -11   -1    0    0    0    0  0.00000000000E+00  0.00000000000E+00  0.45593999997E+02  0.45594000000E+02  0.51100000000E-03 0. -1.
         11   -1    0    0    0    0 -0.00000000000E+00 -0.00000000000E+00 -0.45593999997E+02  0.45594000000E+02  0.51100000000E-03 0.  1.
         23    2    1    2    0    0  0.00000000000E+00  0.00000000000E+00  0.00000000000E+00  0.91188000000E+02  0.91188000000E+02 0.  0.
    9900012    2    3    3    0    0  0.23336737893E+02 -0.47272437628E+01  0.28086222264E+02  0.54366999876E+02  0.39999807817E+02 0.  0.
        -12    1    3    3    0    0 -0.23336737893E+02  0.47272437628E+01 -0.28086222264E+02  0.36821000124E+02  0.00000000000E+00 0.  1.
         11    1    4    4    0    0  0.69461922477E+01 -0.84941406658E+01  0.53759465705E+01  0.12218871232E+02  0.51100000000E-03 0. -1.
        -11    1    4    4    0    0  0.24755241101E+02  0.74468915828E+01  0.19783439632E+02  0.32552459817E+02  0.51100000000E-03 0.  1.
        -12    1    4    4    0    0 -0.83646954556E+01 -0.36799946799E+01  0.29268360609E+01  0.95956688269E+01  0.00000000000E+00 0.  1.
</event>
<event>
 8    1  0.1261983E-006  0.9118800E+02  0.7816164E-02  0.1184000E+00
        -11   -1    0    0    0    0  0.00000000000E+00  0.00000000000E+00  0.45593999997E+02  0.45594000000E+02  0.51100000000E-03 0. -1.
         11   -1    0    0    0    0 -0.00000000000E+00 -0.00000000000E+00 -0.45593999997E+02  0.45594000000E+02  0.51100000000E-03 0.  1.
         23    2    1    2    0    0  0.00000000000E+00  0.00000000000E+00  0.00000000000E+00  0.91188000000E+02  0.91188000000E+02 0.  0.
    9900012    2    3    3    0    0  0.41279806907E+01  0.18301245991E+02  0.31682867611E+02  0.54367082990E+02  0.39999997292E+02 0.  0.
        -12    1    3    3    0    0 -0.41279806907E+01 -0.18301245991E+02 -0.31682867611E+02  0.36820917010E+02  0.00000000000E+00 0.  1.
         11    1    4    4    0    0  0.66934413639E+01  0.99450295547E+01  0.30110736229E+02  0.32409291980E+02  0.51100000000E-03 0. -1.
        -11    1    4    4    0    0  0.32201086964E+01 -0.64436591665E+00 -0.73345368243E+01  0.80361519486E+01  0.51100000000E-03 0.  1.
         12    1    4    4    0    0 -0.57855693697E+01  0.90005823530E+01  0.89066682066E+01  0.13921639062E+02  0.00000000000E+00 0. -1.
</event>
<event>
 8    1  0.1261983E-006  0.9118800E+02  0.7816164E-02  0.1184000E+00
        -11   -1    0    0    0    0  0.00000000000E+00  0.00000000000E+00  0.45593999997E+02  0.45594000000E+02  0.51100000000E-03 0. -1.
         11   -1    0    0    0    0 -0.00000000000E+00 -0.00000000000E+00 -0.45593999997E+02  0.45594000000E+02  0.51100000000E-03 0.  1.
         23    2    1    2    0    0  0.35527136788E-14  0.35527136788E-14 -0.17763568394E-14  0.91188000000E+02  0.91188000000E+02 0.  0.
    9900012    2    3    3    0    0  0.24808940931E+02  0.25712981041E+02 -0.88960164189E+01  0.54367081322E+02  0.39999993491E+02 0.  0.
         12    1    3    3    0    0 -0.24808940931E+02 -0.25712981041E+02  0.88960164189E+01  0.36820918678E+02  0.00000000000E+00 0. -1.
         11    1    4    4    0    0 -0.32149173068E+01  0.12750766814E+02 -0.23769894106E+01  0.13362927320E+02  0.51100000000E-03 0. -1.
        -11    1    4    4    0    0  0.27840025333E+02  0.19441801202E+02 -0.61697622819E+01  0.34512557300E+02  0.51100000000E-03 0.  1.
        -12    1    4    4    0    0  0.18383290479E+00 -0.64795869747E+01 -0.34926472644E+00  0.64915967026E+01  0.00000000000E+00 0.  1.
</event>
<event>
 8    1  0.1261983E-006  0.9118800E+02  0.7816164E-02  0.1184000E+00
        -11   -1    0    0    0    0  0.00000000000E+00  0.00000000000E+00  0.45593999997E+02  0.45594000000E+02  0.51100000000E-03 0.  1.
         11   -1    0    0    0    0 -0.00000000000E+00 -0.00000000000E+00 -0.45593999997E+02  0.45594000000E+02  0.51100000000E-03 0. -1.
         23    2    1    2    0    0  0.00000000000E+00  0.00000000000E+00  0.00000000000E+00  0.91188000000E+02  0.91188000000E+02 0.  0.
    9900012    2    3    3    0    0 -0.33633960187E+02  0.44573505452E+01 -0.14306235666E+02  0.54367087047E+02  0.40000006541E+02 0.  0.
        -12    1    3    3    0    0  0.33633960187E+02 -0.44573505452E+01  0.14306235666E+02  0.36820912953E+02  0.00000000000E+00 0.  1.
         11    1    4    4    0    0  0.72846647460E+01 -0.88235471312E+00 -0.37655954815E+01  0.82477027039E+01  0.51100000000E-03 0.  1.
        -11    1    4    4    0    0 -0.20201943514E+02  0.95079473560E+01  0.38361533357E+00  0.22330847401E+02  0.51100000000E-03 0. -1.
         12    1    4    4    0    0 -0.20716681419E+02 -0.41682420977E+01 -0.10924255518E+02  0.23788536942E+02  0.00000000000E+00 0. -1.
</event>
<event>
 8    1  0.1261983E-006  0.9118800E+02  0.7816164E-02  0.1184000E+00
        -11   -1    0    0    0    0  0.00000000000E+00  0.00000000000E+00  0.45593999997E+02  0.45594000000E+02  0.51100000000E-03 0.  1.
         11   -1    0    0    0    0 -0.00000000000E+00 -0.00000000000E+00 -0.45593999997E+02  0.45594000000E+02  0.51100000000E-03 0. -1.
         23    2    1    2    0    0  0.00000000000E+00 -0.35527136788E-14  0.00000000000E+00  0.91188000000E+02  0.91188000000E+02 0.  0.
    9900012    2    3    3    0    0  0.11838121790E+02  0.11395415193E+02 -0.32951236366E+02  0.54367073980E+02  0.39999976752E+02 0.  0.
        -12    1    3    3    0    0 -0.11838121790E+02 -0.11395415193E+02  0.32951236366E+02  0.36820926020E+02  0.00000000000E+00 0.  1.
         11    1    4    4    0    0  0.15751313201E+01  0.13750530397E+02 -0.18910048893E+02  0.23433908643E+02  0.51100000000E-03 0. -1.
        -11    1    4    4    0    0 -0.21953119938E+01 -0.77025364593E+01  0.35191171899E+01  0.87482940459E+01  0.51100000000E-03 0.  1.
        -12    1    4    4    0    0  0.12458302464E+02  0.53474212554E+01 -0.17560304663E+02  0.22184871291E+02  0.00000000000E+00 0.  1.
</event>
<event>
 8    1  0.1261983E-006  0.9118800E+02  0.7816164E-02  0.1184000E+00
        -11   -1    0    0    0    0  0.00000000000E+00  0.00000000000E+00  0.45593999997E+02  0.45594000000E+02  0.51100000000E-03 0.  1.
         11   -1    0    0    0    0 -0.00000000000E+00 -0.00000000000E+00 -0.45593999997E+02  0.45594000000E+02  0.51100000000E-03 0. -1.
         23    2    1    2    0    0  0.17763568394E-14  0.00000000000E+00  0.00000000000E+00  0.91188000000E+02  0.91188000000E+02 0.  0.
    9900012    2    3    3    0    0  0.15262747524E+02  0.75968503156E+01  0.32636126219E+02  0.54367077534E+02  0.39999984854E+02 0.  0.
         12    1    3    3    0    0 -0.15262747524E+02 -0.75968503156E+01 -0.32636126219E+02  0.36820922466E+02  0.00000000000E+00 0. -1.
         11    1    4    4    0    0  0.25095914237E+02  0.70585797353E+01  0.12433633704E+02  0.28882931060E+02  0.51100000000E-03 0. -1.
        -11    1    4    4    0    0 -0.18238116974E+01  0.49382704338E+01  0.31428863352E+01  0.61311123592E+01  0.51100000000E-03 0.  1.
        -12    1    4    4    0    0 -0.80093550151E+01 -0.43999998535E+01  0.17059606179E+02  0.19353034115E+02  0.00000000000E+00 0.  1.
</event>
<event>
 8    1  0.1261983E-006  0.9118800E+02  0.7816164E-02  0.1184000E+00
        -11   -1    0    0    0    0  0.00000000000E+00  0.00000000000E+00  0.45593999997E+02  0.45594000000E+02  0.51100000000E-03 0.  1.
         11   -1    0    0    0    0 -0.00000000000E+00 -0.00000000000E+00 -0.45593999997E+02  0.45594000000E+02  0.51100000000E-03 0. -1.
         23    2    1    2    0    0  0.35527136788E-14  0.00000000000E+00  0.00000000000E+00  0.91188000000E+02  0.91188000000E+02 0.  0.
    9900012    2    3    3    0    0  0.25363930994E+02  0.19025264463E+02  0.18721344131E+02  0.54367103631E+02  0.40000044347E+02 0.  0.
        -12    1    3    3    0    0 -0.25363930994E+02 -0.19025264463E+02 -0.18721344131E+02  0.36820896369E+02  0.00000000000E+00 0.  1.
         11    1    4    4    0    0 -0.54851162138E+01 -0.11736371164E+01  0.89244625498E+01  0.10540870743E+02  0.51100000000E-03 0. -1.
        -11    1    4    4    0    0  0.22697976718E+02  0.80143255557E+01  0.14893139719E+02  0.28306062463E+02  0.51100000000E-03 0.  1.
         12    1    4    4    0    0  0.81510704902E+01  0.12184576024E+02 -0.50962581378E+01  0.15520170425E+02  0.00000000000E+00 0. -1.
</event>
<event>
 8    1  0.1261983E-006  0.9118800E+02  0.7816164E-02  0.1184000E+00
        -11   -1    0    0    0    0  0.00000000000E+00  0.00000000000E+00  0.45593999997E+02  0.45594000000E+02  0.51100000000E-03 0.  1.
         11   -1    0    0    0    0 -0.00000000000E+00 -0.00000000000E+00 -0.45593999997E+02  0.45594000000E+02  0.51100000000E-03 0. -1.
         23    2    1    2    0    0 -0.88817841970E-15  0.00000000000E+00  0.00000000000E+00  0.91188000000E+02  0.91188000000E+02 0.  0.
    9900012    2    3    3    0    0  0.36718414158E+01 -0.15354575325E+02  0.33264606930E+02  0.54367089134E+02  0.40000011299E+02 0.  0.
         12    1    3    3    0    0 -0.36718414158E+01  0.15354575325E+02 -0.33264606930E+02  0.36820910866E+02  0.00000000000E+00 0. -1.
         11    1    4    4    0    0  0.27514944821E+01  0.13620566164E+01 -0.38257672252E+01  0.49053455774E+01  0.51100000000E-03 0. -1.
        -11    1    4    4    0    0  0.92594540969E+01 -0.86188859653E+01  0.35553270947E+02  0.37736689849E+02  0.51100000000E-03 0.  1.
        -12    1    4    4    0    0 -0.83391071632E+01 -0.80977459762E+01  0.15371032076E+01  0.11725053708E+02  0.00000000000E+00 0.  1.
</event>
<event>
 8    1  0.1261983E-006  0.9118800E+02  0.7816164E-02  0.1184000E+00
        -11   -1    0    0    0    0  0.00000000000E+00  0.00000000000E+00  0.45593999997E+02  0.45594000000E+02  0.51100000000E-03 0.  1.
         11   -1    0    0    0    0 -0.00000000000E+00 -0.00000000000E+00 -0.45593999997E+02  0.45594000000E+02  0.51100000000E-03 0. -1.
         23    2    1    2    0    0  0.00000000000E+00  0.88817841970E-15  0.00000000000E+00  0.91188000000E+02  0.91188000000E+02 0.  0.
    9900012    2    3    3    0    0 -0.33141305052E+02 -0.73640950899E+01 -0.14254972223E+02  0.54367078908E+02  0.39999987985E+02 0.  0.
        -12    1    3    3    0    0  0.33141305052E+02  0.73640950899E+01  0.14254972223E+02  0.36820921092E+02  0.00000000000E+00 0.  1.
         11    1    4    4    0    0 -0.26598689316E+02 -0.55754297661E+01 -0.26258429678E+02  0.37789956600E+02  0.51100000000E-03 0. -1.
        -11    1    4    4    0    0 -0.13869354581E+01 -0.24851618843E+01 -0.62956680711E+00  0.29147854435E+01  0.51100000000E-03 0.  1.
         12    1    4    4    0    0 -0.51556802779E+01  0.69649656040E+00  0.12633024262E+02  0.13662336864E+02  0.00000000000E+00 0. -1.
</event>
<event>
 8    1  0.1261983E-006  0.9118800E+02  0.7816164E-02  0.1184000E+00
        -11   -1    0    0    0    0  0.00000000000E+00  0.00000000000E+00  0.45593999997E+02  0.45594000000E+02  0.51100000000E-03 0.  1.
         11   -1    0    0    0    0 -0.00000000000E+00 -0.00000000000E+00 -0.45593999997E+02  0.45594000000E+02  0.51100000000E-03 0. -1.
         23    2    1    2    0    0 -0.35527136788E-14 -0.17763568394E-14  0.71054273576E-14  0.91188000000E+02  0.91188000000E+02 0.  0.
    9900012    2    3    3    0    0 -0.21296740739E+02 -0.10204896935E+02  0.28250459107E+02  0.54367088450E+02  0.40000009740E+02 0.  0.
         12    1    3    3    0    0  0.21296740739E+02  0.10204896935E+02 -0.28250459107E+02  0.36820911550E+02  0.00000000000E+00 0. -1.
         11    1    4    4    0    0 -0.21120815412E+02  0.12742564360E+00 -0.30856454876E+01  0.21345404407E+02  0.51100000000E-03 0. -1.
        -11    1    4    4    0    0  0.52976645702E+00 -0.41567854946E+01  0.11941740694E+02  0.12655618879E+02  0.51100000000E-03 0.  1.
         12    1    4    4    0    0 -0.70569178455E+00 -0.61755370845E+01  0.19394363901E+02  0.20366065164E+02  0.00000000000E+00 0. -1.
</event>
<event>
 8    1  0.1261983E-006  0.9118800E+02  0.7816164E-02  0.1184000E+00
        -11   -1    0    0    0    0  0.00000000000E+00  0.00000000000E+00  0.45593999997E+02  0.45594000000E+02  0.51100000000E-03 0. -1.
         11   -1    0    0    0    0 -0.00000000000E+00 -0.00000000000E+00 -0.45593999997E+02  0.45594000000E+02  0.51100000000E-03 0.  1.
         23    2    1    2    0    0 -0.71054273576E-14  0.00000000000E+00  0.00000000000E+00  0.91188000000E+02  0.91188000000E+02 0.  0.
    9900012    2    3    3    0    0 -0.22532713632E+02  0.21089065824E+02  0.20082831396E+02  0.54366919111E+02  0.39999623696E+02 0.  0.
        -12    1    3    3    0    0  0.22532713632E+02 -0.21089065824E+02 -0.20082831396E+02  0.36821080889E+02  0.00000000000E+00 0.  1.
         11    1    4    4    0    0 -0.12955766150E+02  0.21590633340E+01  0.22428435240E+02  0.25991308904E+02  0.51100000000E-03 0. -1.
        -11    1    4    4    0    0 -0.23050360855E+01  0.43213675501E+01  0.77637252443E+01  0.91794792221E+01  0.51100000000E-03 0.  1.
        -12    1    4    4    0    0 -0.72719113965E+01  0.14608634940E+02 -0.10109329088E+02  0.19196130985E+02  0.00000000000E+00 0.  1.
</event>
<event>
 8    1  0.1261983E-006  0.9118800E+02  0.7816164E-02  0.1184000E+00
        -11   -1    0    0    0    0  0.00000000000E+00  0.00000000000E+00  0.45593999997E+02  0.45594000000E+02  0.51100000000E-03 0. -1.
         11   -1    0    0    0    0 -0.00000000000E+00 -0.00000000000E+00 -0.45593999997E+02  0.45594000000E+02  0.51100000000E-03 0.  1.
         23    2    1    2    0    0  0.00000000000E+00  0.17763568394E-14  0.00000000000E+00  0.91188000000E+02  0.91188000000E+02 0.  0.
    9900012    2    3    3    0    0  0.94686933487E+01  0.15154952032E+02 -0.32193951721E+02  0.54367092186E+02  0.40000018257E+02 0.  0.
         12    1    3    3    0    0 -0.94686933487E+01 -0.15154952032E+02  0.32193951721E+02  0.36820907814E+02  0.00000000000E+00 0. -1.
         11    1    4    4    0    0 -0.14307125390E+02  0.11887071863E+02 -0.98717299972E+01  0.21058190041E+02  0.51100000000E-03 0. -1.
        -11    1    4    4    0    0  0.32973711279E+01  0.65478036664E+00 -0.64305233909E+01  0.72562404195E+01  0.51100000000E-03 0.  1.
        -12    1    4    4    0    0  0.20478447611E+02  0.26130998026E+01 -0.15891698333E+02  0.26052661726E+02  0.00000000000E+00 0.  1.
</event>
<event>
 8    1  0.1261983E-006  0.9118800E+02  0.7816164E-02  0.1184000E+00
        -11   -1    0    0    0    0  0.00000000000E+00  0.00000000000E+00  0.45593999997E+02  0.45594000000E+02  0.51100000000E-03 0.  1.
         11   -1    0    0    0    0 -0.00000000000E+00 -0.00000000000E+00 -0.45593999997E+02  0.45594000000E+02  0.51100000000E-03 0. -1.
         23    2    1    2    0    0  0.71054273576E-14  0.00000000000E+00  0.00000000000E+00  0.91188000000E+02  0.91188000000E+02 0.  0.
    9900012    2    3    3    0    0 -0.30466140093E+02 -0.20257608163E+02 -0.41500168090E+01  0.54367095337E+02  0.40000025440E+02 0.  0.
        -12    1    3    3    0    0  0.30466140093E+02  0.20257608163E+02  0.41500168090E+01  0.36820904663E+02  0.00000000000E+00 0.  1.
         11    1    4    4    0    0 -0.12520531777E+02 -0.19266002407E+00 -0.61921339616E+01  0.13969372109E+02  0.51100000000E-03 0. -1.
        -11    1    4    4    0    0  0.65500170763E+01  0.19368445347E+01 -0.22541329201E+01  0.71927189528E+01  0.51100000000E-03 0.  1.
        -12    1    4    4    0    0 -0.24495625392E+02 -0.22001792673E+02  0.42962500728E+01  0.33205004275E+02  0.00000000000E+00 0.  1.
</event>
<event>
 8    1  0.1261983E-006  0.9118800E+02  0.7816164E-02  0.1184000E+00
        -11   -1    0    0    0    0  0.00000000000E+00  0.00000000000E+00  0.45593999997E+02  0.45594000000E+02  0.51100000000E-03 0.  1.
         11   -1    0    0    0    0 -0.00000000000E+00 -0.00000000000E+00 -0.45593999997E+02  0.45594000000E+02  0.51100000000E-03 0. -1.
         23    2    1    2    0    0 -0.35527136788E-14  0.00000000000E+00 -0.35527136788E-14  0.91188000000E+02  0.91188000000E+02 0.  0.
    9900012    2    3    3    0    0  0.30173509791E+02 -0.17501101426E+02  0.11791964678E+02  0.54367086442E+02  0.40000005162E+02 0.  0.
         12    1    3    3    0    0 -0.30173509791E+02  0.17501101426E+02 -0.11791964678E+02  0.36820913558E+02  0.00000000000E+00 0. -1.
         11    1    4    4    0    0 -0.12640974701E+01 -0.13270927663E+02  0.80411724532E+01  0.15568426964E+02  0.51100000000E-03 0. -1.
        -11    1    4    4    0    0  0.87505255611E+01  0.17683100847E+01 -0.84999166152E+01  0.12326686533E+02  0.51100000000E-03 0.  1.
        -12    1    4    4    0    0  0.22687081700E+02 -0.59984838482E+01  0.12250708840E+02  0.26471972946E+02  0.00000000000E+00 0.  1.
</event>
<event>
 8    1  0.1261983E-006  0.9118800E+02  0.7816164E-02  0.1184000E+00
        -11   -1    0    0    0    0  0.00000000000E+00  0.00000000000E+00  0.45593999997E+02  0.45594000000E+02  0.51100000000E-03 0.  1.
         11   -1    0    0    0    0 -0.00000000000E+00 -0.00000000000E+00 -0.45593999997E+02  0.45594000000E+02  0.51100000000E-03 0. -1.
         23    2    1    2    0    0  0.35527136788E-14  0.88817841970E-15  0.00000000000E+00  0.91188000000E+02  0.91188000000E+02 0.  0.
    9900012    2    3    3    0    0  0.25844288977E+02  0.49061367756E+01  0.25763971106E+02  0.54367086677E+02  0.40000005697E+02 0.  0.
         12    1    3    3    0    0 -0.25844288977E+02 -0.49061367756E+01 -0.25763971106E+02  0.36820913323E+02  0.00000000000E+00 0. -1.
         11    1    4    4    0    0  0.57532908102E+01  0.11985669216E+01  0.28366864807E+01  0.65256193778E+01  0.51100000000E-03 0. -1.
        -11    1    4    4    0    0  0.25708224453E+02 -0.54629431616E+01  0.47307138628E+01  0.26704610209E+02  0.51100000000E-03 0.  1.
         12    1    4    4    0    0 -0.56172262861E+01  0.91705130156E+01  0.18196570762E+02  0.21136857090E+02  0.00000000000E+00 0. -1.
</event>
<event>
 8    1  0.1261983E-006  0.9118800E+02  0.7816164E-02  0.1184000E+00
        -11   -1    0    0    0    0  0.00000000000E+00  0.00000000000E+00  0.45593999997E+02  0.45594000000E+02  0.51100000000E-03 0.  1.
         11   -1    0    0    0    0 -0.00000000000E+00 -0.00000000000E+00 -0.45593999997E+02  0.45594000000E+02  0.51100000000E-03 0. -1.
         23    2    1    2    0    0  0.66613381478E-15 -0.71054273576E-14 -0.13322676296E-14  0.91188000000E+02  0.91188000000E+02 0.  0.
    9900012    2    3    3    0    0  0.13297631080E+01 -0.36628039351E+02 -0.35211970512E+01  0.54367077072E+02  0.39999983801E+02 0.  0.
         12    1    3    3    0    0 -0.13297631080E+01  0.36628039351E+02  0.35211970512E+01  0.36820922928E+02  0.00000000000E+00 0. -1.
         11    1    4    4    0    0  0.22214347787E+01 -0.24585372267E+02 -0.18012536327E+02  0.30558579273E+02  0.51100000000E-03 0. -1.
        -11    1    4    4    0    0  0.53134195355E+01 -0.21220741309E+01  0.76648531676E+00  0.57726186241E+01  0.51100000000E-03 0.  1.
         12    1    4    4    0    0 -0.62050912063E+01 -0.99205929525E+01  0.13724853959E+02  0.18035879175E+02  0.00000000000E+00 0. -1.
</event>
<event>
 8    1  0.1261983E-006  0.9118800E+02  0.7816164E-02  0.1184000E+00
        -11   -1    0    0    0    0  0.00000000000E+00  0.00000000000E+00  0.45593999997E+02  0.45594000000E+02  0.51100000000E-03 0. -1.
         11   -1    0    0    0    0 -0.00000000000E+00 -0.00000000000E+00 -0.45593999997E+02  0.45594000000E+02  0.51100000000E-03 0.  1.
         23    2    1    2    0    0  0.00000000000E+00  0.00000000000E+00  0.00000000000E+00  0.91188000000E+02  0.91188000000E+02 0.  0.
    9900012    2    3    3    0    0 -0.29137688828E+02  0.21155425982E+01  0.22412065131E+02  0.54367067174E+02  0.39999961236E+02 0.  0.
        -12    1    3    3    0    0  0.29137688828E+02 -0.21155425982E+01 -0.22412065131E+02  0.36820932826E+02  0.00000000000E+00 0.  1.
         11    1    4    4    0    0  0.57448050882E+01 -0.35143308394E+01  0.63625226936E+01  0.92647181305E+01  0.51100000000E-03 0. -1.
        -11    1    4    4    0    0 -0.84027956781E+01 -0.86755789589E+00 -0.57289457578E+01  0.10206882564E+02  0.51100000000E-03 0.  1.
        -12    1    4    4    0    0 -0.26479698238E+02  0.64974313335E+01  0.21778488196E+02  0.34895466479E+02  0.00000000000E+00 0.  1.
</event>
<event>
 8    1  0.1261983E-006  0.9118800E+02  0.7816164E-02  0.1184000E+00
        -11   -1    0    0    0    0  0.00000000000E+00  0.00000000000E+00  0.45593999997E+02  0.45594000000E+02  0.51100000000E-03 0. -1.
         11   -1    0    0    0    0 -0.00000000000E+00 -0.00000000000E+00 -0.45593999997E+02  0.45594000000E+02  0.51100000000E-03 0.  1.
         23    2    1    2    0    0 -0.71054273576E-14  0.35527136788E-14 -0.17763568394E-14  0.91188000000E+02  0.91188000000E+02 0.  0.
    9900012    2    3    3    0    0  0.28857999737E+02 -0.17572130121E+02  0.14636114455E+02  0.54367085398E+02  0.40000002782E+02 0.  0.
        -12    1    3    3    0    0 -0.28857999737E+02  0.17572130121E+02 -0.14636114455E+02  0.36820914602E+02  0.00000000000E+00 0.  1.
         11    1    4    4    0    0  0.17615926120E+02 -0.11203318322E+02 -0.23029712480E+01  0.21003306199E+02  0.51100000000E-03 0. -1.
        -11    1    4    4    0    0  0.22846414478E+01 -0.13051813022E+02  0.21834506545E+00  0.13252059634E+02  0.51100000000E-03 0.  1.
         12    1    4    4    0    0  0.89574321693E+01  0.66830012228E+01  0.16720740637E+02  0.20111719565E+02  0.00000000000E+00 0. -1.
</event>
<event>
 8    1  0.1261983E-006  0.9118800E+02  0.7816164E-02  0.1184000E+00
        -11   -1    0    0    0    0  0.00000000000E+00  0.00000000000E+00  0.45593999997E+02  0.45594000000E+02  0.51100000000E-03 0. -1.
         11   -1    0    0    0    0 -0.00000000000E+00 -0.00000000000E+00 -0.45593999997E+02  0.45594000000E+02  0.51100000000E-03 0.  1.
         23    2    1    2    0    0  0.00000000000E+00  0.00000000000E+00  0.35527136788E-14  0.91188000000E+02  0.91188000000E+02 0.  0.
    9900012    2    3    3    0    0 -0.22862716297E+02 -0.17694135750E+02  0.22803294188E+02  0.54367130072E+02  0.40000104625E+02 0.  0.
        -12    1    3    3    0    0  0.22862716297E+02  0.17694135750E+02 -0.22803294188E+02  0.36820869928E+02  0.00000000000E+00 0.  1.
         11    1    4    4    0    0  0.10635133144E+01 -0.61817445207E+01 -0.66308958045E+01  0.91276396358E+01  0.51100000000E-03 0.  1.
        -11    1    4    4    0    0 -0.16929843308E+02 -0.99616081763E+01  0.32066859881E+02  0.37605009437E+02  0.51100000000E-03 0. -1.
        -12    1    4    4    0    0 -0.69963863034E+01 -0.15507830532E+01 -0.26326698880E+01  0.76344809990E+01  0.00000000000E+00 0.  1.
</event>
<event>
 8    1  0.1261983E-006  0.9118800E+02  0.7816164E-02  0.1184000E+00
        -11   -1    0    0    0    0  0.00000000000E+00  0.00000000000E+00  0.45593999997E+02  0.45594000000E+02  0.51100000000E-03 0.  1.
         11   -1    0    0    0    0 -0.00000000000E+00 -0.00000000000E+00 -0.45593999997E+02  0.45594000000E+02  0.51100000000E-03 0. -1.
         23    2    1    2    0    0  0.00000000000E+00 -0.69388939039E-15  0.00000000000E+00  0.91188000000E+02  0.91188000000E+02 0.  0.
    9900012    2    3    3    0    0  0.10807728926E+02 -0.71211723792E-01 -0.35198967135E+02  0.54367090682E+02  0.40000014827E+02 0.  0.
        -12    1    3    3    0    0 -0.10807728926E+02  0.71211723792E-01  0.35198967135E+02  0.36820909318E+02  0.00000000000E+00 0.  1.
         11    1    4    4    0    0 -0.44195282130E+01 -0.62695743232E+01 -0.28517180295E+02  0.29530820579E+02  0.51100000000E-03 0. -1.
        -11    1    4    4    0    0  0.92762771166E+00  0.49590246579E+00 -0.91800853639E+01  0.92401504304E+01  0.51100000000E-03 0.  1.
        -12    1    4    4    0    0  0.14299629427E+02  0.57024601336E+01  0.24982985235E+01  0.15596119672E+02  0.00000000000E+00 0.  1.
</event>
<event>
 8    1  0.1261983E-006  0.9118800E+02  0.7816164E-02  0.1184000E+00
        -11   -1    0    0    0    0  0.00000000000E+00  0.00000000000E+00  0.45593999997E+02  0.45594000000E+02  0.51100000000E-03 0.  1.
         11   -1    0    0    0    0 -0.00000000000E+00 -0.00000000000E+00 -0.45593999997E+02  0.45594000000E+02  0.51100000000E-03 0. -1.
         23    2    1    2    0    0  0.17763568394E-14  0.00000000000E+00  0.00000000000E+00  0.91188000000E+02  0.91188000000E+02 0.  0.
    9900012    2    3    3    0    0  0.15813271787E+02 -0.20020098095E+02  0.26550277592E+02  0.54367066653E+02  0.39999960048E+02 0.  0.
         12    1    3    3    0    0 -0.15813271787E+02  0.20020098095E+02 -0.26550277592E+02  0.36820933347E+02  0.00000000000E+00 0. -1.
         11    1    4    4    0    0  0.20640394660E+02 -0.14199346663E+02  0.31237282205E+02  0.40042666460E+02  0.51100000000E-03 0.  1.
        -11    1    4    4    0    0 -0.83363714859E+01 -0.25710764536E+01 -0.34744962995E+01  0.93902954414E+01  0.51100000000E-03 0. -1.
        -12    1    4    4    0    0  0.35092486128E+01 -0.32496749783E+01 -0.12125083134E+01  0.49341047518E+01  0.00000000000E+00 0.  1.
</event>
<event>
 8    1  0.1261983E-006  0.9118800E+02  0.7816164E-02  0.1184000E+00
        -11   -1    0    0    0    0  0.00000000000E+00  0.00000000000E+00  0.45593999997E+02  0.45594000000E+02  0.51100000000E-03 0. -1.
         11   -1    0    0    0    0 -0.00000000000E+00 -0.00000000000E+00 -0.45593999997E+02  0.45594000000E+02  0.51100000000E-03 0.  1.
         23    2    1    2    0    0  0.00000000000E+00  0.00000000000E+00 -0.13322676296E-14  0.91188000000E+02  0.91188000000E+02 0.  0.
    9900012    2    3    3    0    0  0.66613658830E+01 -0.36131580898E+02  0.24323485490E+01  0.54367065016E+02  0.39999956317E+02 0.  0.
        -12    1    3    3    0    0 -0.66613658830E+01  0.36131580898E+02 -0.24323485490E+01  0.36820934984E+02  0.00000000000E+00 0.  1.
         11    1    4    4    0    0  0.62844554184E+01 -0.38969680533E+02  0.34012078244E+01  0.39619421950E+02  0.51100000000E-03 0. -1.
        -11    1    4    4    0    0  0.48023577494E+01 -0.22501053990E+01 -0.46602007541E+01  0.70599635685E+01  0.51100000000E-03 0.  1.
        -12    1    4    4    0    0 -0.44254472847E+01  0.50882050338E+01  0.36913414788E+01  0.76876794970E+01  0.00000000000E+00 0.  1.
</event>
<event>
 8    1  0.1261983E-006  0.9118800E+02  0.7816164E-02  0.1184000E+00
        -11   -1    0    0    0    0  0.00000000000E+00  0.00000000000E+00  0.45593999997E+02  0.45594000000E+02  0.51100000000E-03 0. -1.
         11   -1    0    0    0    0 -0.00000000000E+00 -0.00000000000E+00 -0.45593999997E+02  0.45594000000E+02  0.51100000000E-03 0.  1.
         23    2    1    2    0    0  0.00000000000E+00 -0.71054273576E-14  0.88817841970E-15  0.91188000000E+02  0.91188000000E+02 0.  0.
    9900012    2    3    3    0    0 -0.16061204593E+02 -0.32816746181E+02  0.45693526132E+01  0.54367080590E+02  0.39999991822E+02 0.  0.
         12    1    3    3    0    0  0.16061204593E+02  0.32816746181E+02 -0.45693526132E+01  0.36820919410E+02  0.00000000000E+00 0. -1.
         11    1    4    4    0    0 -0.32948532771E+01  0.25161514772E+01 -0.23730895119E+01  0.47768850171E+01  0.51100000000E-03 0. -1.
        -11    1    4    4    0    0 -0.16420452460E+02 -0.38011864529E+01 -0.94852246953E+00  0.16881349844E+02  0.51100000000E-03 0.  1.
         12    1    4    4    0    0  0.36541011437E+01 -0.31531711205E+02  0.78909645946E+01  0.32708845729E+02  0.00000000000E+00 0. -1.
</event>
<event>
 8    1  0.1261983E-006  0.9118800E+02  0.7816164E-02  0.1184000E+00
        -11   -1    0    0    0    0  0.00000000000E+00  0.00000000000E+00  0.45593999997E+02  0.45594000000E+02  0.51100000000E-03 0.  1.
         11   -1    0    0    0    0 -0.00000000000E+00 -0.00000000000E+00 -0.45593999997E+02  0.45594000000E+02  0.51100000000E-03 0. -1.
         23    2    1    2    0    0  0.00000000000E+00  0.44408920985E-15  0.00000000000E+00  0.91188000000E+02  0.91188000000E+02 0.  0.
    9900012    2    3    3    0    0 -0.14569375682E+02  0.38739610578E+01  0.33593240775E+02  0.54367080568E+02  0.39999991772E+02 0.  0.
         12    1    3    3    0    0  0.14569375682E+02 -0.38739610578E+01 -0.33593240775E+02  0.36820919432E+02  0.00000000000E+00 0. -1.
         11    1    4    4    0    0 -0.40415332187E+01 -0.95335263313E+01 -0.34680290652E+01  0.10920134657E+02  0.51100000000E-03 0. -1.
        -11    1    4    4    0    0 -0.11995104011E+02  0.32812691560E+01  0.20828139077E+02  0.24258207377E+02  0.51100000000E-03 0.  1.
         12    1    4    4    0    0  0.14672615476E+01  0.10126218233E+02  0.16233130763E+02  0.19188738534E+02  0.00000000000E+00 0. -1.
</event>
<event>
 8    1  0.1261983E-006  0.9118800E+02  0.7816164E-02  0.1184000E+00
        -11   -1    0    0    0    0  0.00000000000E+00  0.00000000000E+00  0.45593999997E+02  0.45594000000E+02  0.51100000000E-03 0.  1.
         11   -1    0    0    0    0 -0.00000000000E+00 -0.00000000000E+00 -0.45593999997E+02  0.45594000000E+02  0.51100000000E-03 0. -1.
         23    2    1    2    0    0 -0.35527136788E-14 -0.88817841970E-15  0.00000000000E+00  0.91188000000E+02  0.91188000000E+02 0.  0.
    9900012    2    3    3    0    0 -0.30775840401E+02 -0.29052943245E+01  0.20004633801E+02  0.54367102930E+02  0.40000042750E+02 0.  0.
         12    1    3    3    0    0  0.30775840401E+02  0.29052943245E+01 -0.20004633801E+02  0.36820897070E+02  0.00000000000E+00 0. -1.
         11    1    4    4    0    0  0.31028012542E+00 -0.99354391222E+01 -0.42028625636E+01  0.10792278642E+02  0.51100000000E-03 0. -1.
        -11    1    4    4    0    0 -0.64237652360E+01 -0.71789206496E+00  0.14652167428E+02  0.16014560232E+02  0.51100000000E-03 0.  1.
         12    1    4    4    0    0 -0.24662355291E+02  0.77480368626E+01  0.95553289363E+01  0.27560264055E+02  0.00000000000E+00 0. -1.
</event>
<event>
 8    1  0.1261983E-006  0.9118800E+02  0.7816164E-02  0.1184000E+00
        -11   -1    0    0    0    0  0.00000000000E+00  0.00000000000E+00  0.45593999997E+02  0.45594000000E+02  0.51100000000E-03 0.  1.
         11   -1    0    0    0    0 -0.00000000000E+00 -0.00000000000E+00 -0.45593999997E+02  0.45594000000E+02  0.51100000000E-03 0. -1.
         23    2    1    2    0    0 -0.71054273576E-14  0.00000000000E+00  0.17763568394E-14  0.91188000000E+02  0.91188000000E+02 0.  0.
    9900012    2    3    3    0    0  0.32645714084E+02 -0.13633984772E+02 -0.10205438982E+02  0.54367093253E+02  0.40000020689E+02 0.  0.
         12    1    3    3    0    0 -0.32645714084E+02  0.13633984772E+02  0.10205438982E+02  0.36820906747E+02  0.00000000000E+00 0. -1.
         11    1    4    4    0    0  0.21032846035E+01 -0.12936132704E+02  0.10333833239E+02  0.16689980381E+02  0.51100000000E-03 0. -1.
        -11    1    4    4    0    0  0.14014283558E+02  0.31275840453E+01 -0.70147387044E+01  0.15980878729E+02  0.51100000000E-03 0.  1.
         12    1    4    4    0    0  0.16528145923E+02 -0.38254361136E+01 -0.13524533517E+02  0.21696234142E+02  0.00000000000E+00 0. -1.
</event>
<event>
 8    1  0.1261983E-006  0.9118800E+02  0.7816164E-02  0.1184000E+00
        -11   -1    0    0    0    0  0.00000000000E+00  0.00000000000E+00  0.45593999997E+02  0.45594000000E+02  0.51100000000E-03 0. -1.
         11   -1    0    0    0    0 -0.00000000000E+00 -0.00000000000E+00 -0.45593999997E+02  0.45594000000E+02  0.51100000000E-03 0.  1.
         23    2    1    2    0    0  0.00000000000E+00  0.00000000000E+00  0.17763568394E-14  0.91188000000E+02  0.91188000000E+02 0.  0.
    9900012    2    3    3    0    0  0.20919481781E+02  0.27240030007E+02 -0.13271594824E+02  0.54367093140E+02  0.40000020432E+02 0.  0.
        -12    1    3    3    0    0 -0.20919481781E+02 -0.27240030007E+02  0.13271594824E+02  0.36820906860E+02  0.00000000000E+00 0.  1.
         11    1    4    4    0    0 -0.52350117015E+01  0.12765675276E+02 -0.53800989291E+01  0.14809229471E+02  0.51100000000E-03 0. -1.
        -11    1    4    4    0    0  0.88175294651E+01  0.24935169352E+01  0.87770619182E+01  0.12688706347E+02  0.51100000000E-03 0.  1.
        -12    1    4    4    0    0  0.17336964018E+02  0.11980837796E+02 -0.16668557814E+02  0.26869157323E+02  0.00000000000E+00 0.  1.
</event>
<event>
 8    1  0.1261983E-006  0.9118800E+02  0.7816164E-02  0.1184000E+00
        -11   -1    0    0    0    0  0.00000000000E+00  0.00000000000E+00  0.45593999997E+02  0.45594000000E+02  0.51100000000E-03 0.  1.
         11   -1    0    0    0    0 -0.00000000000E+00 -0.00000000000E+00 -0.45593999997E+02  0.45594000000E+02  0.51100000000E-03 0. -1.
         23    2    1    2    0    0  0.00000000000E+00  0.17763568394E-14  0.35527136788E-14  0.91188000000E+02  0.91188000000E+02 0.  0.
    9900012    2    3    3    0    0  0.14569909186E+02  0.15547752425E+02  0.30029398396E+02  0.54367087095E+02  0.40000006650E+02 0.  0.
         12    1    3    3    0    0 -0.14569909186E+02 -0.15547752425E+02 -0.30029398396E+02  0.36820912905E+02  0.00000000000E+00 0. -1.
         11    1    4    4    0    0  0.39464941303E+00  0.64894101336E+01  0.28349943874E+02  0.29085864436E+02  0.51100000000E-03 0. -1.
        -11    1    4    4    0    0  0.74517301610E+01  0.85598772971E+01  0.96107230708E+01  0.14871643485E+02  0.51100000000E-03 0.  1.
        -12    1    4    4    0    0  0.67235296120E+01  0.49846499388E+00 -0.79312685488E+01  0.10409579174E+02  0.00000000000E+00 0.  1.
</event>
<event>
 8    1  0.1261983E-006  0.9118800E+02  0.7816164E-02  0.1184000E+00
        -11   -1    0    0    0    0  0.00000000000E+00  0.00000000000E+00  0.45593999997E+02  0.45594000000E+02  0.51100000000E-03 0.  1.
         11   -1    0    0    0    0 -0.00000000000E+00 -0.00000000000E+00 -0.45593999997E+02  0.45594000000E+02  0.51100000000E-03 0. -1.
         23    2    1    2    0    0 -0.88817841970E-15  0.17763568394E-14  0.00000000000E+00  0.91188000000E+02  0.91188000000E+02 0.  0.
    9900012    2    3    3    0    0 -0.45371798300E+01 -0.15475351438E+02 -0.33101460052E+02  0.54367093431E+02  0.40000021095E+02 0.  0.
        -12    1    3    3    0    0  0.45371798300E+01  0.15475351438E+02  0.33101460052E+02  0.36820906569E+02  0.00000000000E+00 0.  1.
         11    1    4    4    0    0 -0.13679240668E+02 -0.21189319924E+02 -0.21218887313E+02  0.32959825290E+02  0.51100000000E-03 0. -1.
        -11    1    4    4    0    0 -0.18613321056E+01  0.25898222942E+01  0.17289644060E+01  0.36278168230E+01  0.51100000000E-03 0.  1.
         12    1    4    4    0    0  0.11003392944E+02  0.31241461921E+01 -0.13611537146E+02  0.17779451318E+02  0.00000000000E+00 0. -1.
</event>
<event>
 8    1  0.1261983E-006  0.9118800E+02  0.7816164E-02  0.1184000E+00
        -11   -1    0    0    0    0  0.00000000000E+00  0.00000000000E+00  0.45593999997E+02  0.45594000000E+02  0.51100000000E-03 0.  1.
         11   -1    0    0    0    0 -0.00000000000E+00 -0.00000000000E+00 -0.45593999997E+02  0.45594000000E+02  0.51100000000E-03 0. -1.
         23    2    1    2    0    0  0.00000000000E+00  0.00000000000E+00  0.00000000000E+00  0.91188000000E+02  0.91188000000E+02 0.  0.
    9900012    2    3    3    0    0 -0.10534871449E+02 -0.12850160885E+02  0.32858296066E+02  0.54367112293E+02  0.40000064093E+02 0.  0.
        -12    1    3    3    0    0  0.10534871449E+02  0.12850160885E+02 -0.32858296066E+02  0.36820887707E+02  0.00000000000E+00 0.  1.
         11    1    4    4    0    0 -0.90627616379E+00  0.45093100528E+01  0.10410033086E+02  0.11380861248E+02  0.51100000000E-03 0.  1.
        -11    1    4    4    0    0 -0.19095403844E+02 -0.71146836064E+01  0.56401704408E+01  0.21143904409E+02  0.51100000000E-03 0. -1.
        -12    1    4    4    0    0  0.94668085587E+01 -0.10244787331E+02  0.16808092539E+02  0.21842346636E+02  0.00000000000E+00 0.  1.
</event>
<event>
 8    1  0.1261983E-006  0.9118800E+02  0.7816164E-02  0.1184000E+00
        -11   -1    0    0    0    0  0.00000000000E+00  0.00000000000E+00  0.45593999997E+02  0.45594000000E+02  0.51100000000E-03 0.  1.
         11   -1    0    0    0    0 -0.00000000000E+00 -0.00000000000E+00 -0.45593999997E+02  0.45594000000E+02  0.51100000000E-03 0. -1.
         23    2    1    2    0    0  0.00000000000E+00  0.88817841970E-15  0.00000000000E+00  0.91188000000E+02  0.91188000000E+02 0.  0.
    9900012    2    3    3    0    0  0.26328160860E+02 -0.61564159013E+01  0.24994123058E+02  0.54367086127E+02  0.40000004443E+02 0.  0.
         12    1    3    3    0    0 -0.26328160860E+02  0.61564159013E+01 -0.24994123058E+02  0.36820913873E+02  0.00000000000E+00 0. -1.
         11    1    4    4    0    0  0.93663928952E+01 -0.59587820998E+01  0.11293238563E+02  0.15835833969E+02  0.51100000000E-03 0. -1.
        -11    1    4    4    0    0 -0.36995377121E+00 -0.13178643716E+02  0.10036513603E+02  0.16569403174E+02  0.51100000000E-03 0.  1.
         12    1    4    4    0    0  0.17331721736E+02  0.12981009915E+02  0.36643708917E+01  0.21961848983E+02  0.00000000000E+00 0. -1.
</event>
<event>
 8    1  0.1261983E-006  0.9118800E+02  0.7816164E-02  0.1184000E+00
        -11   -1    0    0    0    0  0.00000000000E+00  0.00000000000E+00  0.45593999997E+02  0.45594000000E+02  0.51100000000E-03 0.  1.
         11   -1    0    0    0    0 -0.00000000000E+00 -0.00000000000E+00 -0.45593999997E+02  0.45594000000E+02  0.51100000000E-03 0. -1.
         23    2    1    2    0    0  0.00000000000E+00  0.00000000000E+00  0.44408920985E-15  0.91188000000E+02  0.91188000000E+02 0.  0.
    9900012    2    3    3    0    0  0.29136015168E+02  0.22414101744E+02  0.21165115851E+01  0.54367096179E+02  0.40000027360E+02 0.  0.
         12    1    3    3    0    0 -0.29136015168E+02 -0.22414101744E+02 -0.21165115851E+01  0.36820903821E+02  0.00000000000E+00 0. -1.
         11    1    4    4    0    0 -0.31915621961E+01  0.99728194105E+01  0.24544243849E+00  0.10473940925E+02  0.51100000000E-03 0. -1.
        -11    1    4    4    0    0  0.26891269891E+02  0.99780683912E+01  0.12824484270E+02  0.31419255914E+02  0.51100000000E-03 0.  1.
        -12    1    4    4    0    0  0.54363074737E+01  0.24632139424E+01 -0.10953415124E+02  0.12473899340E+02  0.00000000000E+00 0.  1.
</event>
<event>
 8    1  0.1261983E-006  0.9118800E+02  0.7816164E-02  0.1184000E+00
        -11   -1    0    0    0    0  0.00000000000E+00  0.00000000000E+00  0.45593999997E+02  0.45594000000E+02  0.51100000000E-03 0. -1.
         11   -1    0    0    0    0 -0.00000000000E+00 -0.00000000000E+00 -0.45593999997E+02  0.45594000000E+02  0.51100000000E-03 0.  1.
         23    2    1    2    0    0  0.00000000000E+00 -0.35527136788E-14  0.00000000000E+00  0.91188000000E+02  0.91188000000E+02 0.  0.
    9900012    2    3    3    0    0  0.28170869857E+02  0.22906461849E+02  0.61216595907E+01  0.54367100784E+02  0.40000037858E+02 0.  0.
        -12    1    3    3    0    0 -0.28170869857E+02 -0.22906461849E+02 -0.61216595907E+01  0.36820899216E+02  0.00000000000E+00 0.  1.
         11    1    4    4    0    0 -0.15539685001E+01 -0.29182515572E+01  0.10137128406E+02  0.10662663027E+02  0.51100000000E-03 0. -1.
        -11    1    4    4    0    0  0.20383986149E+00  0.20530008408E+01 -0.53960625731E+01  0.57770108790E+01  0.51100000000E-03 0.  1.
         12    1    4    4    0    0  0.29520998495E+02  0.23771712566E+02  0.13805937576E+01  0.37927426878E+02  0.00000000000E+00 0. -1.
</event>
<event>
 8    1  0.1261983E-006  0.9118800E+02  0.7816164E-02  0.1184000E+00
        -11   -1    0    0    0    0  0.00000000000E+00  0.00000000000E+00  0.45593999997E+02  0.45594000000E+02  0.51100000000E-03 0. -1.
         11   -1    0    0    0    0 -0.00000000000E+00 -0.00000000000E+00 -0.45593999997E+02  0.45594000000E+02  0.51100000000E-03 0.  1.
         23    2    1    2    0    0 -0.44408920985E-15  0.00000000000E+00  0.00000000000E+00  0.91188000000E+02  0.91188000000E+02 0.  0.
    9900012    2    3    3    0    0 -0.16128813660E+01 -0.23942589635E+02  0.27927257703E+02  0.54367072424E+02  0.39999973206E+02 0.  0.
        -12    1    3    3    0    0  0.16128813660E+01  0.23942589635E+02 -0.27927257703E+02  0.36820927576E+02  0.00000000000E+00 0.  1.
         11    1    4    4    0    0 -0.71390827120E+01 -0.21833304111E+02  0.17081495566E+02  0.28625812851E+02  0.51100000000E-03 0. -1.
        -11    1    4    4    0    0 -0.15393448538E+01 -0.81355169612E+01 -0.32221239423E+01  0.88847229425E+01  0.51100000000E-03 0.  1.
         12    1    4    4    0    0  0.70655461998E+01  0.60262314371E+01  0.14067886080E+02  0.16856536631E+02  0.00000000000E+00 0. -1.
</event>
<event>
 8    1  0.1261983E-006  0.9118800E+02  0.7816164E-02  0.1184000E+00
        -11   -1    0    0    0    0  0.00000000000E+00  0.00000000000E+00  0.45593999997E+02  0.45594000000E+02  0.51100000000E-03 0.  1.
         11   -1    0    0    0    0 -0.00000000000E+00 -0.00000000000E+00 -0.45593999997E+02  0.45594000000E+02  0.51100000000E-03 0. -1.
         23    2    1    2    0    0  0.00000000000E+00  0.35527136788E-14 -0.71054273576E-14  0.91188000000E+02  0.91188000000E+02 0.  0.
    9900012    2    3    3    0    0 -0.14299809022E+02  0.25300023235E+02 -0.22609827630E+02  0.54367081771E+02  0.39999994514E+02 0.  0.
        -12    1    3    3    0    0  0.14299809022E+02 -0.25300023235E+02  0.22609827630E+02  0.36820918229E+02  0.00000000000E+00 0.  1.
         11    1    4    4    0    0 -0.43576367554E+01  0.26180796911E+02 -0.23063851719E+02  0.35161973513E+02  0.51100000000E-03 0. -1.
        -11    1    4    4    0    0 -0.41554160955E+01  0.74725170314E+01 -0.19344294695E+01  0.87662997522E+01  0.51100000000E-03 0.  1.
        -12    1    4    4    0    0 -0.57867561706E+01 -0.83532907075E+01  0.23884535583E+01  0.10438808506E+02  0.00000000000E+00 0.  1.
</event>
<event>
 8    1  0.1261983E-006  0.9118800E+02  0.7816164E-02  0.1184000E+00
        -11   -1    0    0    0    0  0.00000000000E+00  0.00000000000E+00  0.45593999997E+02  0.45594000000E+02  0.51100000000E-03 0.  1.
         11   -1    0    0    0    0 -0.00000000000E+00 -0.00000000000E+00 -0.45593999997E+02  0.45594000000E+02  0.51100000000E-03 0. -1.
         23    2    1    2    0    0 -0.71054273576E-14  0.00000000000E+00 -0.33306690739E-15  0.91188000000E+02  0.91188000000E+02 0.  0.
    9900012    2    3    3    0    0  0.20623496206E+02  0.30497901143E+02  0.57272813000E+00  0.54367101214E+02  0.40000038838E+02 0.  0.
        -12    1    3    3    0    0 -0.20623496206E+02 -0.30497901143E+02 -0.57272813000E+00  0.36820898786E+02  0.00000000000E+00 0.  1.
         11    1    4    4    0    0  0.28649396981E+02  0.16343469001E+02 -0.34758976694E+01  0.33165928168E+02  0.51100000000E-03 0.  1.
        -11    1    4    4    0    0 -0.90731893206E+01  0.12492503894E+02 -0.13086584534E+01  0.15495096166E+02  0.51100000000E-03 0. -1.
        -12    1    4    4    0    0  0.10472885453E+01  0.16619282478E+01  0.53572842528E+01  0.57060768802E+01  0.00000000000E+00 0.  1.
</event>
<event>
 8    1  0.1261983E-006  0.9118800E+02  0.7816164E-02  0.1184000E+00
        -11   -1    0    0    0    0  0.00000000000E+00  0.00000000000E+00  0.45593999997E+02  0.45594000000E+02  0.51100000000E-03 0. -1.
         11   -1    0    0    0    0 -0.00000000000E+00 -0.00000000000E+00 -0.45593999997E+02  0.45594000000E+02  0.51100000000E-03 0.  1.
         23    2    1    2    0    0 -0.88817841970E-15  0.00000000000E+00  0.00000000000E+00  0.91188000000E+02  0.91188000000E+02 0.  0.
    9900012    2    3    3    0    0 -0.54430627075E+01  0.42583233646E+01 -0.36166514530E+02  0.54367122461E+02  0.40000087274E+02 0.  0.
         12    1    3    3    0    0  0.54430627075E+01 -0.42583233646E+01  0.36166514530E+02  0.36820877539E+02  0.00000000000E+00 0. -1.
         11    1    4    4    0    0 -0.21525804047E+01  0.69314040376E+01 -0.43224418843E+01  0.84475717479E+01  0.51100000000E-03 0. -1.
        -11    1    4    4    0    0  0.31929742850E+01  0.17186497627E+01 -0.36585735914E+02  0.36764995776E+02  0.51100000000E-03 0.  1.
        -12    1    4    4    0    0 -0.64834565878E+01 -0.43917304358E+01  0.47416632684E+01  0.91545549371E+01  0.00000000000E+00 0.  1.
</event>
<event>
 8    1  0.1261983E-006  0.9118800E+02  0.7816164E-02  0.1184000E+00
        -11   -1    0    0    0    0  0.00000000000E+00  0.00000000000E+00  0.45593999997E+02  0.45594000000E+02  0.51100000000E-03 0.  1.
         11   -1    0    0    0    0 -0.00000000000E+00 -0.00000000000E+00 -0.45593999997E+02  0.45594000000E+02  0.51100000000E-03 0. -1.
         23    2    1    2    0    0  0.35527136788E-14  0.00000000000E+00  0.00000000000E+00  0.91188000000E+02  0.91188000000E+02 0.  0.
    9900012    2    3    3    0    0 -0.16181771222E+02  0.32715529445E+02  0.48604835200E+01  0.54367083569E+02  0.39999998612E+02 0.  0.
         12    1    3    3    0    0  0.16181771222E+02 -0.32715529445E+02 -0.48604835200E+01  0.36820916431E+02  0.00000000000E+00 0. -1.
         11    1    4    4    0    0 -0.90152801642E+01  0.68360676066E+01  0.37875233144E+01  0.11931153753E+02  0.51100000000E-03 0. -1.
        -11    1    4    4    0    0 -0.15285989441E+02  0.28584623811E+02 -0.37183592260E+01  0.32627724211E+02  0.51100000000E-03 0.  1.
         12    1    4    4    0    0  0.81194983833E+01 -0.27051619721E+01  0.47913194315E+01  0.98082056048E+01  0.00000000000E+00 0. -1.
</event>
<event>
 8    1  0.1261983E-006  0.9118800E+02  0.7816164E-02  0.1184000E+00
        -11   -1    0    0    0    0  0.00000000000E+00  0.00000000000E+00  0.45593999997E+02  0.45594000000E+02  0.51100000000E-03 0.  1.
         11   -1    0    0    0    0 -0.00000000000E+00 -0.00000000000E+00 -0.45593999997E+02  0.45594000000E+02  0.51100000000E-03 0. -1.
         23    2    1    2    0    0  0.71054273576E-14  0.00000000000E+00  0.00000000000E+00  0.91188000000E+02  0.91188000000E+02 0.  0.
    9900012    2    3    3    0    0  0.27560323774E+02 -0.10479012781E+02 -0.22054450979E+02  0.54367082529E+02  0.39999996242E+02 0.  0.
        -12    1    3    3    0    0 -0.27560323774E+02  0.10479012781E+02  0.22054450979E+02  0.36820917471E+02  0.00000000000E+00 0.  1.
         11    1    4    4    0    0 -0.62150963895E+01 -0.65126834946E+01  0.20467200000E+01  0.92320925283E+01  0.51100000000E-03 0. -1.
        -11    1    4    4    0    0  0.72149709030E+01  0.51782444700E+01 -0.11005470124E+02  0.14141795991E+02  0.51100000000E-03 0.  1.
         12    1    4    4    0    0  0.26560449260E+02 -0.91445737568E+01 -0.13095700855E+02  0.30993194011E+02  0.00000000000E+00 0. -1.
</event>
<event>
 8    1  0.1261983E-006  0.9118800E+02  0.7816164E-02  0.1184000E+00
        -11   -1    0    0    0    0  0.00000000000E+00  0.00000000000E+00  0.45593999997E+02  0.45594000000E+02  0.51100000000E-03 0. -1.
         11   -1    0    0    0    0 -0.00000000000E+00 -0.00000000000E+00 -0.45593999997E+02  0.45594000000E+02  0.51100000000E-03 0.  1.
         23    2    1    2    0    0  0.00000000000E+00  0.88817841970E-15  0.00000000000E+00  0.91188000000E+02  0.91188000000E+02 0.  0.
    9900012    2    3    3    0    0 -0.34135603409E+02  0.25705166665E+01  0.13562188795E+02  0.54367082834E+02  0.39999996936E+02 0.  0.
         12    1    3    3    0    0  0.34135603409E+02 -0.25705166665E+01 -0.13562188795E+02  0.36820917166E+02  0.00000000000E+00 0. -1.
         11    1    4    4    0    0 -0.11419243769E+02 -0.48082819545E+01  0.20965680542E+02  0.24353202345E+02  0.51100000000E-03 0. -1.
        -11    1    4    4    0    0 -0.11156460738E+02 -0.44946042788E+01 -0.58351240071E+01  0.13368498654E+02  0.51100000000E-03 0.  1.
         12    1    4    4    0    0 -0.11559898902E+02  0.11873402900E+02 -0.15683677394E+01  0.16645381834E+02  0.00000000000E+00 0. -1.
</event>
<event>
 8    1  0.1261983E-006  0.9118800E+02  0.7816164E-02  0.1184000E+00
        -11   -1    0    0    0    0  0.00000000000E+00  0.00000000000E+00  0.45593999997E+02  0.45594000000E+02  0.51100000000E-03 0. -1.
         11   -1    0    0    0    0 -0.00000000000E+00 -0.00000000000E+00 -0.45593999997E+02  0.45594000000E+02  0.51100000000E-03 0.  1.
         23    2    1    2    0    0 -0.17763568394E-14 -0.88817841970E-15  0.00000000000E+00  0.91188000000E+02  0.91188000000E+02 0.  0.
    9900012    2    3    3    0    0  0.11067378567E+02 -0.36208188084E+01  0.34931115329E+02  0.54367081824E+02  0.39999994633E+02 0.  0.
        -12    1    3    3    0    0 -0.11067378567E+02  0.36208188084E+01 -0.34931115329E+02  0.36820918176E+02  0.00000000000E+00 0.  1.
         11    1    4    4    0    0  0.87586967214E+00 -0.44879386655E+01 -0.14696502985E+01  0.48029796386E+01  0.51100000000E-03 0. -1.
        -11    1    4    4    0    0  0.20279629244E+02  0.46275045106E+01  0.15122074430E+02  0.25716809592E+02  0.51100000000E-03 0.  1.
         12    1    4    4    0    0 -0.10088120349E+02 -0.37603846536E+01  0.21278691198E+02  0.23847292593E+02  0.00000000000E+00 0. -1.
</event>
<event>
 8    1  0.1261983E-006  0.9118800E+02  0.7816164E-02  0.1184000E+00
        -11   -1    0    0    0    0  0.00000000000E+00  0.00000000000E+00  0.45593999997E+02  0.45594000000E+02  0.51100000000E-03 0. -1.
         11   -1    0    0    0    0 -0.00000000000E+00 -0.00000000000E+00 -0.45593999997E+02  0.45594000000E+02  0.51100000000E-03 0.  1.
         23    2    1    2    0    0  0.17763568394E-14  0.00000000000E+00  0.66613381478E-15  0.91188000000E+02  0.91188000000E+02 0.  0.
    9900012    2    3    3    0    0  0.12344414182E+02  0.34658994693E+02 -0.14656577279E+01  0.54367100674E+02  0.40000037606E+02 0.  0.
        -12    1    3    3    0    0 -0.12344414182E+02 -0.34658994693E+02  0.14656577279E+01  0.36820899326E+02  0.00000000000E+00 0.  1.
         11    1    4    4    0    0 -0.85137187838E+01  0.67868078084E+01 -0.51571315216E+01  0.12047413563E+02  0.51100000000E-03 0.  1.
        -11    1    4    4    0    0  0.91050771815E+01  0.27761180041E+02  0.71296944350E+01  0.30073544699E+02  0.51100000000E-03 0. -1.
        -12    1    4    4    0    0  0.11753055785E+02  0.11100684316E+00 -0.34382206413E+01  0.12246142412E+02  0.00000000000E+00 0.  1.
</event>
<event>
 8    1  0.1261983E-006  0.9118800E+02  0.7816164E-02  0.1184000E+00
        -11   -1    0    0    0    0  0.00000000000E+00  0.00000000000E+00  0.45593999997E+02  0.45594000000E+02  0.51100000000E-03 0. -1.
         11   -1    0    0    0    0 -0.00000000000E+00 -0.00000000000E+00 -0.45593999997E+02  0.45594000000E+02  0.51100000000E-03 0.  1.
         23    2    1    2    0    0  0.00000000000E+00 -0.71054273576E-14  0.00000000000E+00  0.91188000000E+02  0.91188000000E+02 0.  0.
    9900012    2    3    3    0    0 -0.93734762025E+01 -0.32158244923E+02  0.15289338382E+02  0.54367100489E+02  0.40000037184E+02 0.  0.
        -12    1    3    3    0    0  0.93734762025E+01  0.32158244923E+02 -0.15289338382E+02  0.36820899511E+02  0.00000000000E+00 0.  1.
         11    1    4    4    0    0 -0.26919392935E+00 -0.53250082922E+01  0.13689484184E+02  0.14691159116E+02  0.51100000000E-03 0. -1.
        -11    1    4    4    0    0 -0.26037593511E+01 -0.28415581184E+02  0.87868677317E+01  0.29856889683E+02  0.51100000000E-03 0.  1.
        -12    1    4    4    0    0 -0.65005229221E+01  0.15823445524E+01 -0.71870135340E+01  0.98190516895E+01  0.00000000000E+00 0.  1.
</event>
<event>
 8    1  0.1261983E-006  0.9118800E+02  0.7816164E-02  0.1184000E+00
        -11   -1    0    0    0    0  0.00000000000E+00  0.00000000000E+00  0.45593999997E+02  0.45594000000E+02  0.51100000000E-03 0.  1.
         11   -1    0    0    0    0 -0.00000000000E+00 -0.00000000000E+00 -0.45593999997E+02  0.45594000000E+02  0.51100000000E-03 0. -1.
         23    2    1    2    0    0  0.67654215563E-16  0.88817841970E-15  0.00000000000E+00  0.91188000000E+02  0.91188000000E+02 0.  0.
    9900012    2    3    3    0    0  0.15288574531E-01 -0.22039598806E+01 -0.36754898512E+02  0.54367078807E+02  0.39999987756E+02 0.  0.
        -12    1    3    3    0    0 -0.15288574531E-01  0.22039598806E+01  0.36754898512E+02  0.36820921193E+02  0.00000000000E+00 0.  1.
         11    1    4    4    0    0 -0.27887099587E+00  0.12710837710E+02 -0.11325366853E+02  0.17026658478E+02  0.51100000000E-03 0. -1.
        -11    1    4    4    0    0 -0.83434600281E+00 -0.17887193844E+02 -0.28010638955E+02  0.33245206148E+02  0.51100000000E-03 0.  1.
        -12    1    4    4    0    0  0.11285055732E+01  0.29723962529E+01  0.25811072958E+01  0.40952141807E+01  0.00000000000E+00 0.  1.
</event>
<event>
 8    1  0.1261983E-006  0.9118800E+02  0.7816164E-02  0.1184000E+00
        -11   -1    0    0    0    0  0.00000000000E+00  0.00000000000E+00  0.45593999997E+02  0.45594000000E+02  0.51100000000E-03 0. -1.
         11   -1    0    0    0    0 -0.00000000000E+00 -0.00000000000E+00 -0.45593999997E+02  0.45594000000E+02  0.51100000000E-03 0.  1.
         23    2    1    2    0    0  0.00000000000E+00  0.00000000000E+00  0.17763568394E-14  0.91188000000E+02  0.91188000000E+02 0.  0.
    9900012    2    3    3    0    0  0.62140746872E+01  0.36027382502E+02 -0.43811873465E+01  0.54367057363E+02  0.39999938870E+02 0.  0.
         12    1    3    3    0    0 -0.62140746872E+01 -0.36027382502E+02  0.43811873465E+01  0.36820942637E+02  0.00000000000E+00 0. -1.
         11    1    4    4    0    0 -0.44214947397E+01  0.94620780917E+01  0.12465296390E+02  0.16262353824E+02  0.51100000000E-03 0. -1.
        -11    1    4    4    0    0  0.10788408565E+02  0.21458225751E+02 -0.20698451735E+02  0.31706010728E+02  0.51100000000E-03 0.  1.
        -12    1    4    4    0    0 -0.15283913839E+00  0.51070786585E+01  0.38519679988E+01  0.63986928111E+01  0.00000000000E+00 0.  1.
</event>
<event>
 8    1  0.1261983E-006  0.9118800E+02  0.7816164E-02  0.1184000E+00
        -11   -1    0    0    0    0  0.00000000000E+00  0.00000000000E+00  0.45593999997E+02  0.45594000000E+02  0.51100000000E-03 0.  1.
         11   -1    0    0    0    0 -0.00000000000E+00 -0.00000000000E+00 -0.45593999997E+02  0.45594000000E+02  0.51100000000E-03 0. -1.
         23    2    1    2    0    0  0.00000000000E+00  0.17763568394E-14 -0.35527136788E-14  0.91188000000E+02  0.91188000000E+02 0.  0.
    9900012    2    3    3    0    0  0.24282296401E+02 -0.15688031188E+02  0.22804290945E+02  0.54367083029E+02  0.39999997381E+02 0.  0.
         12    1    3    3    0    0 -0.24282296401E+02  0.15688031188E+02 -0.22804290945E+02  0.36820916971E+02  0.00000000000E+00 0. -1.
         11    1    4    4    0    0  0.20383309066E+02 -0.68294334324E+01 -0.36150131006E+01  0.21798824956E+02  0.51100000000E-03 0. -1.
        -11    1    4    4    0    0  0.67027140052E+01  0.11362054053E+01  0.17872767259E+02  0.19122059186E+02  0.51100000000E-03 0.  1.
         12    1    4    4    0    0 -0.28037266699E+01 -0.99948031606E+01  0.85465367869E+01  0.13446198887E+02  0.00000000000E+00 0. -1.
</event>
<event>
 8    1  0.1261983E-006  0.9118800E+02  0.7816164E-02  0.1184000E+00
        -11   -1    0    0    0    0  0.00000000000E+00  0.00000000000E+00  0.45593999997E+02  0.45594000000E+02  0.51100000000E-03 0.  1.
         11   -1    0    0    0    0 -0.00000000000E+00 -0.00000000000E+00 -0.45593999997E+02  0.45594000000E+02  0.51100000000E-03 0. -1.
         23    2    1    2    0    0  0.00000000000E+00  0.80491169285E-15 -0.17763568394E-14  0.91188000000E+02  0.91188000000E+02 0.  0.
    9900012    2    3    3    0    0  0.36546170828E+02  0.90713586899E-01 -0.44888233241E+01  0.54367077063E+02  0.39999983780E+02 0.  0.
        -12    1    3    3    0    0 -0.36546170828E+02 -0.90713586899E-01  0.44888233241E+01  0.36820922937E+02  0.00000000000E+00 0.  1.
         11    1    4    4    0    0  0.21776765417E+02  0.77364655070E+01 -0.16804990955E+02  0.28574256453E+02  0.51100000000E-03 0. -1.
        -11    1    4    4    0    0  0.43508336370E+01  0.39684508088E+01 -0.42084243298E-01  0.58889834864E+01  0.51100000000E-03 0.  1.
        -12    1    4    4    0    0  0.10418571774E+02 -0.11614202729E+02  0.12358251875E+02  0.19903837123E+02  0.00000000000E+00 0.  1.
</event>
<event>
 8    1  0.1261983E-006  0.9118800E+02  0.7816164E-02  0.1184000E+00
        -11   -1    0    0    0    0  0.00000000000E+00  0.00000000000E+00  0.45593999997E+02  0.45594000000E+02  0.51100000000E-03 0.  1.
         11   -1    0    0    0    0 -0.00000000000E+00 -0.00000000000E+00 -0.45593999997E+02  0.45594000000E+02  0.51100000000E-03 0. -1.
         23    2    1    2    0    0  0.00000000000E+00  0.00000000000E+00  0.00000000000E+00  0.91188000000E+02  0.91188000000E+02 0.  0.
    9900012    2    3    3    0    0  0.16939813428E+01  0.31816580365E+02 -0.18455770114E+02  0.54367084620E+02  0.40000001008E+02 0.  0.
        -12    1    3    3    0    0 -0.16939813428E+01 -0.31816580365E+02  0.18455770114E+02  0.36820915380E+02  0.00000000000E+00 0.  1.
         11    1    4    4    0    0  0.22729620386E+01  0.11465866562E+02 -0.14007674577E+02  0.18244105891E+02  0.51100000000E-03 0. -1.
        -11    1    4    4    0    0  0.22699342144E+01  0.17464393435E+02 -0.16053069904E+02  0.23829785836E+02  0.51100000000E-03 0.  1.
        -12    1    4    4    0    0 -0.28489149102E+01  0.28863203679E+01  0.11604974367E+02  0.12293192893E+02  0.00000000000E+00 0.  1.
</event>
<event>
 8    1  0.1261983E-006  0.9118800E+02  0.7816164E-02  0.1184000E+00
        -11   -1    0    0    0    0  0.00000000000E+00  0.00000000000E+00  0.45593999997E+02  0.45594000000E+02  0.51100000000E-03 0. -1.
         11   -1    0    0    0    0 -0.00000000000E+00 -0.00000000000E+00 -0.45593999997E+02  0.45594000000E+02  0.51100000000E-03 0.  1.
         23    2    1    2    0    0  0.00000000000E+00  0.00000000000E+00  0.00000000000E+00  0.91188000000E+02  0.91188000000E+02 0.  0.
    9900012    2    3    3    0    0 -0.26297855970E+02  0.80313387776E+01  0.24488794441E+02  0.54367072740E+02  0.39999973924E+02 0.  0.
        -12    1    3    3    0    0  0.26297855970E+02 -0.80313387776E+01 -0.24488794441E+02  0.36820927260E+02  0.00000000000E+00 0.  1.
         11    1    4    4    0    0 -0.10070112157E+02 -0.18647703765E+01  0.65381512041E+00  0.10262163606E+02  0.51100000000E-03 0. -1.
        -11    1    4    4    0    0 -0.81820499312E+01  0.19156569292E+01 -0.71998170374E+01  0.11065850540E+02  0.51100000000E-03 0.  1.
        -12    1    4    4    0    0 -0.80456938816E+01  0.79804522248E+01  0.31034796358E+02  0.33039058593E+02  0.00000000000E+00 0.  1.
</event>
<event>
 8    1  0.1261983E-006  0.9118800E+02  0.7816164E-02  0.1184000E+00
        -11   -1    0    0    0    0  0.00000000000E+00  0.00000000000E+00  0.45593999997E+02  0.45594000000E+02  0.51100000000E-03 0.  1.
         11   -1    0    0    0    0 -0.00000000000E+00 -0.00000000000E+00 -0.45593999997E+02  0.45594000000E+02  0.51100000000E-03 0. -1.
         23    2    1    2    0    0  0.35527136788E-14  0.00000000000E+00 -0.35527136788E-14  0.91188000000E+02  0.91188000000E+02 0.  0.
    9900012    2    3    3    0    0  0.92144583753E+01 -0.16036505411E+02 -0.31838720957E+02  0.54367083375E+02  0.39999998170E+02 0.  0.
        -12    1    3    3    0    0 -0.92144583753E+01  0.16036505411E+02  0.31838720957E+02  0.36820916625E+02  0.00000000000E+00 0.  1.
         11    1    4    4    0    0  0.20366192200E+02 -0.97092854424E+01 -0.28616266493E+02  0.36440948352E+02  0.51100000000E-03 0. -1.
        -11    1    4    4    0    0  0.89671176480E+00 -0.43924205480E+01 -0.35508432061E+01  0.57189105602E+01  0.51100000000E-03 0.  1.
        -12    1    4    4    0    0 -0.12048445589E+02 -0.19347994203E+01  0.32838874273E+00  0.12207224463E+02  0.00000000000E+00 0.  1.
</event>
<event>
 8    1  0.1261983E-006  0.9118800E+02  0.7816164E-02  0.1184000E+00
        -11   -1    0    0    0    0  0.00000000000E+00  0.00000000000E+00  0.45593999997E+02  0.45594000000E+02  0.51100000000E-03 0.  1.
         11   -1    0    0    0    0 -0.00000000000E+00 -0.00000000000E+00 -0.45593999997E+02  0.45594000000E+02  0.51100000000E-03 0. -1.
         23    2    1    2    0    0 -0.26645352591E-14  0.00000000000E+00  0.00000000000E+00  0.91188000000E+02  0.91188000000E+02 0.  0.
    9900012    2    3    3    0    0  0.73166287081E+01  0.16016092478E+02  0.32337795456E+02  0.54367064530E+02  0.39999955210E+02 0.  0.
         12    1    3    3    0    0 -0.73166287081E+01 -0.16016092478E+02 -0.32337795456E+02  0.36820935470E+02  0.00000000000E+00 0. -1.
         11    1    4    4    0    0 -0.85076736960E+01  0.34136361892E+01 -0.35329436424E+01  0.98242106447E+01  0.51100000000E-03 0. -1.
        -11    1    4    4    0    0 -0.34543732089E+01  0.24436047560E+01  0.33537391903E+01  0.53992096910E+01  0.51100000000E-03 0.  1.
        -12    1    4    4    0    0  0.19278675613E+02  0.10158851533E+02  0.32516999908E+02  0.39143644195E+02  0.00000000000E+00 0.  1.
</event>
<event>
 8    1  0.1261983E-006  0.9118800E+02  0.7816164E-02  0.1184000E+00
        -11   -1    0    0    0    0  0.00000000000E+00  0.00000000000E+00  0.45593999997E+02  0.45594000000E+02  0.51100000000E-03 0.  1.
         11   -1    0    0    0    0 -0.00000000000E+00 -0.00000000000E+00 -0.45593999997E+02  0.45594000000E+02  0.51100000000E-03 0. -1.
         23    2    1    2    0    0  0.00000000000E+00 -0.88817841970E-15  0.00000000000E+00  0.91188000000E+02  0.91188000000E+02 0.  0.
    9900012    2    3    3    0    0 -0.22678055182E+02 -0.71729789882E+01  0.28107570836E+02  0.54367063663E+02  0.39999953234E+02 0.  0.
         12    1    3    3    0    0  0.22678055182E+02  0.71729789882E+01 -0.28107570836E+02  0.36820936337E+02  0.00000000000E+00 0. -1.
         11    1    4    4    0    0 -0.43847306016E+01 -0.13778038552E+02  0.56117325155E+01  0.15509730844E+02  0.51100000000E-03 0. -1.
        -11    1    4    4    0    0 -0.21244328503E+02  0.12346319836E+02  0.14317846691E+02  0.28438597735E+02  0.51100000000E-03 0.  1.
        -12    1    4    4    0    0  0.29510039219E+01 -0.57412602725E+01  0.81779916291E+01  0.10418735084E+02  0.00000000000E+00 0.  1.
</event>
<event>
 8    1  0.1261983E-006  0.9118800E+02  0.7816164E-02  0.1184000E+00
        -11   -1    0    0    0    0  0.00000000000E+00  0.00000000000E+00  0.45593999997E+02  0.45594000000E+02  0.51100000000E-03 0.  1.
         11   -1    0    0    0    0 -0.00000000000E+00 -0.00000000000E+00 -0.45593999997E+02  0.45594000000E+02  0.51100000000E-03 0. -1.
         23    2    1    2    0    0  0.00000000000E+00 -0.35527136788E-14 -0.35527136788E-14  0.91188000000E+02  0.91188000000E+02 0.  0.
    9900012    2    3    3    0    0 -0.20026746363E+02  0.24162685364E+02  0.19258087065E+02  0.54367084051E+02  0.39999999712E+02 0.  0.
         12    1    3    3    0    0  0.20026746363E+02 -0.24162685364E+02 -0.19258087065E+02  0.36820915949E+02  0.00000000000E+00 0. -1.
         11    1    4    4    0    0  0.25082093921E+00  0.28344492207E+01  0.17985336655E+02  0.18209045785E+02  0.51100000000E-03 0. -1.
        -11    1    4    4    0    0  0.13049362124E+01  0.95794870098E+01  0.56503809153E+01  0.11198046019E+02  0.51100000000E-03 0.  1.
        -12    1    4    4    0    0 -0.21582503515E+02  0.11748749133E+02 -0.43776305057E+01  0.24959992248E+02  0.00000000000E+00 0.  1.
</event>
<event>
 8    1  0.1261983E-006  0.9118800E+02  0.7816164E-02  0.1184000E+00
        -11   -1    0    0    0    0  0.00000000000E+00  0.00000000000E+00  0.45593999997E+02  0.45594000000E+02  0.51100000000E-03 0.  1.
         11   -1    0    0    0    0 -0.00000000000E+00 -0.00000000000E+00 -0.45593999997E+02  0.45594000000E+02  0.51100000000E-03 0. -1.
         23    2    1    2    0    0 -0.88817841970E-15  0.00000000000E+00 -0.35527136788E-14  0.91188000000E+02  0.91188000000E+02 0.  0.
    9900012    2    3    3    0    0  0.79183041905E+01 -0.30440116141E+02  0.19143669813E+02  0.54367077879E+02  0.39999985641E+02 0.  0.
         12    1    3    3    0    0 -0.79183041905E+01  0.30440116141E+02 -0.19143669813E+02  0.36820922121E+02  0.00000000000E+00 0. -1.
         11    1    4    4    0    0  0.39088368328E+01  0.17477245876E+01  0.95196299809E+01  0.10438242278E+02  0.51100000000E-03 0. -1.
        -11    1    4    4    0    0  0.12406916474E+02 -0.26102749294E+02 -0.12163071782E+01  0.28926881971E+02  0.51100000000E-03 0.  1.
        -12    1    4    4    0    0 -0.83974491167E+01 -0.60850914338E+01  0.10840347011E+02  0.15001953631E+02  0.00000000000E+00 0.  1.
</event>
<event>
 8    1  0.1261983E-006  0.9118800E+02  0.7816164E-02  0.1184000E+00
        -11   -1    0    0    0    0  0.00000000000E+00  0.00000000000E+00  0.45593999997E+02  0.45594000000E+02  0.51100000000E-03 0. -1.
         11   -1    0    0    0    0 -0.00000000000E+00 -0.00000000000E+00 -0.45593999997E+02  0.45594000000E+02  0.51100000000E-03 0.  1.
         23    2    1    2    0    0  0.35527136788E-14  0.35527136788E-14 -0.35527136788E-14  0.91188000000E+02  0.91188000000E+02 0.  0.
    9900012    2    3    3    0    0  0.30664829303E+02  0.13063465429E+02 -0.15645897929E+02  0.54367081934E+02  0.39999994885E+02 0.  0.
         12    1    3    3    0    0 -0.30664829303E+02 -0.13063465429E+02  0.15645897929E+02  0.36820918066E+02  0.00000000000E+00 0. -1.
         11    1    4    4    0    0 -0.13921162068E+01  0.17918275817E+01 -0.22557666952E+01  0.31995495402E+01  0.51100000000E-03 0. -1.
        -11    1    4    4    0    0 -0.11212813216E+01 -0.29893769499E+01 -0.14687906585E+02  0.15030909702E+02  0.51100000000E-03 0.  1.
         12    1    4    4    0    0  0.33178226831E+02  0.14261014797E+02  0.12977753510E+01  0.36136622692E+02  0.00000000000E+00 0. -1.
</event>
<event>
 8    1  0.1261983E-006  0.9118800E+02  0.7816164E-02  0.1184000E+00
        -11   -1    0    0    0    0  0.00000000000E+00  0.00000000000E+00  0.45593999997E+02  0.45594000000E+02  0.51100000000E-03 0. -1.
         11   -1    0    0    0    0 -0.00000000000E+00 -0.00000000000E+00 -0.45593999997E+02  0.45594000000E+02  0.51100000000E-03 0.  1.
         23    2    1    2    0    0 -0.88817841970E-15 -0.35527136788E-14  0.35527136788E-14  0.91188000000E+02  0.91188000000E+02 0.  0.
    9900012    2    3    3    0    0  0.56218969733E+01  0.25180444949E+02 -0.26270114949E+02  0.54367089191E+02  0.40000011428E+02 0.  0.
         12    1    3    3    0    0 -0.56218969733E+01 -0.25180444949E+02  0.26270114949E+02  0.36820910809E+02  0.00000000000E+00 0. -1.
         11    1    4    4    0    0 -0.71974071263E+01  0.18003982833E+02 -0.92426367287E+00  0.19411345414E+02  0.51100000000E-03 0. -1.
        -11    1    4    4    0    0  0.11065141784E+02 -0.27446865407E+01 -0.54106575274E+01  0.12619266304E+02  0.51100000000E-03 0.  1.
         12    1    4    4    0    0  0.17541623155E+01  0.99211486568E+01 -0.19935193749E+02  0.22336477473E+02  0.00000000000E+00 0. -1.
</event>
<event>
 8    1  0.1261983E-006  0.9118800E+02  0.7816164E-02  0.1184000E+00
        -11   -1    0    0    0    0  0.00000000000E+00  0.00000000000E+00  0.45593999997E+02  0.45594000000E+02  0.51100000000E-03 0. -1.
         11   -1    0    0    0    0 -0.00000000000E+00 -0.00000000000E+00 -0.45593999997E+02  0.45594000000E+02  0.51100000000E-03 0.  1.
         23    2    1    2    0    0  0.00000000000E+00  0.71054273576E-14  0.00000000000E+00  0.91188000000E+02  0.91188000000E+02 0.  0.
    9900012    2    3    3    0    0 -0.14911529204E+02 -0.26987195096E+02 -0.20127526761E+02  0.54367085619E+02  0.40000003286E+02 0.  0.
         12    1    3    3    0    0  0.14911529204E+02  0.26987195096E+02  0.20127526761E+02  0.36820914381E+02  0.00000000000E+00 0. -1.
         11    1    4    4    0    0 -0.16757939244E+02  0.59363885549E+00 -0.71153888109E+01  0.18215644183E+02  0.51100000000E-03 0. -1.
        -11    1    4    4    0    0 -0.26894726968E+01 -0.25172640936E+02 -0.37930683866E+01  0.25598485954E+02  0.51100000000E-03 0.  1.
         12    1    4    4    0    0  0.45358827369E+01 -0.24081930153E+01 -0.92190695631E+01  0.10552955482E+02  0.00000000000E+00 0. -1.
</event>
<event>
 8    1  0.1261983E-006  0.9118800E+02  0.7816164E-02  0.1184000E+00
        -11   -1    0    0    0    0  0.00000000000E+00  0.00000000000E+00  0.45593999997E+02  0.45594000000E+02  0.51100000000E-03 0. -1.
         11   -1    0    0    0    0 -0.00000000000E+00 -0.00000000000E+00 -0.45593999997E+02  0.45594000000E+02  0.51100000000E-03 0.  1.
         23    2    1    2    0    0  0.00000000000E+00  0.00000000000E+00 -0.35527136788E-14  0.91188000000E+02  0.91188000000E+02 0.  0.
    9900012    2    3    3    0    0  0.24555678660E+02  0.14361555903E+02 -0.23378290493E+02  0.54367080555E+02  0.39999991741E+02 0.  0.
         12    1    3    3    0    0 -0.24555678660E+02 -0.14361555903E+02  0.23378290493E+02  0.36820919445E+02  0.00000000000E+00 0. -1.
         11    1    4    4    0    0  0.26789169775E+01  0.82667209329E+01 -0.14791335237E+02  0.17155141197E+02  0.51100000000E-03 0. -1.
        -11    1    4    4    0    0 -0.45159517368E+01  0.54919787666E+01  0.37874396280E+01  0.80560753509E+01  0.51100000000E-03 0.  1.
        -12    1    4    4    0    0  0.26392713419E+02  0.60285620375E+00 -0.12374394884E+02  0.29155864007E+02  0.00000000000E+00 0.  1.
</event>
<event>
 8    1  0.1261983E-006  0.9118800E+02  0.7816164E-02  0.1184000E+00
        -11   -1    0    0    0    0  0.00000000000E+00  0.00000000000E+00  0.45593999997E+02  0.45594000000E+02  0.51100000000E-03 0.  1.
         11   -1    0    0    0    0 -0.00000000000E+00 -0.00000000000E+00 -0.45593999997E+02  0.45594000000E+02  0.51100000000E-03 0. -1.
         23    2    1    2    0    0  0.00000000000E+00  0.00000000000E+00 -0.17763568394E-14  0.91188000000E+02  0.91188000000E+02 0.  0.
    9900012    2    3    3    0    0 -0.29161536694E+02  0.20734019340E+02  0.86881868934E+01  0.54367090562E+02  0.40000014553E+02 0.  0.
         12    1    3    3    0    0  0.29161536694E+02 -0.20734019340E+02 -0.86881868934E+01  0.36820909438E+02  0.00000000000E+00 0. -1.
         11    1    4    4    0    0 -0.61535169817E+01  0.90603095085E+01  0.12574703672E+02  0.16675675469E+02  0.51100000000E-03 0.  1.
        -11    1    4    4    0    0 -0.21418371423E+02  0.19052338234E+02 -0.70294614526E+01  0.29515276640E+02  0.51100000000E-03 0. -1.
        -12    1    4    4    0    0 -0.15896482897E+01 -0.73786284016E+01  0.31429446740E+01  0.81761384527E+01  0.00000000000E+00 0.  1.
</event>
<event>
 8    1  0.1261983E-006  0.9118800E+02  0.7816164E-02  0.1184000E+00
        -11   -1    0    0    0    0  0.00000000000E+00  0.00000000000E+00  0.45593999997E+02  0.45594000000E+02  0.51100000000E-03 0. -1.
         11   -1    0    0    0    0 -0.00000000000E+00 -0.00000000000E+00 -0.45593999997E+02  0.45594000000E+02  0.51100000000E-03 0.  1.
         23    2    1    2    0    0  0.00000000000E+00  0.00000000000E+00  0.88817841970E-15  0.91188000000E+02  0.91188000000E+02 0.  0.
    9900012    2    3    3    0    0  0.22254003112E+02 -0.29121227687E+02 -0.35344298615E+01  0.54367098993E+02  0.40000033775E+02 0.  0.
        -12    1    3    3    0    0 -0.22254003112E+02  0.29121227687E+02  0.35344298615E+01  0.36820901007E+02  0.00000000000E+00 0.  1.
         11    1    4    4    0    0  0.10431797257E+02 -0.24399429168E+02  0.92071384139E+01  0.28087825401E+02  0.51100000000E-03 0. -1.
        -11    1    4    4    0    0  0.58081706801E+01  0.84687033035E+00  0.43621952954E+01  0.73130557268E+01  0.51100000000E-03 0.  1.
         12    1    4    4    0    0  0.60140351751E+01 -0.55686688493E+01 -0.17103763571E+02  0.18966217866E+02  0.00000000000E+00 0. -1.
</event>
<event>
 8    1  0.1261983E-006  0.9118800E+02  0.7816164E-02  0.1184000E+00
        -11   -1    0    0    0    0  0.00000000000E+00  0.00000000000E+00  0.45593999997E+02  0.45594000000E+02  0.51100000000E-03 0.  1.
         11   -1    0    0    0    0 -0.00000000000E+00 -0.00000000000E+00 -0.45593999997E+02  0.45594000000E+02  0.51100000000E-03 0. -1.
         23    2    1    2    0    0  0.00000000000E+00  0.00000000000E+00  0.44408920985E-15  0.91188000000E+02  0.91188000000E+02 0.  0.
    9900012    2    3    3    0    0  0.11718878910E+02  0.34747308190E+02 -0.33276256131E+01  0.54367073320E+02  0.39999975247E+02 0.  0.
         12    1    3    3    0    0 -0.11718878910E+02 -0.34747308190E+02  0.33276256131E+01  0.36820926680E+02  0.00000000000E+00 0. -1.
         11    1    4    4    0    0  0.14346142325E+01  0.24006593105E+01 -0.12739753337E+02  0.13043105400E+02  0.51100000000E-03 0. -1.
        -11    1    4    4    0    0  0.66154549451E+01  0.14908875644E+02 -0.63796539284E+01  0.17513960192E+02  0.51100000000E-03 0.  1.
        -12    1    4    4    0    0  0.36688097320E+01  0.17437773236E+02  0.15791781652E+02  0.23810007728E+02  0.00000000000E+00 0.  1.
</event>
<event>
 8    1  0.1261983E-006  0.9118800E+02  0.7816164E-02  0.1184000E+00
        -11   -1    0    0    0    0  0.00000000000E+00  0.00000000000E+00  0.45593999997E+02  0.45594000000E+02  0.51100000000E-03 0.  1.
         11   -1    0    0    0    0 -0.00000000000E+00 -0.00000000000E+00 -0.45593999997E+02  0.45594000000E+02  0.51100000000E-03 0. -1.
         23    2    1    2    0    0  0.00000000000E+00 -0.35527136788E-14  0.00000000000E+00  0.91188000000E+02  0.91188000000E+02 0.  0.
    9900012    2    3    3    0    0 -0.16446833322E+02  0.30140167005E+02  0.13298535158E+02  0.54367095193E+02  0.40000025112E+02 0.  0.
        -12    1    3    3    0    0  0.16446833322E+02 -0.30140167005E+02 -0.13298535158E+02  0.36820904807E+02  0.00000000000E+00 0.  1.
         11    1    4    4    0    0 -0.99885216910E+01  0.35039279813E+01  0.27281019735E+01  0.10931176401E+02  0.51100000000E-03 0. -1.
        -11    1    4    4    0    0  0.39990916622E+01 -0.40724152211E+01 -0.48750657478E+01  0.75062351523E+01  0.51100000000E-03 0.  1.
         12    1    4    4    0    0 -0.10457403293E+02  0.30708654245E+02  0.15445498933E+02  0.35929683640E+02  0.00000000000E+00 0. -1.
</event>
<event>
 8    1  0.1261983E-006  0.9118800E+02  0.7816164E-02  0.1184000E+00
        -11   -1    0    0    0    0  0.00000000000E+00  0.00000000000E+00  0.45593999997E+02  0.45594000000E+02  0.51100000000E-03 0.  1.
         11   -1    0    0    0    0 -0.00000000000E+00 -0.00000000000E+00 -0.45593999997E+02  0.45594000000E+02  0.51100000000E-03 0. -1.
         23    2    1    2    0    0  0.00000000000E+00  0.00000000000E+00  0.00000000000E+00  0.91188000000E+02  0.91188000000E+02 0.  0.
    9900012    2    3    3    0    0 -0.15649253835E+02 -0.20453258334E+02  0.26316238008E+02  0.54367091470E+02  0.40000016624E+02 0.  0.
         12    1    3    3    0    0  0.15649253835E+02  0.20453258334E+02 -0.26316238008E+02  0.36820908530E+02  0.00000000000E+00 0. -1.
         11    1    4    4    0    0 -0.14254954997E+01 -0.14324436245E+02  0.73942628669E+01  0.16183220779E+02  0.51100000000E-03 0. -1.
        -11    1    4    4    0    0 -0.15851914723E+02 -0.15888294056E+02  0.90280934863E+01  0.24191477025E+02  0.51100000000E-03 0.  1.
         12    1    4    4    0    0  0.16281563878E+01  0.97594719675E+01  0.98938816549E+01  0.13992393666E+02  0.00000000000E+00 0. -1.
</event>
<event>
 8    1  0.1261983E-006  0.9118800E+02  0.7816164E-02  0.1184000E+00
        -11   -1    0    0    0    0  0.00000000000E+00  0.00000000000E+00  0.45593999997E+02  0.45594000000E+02  0.51100000000E-03 0.  1.
         11   -1    0    0    0    0 -0.00000000000E+00 -0.00000000000E+00 -0.45593999997E+02  0.45594000000E+02  0.51100000000E-03 0. -1.
         23    2    1    2    0    0  0.00000000000E+00  0.00000000000E+00  0.00000000000E+00  0.91188000000E+02  0.91188000000E+02 0.  0.
    9900012    2    3    3    0    0 -0.16109006388E+02 -0.30805876090E+02 -0.12135776119E+02  0.54367093568E+02  0.40000021406E+02 0.  0.
         12    1    3    3    0    0  0.16109006388E+02  0.30805876090E+02  0.12135776119E+02  0.36820906432E+02  0.00000000000E+00 0. -1.
         11    1    4    4    0    0  0.19520643928E+01  0.61627248586E+00 -0.13888646366E+02  0.14038691011E+02  0.51100000000E-03 0. -1.
        -11    1    4    4    0    0 -0.14224204722E+02 -0.14726434833E+02 -0.62686905409E+01  0.21412434804E+02  0.51100000000E-03 0.  1.
        -12    1    4    4    0    0 -0.38368660587E+01 -0.16695713744E+02  0.80215607878E+01  0.18915967753E+02  0.00000000000E+00 0.  1.
</event>
<event>
 8    1  0.1261983E-006  0.9118800E+02  0.7816164E-02  0.1184000E+00
        -11   -1    0    0    0    0  0.00000000000E+00  0.00000000000E+00  0.45593999997E+02  0.45594000000E+02  0.51100000000E-03 0.  1.
         11   -1    0    0    0    0 -0.00000000000E+00 -0.00000000000E+00 -0.45593999997E+02  0.45594000000E+02  0.51100000000E-03 0. -1.
         23    2    1    2    0    0 -0.44408920985E-15 -0.35527136788E-14  0.00000000000E+00  0.91188000000E+02  0.91188000000E+02 0.  0.
    9900012    2    3    3    0    0  0.38081790170E+01  0.17326595264E+02  0.32265541002E+02  0.54367105564E+02  0.40000048755E+02 0.  0.
         12    1    3    3    0    0 -0.38081790170E+01 -0.17326595264E+02 -0.32265541002E+02  0.36820894436E+02  0.00000000000E+00 0. -1.
         11    1    4    4    0    0  0.76180037878E+01  0.10275394777E+02  0.89124314090E+01  0.15590033785E+02  0.51100000000E-03 0. -1.
        -11    1    4    4    0    0  0.20574783656E+01 -0.30575328078E+01  0.26434061262E+02  0.26689723100E+02  0.51100000000E-03 0.  1.
         12    1    4    4    0    0 -0.58673031365E+01  0.10108733295E+02 -0.30809516683E+01  0.12087348680E+02  0.00000000000E+00 0. -1.
</event>
<event>
 8    1  0.1261983E-006  0.9118800E+02  0.7816164E-02  0.1184000E+00
        -11   -1    0    0    0    0  0.00000000000E+00  0.00000000000E+00  0.45593999997E+02  0.45594000000E+02  0.51100000000E-03 0. -1.
         11   -1    0    0    0    0 -0.00000000000E+00 -0.00000000000E+00 -0.45593999997E+02  0.45594000000E+02  0.51100000000E-03 0.  1.
         23    2    1    2    0    0  0.35527136788E-14  0.00000000000E+00 -0.55511151231E-15  0.91188000000E+02  0.91188000000E+02 0.  0.
    9900012    2    3    3    0    0 -0.22475857867E+02 -0.29149764682E+02  0.95257807305E+00  0.54367076969E+02  0.39999983566E+02 0.  0.
        -12    1    3    3    0    0  0.22475857867E+02  0.29149764682E+02 -0.95257807305E+00  0.36820923031E+02  0.00000000000E+00 0.  1.
         11    1    4    4    0    0 -0.12709095758E+02 -0.20521500829E+02  0.14869525698E+02  0.28350589165E+02  0.51100000000E-03 0. -1.
        -11    1    4    4    0    0 -0.12481335484E+02  0.46580320176E+00 -0.78071451635E+01  0.14729298149E+02  0.51100000000E-03 0.  1.
        -12    1    4    4    0    0  0.27145733748E+01 -0.90940670539E+01 -0.61098024612E+01  0.11287189655E+02  0.00000000000E+00 0.  1.
</event>
<event>
 8    1  0.1261983E-006  0.9118800E+02  0.7816164E-02  0.1184000E+00
        -11   -1    0    0    0    0  0.00000000000E+00  0.00000000000E+00  0.45593999997E+02  0.45594000000E+02  0.51100000000E-03 0. -1.
         11   -1    0    0    0    0 -0.00000000000E+00 -0.00000000000E+00 -0.45593999997E+02  0.45594000000E+02  0.51100000000E-03 0.  1.
         23    2    1    2    0    0  0.35527136788E-14  0.00000000000E+00  0.35527136788E-14  0.91188000000E+02  0.91188000000E+02 0.  0.
    9900012    2    3    3    0    0  0.21957302046E+02 -0.11196246388E+02 -0.27355157218E+02  0.54367032159E+02  0.39999881412E+02 0.  0.
         12    1    3    3    0    0 -0.21957302046E+02  0.11196246388E+02  0.27355157218E+02  0.36820967841E+02  0.00000000000E+00 0. -1.
         11    1    4    4    0    0 -0.69307296449E+01 -0.18682174064E+01 -0.57482343206E+01  0.91960560978E+01  0.51100000000E-03 0. -1.
        -11    1    4    4    0    0  0.83337994516E+01  0.35152625005E+01 -0.18684409146E+02  0.20758526662E+02  0.51100000000E-03 0.  1.
         12    1    4    4    0    0  0.20554232239E+02 -0.12843291482E+02 -0.29225137513E+01  0.24412449399E+02  0.00000000000E+00 0. -1.
</event>
<event>
 8    1  0.1261983E-006  0.9118800E+02  0.7816164E-02  0.1184000E+00
        -11   -1    0    0    0    0  0.00000000000E+00  0.00000000000E+00  0.45593999997E+02  0.45594000000E+02  0.51100000000E-03 0. -1.
         11   -1    0    0    0    0 -0.00000000000E+00 -0.00000000000E+00 -0.45593999997E+02  0.45594000000E+02  0.51100000000E-03 0.  1.
         23    2    1    2    0    0  0.99920072216E-15  0.35527136788E-14  0.00000000000E+00  0.91188000000E+02  0.91188000000E+02 0.  0.
    9900012    2    3    3    0    0 -0.78138796977E+00  0.17723638117E+02 -0.32265344987E+02  0.54366940776E+02  0.39999673085E+02 0.  0.
        -12    1    3    3    0    0  0.78138796977E+00 -0.17723638117E+02  0.32265344987E+02  0.36821059224E+02  0.00000000000E+00 0.  1.
         11    1    4    4    0    0 -0.78447126852E+01  0.10835112694E+02  0.41863259403E+01  0.14016579802E+02  0.51100000000E-03 0. -1.
        -11    1    4    4    0    0  0.11078100455E+02  0.72625930466E+01 -0.26993549784E+02  0.30068609840E+02  0.51100000000E-03 0.  1.
        -12    1    4    4    0    0 -0.40147757400E+01 -0.37406762382E+00 -0.94581211430E+01  0.10281751134E+02  0.00000000000E+00 0.  1.
</event>
<event>
 8    1  0.1261983E-006  0.9118800E+02  0.7816164E-02  0.1184000E+00
        -11   -1    0    0    0    0  0.00000000000E+00  0.00000000000E+00  0.45593999997E+02  0.45594000000E+02  0.51100000000E-03 0.  1.
         11   -1    0    0    0    0 -0.00000000000E+00 -0.00000000000E+00 -0.45593999997E+02  0.45594000000E+02  0.51100000000E-03 0. -1.
         23    2    1    2    0    0 -0.26645352591E-14  0.00000000000E+00  0.00000000000E+00  0.91188000000E+02  0.91188000000E+02 0.  0.
    9900012    2    3    3    0    0 -0.10024503701E+01 -0.37162766632E+01  0.36619169893E+02  0.54367092588E+02  0.40000019172E+02 0.  0.
         12    1    3    3    0    0  0.10024503701E+01  0.37162766632E+01 -0.36619169893E+02  0.36820907412E+02  0.00000000000E+00 0. -1.
         11    1    4    4    0    0 -0.96521203570E+01 -0.43107512825E+01  0.40038137250E+00  0.10578577859E+02  0.51100000000E-03 0. -1.
        -11    1    4    4    0    0  0.14383968336E+02 -0.15880782703E+01  0.34506945372E+02  0.37418575826E+02  0.51100000000E-03 0.  1.
        -12    1    4    4    0    0 -0.57342983486E+01  0.21825528896E+01  0.17118431493E+01  0.63699389035E+01  0.00000000000E+00 0.  1.
</event>
<event>
 8    1  0.1261983E-006  0.9118800E+02  0.7816164E-02  0.1184000E+00
        -11   -1    0    0    0    0  0.00000000000E+00  0.00000000000E+00  0.45593999997E+02  0.45594000000E+02  0.51100000000E-03 0. -1.
         11   -1    0    0    0    0 -0.00000000000E+00 -0.00000000000E+00 -0.45593999997E+02  0.45594000000E+02  0.51100000000E-03 0.  1.
         23    2    1    2    0    0  0.17763568394E-14  0.35527136788E-14  0.00000000000E+00  0.91188000000E+02  0.91188000000E+02 0.  0.
    9900012    2    3    3    0    0  0.14970261406E+02  0.31229407463E+02 -0.12505883529E+02  0.54367058406E+02  0.39999941248E+02 0.  0.
         12    1    3    3    0    0 -0.14970261406E+02 -0.31229407463E+02  0.12505883529E+02  0.36820941594E+02  0.00000000000E+00 0. -1.
         11    1    4    4    0    0  0.12386845174E+02  0.21295038989E+02 -0.63774849878E+01  0.25447690149E+02  0.51100000000E-03 0. -1.
        -11    1    4    4    0    0  0.32890235359E+01  0.74165404536E+01 -0.16412379635E+02  0.18308166310E+02  0.51100000000E-03 0.  1.
         12    1    4    4    0    0 -0.70560730386E+00  0.25178280204E+01  0.10283981094E+02  0.10611201946E+02  0.00000000000E+00 0. -1.
</event>
<event>
 8    1  0.1261983E-006  0.9118800E+02  0.7816164E-02  0.1184000E+00
        -11   -1    0    0    0    0  0.00000000000E+00  0.00000000000E+00  0.45593999997E+02  0.45594000000E+02  0.51100000000E-03 0. -1.
         11   -1    0    0    0    0 -0.00000000000E+00 -0.00000000000E+00 -0.45593999997E+02  0.45594000000E+02  0.51100000000E-03 0.  1.
         23    2    1    2    0    0  0.17763568394E-14 -0.35527136788E-14 -0.71054273576E-14  0.91188000000E+02  0.91188000000E+02 0.  0.
    9900012    2    3    3    0    0  0.82920603626E+01 -0.13110291914E+02 -0.33393744705E+02  0.54367079254E+02  0.39999988776E+02 0.  0.
         12    1    3    3    0    0 -0.82920603626E+01  0.13110291914E+02  0.33393744705E+02  0.36820920746E+02  0.00000000000E+00 0. -1.
         11    1    4    4    0    0  0.18228253673E+01  0.53022495972E+01  0.18514604905E+01  0.59046125461E+01  0.51100000000E-03 0. -1.
        -11    1    4    4    0    0 -0.12791585828E+01  0.52412192241E+01 -0.16336314337E+02  0.17204121367E+02  0.51100000000E-03 0.  1.
        -12    1    4    4    0    0  0.77483935781E+01 -0.23653760735E+02 -0.18908890858E+02  0.31258345341E+02  0.00000000000E+00 0.  1.
</event>
<event>
 8    1  0.1261983E-006  0.9118800E+02  0.7816164E-02  0.1184000E+00
        -11   -1    0    0    0    0  0.00000000000E+00  0.00000000000E+00  0.45593999997E+02  0.45594000000E+02  0.51100000000E-03 0.  1.
         11   -1    0    0    0    0 -0.00000000000E+00 -0.00000000000E+00 -0.45593999997E+02  0.45594000000E+02  0.51100000000E-03 0. -1.
         23    2    1    2    0    0  0.00000000000E+00 -0.35527136788E-14  0.49960036108E-15  0.91188000000E+02  0.91188000000E+02 0.  0.
    9900012    2    3    3    0    0  0.25268815592E+02 -0.26779427787E+02 -0.35121757273E+00  0.54367161500E+02  0.40000176272E+02 0.  0.
         12    1    3    3    0    0 -0.25268815592E+02  0.26779427787E+02  0.35121757273E+00  0.36820838500E+02  0.00000000000E+00 0. -1.
         11    1    4    4    0    0 -0.10373853902E+02 -0.25621970730E+01  0.20088912455E+01  0.10872779908E+02  0.51100000000E-03 0. -1.
        -11    1    4    4    0    0  0.12476729603E+02 -0.70377886296E+01  0.14713966680E+01  0.14400147874E+02  0.51100000000E-03 0.  1.
         12    1    4    4    0    0  0.23165939892E+02 -0.17179442084E+02 -0.38315054862E+01  0.29094233719E+02  0.00000000000E+00 0. -1.
</event>
<event>
 8    1  0.1261983E-006  0.9118800E+02  0.7816164E-02  0.1184000E+00
        -11   -1    0    0    0    0  0.00000000000E+00  0.00000000000E+00  0.45593999997E+02  0.45594000000E+02  0.51100000000E-03 0. -1.
         11   -1    0    0    0    0 -0.00000000000E+00 -0.00000000000E+00 -0.45593999997E+02  0.45594000000E+02  0.51100000000E-03 0.  1.
         23    2    1    2    0    0  0.00000000000E+00 -0.17763568394E-14 -0.44408920985E-15  0.91188000000E+02  0.91188000000E+02 0.  0.
    9900012    2    3    3    0    0 -0.34808982629E+02  0.11738810341E+02  0.25128813103E+01  0.54367088654E+02  0.40000010204E+02 0.  0.
         12    1    3    3    0    0  0.34808982629E+02 -0.11738810341E+02 -0.25128813103E+01  0.36820911346E+02  0.00000000000E+00 0. -1.
         11    1    4    4    0    0 -0.16647984667E+02  0.79309718079E+01 -0.45526060687E+01  0.18994260438E+02  0.51100000000E-03 0. -1.
        -11    1    4    4    0    0 -0.53265244653E+01  0.55460254876E+01 -0.10829979332E+02  0.13282270672E+02  0.51100000000E-03 0.  1.
         12    1    4    4    0    0 -0.12834473497E+02 -0.17381869548E+01  0.17895466711E+02  0.22090557545E+02  0.00000000000E+00 0. -1.
</event>
<event>
 8    1  0.1261983E-006  0.9118800E+02  0.7816164E-02  0.1184000E+00
        -11   -1    0    0    0    0  0.00000000000E+00  0.00000000000E+00  0.45593999997E+02  0.45594000000E+02  0.51100000000E-03 0.  1.
         11   -1    0    0    0    0 -0.00000000000E+00 -0.00000000000E+00 -0.45593999997E+02  0.45594000000E+02  0.51100000000E-03 0. -1.
         23    2    1    2    0    0 -0.35527136788E-14 -0.35527136788E-14  0.88817841970E-15  0.91188000000E+02  0.91188000000E+02 0.  0.
    9900012    2    3    3    0    0  0.30323458394E+02  0.20698127242E+02 -0.28026021864E+01  0.54367093176E+02  0.40000020514E+02 0.  0.
         12    1    3    3    0    0 -0.30323458394E+02 -0.20698127242E+02  0.28026021864E+01  0.36820906824E+02  0.00000000000E+00 0. -1.
         11    1    4    4    0    0  0.73541578965E+01 -0.71265637567E+01 -0.54818938096E+01  0.11615623502E+02  0.51100000000E-03 0. -1.
        -11    1    4    4    0    0  0.14190342159E+01  0.18561410581E+02 -0.23447234082E+01  0.18762658367E+02  0.51100000000E-03 0.  1.
        -12    1    4    4    0    0  0.21550266282E+02  0.92632804176E+01  0.50240150314E+01  0.23988811307E+02  0.00000000000E+00 0.  1.
</event>
<event>
 8    1  0.1261983E-006  0.9118800E+02  0.7816164E-02  0.1184000E+00
        -11   -1    0    0    0    0  0.00000000000E+00  0.00000000000E+00  0.45593999997E+02  0.45594000000E+02  0.51100000000E-03 0.  1.
         11   -1    0    0    0    0 -0.00000000000E+00 -0.00000000000E+00 -0.45593999997E+02  0.45594000000E+02  0.51100000000E-03 0. -1.
         23    2    1    2    0    0 -0.17763568394E-14  0.00000000000E+00  0.00000000000E+00  0.91188000000E+02  0.91188000000E+02 0.  0.
    9900012    2    3    3    0    0 -0.64071284805E+00 -0.12687104316E+02 -0.34560204797E+02  0.54367070021E+02  0.39999967727E+02 0.  0.
        -12    1    3    3    0    0  0.64071284805E+00  0.12687104316E+02  0.34560204797E+02  0.36820929979E+02  0.00000000000E+00 0.  1.
         11    1    4    4    0    0 -0.12816799343E+02 -0.11392389686E+02 -0.15284423213E+02  0.22971079238E+02  0.51100000000E-03 0. -1.
        -11    1    4    4    0    0  0.33051676162E+01  0.14655356894E+01  0.45566362271E+01  0.58167741743E+01  0.51100000000E-03 0.  1.
         12    1    4    4    0    0  0.88709188788E+01 -0.27602503199E+01 -0.23832417811E+02  0.25579216609E+02  0.00000000000E+00 0. -1.
</event>
<event>
 8    1  0.1261983E-006  0.9118800E+02  0.7816164E-02  0.1184000E+00
        -11   -1    0    0    0    0  0.00000000000E+00  0.00000000000E+00  0.45593999997E+02  0.45594000000E+02  0.51100000000E-03 0. -1.
         11   -1    0    0    0    0 -0.00000000000E+00 -0.00000000000E+00 -0.45593999997E+02  0.45594000000E+02  0.51100000000E-03 0.  1.
         23    2    1    2    0    0  0.00000000000E+00 -0.22204460493E-14  0.00000000000E+00  0.91188000000E+02  0.91188000000E+02 0.  0.
    9900012    2    3    3    0    0  0.27876115706E+02  0.32809368567E+01 -0.23831428076E+02  0.54367091026E+02  0.40000015613E+02 0.  0.
         12    1    3    3    0    0 -0.27876115706E+02 -0.32809368567E+01  0.23831428076E+02  0.36820908974E+02  0.00000000000E+00 0. -1.
         11    1    4    4    0    0  0.47047822341E+01  0.13033872545E+02 -0.33040283870E+01  0.14245469920E+02  0.51100000000E-03 0. -1.
        -11    1    4    4    0    0  0.18392338066E+02 -0.15923651796E+02 -0.84729686167E+01  0.25761055558E+02  0.51100000000E-03 0.  1.
        -12    1    4    4    0    0  0.47789954059E+01  0.61707161079E+01 -0.12054431073E+02  0.14360565548E+02  0.00000000000E+00 0.  1.
</event>
<event>
 8    1  0.1261983E-006  0.9118800E+02  0.7816164E-02  0.1184000E+00
        -11   -1    0    0    0    0  0.00000000000E+00  0.00000000000E+00  0.45593999997E+02  0.45594000000E+02  0.51100000000E-03 0. -1.
         11   -1    0    0    0    0 -0.00000000000E+00 -0.00000000000E+00 -0.45593999997E+02  0.45594000000E+02  0.51100000000E-03 0.  1.
         23    2    1    2    0    0  0.00000000000E+00 -0.71054273576E-14  0.00000000000E+00  0.91188000000E+02  0.91188000000E+02 0.  0.
    9900012    2    3    3    0    0 -0.10681083727E+02  0.34755156523E+02 -0.58118127634E+01  0.54367032846E+02  0.39999882980E+02 0.  0.
         12    1    3    3    0    0  0.10681083727E+02 -0.34755156523E+02  0.58118127634E+01  0.36820967154E+02  0.00000000000E+00 0. -1.
         11    1    4    4    0    0  0.29844657393E+01  0.34994336233E+02 -0.70931734408E+01  0.35830485817E+02  0.51100000000E-03 0.  1.
        -11    1    4    4    0    0 -0.13684257152E+02  0.19731630183E+01  0.45800256577E+01  0.14564645598E+02  0.51100000000E-03 0. -1.
        -12    1    4    4    0    0  0.18707685658E-01 -0.22123427288E+01 -0.32986649803E+01  0.39719014313E+01  0.00000000000E+00 0.  1.
</event>
<event>
 8    1  0.1261983E-006  0.9118800E+02  0.7816164E-02  0.1184000E+00
        -11   -1    0    0    0    0  0.00000000000E+00  0.00000000000E+00  0.45593999997E+02  0.45594000000E+02  0.51100000000E-03 0. -1.
         11   -1    0    0    0    0 -0.00000000000E+00 -0.00000000000E+00 -0.45593999997E+02  0.45594000000E+02  0.51100000000E-03 0.  1.
         23    2    1    2    0    0  0.00000000000E+00 -0.17763568394E-14  0.00000000000E+00  0.91188000000E+02  0.91188000000E+02 0.  0.
    9900012    2    3    3    0    0 -0.53930037646E+01  0.13793432924E+02 -0.33711112844E+02  0.54367049298E+02  0.39999920485E+02 0.  0.
         12    1    3    3    0    0  0.53930037646E+01 -0.13793432924E+02  0.33711112844E+02  0.36820950702E+02  0.00000000000E+00 0. -1.
         11    1    4    4    0    0  0.25923349798E+01  0.71257789977E+01 -0.70619041346E+01  0.10361824996E+02  0.51100000000E-03 0. -1.
        -11    1    4    4    0    0 -0.69833789495E+01 -0.68263216790E+01 -0.28703312469E+02  0.30319076440E+02  0.51100000000E-03 0.  1.
         12    1    4    4    0    0 -0.10019597949E+01  0.13493975605E+02  0.20541037596E+01  0.13686147863E+02  0.00000000000E+00 0. -1.
</event>
<event>
 8    1  0.1261983E-006  0.9118800E+02  0.7816164E-02  0.1184000E+00
        -11   -1    0    0    0    0  0.00000000000E+00  0.00000000000E+00  0.45593999997E+02  0.45594000000E+02  0.51100000000E-03 0.  1.
         11   -1    0    0    0    0 -0.00000000000E+00 -0.00000000000E+00 -0.45593999997E+02  0.45594000000E+02  0.51100000000E-03 0. -1.
         23    2    1    2    0    0  0.00000000000E+00  0.00000000000E+00  0.35527136788E-14  0.91188000000E+02  0.91188000000E+02 0.  0.
    9900012    2    3    3    0    0 -0.13264428836E+02  0.21221564527E+02 -0.27008854323E+02  0.54367108035E+02  0.40000054387E+02 0.  0.
        -12    1    3    3    0    0  0.13264428836E+02 -0.21221564527E+02  0.27008854323E+02  0.36820891965E+02  0.00000000000E+00 0.  1.
         11    1    4    4    0    0 -0.18158185772E+02  0.48490946669E+01 -0.22316952958E+02  0.29176699937E+02  0.51100000000E-03 0. -1.
        -11    1    4    4    0    0  0.69098817710E+01  0.22576721359E+01  0.41916831989E+01  0.83912905958E+01  0.51100000000E-03 0.  1.
        -12    1    4    4    0    0 -0.20161248346E+01  0.14114797724E+02 -0.88835845629E+01  0.16799117501E+02  0.00000000000E+00 0.  1.
</event>
<event>
 8    1  0.1261983E-006  0.9118800E+02  0.7816164E-02  0.1184000E+00
        -11   -1    0    0    0    0  0.00000000000E+00  0.00000000000E+00  0.45593999997E+02  0.45594000000E+02  0.51100000000E-03 0.  1.
         11   -1    0    0    0    0 -0.00000000000E+00 -0.00000000000E+00 -0.45593999997E+02  0.45594000000E+02  0.51100000000E-03 0. -1.
         23    2    1    2    0    0  0.00000000000E+00  0.00000000000E+00  0.00000000000E+00  0.91188000000E+02  0.91188000000E+02 0.  0.
    9900012    2    3    3    0    0 -0.18704012733E+02 -0.22135331666E+02 -0.22714933419E+02  0.54367065730E+02  0.39999957945E+02 0.  0.
        -12    1    3    3    0    0  0.18704012733E+02  0.22135331666E+02  0.22714933419E+02  0.36820934270E+02  0.00000000000E+00 0.  1.
         11    1    4    4    0    0 -0.16379918966E+02  0.19643859432E+00 -0.10342049706E+02  0.19372617939E+02  0.51100000000E-03 0. -1.
        -11    1    4    4    0    0  0.76627079623E+01  0.63600886864E+00 -0.29176162094E+01  0.82239944798E+01  0.51100000000E-03 0.  1.
         12    1    4    4    0    0 -0.99868017300E+01 -0.22967779129E+02 -0.94552675035E+01  0.26770453311E+02  0.00000000000E+00 0. -1.
</event>
<event>
 8    1  0.1261983E-006  0.9118800E+02  0.7816164E-02  0.1184000E+00
        -11   -1    0    0    0    0  0.00000000000E+00  0.00000000000E+00  0.45593999997E+02  0.45594000000E+02  0.51100000000E-03 0.  1.
         11   -1    0    0    0    0 -0.00000000000E+00 -0.00000000000E+00 -0.45593999997E+02  0.45594000000E+02  0.51100000000E-03 0. -1.
         23    2    1    2    0    0  0.00000000000E+00  0.35527136788E-14 -0.35527136788E-14  0.91188000000E+02  0.91188000000E+02 0.  0.
    9900012    2    3    3    0    0 -0.90495917278E+01  0.26147763400E+02 -0.24293591369E+02  0.54367092585E+02  0.40000019167E+02 0.  0.
        -12    1    3    3    0    0  0.90495917278E+01 -0.26147763400E+02  0.24293591369E+02  0.36820907415E+02  0.00000000000E+00 0.  1.
         11    1    4    4    0    0 -0.14956466449E+02  0.43270957662E+01 -0.17416557309E+02  0.23361423655E+02  0.51100000000E-03 0.  1.
        -11    1    4    4    0    0  0.21821800098E+01  0.24785861647E+02 -0.34058852822E+01  0.25113759217E+02  0.51100000000E-03 0. -1.
         12    1    4    4    0    0  0.37246947118E+01 -0.29651940138E+01 -0.34711487775E+01  0.58919097134E+01  0.00000000000E+00 0. -1.
</event>
<event>
 8    1  0.1261983E-006  0.9118800E+02  0.7816164E-02  0.1184000E+00
        -11   -1    0    0    0    0  0.00000000000E+00  0.00000000000E+00  0.45593999997E+02  0.45594000000E+02  0.51100000000E-03 0.  1.
         11   -1    0    0    0    0 -0.00000000000E+00 -0.00000000000E+00 -0.45593999997E+02  0.45594000000E+02  0.51100000000E-03 0. -1.
         23    2    1    2    0    0  0.00000000000E+00  0.35527136788E-14  0.00000000000E+00  0.91188000000E+02  0.91188000000E+02 0.  0.
    9900012    2    3    3    0    0 -0.23328952753E+02 -0.26929399273E+02 -0.92923595350E+01  0.54367074869E+02  0.39999978779E+02 0.  0.
         12    1    3    3    0    0  0.23328952753E+02  0.26929399273E+02  0.92923595350E+01  0.36820925131E+02  0.00000000000E+00 0. -1.
         11    1    4    4    0    0 -0.15933853197E+02 -0.52760063357E+01 -0.54999416057E+01  0.17662765313E+02  0.51100000000E-03 0. -1.
        -11    1    4    4    0    0 -0.28050539485E+01 -0.26241766305E+02 -0.95124628690E+01  0.28053263207E+02  0.51100000000E-03 0.  1.
         12    1    4    4    0    0 -0.45900456072E+01  0.45883733673E+01  0.57200449397E+01  0.86510463498E+01  0.00000000000E+00 0. -1.
</event>
<event>
 8    1  0.1261983E-006  0.9118800E+02  0.7816164E-02  0.1184000E+00
        -11   -1    0    0    0    0  0.00000000000E+00  0.00000000000E+00  0.45593999997E+02  0.45594000000E+02  0.51100000000E-03 0.  1.
         11   -1    0    0    0    0 -0.00000000000E+00 -0.00000000000E+00 -0.45593999997E+02  0.45594000000E+02  0.51100000000E-03 0. -1.
         23    2    1    2    0    0 -0.35527136788E-14 -0.35527136788E-14  0.00000000000E+00  0.91188000000E+02  0.91188000000E+02 0.  0.
    9900012    2    3    3    0    0 -0.17643809355E+02 -0.27248021384E+02  0.17378756795E+02  0.54367083857E+02  0.39999999269E+02 0.  0.
         12    1    3    3    0    0  0.17643809355E+02  0.27248021384E+02 -0.17378756795E+02  0.36820916143E+02  0.00000000000E+00 0. -1.
         11    1    4    4    0    0 -0.20695885880E+02 -0.10611380247E+02 -0.91692266439E+00  0.23275777765E+02  0.51100000000E-03 0.  1.
        -11    1    4    4    0    0  0.66795763374E+01 -0.85082596923E+01  0.80119777771E-01  0.10817284432E+02  0.51100000000E-03 0. -1.
        -12    1    4    4    0    0 -0.36274998118E+01 -0.81283814447E+01  0.18215559681E+02  0.20274021661E+02  0.00000000000E+00 0.  1.
</event>
<event>
 8    1  0.1261983E-006  0.9118800E+02  0.7816164E-02  0.1184000E+00
        -11   -1    0    0    0    0  0.00000000000E+00  0.00000000000E+00  0.45593999997E+02  0.45594000000E+02  0.51100000000E-03 0. -1.
         11   -1    0    0    0    0 -0.00000000000E+00 -0.00000000000E+00 -0.45593999997E+02  0.45594000000E+02  0.51100000000E-03 0.  1.
         23    2    1    2    0    0 -0.35527136788E-14  0.44408920985E-15  0.00000000000E+00  0.91188000000E+02  0.91188000000E+02 0.  0.
    9900012    2    3    3    0    0 -0.17343317792E+02  0.36075798194E+01  0.32279646623E+02  0.54367069942E+02  0.39999967547E+02 0.  0.
        -12    1    3    3    0    0  0.17343317792E+02 -0.36075798194E+01 -0.32279646623E+02  0.36820930058E+02  0.00000000000E+00 0.  1.
         11    1    4    4    0    0 -0.39554809045E+01 -0.57437132197E+01 -0.10259974034E+01  0.70490241643E+01  0.51100000000E-03 0. -1.
        -11    1    4    4    0    0 -0.17650329356E+02  0.42530267404E+01  0.58576651287E+01  0.19077070106E+02  0.51100000000E-03 0.  1.
         12    1    4    4    0    0  0.42624924683E+01  0.50982662987E+01  0.27447978898E+02  0.28240975672E+02  0.00000000000E+00 0. -1.
</event>
<event>
 8    1  0.1261983E-006  0.9118800E+02  0.7816164E-02  0.1184000E+00
        -11   -1    0    0    0    0  0.00000000000E+00  0.00000000000E+00  0.45593999997E+02  0.45594000000E+02  0.51100000000E-03 0.  1.
         11   -1    0    0    0    0 -0.00000000000E+00 -0.00000000000E+00 -0.45593999997E+02  0.45594000000E+02  0.51100000000E-03 0. -1.
         23    2    1    2    0    0  0.00000000000E+00  0.88817841970E-15  0.00000000000E+00  0.91188000000E+02  0.91188000000E+02 0.  0.
    9900012    2    3    3    0    0 -0.33622598947E+02 -0.41043688377E+01 -0.14437986034E+02  0.54367076000E+02  0.39999981356E+02 0.  0.
         12    1    3    3    0    0  0.33622598947E+02  0.41043688377E+01  0.14437986034E+02  0.36820924000E+02  0.00000000000E+00 0. -1.
         11    1    4    4    0    0 -0.14321166684E+02 -0.44351641579E-01 -0.79698301103E+01  0.16389508062E+02  0.51100000000E-03 0. -1.
        -11    1    4    4    0    0 -0.28237584170E+02 -0.28205794745E+01 -0.43373894949E+01  0.28707660584E+02  0.51100000000E-03 0.  1.
         12    1    4    4    0    0  0.89361519068E+01 -0.12394377216E+01 -0.21307664290E+01  0.92699073535E+01  0.00000000000E+00 0. -1.
</event>
<event>
 8    1  0.1261983E-006  0.9118800E+02  0.7816164E-02  0.1184000E+00
        -11   -1    0    0    0    0  0.00000000000E+00  0.00000000000E+00  0.45593999997E+02  0.45594000000E+02  0.51100000000E-03 0.  1.
         11   -1    0    0    0    0 -0.00000000000E+00 -0.00000000000E+00 -0.45593999997E+02  0.45594000000E+02  0.51100000000E-03 0. -1.
         23    2    1    2    0    0  0.00000000000E+00 -0.66613381478E-15  0.00000000000E+00  0.91188000000E+02  0.91188000000E+02 0.  0.
    9900012    2    3    3    0    0  0.28585071599E+02 -0.11220103404E+01  0.23182257920E+02  0.54367050694E+02  0.39999923668E+02 0.  0.
         12    1    3    3    0    0 -0.28585071599E+02  0.11220103404E+01 -0.23182257920E+02  0.36820949306E+02  0.00000000000E+00 0. -1.
         11    1    4    4    0    0 -0.94178443748E+00 -0.12377720843E+02  0.59091608247E+01  0.13748203996E+02  0.51100000000E-03 0. -1.
        -11    1    4    4    0    0  0.32023190087E+02  0.10500391842E+02  0.17549008111E+02  0.37996192153E+02  0.51100000000E-03 0.  1.
        -12    1    4    4    0    0 -0.24963340513E+01  0.75531866062E+00 -0.27591101547E+00  0.26226545451E+01  0.00000000000E+00 0.  1.
</event>
<event>
 8    1  0.1261983E-006  0.9118800E+02  0.7816164E-02  0.1184000E+00
        -11   -1    0    0    0    0  0.00000000000E+00  0.00000000000E+00  0.45593999997E+02  0.45594000000E+02  0.51100000000E-03 0.  1.
         11   -1    0    0    0    0 -0.00000000000E+00 -0.00000000000E+00 -0.45593999997E+02  0.45594000000E+02  0.51100000000E-03 0. -1.
         23    2    1    2    0    0  0.35527136788E-14 -0.44408920985E-15  0.71054273576E-14  0.91188000000E+02  0.91188000000E+02 0.  0.
    9900012    2    3    3    0    0 -0.16966707906E+02  0.25470654785E+01 -0.32579514523E+02  0.54367061849E+02  0.39999949098E+02 0.  0.
        -12    1    3    3    0    0  0.16966707906E+02 -0.25470654785E+01  0.32579514523E+02  0.36820938151E+02  0.00000000000E+00 0.  1.
         11    1    4    4    0    0  0.34930138290E+01 -0.11881317341E+01 -0.97530180187E+01  0.10427567471E+02  0.51100000000E-03 0. -1.
        -11    1    4    4    0    0 -0.36269032398E+01  0.43360641075E+01 -0.26164649137E+02  0.26768353400E+02  0.51100000000E-03 0.  1.
        -12    1    4    4    0    0 -0.16832818495E+02 -0.60086689496E+00  0.33381526319E+01  0.17171140978E+02  0.00000000000E+00 0.  1.
</event>
<event>
 8    1  0.1261983E-006  0.9118800E+02  0.7816164E-02  0.1184000E+00
        -11   -1    0    0    0    0  0.00000000000E+00  0.00000000000E+00  0.45593999997E+02  0.45594000000E+02  0.51100000000E-03 0.  1.
         11   -1    0    0    0    0 -0.00000000000E+00 -0.00000000000E+00 -0.45593999997E+02  0.45594000000E+02  0.51100000000E-03 0. -1.
         23    2    1    2    0    0  0.00000000000E+00  0.00000000000E+00  0.00000000000E+00  0.91188000000E+02  0.91188000000E+02 0.  0.
    9900012    2    3    3    0    0 -0.19903927365E+02  0.35110012670E+01  0.30778034985E+02  0.54367069920E+02  0.39999967496E+02 0.  0.
         12    1    3    3    0    0  0.19903927365E+02 -0.35110012670E+01 -0.30778034985E+02  0.36820930080E+02  0.00000000000E+00 0. -1.
         11    1    4    4    0    0  0.32782653844E+01  0.30747991399E+01 -0.63230022383E+01  0.77576911028E+01  0.51100000000E-03 0. -1.
        -11    1    4    4    0    0 -0.11333421045E+02  0.63119763977E+01  0.97485112195E+01  0.16227167032E+02  0.51100000000E-03 0.  1.
        -12    1    4    4    0    0 -0.11848771704E+02 -0.58757742706E+01  0.27352526003E+02  0.30382211785E+02  0.00000000000E+00 0.  1.
</event>
<event>
 8    1  0.1261983E-006  0.9118800E+02  0.7816164E-02  0.1184000E+00
        -11   -1    0    0    0    0  0.00000000000E+00  0.00000000000E+00  0.45593999997E+02  0.45594000000E+02  0.51100000000E-03 0. -1.
         11   -1    0    0    0    0 -0.00000000000E+00 -0.00000000000E+00 -0.45593999997E+02  0.45594000000E+02  0.51100000000E-03 0.  1.
         23    2    1    2    0    0  0.00000000000E+00  0.00000000000E+00  0.00000000000E+00  0.91188000000E+02  0.91188000000E+02 0.  0.
    9900012    2    3    3    0    0 -0.28525503714E+00  0.26097275498E+02 -0.25973669770E+02  0.54367072796E+02  0.39999974053E+02 0.  0.
         12    1    3    3    0    0  0.28525503714E+00 -0.26097275498E+02  0.25973669770E+02  0.36820927204E+02  0.00000000000E+00 0. -1.
         11    1    4    4    0    0 -0.27246577507E+01 -0.53371319126E+01 -0.20993837263E+02  0.21832314128E+02  0.51100000000E-03 0. -1.
        -11    1    4    4    0    0  0.39122241217E+01  0.29250968203E+02 -0.43955422284E+01  0.29836980915E+02  0.51100000000E-03 0.  1.
         12    1    4    4    0    0 -0.14728214081E+01  0.21834392070E+01 -0.58429027917E+00  0.26977777524E+01  0.00000000000E+00 0. -1.
</event>
<event>
 8    1  0.1261983E-006  0.9118800E+02  0.7816164E-02  0.1184000E+00
        -11   -1    0    0    0    0  0.00000000000E+00  0.00000000000E+00  0.45593999997E+02  0.45594000000E+02  0.51100000000E-03 0. -1.
         11   -1    0    0    0    0 -0.00000000000E+00 -0.00000000000E+00 -0.45593999997E+02  0.45594000000E+02  0.51100000000E-03 0.  1.
         23    2    1    2    0    0  0.00000000000E+00  0.00000000000E+00  0.35527136788E-14  0.91188000000E+02  0.91188000000E+02 0.  0.
    9900012    2    3    3    0    0 -0.16306843043E+02 -0.21173810807E+02  0.25328566862E+02  0.54367086196E+02  0.40000004600E+02 0.  0.
        -12    1    3    3    0    0  0.16306843043E+02  0.21173810807E+02 -0.25328566862E+02  0.36820913804E+02  0.00000000000E+00 0.  1.
         11    1    4    4    0    0 -0.15321070959E+02  0.67886992373E+00  0.44305150193E+01  0.15963256037E+02  0.51100000000E-03 0. -1.
        -11    1    4    4    0    0 -0.10111919443E+02 -0.19974292050E+01  0.56142069288E+01  0.11737118810E+02  0.51100000000E-03 0.  1.
        -12    1    4    4    0    0  0.91261473601E+01 -0.19855251526E+02  0.15283844914E+02  0.26666711348E+02  0.00000000000E+00 0.  1.
</event>
<event>
 8    1  0.1261983E-006  0.9118800E+02  0.7816164E-02  0.1184000E+00
        -11   -1    0    0    0    0  0.00000000000E+00  0.00000000000E+00  0.45593999997E+02  0.45594000000E+02  0.51100000000E-03 0. -1.
         11   -1    0    0    0    0 -0.00000000000E+00 -0.00000000000E+00 -0.45593999997E+02  0.45594000000E+02  0.51100000000E-03 0.  1.
         23    2    1    2    0    0  0.00000000000E+00  0.00000000000E+00  0.17763568394E-14  0.91188000000E+02  0.91188000000E+02 0.  0.
    9900012    2    3    3    0    0  0.19687191645E+02  0.28453536327E+02  0.12593271495E+02  0.54367085680E+02  0.40000003425E+02 0.  0.
        -12    1    3    3    0    0 -0.19687191645E+02 -0.28453536327E+02 -0.12593271495E+02  0.36820914320E+02  0.00000000000E+00 0.  1.
         11    1    4    4    0    0  0.29158003702E+01  0.99085779912E+01  0.11428702003E+02  0.15404448687E+02  0.51100000000E-03 0. -1.
        -11    1    4    4    0    0  0.15091625637E+02  0.42061445658E+01 -0.11757002747E+02  0.19587647392E+02  0.51100000000E-03 0.  1.
        -12    1    4    4    0    0  0.16797656378E+01  0.14338813770E+02  0.12921572239E+02  0.19374989602E+02  0.00000000000E+00 0.  1.
</event>
<event>
 8    1  0.1261983E-006  0.9118800E+02  0.7816164E-02  0.1184000E+00
        -11   -1    0    0    0    0  0.00000000000E+00  0.00000000000E+00  0.45593999997E+02  0.45594000000E+02  0.51100000000E-03 0.  1.
         11   -1    0    0    0    0 -0.00000000000E+00 -0.00000000000E+00 -0.45593999997E+02  0.45594000000E+02  0.51100000000E-03 0. -1.
         23    2    1    2    0    0  0.00000000000E+00  0.35527136788E-14  0.44408920985E-15  0.91188000000E+02  0.91188000000E+02 0.  0.
    9900012    2    3    3    0    0 -0.33107343883E+02 -0.16030974574E+02  0.16407832174E+01  0.54367074776E+02  0.39999978566E+02 0.  0.
         12    1    3    3    0    0  0.33107343883E+02  0.16030974574E+02 -0.16407832174E+01  0.36820925224E+02  0.00000000000E+00 0. -1.
         11    1    4    4    0    0  0.24218987561E+01 -0.72018759466E+01 -0.43850479570E+01  0.87727564985E+01  0.51100000000E-03 0. -1.
        -11    1    4    4    0    0 -0.33154930524E+02  0.28348979152E+01  0.49592627011E+01  0.33643429537E+02  0.51100000000E-03 0.  1.
        -12    1    4    4    0    0 -0.23743121156E+01 -0.11663996543E+02  0.10665684732E+01  0.11950888740E+02  0.00000000000E+00 0.  1.
</event>
<event>
 8    1  0.1261983E-006  0.9118800E+02  0.7816164E-02  0.1184000E+00
        -11   -1    0    0    0    0  0.00000000000E+00  0.00000000000E+00  0.45593999997E+02  0.45594000000E+02  0.51100000000E-03 0.  1.
         11   -1    0    0    0    0 -0.00000000000E+00 -0.00000000000E+00 -0.45593999997E+02  0.45594000000E+02  0.51100000000E-03 0. -1.
         23    2    1    2    0    0  0.33306690739E-15  0.17763568394E-14  0.00000000000E+00  0.91188000000E+02  0.91188000000E+02 0.  0.
    9900012    2    3    3    0    0  0.98086091117E+00 -0.11167847597E+02  0.35072743590E+02  0.54367078624E+02  0.39999987338E+02 0.  0.
         12    1    3    3    0    0 -0.98086091117E+00  0.11167847597E+02 -0.35072743590E+02  0.36820921376E+02  0.00000000000E+00 0. -1.
         11    1    4    4    0    0  0.53104789064E+01  0.11948011982E+02  0.19189141872E+02  0.23220235627E+02  0.51100000000E-03 0. -1.
        -11    1    4    4    0    0  0.44118794742E+01 -0.51243746354E+01  0.46382585410E+01  0.81998377089E+01  0.51100000000E-03 0.  1.
        -12    1    4    4    0    0 -0.87414974694E+01 -0.17991484944E+02  0.11245343177E+02  0.22947005287E+02  0.00000000000E+00 0.  1.
</event>
<event>
 8    1  0.1261983E-006  0.9118800E+02  0.7816164E-02  0.1184000E+00
        -11   -1    0    0    0    0  0.00000000000E+00  0.00000000000E+00  0.45593999997E+02  0.45594000000E+02  0.51100000000E-03 0.  1.
         11   -1    0    0    0    0 -0.00000000000E+00 -0.00000000000E+00 -0.45593999997E+02  0.45594000000E+02  0.51100000000E-03 0. -1.
         23    2    1    2    0    0 -0.88817841970E-15  0.00000000000E+00  0.00000000000E+00  0.91188000000E+02  0.91188000000E+02 0.  0.
    9900012    2    3    3    0    0  0.68140030026E+01  0.34286218890E+02  0.11567355617E+02  0.54367093457E+02  0.40000021154E+02 0.  0.
         12    1    3    3    0    0 -0.68140030026E+01 -0.34286218890E+02 -0.11567355617E+02  0.36820906543E+02  0.00000000000E+00 0. -1.
         11    1    4    4    0    0 -0.30963113458E+01 -0.18232155277E+01 -0.93131733143E+00  0.37119551510E+01  0.51100000000E-03 0. -1.
        -11    1    4    4    0    0  0.11303226435E+02  0.41751278127E+02  0.11519903175E+02  0.44762041090E+02  0.51100000000E-03 0.  1.
        -12    1    4    4    0    0 -0.13929120869E+01 -0.56418437098E+01  0.97876977375E+00  0.58930972161E+01  0.00000000000E+00 0.  1.
</event>
<event>
 8    1  0.1261983E-006  0.9118800E+02  0.7816164E-02  0.1184000E+00
        -11   -1    0    0    0    0  0.00000000000E+00  0.00000000000E+00  0.45593999997E+02  0.45594000000E+02  0.51100000000E-03 0. -1.
         11   -1    0    0    0    0 -0.00000000000E+00 -0.00000000000E+00 -0.45593999997E+02  0.45594000000E+02  0.51100000000E-03 0.  1.
         23    2    1    2    0    0  0.17763568394E-14  0.00000000000E+00  0.00000000000E+00  0.91188000000E+02  0.91188000000E+02 0.  0.
    9900012    2    3    3    0    0 -0.10813329918E+02 -0.12796235567E+02 -0.32788853611E+02  0.54367072938E+02  0.39999974377E+02 0.  0.
         12    1    3    3    0    0  0.10813329918E+02  0.12796235567E+02  0.32788853611E+02  0.36820927062E+02  0.00000000000E+00 0. -1.
         11    1    4    4    0    0 -0.20137009410E+02 -0.14192093362E+01 -0.33512413969E+01  0.20463238313E+02  0.51100000000E-03 0.  1.
        -11    1    4    4    0    0  0.14183775932E-01 -0.21633696046E+01 -0.11450707433E+02  0.11653285811E+02  0.51100000000E-03 0. -1.
        -12    1    4    4    0    0  0.93094957161E+01 -0.92136566259E+01 -0.17986904781E+02  0.22250548813E+02  0.00000000000E+00 0.  1.
</event>
<event>
 8    1  0.1261983E-006  0.9118800E+02  0.7816164E-02  0.1184000E+00
        -11   -1    0    0    0    0  0.00000000000E+00  0.00000000000E+00  0.45593999997E+02  0.45594000000E+02  0.51100000000E-03 0.  1.
         11   -1    0    0    0    0 -0.00000000000E+00 -0.00000000000E+00 -0.45593999997E+02  0.45594000000E+02  0.51100000000E-03 0. -1.
         23    2    1    2    0    0 -0.11102230246E-15  0.00000000000E+00 -0.77715611724E-15  0.91188000000E+02  0.91188000000E+02 0.  0.
    9900012    2    3    3    0    0  0.67870988576E+00 -0.36811010519E+02  0.51783496730E+00  0.54367091598E+02  0.40000016915E+02 0.  0.
         12    1    3    3    0    0 -0.67870988576E+00  0.36811010519E+02 -0.51783496730E+00  0.36820908402E+02  0.00000000000E+00 0. -1.
         11    1    4    4    0    0 -0.83128319196E+01 -0.36565206653E+02 -0.95143364267E+01  0.38686433152E+02  0.51100000000E-03 0. -1.
        -11    1    4    4    0    0 -0.83348621055E+00 -0.30441900796E+00  0.41185897396E+01  0.42130929137E+01  0.51100000000E-03 0.  1.
         12    1    4    4    0    0  0.98250280159E+01  0.58615142640E-01  0.59135816544E+01  0.11467565532E+02  0.00000000000E+00 0. -1.
</event>
<event>
 8    1  0.1261983E-006  0.9118800E+02  0.7816164E-02  0.1184000E+00
        -11   -1    0    0    0    0  0.00000000000E+00  0.00000000000E+00  0.45593999997E+02  0.45594000000E+02  0.51100000000E-03 0.  1.
         11   -1    0    0    0    0 -0.00000000000E+00 -0.00000000000E+00 -0.45593999997E+02  0.45594000000E+02  0.51100000000E-03 0. -1.
         23    2    1    2    0    0  0.00000000000E+00 -0.53290705182E-14  0.00000000000E+00  0.91188000000E+02  0.91188000000E+02 0.  0.
    9900012    2    3    3    0    0  0.92471994379E+01  0.10987514019E+02 -0.33904922138E+02  0.54367083295E+02  0.39999997988E+02 0.  0.
        -12    1    3    3    0    0 -0.92471994379E+01 -0.10987514019E+02  0.33904922138E+02  0.36820916705E+02  0.00000000000E+00 0.  1.
         11    1    4    4    0    0 -0.62372436395E+01 -0.92392392724E+01 -0.17568977595E+02  0.20807107549E+02  0.51100000000E-03 0. -1.
        -11    1    4    4    0    0 -0.26855782194E+01  0.10113190285E+01 -0.16308869004E+01  0.33007406582E+01  0.51100000000E-03 0.  1.
         12    1    4    4    0    0  0.18170021297E+02  0.19215434263E+02 -0.14705057643E+02  0.30259235088E+02  0.00000000000E+00 0. -1.
</event>
<event>
 8    1  0.1261983E-006  0.9118800E+02  0.7816164E-02  0.1184000E+00
        -11   -1    0    0    0    0  0.00000000000E+00  0.00000000000E+00  0.45593999997E+02  0.45594000000E+02  0.51100000000E-03 0.  1.
         11   -1    0    0    0    0 -0.00000000000E+00 -0.00000000000E+00 -0.45593999997E+02  0.45594000000E+02  0.51100000000E-03 0. -1.
         23    2    1    2    0    0  0.35527136788E-14  0.00000000000E+00  0.00000000000E+00  0.91188000000E+02  0.91188000000E+02 0.  0.
    9900012    2    3    3    0    0 -0.28296432423E+02 -0.13065923180E+02 -0.19605463279E+02  0.54367073521E+02  0.39999975705E+02 0.  0.
         12    1    3    3    0    0  0.28296432423E+02  0.13065923180E+02  0.19605463279E+02  0.36820926479E+02  0.00000000000E+00 0. -1.
         11    1    4    4    0    0 -0.35359391873E+02 -0.10043105963E+02 -0.19827805657E+02  0.41764727324E+02  0.51100000000E-03 0. -1.
        -11    1    4    4    0    0  0.13086924516E+01 -0.49539087117E+01  0.29889276073E+01  0.59319116615E+01  0.51100000000E-03 0.  1.
         12    1    4    4    0    0  0.57542669986E+01  0.19310914948E+01 -0.27665852292E+01  0.66704345348E+01  0.00000000000E+00 0. -1.
</event>
<event>
 8    1  0.1261983E-006  0.9118800E+02  0.7816164E-02  0.1184000E+00
        -11   -1    0    0    0    0  0.00000000000E+00  0.00000000000E+00  0.45593999997E+02  0.45594000000E+02  0.51100000000E-03 0. -1.
         11   -1    0    0    0    0 -0.00000000000E+00 -0.00000000000E+00 -0.45593999997E+02  0.45594000000E+02  0.51100000000E-03 0.  1.
         23    2    1    2    0    0  0.00000000000E+00  0.00000000000E+00  0.00000000000E+00  0.91188000000E+02  0.91188000000E+02 0.  0.
    9900012    2    3    3    0    0  0.96437452307E+01 -0.23057554548E+02 -0.27039354158E+02  0.54367091306E+02  0.40000016249E+02 0.  0.
         12    1    3    3    0    0 -0.96437452307E+01  0.23057554548E+02  0.27039354158E+02  0.36820908694E+02  0.00000000000E+00 0. -1.
         11    1    4    4    0    0  0.11871437873E+01 -0.56640489503E+01  0.22292489552E+01  0.62016378521E+01  0.51100000000E-03 0. -1.
        -11    1    4    4    0    0  0.20912209177E+01 -0.23484585042E+02 -0.31238738772E+02  0.39137676731E+02  0.51100000000E-03 0.  1.
        -12    1    4    4    0    0  0.63653805257E+01  0.60910794448E+01  0.19701356590E+01  0.90277767227E+01  0.00000000000E+00 0.  1.
</event>
<event>
 8    1  0.1261983E-006  0.9118800E+02  0.7816164E-02  0.1184000E+00
        -11   -1    0    0    0    0  0.00000000000E+00  0.00000000000E+00  0.45593999997E+02  0.45594000000E+02  0.51100000000E-03 0.  1.
         11   -1    0    0    0    0 -0.00000000000E+00 -0.00000000000E+00 -0.45593999997E+02  0.45594000000E+02  0.51100000000E-03 0. -1.
         23    2    1    2    0    0  0.17763568394E-14  0.00000000000E+00  0.55511151231E-15  0.91188000000E+02  0.91188000000E+02 0.  0.
    9900012    2    3    3    0    0  0.94436767735E+01 -0.35581822855E+02 -0.72897101319E+00  0.54367074599E+02  0.39999978163E+02 0.  0.
        -12    1    3    3    0    0 -0.94436767735E+01  0.35581822855E+02  0.72897101319E+00  0.36820925401E+02  0.00000000000E+00 0.  1.
         11    1    4    4    0    0  0.10769898729E+00 -0.54089335785E+01  0.28024778790E+01  0.60927862306E+01  0.51100000000E-03 0. -1.
        -11    1    4    4    0    0 -0.31624543241E+01  0.47007849543E+01  0.77033875889E+01  0.95624618768E+01  0.51100000000E-03 0.  1.
         12    1    4    4    0    0  0.12498432110E+02 -0.34873674231E+02 -0.11234836481E+02  0.38711826491E+02  0.00000000000E+00 0. -1.
</event>
<event>
 8    1  0.1261983E-006  0.9118800E+02  0.7816164E-02  0.1184000E+00
        -11   -1    0    0    0    0  0.00000000000E+00  0.00000000000E+00  0.45593999997E+02  0.45594000000E+02  0.51100000000E-03 0.  1.
         11   -1    0    0    0    0 -0.00000000000E+00 -0.00000000000E+00 -0.45593999997E+02  0.45594000000E+02  0.51100000000E-03 0. -1.
         23    2    1    2    0    0  0.00000000000E+00  0.00000000000E+00  0.17763568394E-14  0.91188000000E+02  0.91188000000E+02 0.  0.
    9900012    2    3    3    0    0 -0.62148557355E+01  0.34425599008E+02 -0.11490548468E+02  0.54367095571E+02  0.40000025973E+02 0.  0.
         12    1    3    3    0    0  0.62148557355E+01 -0.34425599008E+02  0.11490548468E+02  0.36820904429E+02  0.00000000000E+00 0. -1.
         11    1    4    4    0    0  0.25442805281E+01 -0.78564127897E+01 -0.12139118352E+01  0.83468657311E+01  0.51100000000E-03 0. -1.
        -11    1    4    4    0    0 -0.83654727491E+01  0.31311850661E+02 -0.12646611497E+02  0.34790083483E+02  0.51100000000E-03 0.  1.
         12    1    4    4    0    0 -0.39366351448E+00  0.10970161137E+02  0.23699748646E+01  0.11230146357E+02  0.00000000000E+00 0. -1.
</event>
<event>
 8    1  0.1261983E-006  0.9118800E+02  0.7816164E-02  0.1184000E+00
        -11   -1    0    0    0    0  0.00000000000E+00  0.00000000000E+00  0.45593999997E+02  0.45594000000E+02  0.51100000000E-03 0. -1.
         11   -1    0    0    0    0 -0.00000000000E+00 -0.00000000000E+00 -0.45593999997E+02  0.45594000000E+02  0.51100000000E-03 0.  1.
         23    2    1    2    0    0  0.00000000000E+00 -0.35527136788E-14  0.35527136788E-14  0.91188000000E+02  0.91188000000E+02 0.  0.
    9900012    2    3    3    0    0  0.13417454739E+02 -0.24413163300E+02  0.24077893114E+02  0.54367142177E+02  0.40000132221E+02 0.  0.
        -12    1    3    3    0    0 -0.13417454739E+02  0.24413163300E+02 -0.24077893114E+02  0.36820857823E+02  0.00000000000E+00 0.  1.
         11    1    4    4    0    0  0.68920378469E+01  0.17925908540E+00  0.15252482476E+02  0.16738295656E+02  0.51100000000E-03 0. -1.
        -11    1    4    4    0    0  0.30450404521E+01  0.46181782759E+01 -0.25470068506E+01  0.60899167565E+01  0.51100000000E-03 0.  1.
         12    1    4    4    0    0  0.34803764398E+01 -0.29210600662E+02  0.11372417489E+02  0.31538929765E+02  0.00000000000E+00 0. -1.
</event>
<event>
 8    1  0.1261983E-006  0.9118800E+02  0.7816164E-02  0.1184000E+00
        -11   -1    0    0    0    0  0.00000000000E+00  0.00000000000E+00  0.45593999997E+02  0.45594000000E+02  0.51100000000E-03 0. -1.
         11   -1    0    0    0    0 -0.00000000000E+00 -0.00000000000E+00 -0.45593999997E+02  0.45594000000E+02  0.51100000000E-03 0.  1.
         23    2    1    2    0    0  0.00000000000E+00 -0.35527136788E-14  0.00000000000E+00  0.91188000000E+02  0.91188000000E+02 0.  0.
    9900012    2    3    3    0    0 -0.49688309911E+01 -0.20565688117E+02 -0.30135416958E+02  0.54367079800E+02  0.39999990020E+02 0.  0.
         12    1    3    3    0    0  0.49688309911E+01  0.20565688117E+02  0.30135416958E+02  0.36820920200E+02  0.00000000000E+00 0. -1.
         11    1    4    4    0    0  0.18020818096E+01 -0.95346874421E+01 -0.25971452257E+02  0.27724972427E+02  0.51100000000E-03 0. -1.
        -11    1    4    4    0    0  0.20407286399E+01 -0.14838773422E+02 -0.71386402444E+01  0.16592587346E+02  0.51100000000E-03 0.  1.
         12    1    4    4    0    0 -0.88116414407E+01  0.38077727471E+01  0.29746755435E+01  0.10049520026E+02  0.00000000000E+00 0. -1.
</event>
<event>
 8    1  0.1261983E-006  0.9118800E+02  0.7816164E-02  0.1184000E+00
        -11   -1    0    0    0    0  0.00000000000E+00  0.00000000000E+00  0.45593999997E+02  0.45594000000E+02  0.51100000000E-03 0.  1.
         11   -1    0    0    0    0 -0.00000000000E+00 -0.00000000000E+00 -0.45593999997E+02  0.45594000000E+02  0.51100000000E-03 0. -1.
         23    2    1    2    0    0 -0.35527136788E-14  0.77715611724E-15  0.00000000000E+00  0.91188000000E+02  0.91188000000E+02 0.  0.
    9900012    2    3    3    0    0 -0.16573519171E+02  0.56500379790E+00 -0.32875210844E+02  0.54367078569E+02  0.39999987213E+02 0.  0.
        -12    1    3    3    0    0  0.16573519171E+02 -0.56500379790E+00  0.32875210844E+02  0.36820921431E+02  0.00000000000E+00 0.  1.
         11    1    4    4    0    0 -0.19582604701E+02  0.73526288940E+01 -0.16654553208E+02  0.26737870172E+02  0.51100000000E-03 0. -1.
        -11    1    4    4    0    0 -0.20253313744E+01 -0.63367180265E+01 -0.20154620206E+02  0.21224153186E+02  0.51100000000E-03 0.  1.
        -12    1    4    4    0    0  0.50344169045E+01 -0.45090706963E+00  0.39339625702E+01  0.64050552111E+01  0.00000000000E+00 0.  1.
</event>
<event>
 8    1  0.1261983E-006  0.9118800E+02  0.7816164E-02  0.1184000E+00
        -11   -1    0    0    0    0  0.00000000000E+00  0.00000000000E+00  0.45593999997E+02  0.45594000000E+02  0.51100000000E-03 0. -1.
         11   -1    0    0    0    0 -0.00000000000E+00 -0.00000000000E+00 -0.45593999997E+02  0.45594000000E+02  0.51100000000E-03 0.  1.
         23    2    1    2    0    0  0.00000000000E+00 -0.35527136788E-14  0.00000000000E+00  0.91188000000E+02  0.91188000000E+02 0.  0.
    9900012    2    3    3    0    0 -0.12285335768E+02 -0.30541260662E+02  0.16494866891E+02  0.54367099529E+02  0.40000034995E+02 0.  0.
        -12    1    3    3    0    0  0.12285335768E+02  0.30541260662E+02 -0.16494866891E+02  0.36820900471E+02  0.00000000000E+00 0.  1.
         11    1    4    4    0    0 -0.23792218875E+01 -0.38624035246E+02  0.12141594728E+02  0.40557306595E+02  0.51100000000E-03 0. -1.
        -11    1    4    4    0    0 -0.42549183764E+01  0.39762307124E+01  0.53359362983E+00  0.58480307361E+01  0.51100000000E-03 0.  1.
         12    1    4    4    0    0 -0.56511955038E+01  0.41065438711E+01  0.38196785335E+01  0.79617621973E+01  0.00000000000E+00 0. -1.
</event>
<event>
 8    1  0.1261983E-006  0.9118800E+02  0.7816164E-02  0.1184000E+00
        -11   -1    0    0    0    0  0.00000000000E+00  0.00000000000E+00  0.45593999997E+02  0.45594000000E+02  0.51100000000E-03 0.  1.
         11   -1    0    0    0    0 -0.00000000000E+00 -0.00000000000E+00 -0.45593999997E+02  0.45594000000E+02  0.51100000000E-03 0. -1.
         23    2    1    2    0    0  0.88817841970E-15  0.17763568394E-14  0.00000000000E+00  0.91188000000E+02  0.91188000000E+02 0.  0.
    9900012    2    3    3    0    0  0.76672829141E+01  0.11426475070E+02 -0.34153022453E+02  0.54367075208E+02  0.39999979552E+02 0.  0.
        -12    1    3    3    0    0 -0.76672829141E+01 -0.11426475070E+02  0.34153022453E+02  0.36820924792E+02  0.00000000000E+00 0.  1.
         11    1    4    4    0    0 -0.85024315622E+01  0.16384795823E+02 -0.17574430681E+02  0.25487516369E+02  0.51100000000E-03 0. -1.
        -11    1    4    4    0    0  0.83260084832E+01 -0.78247916790E+01 -0.17039578131E+02  0.20515774546E+02  0.51100000000E-03 0.  1.
         12    1    4    4    0    0  0.78437059931E+01  0.28664709269E+01  0.46098635902E+00  0.83637842932E+01  0.00000000000E+00 0. -1.
</event>
<event>
 8    1  0.1261983E-006  0.9118800E+02  0.7816164E-02  0.1184000E+00
        -11   -1    0    0    0    0  0.00000000000E+00  0.00000000000E+00  0.45593999997E+02  0.45594000000E+02  0.51100000000E-03 0.  1.
         11   -1    0    0    0    0 -0.00000000000E+00 -0.00000000000E+00 -0.45593999997E+02  0.45594000000E+02  0.51100000000E-03 0. -1.
         23    2    1    2    0    0  0.35527136788E-14  0.00000000000E+00  0.00000000000E+00  0.91188000000E+02  0.91188000000E+02 0.  0.
    9900012    2    3    3    0    0  0.19479545491E+02  0.17656274606E+02  0.25779495833E+02  0.54367093834E+02  0.40000022013E+02 0.  0.
         12    1    3    3    0    0 -0.19479545491E+02 -0.17656274606E+02 -0.25779495833E+02  0.36820906166E+02  0.00000000000E+00 0. -1.
         11    1    4    4    0    0  0.13297716205E+02  0.11031127763E+02  0.55504115561E+01  0.18147234078E+02  0.51100000000E-03 0. -1.
        -11    1    4    4    0    0 -0.14272516972E+00  0.17456389599E+02  0.12741912017E+02  0.21612547985E+02  0.51100000000E-03 0.  1.
         12    1    4    4    0    0  0.63245544563E+01 -0.10831242756E+02  0.74871722601E+01  0.14607311770E+02  0.00000000000E+00 0. -1.
</event>
<event>
 8    1  0.1261983E-006  0.9118800E+02  0.7816164E-02  0.1184000E+00
        -11   -1    0    0    0    0  0.00000000000E+00  0.00000000000E+00  0.45593999997E+02  0.45594000000E+02  0.51100000000E-03 0.  1.
         11   -1    0    0    0    0 -0.00000000000E+00 -0.00000000000E+00 -0.45593999997E+02  0.45594000000E+02  0.51100000000E-03 0. -1.
         23    2    1    2    0    0 -0.88817841970E-15  0.00000000000E+00 -0.35527136788E-14  0.91188000000E+02  0.91188000000E+02 0.  0.
    9900012    2    3    3    0    0 -0.65045814319E+01 -0.21244167930E+02 -0.29362479638E+02  0.54367089350E+02  0.40000011790E+02 0.  0.
         12    1    3    3    0    0  0.65045814319E+01  0.21244167930E+02  0.29362479638E+02  0.36820910650E+02  0.00000000000E+00 0. -1.
         11    1    4    4    0    0 -0.10985704635E+02  0.21086491032E+01 -0.25768739081E+02  0.28091992124E+02  0.51100000000E-03 0. -1.
        -11    1    4    4    0    0 -0.24486994083E+01 -0.14637423144E+02 -0.28791776508E+01  0.15117537805E+02  0.51100000000E-03 0.  1.
         12    1    4    4    0    0  0.69298226119E+01 -0.87153938895E+01 -0.71456290543E+00  0.11157559421E+02  0.00000000000E+00 0. -1.
</event>
<event>
 8    1  0.1261983E-006  0.9118800E+02  0.7816164E-02  0.1184000E+00
        -11   -1    0    0    0    0  0.00000000000E+00  0.00000000000E+00  0.45593999997E+02  0.45594000000E+02  0.51100000000E-03 0. -1.
         11   -1    0    0    0    0 -0.00000000000E+00 -0.00000000000E+00 -0.45593999997E+02  0.45594000000E+02  0.51100000000E-03 0.  1.
         23    2    1    2    0    0  0.00000000000E+00  0.00000000000E+00 -0.35527136788E-14  0.91188000000E+02  0.91188000000E+02 0.  0.
    9900012    2    3    3    0    0 -0.22363634448E+02  0.21286525072E+02  0.20063189955E+02  0.54367083573E+02  0.39999998621E+02 0.  0.
        -12    1    3    3    0    0  0.22363634448E+02 -0.21286525072E+02 -0.20063189955E+02  0.36820916427E+02  0.00000000000E+00 0.  1.
         11    1    4    4    0    0 -0.13373616529E+01 -0.39852219180E+01  0.25198832176E+01  0.49010551535E+01  0.51100000000E-03 0. -1.
        -11    1    4    4    0    0 -0.25466174834E+02  0.15321283521E+02  0.10999157184E+01  0.29740168195E+02  0.51100000000E-03 0.  1.
         12    1    4    4    0    0  0.44399020393E+01  0.99504634694E+01  0.16443391019E+02  0.19725860224E+02  0.00000000000E+00 0. -1.
</event>
<event>
 8    1  0.1261983E-006  0.9118800E+02  0.7816164E-02  0.1184000E+00
        -11   -1    0    0    0    0  0.00000000000E+00  0.00000000000E+00  0.45593999997E+02  0.45594000000E+02  0.51100000000E-03 0.  1.
         11   -1    0    0    0    0 -0.00000000000E+00 -0.00000000000E+00 -0.45593999997E+02  0.45594000000E+02  0.51100000000E-03 0. -1.
         23    2    1    2    0    0 -0.71054273576E-14  0.88817841970E-15  0.00000000000E+00  0.91188000000E+02  0.91188000000E+02 0.  0.
    9900012    2    3    3    0    0 -0.33380517077E+02 -0.71681439490E+01  0.13789054753E+02  0.54367092366E+02  0.40000018668E+02 0.  0.
         12    1    3    3    0    0  0.33380517077E+02  0.71681439490E+01 -0.13789054753E+02  0.36820907634E+02  0.00000000000E+00 0. -1.
         11    1    4    4    0    0  0.35974908801E+01 -0.80170733333E+01 -0.23315420885E+01  0.90912867206E+01  0.51100000000E-03 0. -1.
        -11    1    4    4    0    0 -0.39007789930E+02  0.29717018388E+01  0.13637263310E+02  0.41429622709E+02  0.51100000000E-03 0.  1.
        -12    1    4    4    0    0  0.20297819729E+01 -0.21227724545E+01  0.24833335317E+01  0.38461829364E+01  0.00000000000E+00 0.  1.
</event>
<event>
 8    1  0.1261983E-006  0.9118800E+02  0.7816164E-02  0.1184000E+00
        -11   -1    0    0    0    0  0.00000000000E+00  0.00000000000E+00  0.45593999997E+02  0.45594000000E+02  0.51100000000E-03 0.  1.
         11   -1    0    0    0    0 -0.00000000000E+00 -0.00000000000E+00 -0.45593999997E+02  0.45594000000E+02  0.51100000000E-03 0. -1.
         23    2    1    2    0    0  0.35527136788E-14 -0.35527136788E-14  0.00000000000E+00  0.91188000000E+02  0.91188000000E+02 0.  0.
    9900012    2    3    3    0    0  0.16967058400E+02  0.27718225764E+02 -0.17308887962E+02  0.54367099512E+02  0.40000034957E+02 0.  0.
        -12    1    3    3    0    0 -0.16967058400E+02 -0.27718225764E+02  0.17308887962E+02  0.36820900488E+02  0.00000000000E+00 0.  1.
         11    1    4    4    0    0  0.40297539022E+01  0.19565573146E+02 -0.13389581663E+02  0.24048523165E+02  0.51100000000E-03 0. -1.
        -11    1    4    4    0    0 -0.17528978548E+01 -0.57345325136E+01  0.53899594465E+01  0.80628268700E+01  0.51100000000E-03 0.  1.
        -12    1    4    4    0    0  0.14690202352E+02  0.13887185132E+02 -0.93092657454E+01  0.22255749477E+02  0.00000000000E+00 0.  1.
</event>
<event>
 8    1  0.1261983E-006  0.9118800E+02  0.7816164E-02  0.1184000E+00
        -11   -1    0    0    0    0  0.00000000000E+00  0.00000000000E+00  0.45593999997E+02  0.45594000000E+02  0.51100000000E-03 0. -1.
         11   -1    0    0    0    0 -0.00000000000E+00 -0.00000000000E+00 -0.45593999997E+02  0.45594000000E+02  0.51100000000E-03 0.  1.
         23    2    1    2    0    0 -0.12767564783E-14  0.00000000000E+00 -0.35527136788E-14  0.91188000000E+02  0.91188000000E+02 0.  0.
    9900012    2    3    3    0    0  0.32223209933E+00  0.21740013863E+02  0.29716109752E+02  0.54367092690E+02  0.40000019406E+02 0.  0.
        -12    1    3    3    0    0 -0.32223209933E+00 -0.21740013863E+02 -0.29716109752E+02  0.36820907310E+02  0.00000000000E+00 0.  1.
         11    1    4    4    0    0  0.16953859905E+01  0.78934571994E+00  0.29200274121E+01  0.34675583154E+01  0.51100000000E-03 0. -1.
        -11    1    4    4    0    0 -0.13053562544E+02  0.17507724895E+02  0.31084710923E+02  0.37989145549E+02  0.51100000000E-03 0.  1.
        -12    1    4    4    0    0  0.11680408653E+02  0.34429432479E+01 -0.42886285830E+01  0.12910388826E+02  0.00000000000E+00 0.  1.
</event>
<event>
 8    1  0.1261983E-006  0.9118800E+02  0.7816164E-02  0.1184000E+00
        -11   -1    0    0    0    0  0.00000000000E+00  0.00000000000E+00  0.45593999997E+02  0.45594000000E+02  0.51100000000E-03 0. -1.
         11   -1    0    0    0    0 -0.00000000000E+00 -0.00000000000E+00 -0.45593999997E+02  0.45594000000E+02  0.51100000000E-03 0.  1.
         23    2    1    2    0    0  0.00000000000E+00 -0.35527136788E-14  0.35527136788E-14  0.91188000000E+02  0.91188000000E+02 0.  0.
    9900012    2    3    3    0    0 -0.73640301633E+01 -0.22129670463E+02  0.28492605010E+02  0.54367084812E+02  0.40000001445E+02 0.  0.
        -12    1    3    3    0    0  0.73640301633E+01  0.22129670463E+02 -0.28492605010E+02  0.36820915188E+02  0.00000000000E+00 0.  1.
         11    1    4    4    0    0  0.80309463614E+01 -0.71966194404E+01  0.22678457042E+02  0.25111747149E+02  0.51100000000E-03 0. -1.
        -11    1    4    4    0    0 -0.91782833984E+01 -0.15850409547E+02 -0.28664125613E+01  0.18538950622E+02  0.51100000000E-03 0.  1.
         12    1    4    4    0    0 -0.62166931263E+01  0.91735852440E+00  0.86805605293E+01  0.10716387040E+02  0.00000000000E+00 0. -1.
</event>
<event>
 8    1  0.1261983E-006  0.9118800E+02  0.7816164E-02  0.1184000E+00
        -11   -1    0    0    0    0  0.00000000000E+00  0.00000000000E+00  0.45593999997E+02  0.45594000000E+02  0.51100000000E-03 0.  1.
         11   -1    0    0    0    0 -0.00000000000E+00 -0.00000000000E+00 -0.45593999997E+02  0.45594000000E+02  0.51100000000E-03 0. -1.
         23    2    1    2    0    0  0.00000000000E+00 -0.35527136788E-14 -0.66613381478E-15  0.91188000000E+02  0.91188000000E+02 0.  0.
    9900012    2    3    3    0    0  0.29798675335E+02 -0.21622152779E+02  0.54853578685E+00  0.54367089717E+02  0.40000012628E+02 0.  0.
         12    1    3    3    0    0 -0.29798675335E+02  0.21622152779E+02 -0.54853578685E+00  0.36820910283E+02  0.00000000000E+00 0. -1.
         11    1    4    4    0    0  0.16073047208E+02 -0.11082402557E+02 -0.12706530686E+01  0.19564688919E+02  0.51100000000E-03 0. -1.
        -11    1    4    4    0    0  0.36054833689E+01 -0.16817715563E+02  0.10421941802E+02  0.20110990485E+02  0.51100000000E-03 0.  1.
        -12    1    4    4    0    0  0.10120144758E+02  0.62779653407E+01 -0.86027529466E+01  0.14691410314E+02  0.00000000000E+00 0.  1.
</event>
<event>
 8    1  0.1261983E-006  0.9118800E+02  0.7816164E-02  0.1184000E+00
        -11   -1    0    0    0    0  0.00000000000E+00  0.00000000000E+00  0.45593999997E+02  0.45594000000E+02  0.51100000000E-03 0.  1.
         11   -1    0    0    0    0 -0.00000000000E+00 -0.00000000000E+00 -0.45593999997E+02  0.45594000000E+02  0.51100000000E-03 0. -1.
         23    2    1    2    0    0  0.00000000000E+00  0.17763568394E-14  0.00000000000E+00  0.91188000000E+02  0.91188000000E+02 0.  0.
    9900012    2    3    3    0    0 -0.11114187270E+01 -0.14453235878E+02 -0.33847424040E+02  0.54367090274E+02  0.40000013897E+02 0.  0.
        -12    1    3    3    0    0  0.11114187270E+01  0.14453235878E+02  0.33847424040E+02  0.36820909726E+02  0.00000000000E+00 0.  1.
         11    1    4    4    0    0  0.79979845432E+00 -0.14295642159E+02 -0.46253899764E+01  0.15046570872E+02  0.51100000000E-03 0.  1.
        -11    1    4    4    0    0 -0.15494412378E+01  0.13019582384E+02 -0.15249573020E+02  0.20111185225E+02  0.51100000000E-03 0. -1.
        -12    1    4    4    0    0 -0.36177594353E+00 -0.13177176103E+02 -0.13972461044E+02  0.19209334177E+02  0.00000000000E+00 0.  1.
</event>
<event>
 8    1  0.1261983E-006  0.9118800E+02  0.7816164E-02  0.1184000E+00
        -11   -1    0    0    0    0  0.00000000000E+00  0.00000000000E+00  0.45593999997E+02  0.45594000000E+02  0.51100000000E-03 0. -1.
         11   -1    0    0    0    0 -0.00000000000E+00 -0.00000000000E+00 -0.45593999997E+02  0.45594000000E+02  0.51100000000E-03 0.  1.
         23    2    1    2    0    0  0.00000000000E+00  0.00000000000E+00  0.00000000000E+00  0.91188000000E+02  0.91188000000E+02 0.  0.
    9900012    2    3    3    0    0  0.11319930495E+02 -0.20647497733E+02 -0.28307587055E+02  0.54367089176E+02  0.40000011395E+02 0.  0.
         12    1    3    3    0    0 -0.11319930495E+02  0.20647497733E+02  0.28307587055E+02  0.36820910824E+02  0.00000000000E+00 0. -1.
         11    1    4    4    0    0  0.88713588220E+01  0.22178444597E+01 -0.63788911764E+01  0.11149443677E+02  0.51100000000E-03 0. -1.
        -11    1    4    4    0    0 -0.23235051791E+01 -0.17180675374E+02 -0.28464046530E+02  0.33328309704E+02  0.51100000000E-03 0.  1.
        -12    1    4    4    0    0  0.47720768520E+01 -0.56846668192E+01  0.65353506521E+01  0.98893357953E+01  0.00000000000E+00 0.  1.
</event>
<event>
 8    1  0.1261983E-006  0.9118800E+02  0.7816164E-02  0.1184000E+00
        -11   -1    0    0    0    0  0.00000000000E+00  0.00000000000E+00  0.45593999997E+02  0.45594000000E+02  0.51100000000E-03 0. -1.
         11   -1    0    0    0    0 -0.00000000000E+00 -0.00000000000E+00 -0.45593999997E+02  0.45594000000E+02  0.51100000000E-03 0.  1.
         23    2    1    2    0    0  0.00000000000E+00  0.17763568394E-14  0.00000000000E+00  0.91188000000E+02  0.91188000000E+02 0.  0.
    9900012    2    3    3    0    0  0.27423584868E+02  0.12044668029E+02 -0.21416241556E+02  0.54367048936E+02  0.39999919659E+02 0.  0.
         12    1    3    3    0    0 -0.27423584868E+02 -0.12044668029E+02  0.21416241556E+02  0.36820951064E+02  0.00000000000E+00 0. -1.
         11    1    4    4    0    0 -0.30791386534E+01  0.24817861077E+01 -0.63209673133E+01  0.74562044746E+01  0.51100000000E-03 0. -1.
        -11    1    4    4    0    0  0.32709810384E+02 -0.12342833819E+01 -0.76620557107E+01  0.33617885846E+02  0.51100000000E-03 0.  1.
        -12    1    4    4    0    0 -0.22070868626E+01  0.10797165303E+02 -0.74332185316E+01  0.13292958615E+02  0.00000000000E+00 0.  1.
</event>
<event>
 8    1  0.1261983E-006  0.9118800E+02  0.7816164E-02  0.1184000E+00
        -11   -1    0    0    0    0  0.00000000000E+00  0.00000000000E+00  0.45593999997E+02  0.45594000000E+02  0.51100000000E-03 0.  1.
         11   -1    0    0    0    0 -0.00000000000E+00 -0.00000000000E+00 -0.45593999997E+02  0.45594000000E+02  0.51100000000E-03 0. -1.
         23    2    1    2    0    0  0.00000000000E+00  0.00000000000E+00  0.17763568394E-14  0.91188000000E+02  0.91188000000E+02 0.  0.
    9900012    2    3    3    0    0  0.33136743028E+02  0.68269740991E+01  0.14530233861E+02  0.54367095476E+02  0.40000025758E+02 0.  0.
         12    1    3    3    0    0 -0.33136743028E+02 -0.68269740991E+01 -0.14530233861E+02  0.36820904524E+02  0.00000000000E+00 0. -1.
         11    1    4    4    0    0  0.15648773153E+02  0.28552225865E+01 -0.12038633720E+02  0.19949062617E+02  0.51100000000E-03 0. -1.
        -11    1    4    4    0    0  0.41468793190E+01  0.69036585929E+01  0.78595157197E+01  0.11252959507E+02  0.51100000000E-03 0.  1.
         12    1    4    4    0    0  0.13341090556E+02 -0.29319070804E+01  0.18709351861E+02  0.23165073352E+02  0.00000000000E+00 0. -1.
</event>
<event>
 8    1  0.1261983E-006  0.9118800E+02  0.7816164E-02  0.1184000E+00
        -11   -1    0    0    0    0  0.00000000000E+00  0.00000000000E+00  0.45593999997E+02  0.45594000000E+02  0.51100000000E-03 0.  1.
         11   -1    0    0    0    0 -0.00000000000E+00 -0.00000000000E+00 -0.45593999997E+02  0.45594000000E+02  0.51100000000E-03 0. -1.
         23    2    1    2    0    0 -0.44408920985E-15  0.35527136788E-14  0.00000000000E+00  0.91188000000E+02  0.91188000000E+02 0.  0.
    9900012    2    3    3    0    0 -0.37516074466E+01 -0.25150004179E+02 -0.26630478608E+02  0.54367086655E+02  0.40000005648E+02 0.  0.
        -12    1    3    3    0    0  0.37516074466E+01  0.25150004179E+02  0.26630478608E+02  0.36820913345E+02  0.00000000000E+00 0.  1.
         11    1    4    4    0    0  0.64339265691E+01 -0.20602135024E+02 -0.19866710803E+02  0.29334784421E+02  0.51100000000E-03 0. -1.
        -11    1    4    4    0    0 -0.12531511317E+02  0.57977469723E+00 -0.11983262656E+02  0.17348587802E+02  0.51100000000E-03 0.  1.
         12    1    4    4    0    0  0.23459773013E+01 -0.51276438524E+01  0.52194948507E+01  0.76837144319E+01  0.00000000000E+00 0. -1.
</event>
<event>
 8    1  0.1261983E-006  0.9118800E+02  0.7816164E-02  0.1184000E+00
        -11   -1    0    0    0    0  0.00000000000E+00  0.00000000000E+00  0.45593999997E+02  0.45594000000E+02  0.51100000000E-03 0. -1.
         11   -1    0    0    0    0 -0.00000000000E+00 -0.00000000000E+00 -0.45593999997E+02  0.45594000000E+02  0.51100000000E-03 0.  1.
         23    2    1    2    0    0 -0.53290705182E-14 -0.17763568394E-14  0.00000000000E+00  0.91188000000E+02  0.91188000000E+02 0.  0.
    9900012    2    3    3    0    0  0.13425369036E+02  0.11423011820E+02  0.32327289871E+02  0.54367090136E+02  0.40000013583E+02 0.  0.
        -12    1    3    3    0    0 -0.13425369036E+02 -0.11423011820E+02 -0.32327289871E+02  0.36820909864E+02  0.00000000000E+00 0.  1.
         11    1    4    4    0    0 -0.28474906196E+01  0.91293256936E+00 -0.10349957069E+01  0.31643111540E+01  0.51100000000E-03 0.  1.
        -11    1    4    4    0    0 -0.60107905589E+01  0.86673640412E-01 -0.34468740265E+01  0.69295062074E+01  0.51100000000E-03 0. -1.
        -12    1    4    4    0    0  0.22283650215E+02  0.10423405610E+02  0.36809159604E+02  0.44273272775E+02  0.00000000000E+00 0.  1.
</event>
<event>
 8    1  0.1261983E-006  0.9118800E+02  0.7816164E-02  0.1184000E+00
        -11   -1    0    0    0    0  0.00000000000E+00  0.00000000000E+00  0.45593999997E+02  0.45594000000E+02  0.51100000000E-03 0.  1.
         11   -1    0    0    0    0 -0.00000000000E+00 -0.00000000000E+00 -0.45593999997E+02  0.45594000000E+02  0.51100000000E-03 0. -1.
         23    2    1    2    0    0  0.88817841970E-15  0.00000000000E+00  0.00000000000E+00  0.91188000000E+02  0.91188000000E+02 0.  0.
    9900012    2    3    3    0    0 -0.76266103404E+01  0.52234153375E+01 -0.35641691710E+02  0.54367089623E+02  0.40000012412E+02 0.  0.
        -12    1    3    3    0    0  0.76266103404E+01 -0.52234153375E+01  0.35641691710E+02  0.36820910377E+02  0.00000000000E+00 0.  1.
         11    1    4    4    0    0  0.67693958973E+01  0.96951088832E+01 -0.18881011038E+01  0.11974338525E+02  0.51100000000E-03 0. -1.
        -11    1    4    4    0    0 -0.13761118616E+02  0.53954521597E+01 -0.25669825374E+02  0.29621263048E+02  0.51100000000E-03 0.  1.
         12    1    4    4    0    0 -0.63488762171E+00 -0.98671457055E+01 -0.80837652319E+01  0.12771488049E+02  0.00000000000E+00 0. -1.
</event>
<event>
 8    1  0.1261983E-006  0.9118800E+02  0.7816164E-02  0.1184000E+00
        -11   -1    0    0    0    0  0.00000000000E+00  0.00000000000E+00  0.45593999997E+02  0.45594000000E+02  0.51100000000E-03 0.  1.
         11   -1    0    0    0    0 -0.00000000000E+00 -0.00000000000E+00 -0.45593999997E+02  0.45594000000E+02  0.51100000000E-03 0. -1.
         23    2    1    2    0    0 -0.17763568394E-14 -0.88817841970E-15 -0.71054273576E-14  0.91188000000E+02  0.91188000000E+02 0.  0.
    9900012    2    3    3    0    0  0.67093258352E+01  0.66366328743E+01  0.35591000199E+02  0.54367092294E+02  0.40000018503E+02 0.  0.
         12    1    3    3    0    0 -0.67093258352E+01 -0.66366328743E+01 -0.35591000199E+02  0.36820907706E+02  0.00000000000E+00 0. -1.
         11    1    4    4    0    0  0.22923168675E+01  0.56791174829E+01 -0.36244065249E+01  0.71164186867E+01  0.51100000000E-03 0. -1.
        -11    1    4    4    0    0 -0.70838832159E+01 -0.26059363395E+01  0.15471601633E+01  0.77049341629E+01  0.51100000000E-03 0.  1.
        -12    1    4    4    0    0  0.11500892184E+02  0.35634517310E+01  0.37668246561E+02  0.39545739445E+02  0.00000000000E+00 0.  1.
</event>
<event>
 8    1  0.1261983E-006  0.9118800E+02  0.7816164E-02  0.1184000E+00
        -11   -1    0    0    0    0  0.00000000000E+00  0.00000000000E+00  0.45593999997E+02  0.45594000000E+02  0.51100000000E-03 0. -1.
         11   -1    0    0    0    0 -0.00000000000E+00 -0.00000000000E+00 -0.45593999997E+02  0.45594000000E+02  0.51100000000E-03 0.  1.
         23    2    1    2    0    0  0.00000000000E+00  0.00000000000E+00  0.35527136788E-14  0.91188000000E+02  0.91188000000E+02 0.  0.
    9900012    2    3    3    0    0  0.21089019061E+02  0.25409958192E+02 -0.16290088150E+02  0.54367086484E+02  0.40000005257E+02 0.  0.
        -12    1    3    3    0    0 -0.21089019061E+02 -0.25409958192E+02  0.16290088150E+02  0.36820913516E+02  0.00000000000E+00 0.  1.
         11    1    4    4    0    0  0.65663152503E+01 -0.66841526711E+01  0.37544558282E+01  0.10094074089E+02  0.51100000000E-03 0. -1.
        -11    1    4    4    0    0  0.83523473605E+01  0.13828653221E+02 -0.19035845759E+02  0.24967113978E+02  0.51100000000E-03 0.  1.
         12    1    4    4    0    0  0.61703564499E+01  0.18265457642E+02 -0.10086982184E+01  0.19305898417E+02  0.00000000000E+00 0. -1.
</event>
<event>
 8    1  0.1261983E-006  0.9118800E+02  0.7816164E-02  0.1184000E+00
        -11   -1    0    0    0    0  0.00000000000E+00  0.00000000000E+00  0.45593999997E+02  0.45594000000E+02  0.51100000000E-03 0. -1.
         11   -1    0    0    0    0 -0.00000000000E+00 -0.00000000000E+00 -0.45593999997E+02  0.45594000000E+02  0.51100000000E-03 0.  1.
         23    2    1    2    0    0  0.35527136788E-14  0.35527136788E-14  0.35527136788E-14  0.91188000000E+02  0.91188000000E+02 0.  0.
    9900012    2    3    3    0    0 -0.19202551417E+02  0.23732620787E+02  0.20586516795E+02  0.54367082792E+02  0.39999996840E+02 0.  0.
        -12    1    3    3    0    0  0.19202551417E+02 -0.23732620787E+02 -0.20586516795E+02  0.36820917208E+02  0.00000000000E+00 0.  1.
         11    1    4    4    0    0 -0.12345310446E+02  0.22735125995E+02  0.25124682687E+02  0.36063032657E+02  0.51100000000E-03 0. -1.
        -11    1    4    4    0    0  0.23965824522E+01  0.21614891104E+01  0.43526535673E+01  0.54186009230E+01  0.51100000000E-03 0.  1.
        -12    1    4    4    0    0 -0.92538234228E+01 -0.11639943193E+01 -0.88908194595E+01  0.12885449211E+02  0.00000000000E+00 0.  1.
</event>
<event>
 8    1  0.1261983E-006  0.9118800E+02  0.7816164E-02  0.1184000E+00
        -11   -1    0    0    0    0  0.00000000000E+00  0.00000000000E+00  0.45593999997E+02  0.45594000000E+02  0.51100000000E-03 0. -1.
         11   -1    0    0    0    0 -0.00000000000E+00 -0.00000000000E+00 -0.45593999997E+02  0.45594000000E+02  0.51100000000E-03 0.  1.
         23    2    1    2    0    0 -0.17763568394E-14  0.00000000000E+00 -0.88817841970E-15  0.91188000000E+02  0.91188000000E+02 0.  0.
    9900012    2    3    3    0    0  0.15034398909E+02 -0.33364963102E+02  0.40651562300E+01  0.54367090064E+02  0.40000013418E+02 0.  0.
        -12    1    3    3    0    0 -0.15034398909E+02  0.33364963102E+02 -0.40651562300E+01  0.36820909936E+02  0.00000000000E+00 0.  1.
         11    1    4    4    0    0  0.19239907579E+02 -0.12764182814E+02 -0.91524036339E+01  0.24836765069E+02  0.51100000000E-03 0.  1.
        -11    1    4    4    0    0 -0.21328715797E+01 -0.21381873106E+02  0.15387711310E+02  0.26429439992E+02  0.51100000000E-03 0. -1.
        -12    1    4    4    0    0 -0.20726370904E+01  0.78109281824E+00 -0.21701514458E+01  0.31008850022E+01  0.00000000000E+00 0.  1.
</event>
<event>
 8    1  0.1261983E-006  0.9118800E+02  0.7816164E-02  0.1184000E+00
        -11   -1    0    0    0    0  0.00000000000E+00  0.00000000000E+00  0.45593999997E+02  0.45594000000E+02  0.51100000000E-03 0.  1.
         11   -1    0    0    0    0 -0.00000000000E+00 -0.00000000000E+00 -0.45593999997E+02  0.45594000000E+02  0.51100000000E-03 0. -1.
         23    2    1    2    0    0  0.00000000000E+00  0.00000000000E+00  0.00000000000E+00  0.91188000000E+02  0.91188000000E+02 0.  0.
    9900012    2    3    3    0    0 -0.17091142263E+02 -0.21309542086E+01  0.32544335799E+02  0.54367056200E+02  0.39999936219E+02 0.  0.
         12    1    3    3    0    0  0.17091142263E+02  0.21309542086E+01 -0.32544335799E+02  0.36820943800E+02  0.00000000000E+00 0. -1.
         11    1    4    4    0    0 -0.96732818967E+01  0.62848852863E+01 -0.51622969544E+00  0.11547235993E+02  0.51100000000E-03 0. -1.
        -11    1    4    4    0    0 -0.15327198744E+02 -0.57056034205E+01  0.12376472984E+02  0.20509851670E+02  0.51100000000E-03 0.  1.
        -12    1    4    4    0    0  0.79093383773E+01 -0.27102360743E+01  0.20684092511E+02  0.22309968537E+02  0.00000000000E+00 0.  1.
</event>
<event>
 8    1  0.1261983E-006  0.9118800E+02  0.7816164E-02  0.1184000E+00
        -11   -1    0    0    0    0  0.00000000000E+00  0.00000000000E+00  0.45593999997E+02  0.45594000000E+02  0.51100000000E-03 0. -1.
         11   -1    0    0    0    0 -0.00000000000E+00 -0.00000000000E+00 -0.45593999997E+02  0.45594000000E+02  0.51100000000E-03 0.  1.
         23    2    1    2    0    0  0.00000000000E+00 -0.17763568394E-14  0.71054273576E-14  0.91188000000E+02  0.91188000000E+02 0.  0.
    9900012    2    3    3    0    0 -0.10635021982E+02  0.13141880700E+02 -0.32710363287E+02  0.54367074058E+02  0.39999976930E+02 0.  0.
        -12    1    3    3    0    0  0.10635021982E+02 -0.13141880700E+02  0.32710363287E+02  0.36820925942E+02  0.00000000000E+00 0.  1.
         11    1    4    4    0    0 -0.92164706155E+01  0.11552324290E+01 -0.15784356319E+02  0.18314578817E+02  0.51100000000E-03 0. -1.
        -11    1    4    4    0    0 -0.53563971601E+01  0.12782123593E+02  0.42521200499E+01  0.14496696150E+02  0.51100000000E-03 0.  1.
        -12    1    4    4    0    0  0.39378457935E+01 -0.79547532219E+00 -0.21178127018E+02  0.21555799091E+02  0.00000000000E+00 0.  1.
</event>
<event>
 8    1  0.1261983E-006  0.9118800E+02  0.7816164E-02  0.1184000E+00
        -11   -1    0    0    0    0  0.00000000000E+00  0.00000000000E+00  0.45593999997E+02  0.45594000000E+02  0.51100000000E-03 0. -1.
         11   -1    0    0    0    0 -0.00000000000E+00 -0.00000000000E+00 -0.45593999997E+02  0.45594000000E+02  0.51100000000E-03 0.  1.
         23    2    1    2    0    0  0.00000000000E+00  0.00000000000E+00 -0.88817841970E-15  0.91188000000E+02  0.91188000000E+02 0.  0.
    9900012    2    3    3    0    0  0.11472903095E+02 -0.34790850509E+02 -0.37088635782E+01  0.54366994397E+02  0.39999795327E+02 0.  0.
         12    1    3    3    0    0 -0.11472903095E+02  0.34790850509E+02  0.37088635782E+01  0.36821005603E+02  0.00000000000E+00 0. -1.
         11    1    4    4    0    0  0.42015416720E+01 -0.25691153852E+00  0.68316204597E+01  0.80243376254E+01  0.51100000000E-03 0. -1.
        -11    1    4    4    0    0  0.10748203740E+01  0.46511199703E+01  0.12888089575E+01  0.49446116738E+01  0.51100000000E-03 0.  1.
        -12    1    4    4    0    0  0.61965410487E+01 -0.39185058941E+02 -0.11829292995E+02  0.41398045098E+02  0.00000000000E+00 0.  1.
</event>
<event>
 8    1  0.1261983E-006  0.9118800E+02  0.7816164E-02  0.1184000E+00
        -11   -1    0    0    0    0  0.00000000000E+00  0.00000000000E+00  0.45593999997E+02  0.45594000000E+02  0.51100000000E-03 0.  1.
         11   -1    0    0    0    0 -0.00000000000E+00 -0.00000000000E+00 -0.45593999997E+02  0.45594000000E+02  0.51100000000E-03 0. -1.
         23    2    1    2    0    0  0.00000000000E+00 -0.17763568394E-14  0.00000000000E+00  0.91188000000E+02  0.91188000000E+02 0.  0.
    9900012    2    3    3    0    0  0.29017738601E+02  0.11289080243E+02 -0.19654706586E+02  0.54367082342E+02  0.39999995814E+02 0.  0.
        -12    1    3    3    0    0 -0.29017738601E+02 -0.11289080243E+02  0.19654706586E+02  0.36820917658E+02  0.00000000000E+00 0.  1.
         11    1    4    4    0    0  0.22450873058E+01 -0.10207294126E+02 -0.60799852669E+00  0.10468950896E+02  0.51100000000E-03 0. -1.
        -11    1    4    4    0    0  0.60462998595E+01  0.42823235881E+01  0.40205720638E+01  0.84297708916E+01  0.51100000000E-03 0.  1.
         12    1    4    4    0    0  0.20726351435E+02  0.17214050781E+02 -0.23067280123E+02  0.35468360554E+02  0.00000000000E+00 0. -1.
</event>
<event>
 8    1  0.1261983E-006  0.9118800E+02  0.7816164E-02  0.1184000E+00
        -11   -1    0    0    0    0  0.00000000000E+00  0.00000000000E+00  0.45593999997E+02  0.45594000000E+02  0.51100000000E-03 0. -1.
         11   -1    0    0    0    0 -0.00000000000E+00 -0.00000000000E+00 -0.45593999997E+02  0.45594000000E+02  0.51100000000E-03 0.  1.
         23    2    1    2    0    0 -0.10658141036E-13  0.00000000000E+00 -0.17763568394E-14  0.91188000000E+02  0.91188000000E+02 0.  0.
    9900012    2    3    3    0    0 -0.30573647111E+02 -0.18120917008E+02 -0.96271566943E+01  0.54366841993E+02  0.39999447889E+02 0.  0.
         12    1    3    3    0    0  0.30573647111E+02  0.18120917008E+02  0.96271566943E+01  0.36821158007E+02  0.00000000000E+00 0. -1.
         11    1    4    4    0    0  0.42147712205E+01 -0.94567909307E+01 -0.41552741136E+01  0.11156231190E+02  0.51100000000E-03 0. -1.
        -11    1    4    4    0    0 -0.10003159437E+02 -0.11850615121E+02 -0.90668784512E+01  0.17964090920E+02  0.51100000000E-03 0.  1.
         12    1    4    4    0    0 -0.24785258895E+02  0.31864890432E+01  0.35949958705E+01  0.25246519884E+02  0.00000000000E+00 0. -1.
</event>
<event>
 8    1  0.1261983E-006  0.9118800E+02  0.7816164E-02  0.1184000E+00
        -11   -1    0    0    0    0  0.00000000000E+00  0.00000000000E+00  0.45593999997E+02  0.45594000000E+02  0.51100000000E-03 0. -1.
         11   -1    0    0    0    0 -0.00000000000E+00 -0.00000000000E+00 -0.45593999997E+02  0.45594000000E+02  0.51100000000E-03 0.  1.
         23    2    1    2    0    0  0.00000000000E+00 -0.62450045135E-15  0.35527136788E-14  0.91188000000E+02  0.91188000000E+02 0.  0.
    9900012    2    3    3    0    0  0.25387976314E+02 -0.12210958689E+00  0.26668597518E+02  0.54367104497E+02  0.40000046323E+02 0.  0.
        -12    1    3    3    0    0 -0.25387976314E+02  0.12210958689E+00 -0.26668597518E+02  0.36820895503E+02  0.00000000000E+00 0.  1.
         11    1    4    4    0    0  0.77012501737E+01 -0.14510748336E+02  0.19482701503E+02  0.25484244734E+02  0.51100000000E-03 0. -1.
        -11    1    4    4    0    0  0.12532536474E+02  0.16536311573E+02  0.13298335140E+01  0.20791405156E+02  0.51100000000E-03 0.  1.
         12    1    4    4    0    0  0.51541896656E+01 -0.21476728232E+01  0.58560625005E+01  0.80914546081E+01  0.00000000000E+00 0. -1.
</event>
<event>
 8    1  0.1261983E-006  0.9118800E+02  0.7816164E-02  0.1184000E+00
        -11   -1    0    0    0    0  0.00000000000E+00  0.00000000000E+00  0.45593999997E+02  0.45594000000E+02  0.51100000000E-03 0. -1.
         11   -1    0    0    0    0 -0.00000000000E+00 -0.00000000000E+00 -0.45593999997E+02  0.45594000000E+02  0.51100000000E-03 0.  1.
         23    2    1    2    0    0  0.13322676296E-14  0.35527136788E-14  0.35527136788E-14  0.91188000000E+02  0.91188000000E+02 0.  0.
    9900012    2    3    3    0    0  0.20468383487E+01  0.28325908625E+02  0.23435706415E+02  0.54367095858E+02  0.40000026627E+02 0.  0.
        -12    1    3    3    0    0 -0.20468383487E+01 -0.28325908625E+02 -0.23435706415E+02  0.36820904142E+02  0.00000000000E+00 0.  1.
         11    1    4    4    0    0  0.53162373898E+01  0.57903259010E+01 -0.20679804157E+01  0.81281484537E+01  0.51100000000E-03 0. -1.
        -11    1    4    4    0    0 -0.15893547901E+02  0.59952906608E+01  0.69245303851E+01  0.18343868085E+02  0.51100000000E-03 0.  1.
        -12    1    4    4    0    0  0.12624148860E+02  0.16540292064E+02  0.18579156446E+02  0.27895079319E+02  0.00000000000E+00 0.  1.
</event>
<event>
 8    1  0.1261983E-006  0.9118800E+02  0.7816164E-02  0.1184000E+00
        -11   -1    0    0    0    0  0.00000000000E+00  0.00000000000E+00  0.45593999997E+02  0.45594000000E+02  0.51100000000E-03 0.  1.
         11   -1    0    0    0    0 -0.00000000000E+00 -0.00000000000E+00 -0.45593999997E+02  0.45594000000E+02  0.51100000000E-03 0. -1.
         23    2    1    2    0    0 -0.17763568394E-14  0.17763568394E-14 -0.35527136788E-14  0.91188000000E+02  0.91188000000E+02 0.  0.
    9900012    2    3    3    0    0  0.11186409165E+02  0.15412704651E+02  0.31513366946E+02  0.54367088673E+02  0.40000010248E+02 0.  0.
         12    1    3    3    0    0 -0.11186409165E+02 -0.15412704651E+02 -0.31513366946E+02  0.36820911327E+02  0.00000000000E+00 0. -1.
         11    1    4    4    0    0 -0.85270667335E+01  0.10510260523E+01  0.60191739401E+01  0.10490280169E+02  0.51100000000E-03 0. -1.
        -11    1    4    4    0    0  0.17735291089E+01  0.17332600656E+02  0.14139611888E+02  0.22438651377E+02  0.51100000000E-03 0.  1.
        -12    1    4    4    0    0  0.17939946789E+02 -0.29709220569E+01  0.11354581118E+02  0.21438157128E+02  0.00000000000E+00 0.  1.
</event>
<event>
 8    1  0.1261983E-006  0.9118800E+02  0.7816164E-02  0.1184000E+00
        -11   -1    0    0    0    0  0.00000000000E+00  0.00000000000E+00  0.45593999997E+02  0.45594000000E+02  0.51100000000E-03 0.  1.
         11   -1    0    0    0    0 -0.00000000000E+00 -0.00000000000E+00 -0.45593999997E+02  0.45594000000E+02  0.51100000000E-03 0. -1.
         23    2    1    2    0    0  0.00000000000E+00  0.00000000000E+00  0.00000000000E+00  0.91188000000E+02  0.91188000000E+02 0.  0.
    9900012    2    3    3    0    0 -0.28278562695E+02  0.21954135588E+02  0.86092480085E+01  0.54367077567E+02  0.39999984930E+02 0.  0.
        -12    1    3    3    0    0  0.28278562695E+02 -0.21954135588E+02 -0.86092480085E+01  0.36820922433E+02  0.00000000000E+00 0.  1.
         11    1    4    4    0    0 -0.30383048791E+02  0.20032025780E+02  0.11337171935E+02  0.38117491765E+02  0.51100000000E-03 0. -1.
        -11    1    4    4    0    0 -0.22999910467E+01 -0.61057732156E+01  0.49214421079E+00  0.65431362175E+01  0.51100000000E-03 0.  1.
         12    1    4    4    0    0  0.44044771422E+01  0.80278830235E+01 -0.32200681374E+01  0.97064495849E+01  0.00000000000E+00 0. -1.
</event>
<event>
 8    1  0.1261983E-006  0.9118800E+02  0.7816164E-02  0.1184000E+00
        -11   -1    0    0    0    0  0.00000000000E+00  0.00000000000E+00  0.45593999997E+02  0.45594000000E+02  0.51100000000E-03 0. -1.
         11   -1    0    0    0    0 -0.00000000000E+00 -0.00000000000E+00 -0.45593999997E+02  0.45594000000E+02  0.51100000000E-03 0.  1.
         23    2    1    2    0    0  0.17763568394E-14  0.00000000000E+00  0.71054273576E-14  0.91188000000E+02  0.91188000000E+02 0.  0.
    9900012    2    3    3    0    0  0.87998552181E+01 -0.19031176083E+02  0.30268049702E+02  0.54367109900E+02  0.40000058639E+02 0.  0.
        -12    1    3    3    0    0 -0.87998552181E+01  0.19031176083E+02 -0.30268049702E+02  0.36820890100E+02  0.00000000000E+00 0.  1.
         11    1    4    4    0    0 -0.34999764482E+01 -0.80203271705E+01  0.16229927003E+01  0.88999768891E+01  0.51100000000E-03 0. -1.
        -11    1    4    4    0    0 -0.43142640981E+01 -0.11438719951E+02 -0.14304250298E+00  0.12226105277E+02  0.51100000000E-03 0.  1.
        -12    1    4    4    0    0  0.16614095764E+02  0.42787103850E+00  0.28788099505E+02  0.33241027734E+02  0.00000000000E+00 0.  1.
</event>
<event>
 8    1  0.1261983E-006  0.9118800E+02  0.7816164E-02  0.1184000E+00
        -11   -1    0    0    0    0  0.00000000000E+00  0.00000000000E+00  0.45593999997E+02  0.45594000000E+02  0.51100000000E-03 0.  1.
         11   -1    0    0    0    0 -0.00000000000E+00 -0.00000000000E+00 -0.45593999997E+02  0.45594000000E+02  0.51100000000E-03 0. -1.
         23    2    1    2    0    0 -0.17763568394E-14  0.00000000000E+00  0.18041124150E-15  0.91188000000E+02  0.91188000000E+02 0.  0.
    9900012    2    3    3    0    0  0.10814915136E+02 -0.35196669667E+02  0.10928320018E+00  0.54367083554E+02  0.39999998579E+02 0.  0.
        -12    1    3    3    0    0 -0.10814915136E+02  0.35196669667E+02 -0.10928320018E+00  0.36820916446E+02  0.00000000000E+00 0.  1.
         11    1    4    4    0    0 -0.28248959735E+01  0.30936142413E+01  0.51886619144E+01  0.66687854260E+01  0.51100000000E-03 0. -1.
        -11    1    4    4    0    0 -0.48423865641E+01 -0.55881302627E+01 -0.68684324144E+01  0.10092139097E+02  0.51100000000E-03 0.  1.
         12    1    4    4    0    0  0.18482197673E+02 -0.32702153646E+02  0.17890537002E+01  0.37606159031E+02  0.00000000000E+00 0. -1.
</event>
<event>
 8    1  0.1261983E-006  0.9118800E+02  0.7816164E-02  0.1184000E+00
        -11   -1    0    0    0    0  0.00000000000E+00  0.00000000000E+00  0.45593999997E+02  0.45594000000E+02  0.51100000000E-03 0.  1.
         11   -1    0    0    0    0 -0.00000000000E+00 -0.00000000000E+00 -0.45593999997E+02  0.45594000000E+02  0.51100000000E-03 0. -1.
         23    2    1    2    0    0  0.00000000000E+00  0.00000000000E+00  0.00000000000E+00  0.91188000000E+02  0.91188000000E+02 0.  0.
    9900012    2    3    3    0    0 -0.24390351451E+02  0.27211297817E+02 -0.45204376464E+01  0.54367104719E+02  0.40000046827E+02 0.  0.
         12    1    3    3    0    0  0.24390351451E+02 -0.27211297817E+02  0.45204376464E+01  0.36820895281E+02  0.00000000000E+00 0. -1.
         11    1    4    4    0    0 -0.10152153441E+02 -0.52400181849E+01  0.13871039022E+01  0.11508608411E+02  0.51100000000E-03 0. -1.
        -11    1    4    4    0    0 -0.57679808636E+01  0.33199777158E+02 -0.28309572409E+01  0.33815811771E+02  0.51100000000E-03 0.  1.
        -12    1    4    4    0    0 -0.84702171472E+01 -0.74846115616E+00 -0.30765843077E+01  0.90426845364E+01  0.00000000000E+00 0.  1.
</event>
<event>
 8    1  0.1261983E-006  0.9118800E+02  0.7816164E-02  0.1184000E+00
        -11   -1    0    0    0    0  0.00000000000E+00  0.00000000000E+00  0.45593999997E+02  0.45594000000E+02  0.51100000000E-03 0. -1.
         11   -1    0    0    0    0 -0.00000000000E+00 -0.00000000000E+00 -0.45593999997E+02  0.45594000000E+02  0.51100000000E-03 0.  1.
         23    2    1    2    0    0  0.44408920985E-15 -0.71054273576E-14 -0.13877787808E-16  0.91188000000E+02  0.91188000000E+02 0.  0.
    9900012    2    3    3    0    0 -0.37803591133E+01  0.36626269280E+02 -0.70635778476E-01  0.54367086027E+02  0.40000004215E+02 0.  0.
         12    1    3    3    0    0  0.37803591133E+01 -0.36626269280E+02  0.70635778476E-01  0.36820913973E+02  0.00000000000E+00 0. -1.
         11    1    4    4    0    0 -0.29608502308E+01  0.16756588773E+02  0.12951190141E+02  0.21384181718E+02  0.51100000000E-03 0. -1.
        -11    1    4    4    0    0  0.10577485668E+01  0.21001405861E+02 -0.17912735117E+02  0.27623250348E+02  0.51100000000E-03 0.  1.
         12    1    4    4    0    0 -0.18772574493E+01 -0.11317253537E+01  0.48909091973E+01  0.53596539611E+01  0.00000000000E+00 0. -1.
</event>
<event>
 8    1  0.1261983E-006  0.9118800E+02  0.7816164E-02  0.1184000E+00
        -11   -1    0    0    0    0  0.00000000000E+00  0.00000000000E+00  0.45593999997E+02  0.45594000000E+02  0.51100000000E-03 0. -1.
         11   -1    0    0    0    0 -0.00000000000E+00 -0.00000000000E+00 -0.45593999997E+02  0.45594000000E+02  0.51100000000E-03 0.  1.
         23    2    1    2    0    0 -0.17763568394E-14  0.00000000000E+00  0.00000000000E+00  0.91188000000E+02  0.91188000000E+02 0.  0.
    9900012    2    3    3    0    0  0.51474705951E+01 -0.19689430269E+02  0.30685861073E+02  0.54366916533E+02  0.39999617819E+02 0.  0.
        -12    1    3    3    0    0 -0.51474705951E+01  0.19689430269E+02 -0.30685861073E+02  0.36821083467E+02  0.00000000000E+00 0.  1.
         11    1    4    4    0    0 -0.62637469878E+01 -0.23115809557E+02  0.24508785670E+02  0.34267415325E+02  0.51100000000E-03 0. -1.
        -11    1    4    4    0    0 -0.14023924169E+01  0.58126177143E+01  0.94014790696E+00  0.60528594508E+01  0.51100000000E-03 0.  1.
         12    1    4    4    0    0  0.12813610000E+02 -0.23862384267E+01  0.52369274962E+01  0.14046641757E+02  0.00000000000E+00 0. -1.
</event>
<event>
 8    1  0.1261983E-006  0.9118800E+02  0.7816164E-02  0.1184000E+00
        -11   -1    0    0    0    0  0.00000000000E+00  0.00000000000E+00  0.45593999997E+02  0.45594000000E+02  0.51100000000E-03 0.  1.
         11   -1    0    0    0    0 -0.00000000000E+00 -0.00000000000E+00 -0.45593999997E+02  0.45594000000E+02  0.51100000000E-03 0. -1.
         23    2    1    2    0    0  0.00000000000E+00 -0.88817841970E-15  0.00000000000E+00  0.91188000000E+02  0.91188000000E+02 0.  0.
    9900012    2    3    3    0    0  0.22448971978E+02  0.50782834178E+01  0.28740812916E+02  0.54367087023E+02  0.40000006487E+02 0.  0.
         12    1    3    3    0    0 -0.22448971978E+02 -0.50782834178E+01 -0.28740812916E+02  0.36820912977E+02  0.00000000000E+00 0. -1.
         11    1    4    4    0    0  0.13293984246E+02  0.10345687132E+02  0.30166125415E+01  0.17113246649E+02  0.51100000000E-03 0. -1.
        -11    1    4    4    0    0  0.11624646826E+02 -0.39408671107E+01  0.93871726085E+00  0.12310322407E+02  0.51100000000E-03 0.  1.
         12    1    4    4    0    0 -0.24696590943E+01 -0.13265366036E+01  0.24785483114E+02  0.24943517968E+02  0.00000000000E+00 0. -1.
</event>
<event>
 8    1  0.1261983E-006  0.9118800E+02  0.7816164E-02  0.1184000E+00
        -11   -1    0    0    0    0  0.00000000000E+00  0.00000000000E+00  0.45593999997E+02  0.45594000000E+02  0.51100000000E-03 0.  1.
         11   -1    0    0    0    0 -0.00000000000E+00 -0.00000000000E+00 -0.45593999997E+02  0.45594000000E+02  0.51100000000E-03 0. -1.
         23    2    1    2    0    0  0.17763568394E-14  0.00000000000E+00  0.00000000000E+00  0.91188000000E+02  0.91188000000E+02 0.  0.
    9900012    2    3    3    0    0  0.78576068645E+01 -0.17631620562E+02  0.31355441405E+02  0.54367085630E+02  0.40000003312E+02 0.  0.
         12    1    3    3    0    0 -0.78576068645E+01  0.17631620562E+02 -0.31355441405E+02  0.36820914370E+02  0.00000000000E+00 0. -1.
         11    1    4    4    0    0  0.56784316369E+01 -0.12954257458E+02  0.63537020326E+01  0.15505705463E+02  0.51100000000E-03 0.  1.
        -11    1    4    4    0    0 -0.10315887024E+02 -0.28256885286E+01  0.23897226515E+02  0.26181662975E+02  0.51100000000E-03 0. -1.
        -12    1    4    4    0    0  0.12495062252E+02 -0.18516745761E+01  0.11045128574E+01  0.12679717192E+02  0.00000000000E+00 0.  1.
</event>
<event>
 8    1  0.1261983E-006  0.9118800E+02  0.7816164E-02  0.1184000E+00
        -11   -1    0    0    0    0  0.00000000000E+00  0.00000000000E+00  0.45593999997E+02  0.45594000000E+02  0.51100000000E-03 0.  1.
         11   -1    0    0    0    0 -0.00000000000E+00 -0.00000000000E+00 -0.45593999997E+02  0.45594000000E+02  0.51100000000E-03 0. -1.
         23    2    1    2    0    0  0.00000000000E+00  0.00000000000E+00  0.00000000000E+00  0.91188000000E+02  0.91188000000E+02 0.  0.
    9900012    2    3    3    0    0  0.16205678636E+02  0.21743994333E+02 -0.24906940629E+02  0.54367068438E+02  0.39999964117E+02 0.  0.
        -12    1    3    3    0    0 -0.16205678636E+02 -0.21743994333E+02  0.24906940629E+02  0.36820931562E+02  0.00000000000E+00 0.  1.
         11    1    4    4    0    0  0.22048615622E+02  0.12244019492E+02 -0.65957156510E+01  0.26068389467E+02  0.51100000000E-03 0. -1.
        -11    1    4    4    0    0 -0.11409272879E+01  0.14463992142E+02 -0.14299863941E+02  0.20371423434E+02  0.51100000000E-03 0.  1.
        -12    1    4    4    0    0 -0.47020096989E+01 -0.49640173004E+01 -0.40113610374E+01  0.79272555364E+01  0.00000000000E+00 0.  1.
</event>
<event>
 8    1  0.1261983E-006  0.9118800E+02  0.7816164E-02  0.1184000E+00
        -11   -1    0    0    0    0  0.00000000000E+00  0.00000000000E+00  0.45593999997E+02  0.45594000000E+02  0.51100000000E-03 0.  1.
         11   -1    0    0    0    0 -0.00000000000E+00 -0.00000000000E+00 -0.45593999997E+02  0.45594000000E+02  0.51100000000E-03 0. -1.
         23    2    1    2    0    0  0.00000000000E+00 -0.17763568394E-14  0.00000000000E+00  0.91188000000E+02  0.91188000000E+02 0.  0.
    9900012    2    3    3    0    0  0.13414942812E+02 -0.13925787600E+02 -0.31335163184E+02  0.54367072490E+02  0.39999973356E+02 0.  0.
        -12    1    3    3    0    0 -0.13414942812E+02  0.13925787600E+02  0.31335163184E+02  0.36820927510E+02  0.00000000000E+00 0.  1.
         11    1    4    4    0    0 -0.70166945896E+01 -0.97267796981E+01 -0.29640322558E+02  0.31974880263E+02  0.51100000000E-03 0. -1.
        -11    1    4    4    0    0  0.15018877328E+02 -0.54281017170E+01  0.14107818814E+01  0.16031882928E+02  0.51100000000E-03 0.  1.
         12    1    4    4    0    0  0.54127600732E+01  0.12290938153E+01 -0.31056225075E+01  0.63603092988E+01  0.00000000000E+00 0. -1.
</event>
<event>
 8    1  0.1261983E-006  0.9118800E+02  0.7816164E-02  0.1184000E+00
        -11   -1    0    0    0    0  0.00000000000E+00  0.00000000000E+00  0.45593999997E+02  0.45594000000E+02  0.51100000000E-03 0.  1.
         11   -1    0    0    0    0 -0.00000000000E+00 -0.00000000000E+00 -0.45593999997E+02  0.45594000000E+02  0.51100000000E-03 0. -1.
         23    2    1    2    0    0  0.00000000000E+00 -0.17763568394E-14  0.00000000000E+00  0.91188000000E+02  0.91188000000E+02 0.  0.
    9900012    2    3    3    0    0  0.26060168080E+02 -0.81057823543E+01 -0.24717273708E+02  0.54367086276E+02  0.40000004783E+02 0.  0.
        -12    1    3    3    0    0 -0.26060168080E+02  0.81057823543E+01  0.24717273708E+02  0.36820913724E+02  0.00000000000E+00 0.  1.
         11    1    4    4    0    0  0.15357589145E+02 -0.21822691208E+02 -0.20319306748E+02  0.33540417750E+02  0.51100000000E-03 0. -1.
        -11    1    4    4    0    0  0.11477048563E+02  0.14878480342E+02 -0.33642210020E+01  0.19089520796E+02  0.51100000000E-03 0.  1.
        -12    1    4    4    0    0 -0.77446962840E+00 -0.11615714885E+01 -0.10337459580E+01  0.17371477295E+01  0.00000000000E+00 0.  1.
</event>
<event>
 8    1  0.1261983E-006  0.9118800E+02  0.7816164E-02  0.1184000E+00
        -11   -1    0    0    0    0  0.00000000000E+00  0.00000000000E+00  0.45593999997E+02  0.45594000000E+02  0.51100000000E-03 0. -1.
         11   -1    0    0    0    0 -0.00000000000E+00 -0.00000000000E+00 -0.45593999997E+02  0.45594000000E+02  0.51100000000E-03 0.  1.
         23    2    1    2    0    0  0.00000000000E+00 -0.17763568394E-14  0.35527136788E-14  0.91188000000E+02  0.91188000000E+02 0.  0.
    9900012    2    3    3    0    0  0.29556363973E+02 -0.12824268916E+02 -0.17825230682E+02  0.54367090541E+02  0.40000014506E+02 0.  0.
        -12    1    3    3    0    0 -0.29556363973E+02  0.12824268916E+02  0.17825230682E+02  0.36820909459E+02  0.00000000000E+00 0.  1.
         11    1    4    4    0    0  0.62680198798E+01  0.25455995829E+01  0.89207854907E+01  0.11195917313E+02  0.51100000000E-03 0. -1.
        -11    1    4    4    0    0  0.23666087748E+02 -0.98155193396E+01 -0.27462379322E+02  0.37558093768E+02  0.51100000000E-03 0.  1.
         12    1    4    4    0    0 -0.37774365528E+00 -0.55543491598E+01  0.71636314914E+00  0.56130794595E+01  0.00000000000E+00 0. -1.
</event>
<event>
 8    1  0.1261983E-006  0.9118800E+02  0.7816164E-02  0.1184000E+00
        -11   -1    0    0    0    0  0.00000000000E+00  0.00000000000E+00  0.45593999997E+02  0.45594000000E+02  0.51100000000E-03 0.  1.
         11   -1    0    0    0    0 -0.00000000000E+00 -0.00000000000E+00 -0.45593999997E+02  0.45594000000E+02  0.51100000000E-03 0. -1.
         23    2    1    2    0    0  0.00000000000E+00 -0.35527136788E-14  0.00000000000E+00  0.91188000000E+02  0.91188000000E+02 0.  0.
    9900012    2    3    3    0    0  0.93218382529E+01  0.19858752732E+02  0.29572219083E+02  0.54367043059E+02  0.39999906263E+02 0.  0.
         12    1    3    3    0    0 -0.93218382529E+01 -0.19858752732E+02 -0.29572219083E+02  0.36820956941E+02  0.00000000000E+00 0. -1.
         11    1    4    4    0    0  0.11028947873E+02 -0.48478481120E+00  0.10177073727E+02  0.15014843902E+02  0.51100000000E-03 0. -1.
        -11    1    4    4    0    0 -0.43460023871E+01  0.26210189337E+02  0.19437429485E+02  0.32919225797E+02  0.51100000000E-03 0.  1.
         12    1    4    4    0    0  0.26388927669E+01 -0.58666517934E+01 -0.42284129330E-01  0.64329733599E+01  0.00000000000E+00 0. -1.
</event>
<event>
 8    1  0.1261983E-006  0.9118800E+02  0.7816164E-02  0.1184000E+00
        -11   -1    0    0    0    0  0.00000000000E+00  0.00000000000E+00  0.45593999997E+02  0.45594000000E+02  0.51100000000E-03 0.  1.
         11   -1    0    0    0    0 -0.00000000000E+00 -0.00000000000E+00 -0.45593999997E+02  0.45594000000E+02  0.51100000000E-03 0. -1.
         23    2    1    2    0    0 -0.35527136788E-14  0.00000000000E+00  0.00000000000E+00  0.91188000000E+02  0.91188000000E+02 0.  0.
    9900012    2    3    3    0    0  0.14494579170E+02 -0.14620471207E+02  0.30527511871E+02  0.54367082240E+02  0.39999995584E+02 0.  0.
         12    1    3    3    0    0 -0.14494579170E+02  0.14620471207E+02 -0.30527511871E+02  0.36820917760E+02  0.00000000000E+00 0. -1.
         11    1    4    4    0    0  0.10946298633E+02 -0.22213929405E+01 -0.74769296527E+01  0.13441001363E+02  0.51100000000E-03 0. -1.
        -11    1    4    4    0    0  0.49105981012E+01 -0.87326682043E+01  0.33472477718E+02  0.34939665604E+02  0.51100000000E-03 0.  1.
         12    1    4    4    0    0 -0.13623175638E+01 -0.36664100622E+01  0.45319638054E+01  0.59864152732E+01  0.00000000000E+00 0. -1.
</event>
<event>
 8    1  0.1261983E-006  0.9118800E+02  0.7816164E-02  0.1184000E+00
        -11   -1    0    0    0    0  0.00000000000E+00  0.00000000000E+00  0.45593999997E+02  0.45594000000E+02  0.51100000000E-03 0.  1.
         11   -1    0    0    0    0 -0.00000000000E+00 -0.00000000000E+00 -0.45593999997E+02  0.45594000000E+02  0.51100000000E-03 0. -1.
         23    2    1    2    0    0  0.00000000000E+00  0.00000000000E+00  0.00000000000E+00  0.91188000000E+02  0.91188000000E+02 0.  0.
    9900012    2    3    3    0    0 -0.23664937262E+02 -0.15410497336E+02 -0.23627682497E+02  0.54367081164E+02  0.39999993130E+02 0.  0.
        -12    1    3    3    0    0  0.23664937262E+02  0.15410497336E+02  0.23627682497E+02  0.36820918836E+02  0.00000000000E+00 0.  1.
         11    1    4    4    0    0 -0.98429868066E+01 -0.14458145259E+02 -0.11153957467E+02  0.20744472060E+02  0.51100000000E-03 0. -1.
        -11    1    4    4    0    0 -0.71535088874E+01 -0.74977370756E+01 -0.19398090069E+02  0.21992604421E+02  0.51100000000E-03 0.  1.
        -12    1    4    4    0    0 -0.66684415679E+01  0.65453849989E+01  0.69243650394E+01  0.11630004683E+02  0.00000000000E+00 0.  1.
</event>
<event>
 8    1  0.1261983E-006  0.9118800E+02  0.7816164E-02  0.1184000E+00
        -11   -1    0    0    0    0  0.00000000000E+00  0.00000000000E+00  0.45593999997E+02  0.45594000000E+02  0.51100000000E-03 0.  1.
         11   -1    0    0    0    0 -0.00000000000E+00 -0.00000000000E+00 -0.45593999997E+02  0.45594000000E+02  0.51100000000E-03 0. -1.
         23    2    1    2    0    0  0.00000000000E+00 -0.71054273576E-14  0.00000000000E+00  0.91188000000E+02  0.91188000000E+02 0.  0.
    9900012    2    3    3    0    0 -0.26115534562E+02 -0.25176088410E+02  0.63185359437E+01  0.54367075656E+02  0.39999980574E+02 0.  0.
        -12    1    3    3    0    0  0.26115534562E+02  0.25176088410E+02 -0.63185359437E+01  0.36820924344E+02  0.00000000000E+00 0.  1.
         11    1    4    4    0    0  0.73815765406E-01 -0.14168886737E+02 -0.14988940175E+01  0.14248139656E+02  0.51100000000E-03 0.  1.
        -11    1    4    4    0    0 -0.13347342954E+02  0.83117722451E+01  0.27651997559E+00  0.15726206960E+02  0.51100000000E-03 0. -1.
        -12    1    4    4    0    0 -0.12842007373E+02 -0.19318973918E+02  0.75409099856E+01  0.24392729040E+02  0.00000000000E+00 0.  1.
</event>
<event>
 8    1  0.1261983E-006  0.9118800E+02  0.7816164E-02  0.1184000E+00
        -11   -1    0    0    0    0  0.00000000000E+00  0.00000000000E+00  0.45593999997E+02  0.45594000000E+02  0.51100000000E-03 0.  1.
         11   -1    0    0    0    0 -0.00000000000E+00 -0.00000000000E+00 -0.45593999997E+02  0.45594000000E+02  0.51100000000E-03 0. -1.
         23    2    1    2    0    0 -0.17763568394E-14  0.00000000000E+00  0.00000000000E+00  0.91188000000E+02  0.91188000000E+02 0.  0.
    9900012    2    3    3    0    0  0.60402035711E+01  0.21448608507E+02 -0.29313015085E+02  0.54367085842E+02  0.40000003793E+02 0.  0.
        -12    1    3    3    0    0 -0.60402035711E+01 -0.21448608507E+02  0.29313015085E+02  0.36820914158E+02  0.00000000000E+00 0.  1.
         11    1    4    4    0    0 -0.11043634346E+02  0.94253815941E+01 -0.71583494928E+01  0.16187700439E+02  0.51100000000E-03 0. -1.
        -11    1    4    4    0    0  0.33718844754E+01  0.13462545181E+02 -0.23925528894E+01  0.14083111775E+02  0.51100000000E-03 0.  1.
         12    1    4    4    0    0  0.13711953442E+02 -0.14393182682E+01 -0.19762112703E+02  0.24096273628E+02  0.00000000000E+00 0. -1.
</event>
<event>
 8    1  0.1261983E-006  0.9118800E+02  0.7816164E-02  0.1184000E+00
        -11   -1    0    0    0    0  0.00000000000E+00  0.00000000000E+00  0.45593999997E+02  0.45594000000E+02  0.51100000000E-03 0.  1.
         11   -1    0    0    0    0 -0.00000000000E+00 -0.00000000000E+00 -0.45593999997E+02  0.45594000000E+02  0.51100000000E-03 0. -1.
         23    2    1    2    0    0  0.00000000000E+00  0.17763568394E-14  0.00000000000E+00  0.91188000000E+02  0.91188000000E+02 0.  0.
    9900012    2    3    3    0    0  0.49495064142E+01 -0.13107071138E+02  0.34051227792E+02  0.54367095046E+02  0.40000024776E+02 0.  0.
         12    1    3    3    0    0 -0.49495064142E+01  0.13107071138E+02 -0.34051227792E+02  0.36820904954E+02  0.00000000000E+00 0. -1.
         11    1    4    4    0    0 -0.18422310587E+01  0.10298180485E+02  0.12671225213E+01  0.10538118253E+02  0.51100000000E-03 0.  1.
        -11    1    4    4    0    0  0.85003664248E+01 -0.22928437679E+02  0.21979118885E+02  0.32879342314E+02  0.51100000000E-03 0. -1.
        -12    1    4    4    0    0 -0.17086289519E+01 -0.47681394277E+00  0.10804986385E+02  0.10949634479E+02  0.00000000000E+00 0.  1.
</event>
<event>
 8    1  0.1261983E-006  0.9118800E+02  0.7816164E-02  0.1184000E+00
        -11   -1    0    0    0    0  0.00000000000E+00  0.00000000000E+00  0.45593999997E+02  0.45594000000E+02  0.51100000000E-03 0.  1.
         11   -1    0    0    0    0 -0.00000000000E+00 -0.00000000000E+00 -0.45593999997E+02  0.45594000000E+02  0.51100000000E-03 0. -1.
         23    2    1    2    0    0  0.00000000000E+00 -0.71054273576E-14 -0.17763568394E-14  0.91188000000E+02  0.91188000000E+02 0.  0.
    9900012    2    3    3    0    0 -0.72487481442E+01  0.33391651209E+02  0.13719762160E+02  0.54367101127E+02  0.40000038638E+02 0.  0.
         12    1    3    3    0    0  0.72487481442E+01 -0.33391651209E+02 -0.13719762160E+02  0.36820898873E+02  0.00000000000E+00 0. -1.
         11    1    4    4    0    0  0.12040254726E+01  0.12948472322E+02  0.14963989984E+02  0.19825075266E+02  0.51100000000E-03 0. -1.
        -11    1    4    4    0    0 -0.23662438422E+01  0.20511924838E+02  0.90806102141E+01  0.22556499121E+02  0.51100000000E-03 0.  1.
         12    1    4    4    0    0 -0.60865297746E+01 -0.68745950916E-01 -0.10324838038E+02  0.11985526739E+02  0.00000000000E+00 0. -1.
</event>
<event>
 8    1  0.1261983E-006  0.9118800E+02  0.7816164E-02  0.1184000E+00
        -11   -1    0    0    0    0  0.00000000000E+00  0.00000000000E+00  0.45593999997E+02  0.45594000000E+02  0.51100000000E-03 0. -1.
         11   -1    0    0    0    0 -0.00000000000E+00 -0.00000000000E+00 -0.45593999997E+02  0.45594000000E+02  0.51100000000E-03 0.  1.
         23    2    1    2    0    0  0.35527136788E-14 -0.17763568394E-14 -0.35527136788E-14  0.91188000000E+02  0.91188000000E+02 0.  0.
    9900012    2    3    3    0    0  0.27500596145E+02 -0.80259238452E+01 -0.23131860481E+02  0.54367065584E+02  0.39999957613E+02 0.  0.
         12    1    3    3    0    0 -0.27500596145E+02  0.80259238452E+01  0.23131860481E+02  0.36820934416E+02  0.00000000000E+00 0. -1.
         11    1    4    4    0    0  0.12796744274E+02 -0.13041221390E+02 -0.12922743559E+02  0.22379173817E+02  0.51100000000E-03 0. -1.
        -11    1    4    4    0    0  0.78769148833E+01 -0.10091047973E+02 -0.57485186397E+00  0.12814269086E+02  0.51100000000E-03 0.  1.
         12    1    4    4    0    0  0.68269369879E+01  0.15106345518E+02 -0.96342650581E+01  0.19173622682E+02  0.00000000000E+00 0. -1.
</event>
<event>
 8    1  0.1261983E-006  0.9118800E+02  0.7816164E-02  0.1184000E+00
        -11   -1    0    0    0    0  0.00000000000E+00  0.00000000000E+00  0.45593999997E+02  0.45594000000E+02  0.51100000000E-03 0. -1.
         11   -1    0    0    0    0 -0.00000000000E+00 -0.00000000000E+00 -0.45593999997E+02  0.45594000000E+02  0.51100000000E-03 0.  1.
         23    2    1    2    0    0  0.00000000000E+00  0.00000000000E+00  0.00000000000E+00  0.91188000000E+02  0.91188000000E+02 0.  0.
    9900012    2    3    3    0    0  0.33997280965E+02 -0.30647712732E+01  0.13804729251E+02  0.54367102595E+02  0.40000041987E+02 0.  0.
        -12    1    3    3    0    0 -0.33997280965E+02  0.30647712732E+01 -0.13804729251E+02  0.36820897405E+02  0.00000000000E+00 0.  1.
         11    1    4    4    0    0  0.14770950647E+02 -0.17835364906E+02  0.12405407388E+02  0.26271188726E+02  0.51100000000E-03 0. -1.
        -11    1    4    4    0    0  0.14078574769E+02  0.57168999691E+01 -0.48496695018E+01  0.15950188316E+02  0.51100000000E-03 0.  1.
        -12    1    4    4    0    0  0.51477555490E+01  0.90536936633E+01  0.62489913647E+01  0.12145725553E+02  0.00000000000E+00 0.  1.
</event>
<event>
 8    1  0.1261983E-006  0.9118800E+02  0.7816164E-02  0.1184000E+00
        -11   -1    0    0    0    0  0.00000000000E+00  0.00000000000E+00  0.45593999997E+02  0.45594000000E+02  0.51100000000E-03 0.  1.
         11   -1    0    0    0    0 -0.00000000000E+00 -0.00000000000E+00 -0.45593999997E+02  0.45594000000E+02  0.51100000000E-03 0. -1.
         23    2    1    2    0    0 -0.35527136788E-14  0.00000000000E+00 -0.17763568394E-14  0.91188000000E+02  0.91188000000E+02 0.  0.
    9900012    2    3    3    0    0  0.29552913207E+02  0.17308797323E+02  0.13520722443E+02  0.54367094536E+02  0.40000023613E+02 0.  0.
         12    1    3    3    0    0 -0.29552913207E+02 -0.17308797323E+02 -0.13520722443E+02  0.36820905464E+02  0.00000000000E+00 0. -1.
         11    1    4    4    0    0  0.16859865181E+02  0.19690284984E+02  0.18353142410E+02  0.31761615407E+02  0.51100000000E-03 0.  1.
        -11    1    4    4    0    0 -0.85240290497E+00 -0.43416917970E+00  0.54215689825E+01  0.55053159839E+01  0.51100000000E-03 0. -1.
         12    1    4    4    0    0  0.13545450931E+02 -0.19473184814E+01 -0.10253988950E+02  0.17100163145E+02  0.00000000000E+00 0. -1.
</event>
<event>
 8    1  0.1261983E-006  0.9118800E+02  0.7816164E-02  0.1184000E+00
        -11   -1    0    0    0    0  0.00000000000E+00  0.00000000000E+00  0.45593999997E+02  0.45594000000E+02  0.51100000000E-03 0.  1.
         11   -1    0    0    0    0 -0.00000000000E+00 -0.00000000000E+00 -0.45593999997E+02  0.45594000000E+02  0.51100000000E-03 0. -1.
         23    2    1    2    0    0  0.00000000000E+00  0.17763568394E-14 -0.35527136788E-14  0.91188000000E+02  0.91188000000E+02 0.  0.
    9900012    2    3    3    0    0 -0.23910878495E+02  0.15415692125E+02  0.23375338602E+02  0.54367080283E+02  0.39999991120E+02 0.  0.
         12    1    3    3    0    0  0.23910878495E+02 -0.15415692125E+02 -0.23375338602E+02  0.36820919717E+02  0.00000000000E+00 0. -1.
         11    1    4    4    0    0 -0.21507877385E+02 -0.75077573290E+00  0.16517652050E+02  0.27129048699E+02  0.51100000000E-03 0. -1.
        -11    1    4    4    0    0 -0.76941161756E+00 -0.38414608812E+01  0.59740392397E+01  0.71440857384E+01  0.51100000000E-03 0.  1.
         12    1    4    4    0    0 -0.16335894923E+01  0.20007928739E+02  0.88364731232E+00  0.20093945845E+02  0.00000000000E+00 0. -1.
</event>
<event>
 8    1  0.1261983E-006  0.9118800E+02  0.7816164E-02  0.1184000E+00
        -11   -1    0    0    0    0  0.00000000000E+00  0.00000000000E+00  0.45593999997E+02  0.45594000000E+02  0.51100000000E-03 0.  1.
         11   -1    0    0    0    0 -0.00000000000E+00 -0.00000000000E+00 -0.45593999997E+02  0.45594000000E+02  0.51100000000E-03 0. -1.
         23    2    1    2    0    0  0.35527136788E-14  0.00000000000E+00  0.00000000000E+00  0.91188000000E+02  0.91188000000E+02 0.  0.
    9900012    2    3    3    0    0  0.12571813069E+02  0.32268273956E+02  0.12509283458E+02  0.54367161327E+02  0.40000175877E+02 0.  0.
         12    1    3    3    0    0 -0.12571813069E+02 -0.32268273956E+02 -0.12509283458E+02  0.36820838673E+02  0.00000000000E+00 0. -1.
         11    1    4    4    0    0 -0.22295429053E+01 -0.82322645717E+01 -0.14348358146E+00  0.85300427516E+01  0.51100000000E-03 0. -1.
        -11    1    4    4    0    0  0.13035912199E+02  0.23144750030E+02  0.65939376936E+01  0.27369590340E+02  0.51100000000E-03 0.  1.
         12    1    4    4    0    0  0.17654437761E+01  0.17355788498E+02  0.60588293454E+01  0.18467528236E+02  0.00000000000E+00 0. -1.
</event>
<event>
 8    1  0.1261983E-006  0.9118800E+02  0.7816164E-02  0.1184000E+00
        -11   -1    0    0    0    0  0.00000000000E+00  0.00000000000E+00  0.45593999997E+02  0.45594000000E+02  0.51100000000E-03 0.  1.
         11   -1    0    0    0    0 -0.00000000000E+00 -0.00000000000E+00 -0.45593999997E+02  0.45594000000E+02  0.51100000000E-03 0. -1.
         23    2    1    2    0    0  0.17763568394E-14  0.00000000000E+00  0.00000000000E+00  0.91188000000E+02  0.91188000000E+02 0.  0.
    9900012    2    3    3    0    0  0.51630762554E+01  0.19116535645E+02  0.31043223604E+02  0.54367068138E+02  0.39999963434E+02 0.  0.
         12    1    3    3    0    0 -0.51630762554E+01 -0.19116535645E+02 -0.31043223604E+02  0.36820931862E+02  0.00000000000E+00 0. -1.
         11    1    4    4    0    0  0.36624144602E+01  0.13759990918E+02  0.79758681297E+01  0.16320695525E+02  0.51100000000E-03 0. -1.
        -11    1    4    4    0    0 -0.27368972635E+01  0.16742559972E+02  0.18411688595E+02  0.25035858248E+02  0.51100000000E-03 0.  1.
        -12    1    4    4    0    0  0.42375590588E+01 -0.11386015245E+02  0.46556668795E+01  0.13010514365E+02  0.00000000000E+00 0.  1.
</event>
<event>
 8    1  0.1261983E-006  0.9118800E+02  0.7816164E-02  0.1184000E+00
        -11   -1    0    0    0    0  0.00000000000E+00  0.00000000000E+00  0.45593999997E+02  0.45594000000E+02  0.51100000000E-03 0. -1.
         11   -1    0    0    0    0 -0.00000000000E+00 -0.00000000000E+00 -0.45593999997E+02  0.45594000000E+02  0.51100000000E-03 0.  1.
         23    2    1    2    0    0  0.88817841970E-15  0.00000000000E+00  0.00000000000E+00  0.91188000000E+02  0.91188000000E+02 0.  0.
    9900012    2    3    3    0    0  0.56002983368E+01 -0.15908708543E+02  0.32731150135E+02  0.54367101883E+02  0.40000040362E+02 0.  0.
        -12    1    3    3    0    0 -0.56002983368E+01  0.15908708543E+02 -0.32731150135E+02  0.36820898117E+02  0.00000000000E+00 0.  1.
         11    1    4    4    0    0 -0.16285230925E+01 -0.13434618165E+02  0.14942081678E+02  0.20159535159E+02  0.51100000000E-03 0. -1.
        -11    1    4    4    0    0 -0.48210444581E+01  0.10361210709E+02  0.51471600436E+01  0.12533571470E+02  0.51100000000E-03 0.  1.
         12    1    4    4    0    0  0.12049865887E+02 -0.12835301087E+02  0.12641908414E+02  0.21673995253E+02  0.00000000000E+00 0. -1.
</event>
<event>
 8    1  0.1261983E-006  0.9118800E+02  0.7816164E-02  0.1184000E+00
        -11   -1    0    0    0    0  0.00000000000E+00  0.00000000000E+00  0.45593999997E+02  0.45594000000E+02  0.51100000000E-03 0. -1.
         11   -1    0    0    0    0 -0.00000000000E+00 -0.00000000000E+00 -0.45593999997E+02  0.45594000000E+02  0.51100000000E-03 0.  1.
         23    2    1    2    0    0  0.00000000000E+00  0.00000000000E+00  0.00000000000E+00  0.91188000000E+02  0.91188000000E+02 0.  0.
    9900012    2    3    3    0    0 -0.23298397219E+02  0.10957791796E+02 -0.26322815256E+02  0.54367094022E+02  0.40000022442E+02 0.  0.
         12    1    3    3    0    0  0.23298397219E+02 -0.10957791796E+02  0.26322815256E+02  0.36820905978E+02  0.00000000000E+00 0. -1.
         11    1    4    4    0    0 -0.11543700257E+02  0.14084057291E+02  0.13172579522E+01  0.18257953176E+02  0.51100000000E-03 0. -1.
        -11    1    4    4    0    0 -0.13464663823E+02 -0.93821501143E+01 -0.16857969056E+02  0.23526857708E+02  0.51100000000E-03 0.  1.
        -12    1    4    4    0    0  0.17099668607E+01  0.62558846194E+01 -0.10782104152E+02  0.12582283139E+02  0.00000000000E+00 0.  1.
</event>
<event>
 8    1  0.1261983E-006  0.9118800E+02  0.7816164E-02  0.1184000E+00
        -11   -1    0    0    0    0  0.00000000000E+00  0.00000000000E+00  0.45593999997E+02  0.45594000000E+02  0.51100000000E-03 0.  1.
         11   -1    0    0    0    0 -0.00000000000E+00 -0.00000000000E+00 -0.45593999997E+02  0.45594000000E+02  0.51100000000E-03 0. -1.
         23    2    1    2    0    0  0.00000000000E+00 -0.88817841970E-15 -0.71054273576E-14  0.91188000000E+02  0.91188000000E+02 0.  0.
    9900012    2    3    3    0    0  0.12796560072E+02  0.66189313249E+01  0.33885360103E+02  0.54367084329E+02  0.40000000344E+02 0.  0.
         12    1    3    3    0    0 -0.12796560072E+02 -0.66189313249E+01 -0.33885360103E+02  0.36820915671E+02  0.00000000000E+00 0. -1.
         11    1    4    4    0    0 -0.75783631968E+01  0.84138754399E+00  0.55458579605E+01  0.94284708474E+01  0.51100000000E-03 0. -1.
        -11    1    4    4    0    0  0.18584812582E+01  0.13082936964E+02  0.18498175913E+02  0.22733229083E+02  0.51100000000E-03 0.  1.
        -12    1    4    4    0    0  0.18516442011E+02 -0.73053931831E+01  0.98413262299E+01  0.22205384398E+02  0.00000000000E+00 0.  1.
</event>
<event>
 8    1  0.1261983E-006  0.9118800E+02  0.7816164E-02  0.1184000E+00
        -11   -1    0    0    0    0  0.00000000000E+00  0.00000000000E+00  0.45593999997E+02  0.45594000000E+02  0.51100000000E-03 0.  1.
         11   -1    0    0    0    0 -0.00000000000E+00 -0.00000000000E+00 -0.45593999997E+02  0.45594000000E+02  0.51100000000E-03 0. -1.
         23    2    1    2    0    0 -0.22204460493E-15  0.00000000000E+00  0.88817841970E-15  0.91188000000E+02  0.91188000000E+02 0.  0.
    9900012    2    3    3    0    0  0.18207330665E+01  0.36449661876E+02  0.48875254961E+01  0.54367070826E+02  0.39999969562E+02 0.  0.
        -12    1    3    3    0    0 -0.18207330665E+01 -0.36449661876E+02 -0.48875254961E+01  0.36820929174E+02  0.00000000000E+00 0.  1.
         11    1    4    4    0    0  0.95744531549E+01  0.35046127996E+02  0.11182156293E+01  0.36347649816E+02  0.51100000000E-03 0. -1.
        -11    1    4    4    0    0 -0.82479622125E+01  0.64688039294E+01  0.64091019291E+01  0.12286207419E+02  0.51100000000E-03 0.  1.
        -12    1    4    4    0    0  0.49424212412E+00 -0.50652700493E+01 -0.26397920623E+01  0.57332135912E+01  0.00000000000E+00 0.  1.
</event>
<event>
 8    1  0.1261983E-006  0.9118800E+02  0.7816164E-02  0.1184000E+00
        -11   -1    0    0    0    0  0.00000000000E+00  0.00000000000E+00  0.45593999997E+02  0.45594000000E+02  0.51100000000E-03 0. -1.
         11   -1    0    0    0    0 -0.00000000000E+00 -0.00000000000E+00 -0.45593999997E+02  0.45594000000E+02  0.51100000000E-03 0.  1.
         23    2    1    2    0    0 -0.35527136788E-14 -0.35527136788E-14 -0.88817841970E-15  0.91188000000E+02  0.91188000000E+02 0.  0.
    9900012    2    3    3    0    0 -0.28951957000E+02 -0.21478534267E+02 -0.74990905666E+01  0.54367087359E+02  0.40000007252E+02 0.  0.
         12    1    3    3    0    0  0.28951957000E+02  0.21478534267E+02  0.74990905666E+01  0.36820912641E+02  0.00000000000E+00 0. -1.
         11    1    4    4    0    0 -0.30337899429E+01 -0.11747184770E+02 -0.68682705305E+01  0.13941785100E+02  0.51100000000E-03 0. -1.
        -11    1    4    4    0    0 -0.98396814656E+01 -0.17129140539E+02 -0.79221569975E+01  0.21283499682E+02  0.51100000000E-03 0.  1.
         12    1    4    4    0    0 -0.16078485592E+02  0.73977910418E+01  0.72913369614E+01  0.19141802577E+02  0.00000000000E+00 0. -1.
</event>
<event>
 8    1  0.1261983E-006  0.9118800E+02  0.7816164E-02  0.1184000E+00
        -11   -1    0    0    0    0  0.00000000000E+00  0.00000000000E+00  0.45593999997E+02  0.45594000000E+02  0.51100000000E-03 0. -1.
         11   -1    0    0    0    0 -0.00000000000E+00 -0.00000000000E+00 -0.45593999997E+02  0.45594000000E+02  0.51100000000E-03 0.  1.
         23    2    1    2    0    0  0.00000000000E+00  0.00000000000E+00  0.22204460493E-15  0.91188000000E+02  0.91188000000E+02 0.  0.
    9900012    2    3    3    0    0 -0.75484708791E+01 -0.36004330431E+02  0.15774318972E+01  0.54367088635E+02  0.40000010160E+02 0.  0.
        -12    1    3    3    0    0  0.75484708791E+01  0.36004330431E+02 -0.15774318972E+01  0.36820911365E+02  0.00000000000E+00 0.  1.
         11    1    4    4    0    0 -0.17997966478E+01 -0.17553717125E+02  0.41259729313E+00  0.17650566271E+02  0.51100000000E-03 0. -1.
        -11    1    4    4    0    0  0.11298385452E+02 -0.12821314739E+01  0.46262477342E+01  0.12275974230E+02  0.51100000000E-03 0.  1.
        -12    1    4    4    0    0 -0.17047059683E+02 -0.17168481832E+02 -0.34614131301E+01  0.24440548134E+02  0.00000000000E+00 0.  1.
</event>
<event>
 8    1  0.1261983E-006  0.9118800E+02  0.7816164E-02  0.1184000E+00
        -11   -1    0    0    0    0  0.00000000000E+00  0.00000000000E+00  0.45593999997E+02  0.45594000000E+02  0.51100000000E-03 0. -1.
         11   -1    0    0    0    0 -0.00000000000E+00 -0.00000000000E+00 -0.45593999997E+02  0.45594000000E+02  0.51100000000E-03 0.  1.
         23    2    1    2    0    0 -0.35527136788E-14 -0.35527136788E-14  0.00000000000E+00  0.91188000000E+02  0.91188000000E+02 0.  0.
    9900012    2    3    3    0    0  0.20423956125E+02  0.21166930988E+02 -0.22149588488E+02  0.54367065446E+02  0.39999957297E+02 0.  0.
         12    1    3    3    0    0 -0.20423956125E+02 -0.21166930988E+02  0.22149588488E+02  0.36820934554E+02  0.00000000000E+00 0. -1.
         11    1    4    4    0    0  0.60709451346E+01  0.19114345329E+02 -0.56596846701E+01  0.20838584477E+02  0.51100000000E-03 0. -1.
        -11    1    4    4    0    0  0.23227548538E+01  0.11641925988E+02 -0.13280207368E+02  0.17812735298E+02  0.51100000000E-03 0.  1.
         12    1    4    4    0    0  0.12030256137E+02 -0.95893403291E+01 -0.32096964498E+01  0.15715745670E+02  0.00000000000E+00 0. -1.
</event>
<event>
 8    1  0.1261983E-006  0.9118800E+02  0.7816164E-02  0.1184000E+00
        -11   -1    0    0    0    0  0.00000000000E+00  0.00000000000E+00  0.45593999997E+02  0.45594000000E+02  0.51100000000E-03 0.  1.
         11   -1    0    0    0    0 -0.00000000000E+00 -0.00000000000E+00 -0.45593999997E+02  0.45594000000E+02  0.51100000000E-03 0. -1.
         23    2    1    2    0    0  0.00000000000E+00  0.00000000000E+00  0.35527136788E-14  0.91188000000E+02  0.91188000000E+02 0.  0.
    9900012    2    3    3    0    0 -0.19360401300E+02 -0.22858254510E+02 -0.21411574883E+02  0.54367075559E+02  0.39999980351E+02 0.  0.
        -12    1    3    3    0    0  0.19360401300E+02  0.22858254510E+02  0.21411574883E+02  0.36820924441E+02  0.00000000000E+00 0.  1.
         11    1    4    4    0    0  0.67628447471E+00  0.40030838037E+01 -0.91303623747E+01  0.99922749154E+01  0.51100000000E-03 0. -1.
        -11    1    4    4    0    0  0.27379211070E+01 -0.14167275295E+02  0.21268307597E+01  0.14585311468E+02  0.51100000000E-03 0.  1.
         12    1    4    4    0    0 -0.22774606882E+02 -0.12694063019E+02 -0.14408043268E+02  0.29789489176E+02  0.00000000000E+00 0. -1.
</event>
<event>
 8    1  0.1261983E-006  0.9118800E+02  0.7816164E-02  0.1184000E+00
        -11   -1    0    0    0    0  0.00000000000E+00  0.00000000000E+00  0.45593999997E+02  0.45594000000E+02  0.51100000000E-03 0.  1.
         11   -1    0    0    0    0 -0.00000000000E+00 -0.00000000000E+00 -0.45593999997E+02  0.45594000000E+02  0.51100000000E-03 0. -1.
         23    2    1    2    0    0 -0.35527136788E-14  0.00000000000E+00  0.00000000000E+00  0.91188000000E+02  0.91188000000E+02 0.  0.
    9900012    2    3    3    0    0  0.26636802946E+02  0.13953552481E+02 -0.21249984084E+02  0.54367045075E+02  0.39999910857E+02 0.  0.
        -12    1    3    3    0    0 -0.26636802946E+02 -0.13953552481E+02  0.21249984084E+02  0.36820954925E+02  0.00000000000E+00 0.  1.
         11    1    4    4    0    0 -0.19500081465E+01  0.16512349727E+01 -0.11417427816E+02  0.11699861832E+02  0.51100000000E-03 0. -1.
        -11    1    4    4    0    0  0.15617303569E+02  0.11863388044E+02  0.75151855554E+01  0.21002813165E+02  0.51100000000E-03 0.  1.
         12    1    4    4    0    0  0.12969507523E+02  0.43892946460E+00 -0.17347741824E+02  0.21664370078E+02  0.00000000000E+00 0. -1.
</event>
<event>
 8    1  0.1261983E-006  0.9118800E+02  0.7816164E-02  0.1184000E+00
        -11   -1    0    0    0    0  0.00000000000E+00  0.00000000000E+00  0.45593999997E+02  0.45594000000E+02  0.51100000000E-03 0.  1.
         11   -1    0    0    0    0 -0.00000000000E+00 -0.00000000000E+00 -0.45593999997E+02  0.45594000000E+02  0.51100000000E-03 0. -1.
         23    2    1    2    0    0  0.88817841970E-15 -0.53290705182E-14  0.71054273576E-14  0.91188000000E+02  0.91188000000E+02 0.  0.
    9900012    2    3    3    0    0  0.58645649133E+01 -0.12833134179E+02  0.34010258137E+02  0.54367080497E+02  0.39999991610E+02 0.  0.
         12    1    3    3    0    0 -0.58645649133E+01  0.12833134179E+02 -0.34010258137E+02  0.36820919503E+02  0.00000000000E+00 0. -1.
         11    1    4    4    0    0  0.84314889219E+00 -0.14614072052E+02  0.85451383717E+01  0.16949967317E+02  0.51100000000E-03 0. -1.
        -11    1    4    4    0    0 -0.89426673337E+01  0.23412211465E+01  0.10743556183E+01  0.93062804467E+01  0.51100000000E-03 0.  1.
        -12    1    4    4    0    0  0.13964083355E+02 -0.56028327284E+00  0.24390764147E+02  0.28110832733E+02  0.00000000000E+00 0.  1.
</event>
<event>
 8    1  0.1261983E-006  0.9118800E+02  0.7816164E-02  0.1184000E+00
        -11   -1    0    0    0    0  0.00000000000E+00  0.00000000000E+00  0.45593999997E+02  0.45594000000E+02  0.51100000000E-03 0.  1.
         11   -1    0    0    0    0 -0.00000000000E+00 -0.00000000000E+00 -0.45593999997E+02  0.45594000000E+02  0.51100000000E-03 0. -1.
         23    2    1    2    0    0  0.10658141036E-13 -0.88817841970E-15  0.00000000000E+00  0.91188000000E+02  0.91188000000E+02 0.  0.
    9900012    2    3    3    0    0  0.27218203440E+02 -0.53242778931E+01  0.24219851029E+02  0.54367085869E+02  0.40000003855E+02 0.  0.
         12    1    3    3    0    0 -0.27218203440E+02  0.53242778931E+01 -0.24219851029E+02  0.36820914131E+02  0.00000000000E+00 0. -1.
         11    1    4    4    0    0  0.48046253452E+01  0.37757090776E+01 -0.18899800016E+01  0.63962823901E+01  0.51100000000E-03 0. -1.
        -11    1    4    4    0    0 -0.59804299546E+01 -0.69248195398E+01  0.14653555319E+02  0.17275570956E+02  0.51100000000E-03 0.  1.
        -12    1    4    4    0    0  0.28394008049E+02 -0.21751674309E+01  0.11456275712E+02  0.30695232523E+02  0.00000000000E+00 0.  1.
</event>
<event>
 8    1  0.1261983E-006  0.9118800E+02  0.7816164E-02  0.1184000E+00
        -11   -1    0    0    0    0  0.00000000000E+00  0.00000000000E+00  0.45593999997E+02  0.45594000000E+02  0.51100000000E-03 0.  1.
         11   -1    0    0    0    0 -0.00000000000E+00 -0.00000000000E+00 -0.45593999997E+02  0.45594000000E+02  0.51100000000E-03 0. -1.
         23    2    1    2    0    0  0.00000000000E+00  0.00000000000E+00  0.00000000000E+00  0.91188000000E+02  0.91188000000E+02 0.  0.
    9900012    2    3    3    0    0  0.30548229323E+02  0.12962707824E+01  0.20515982464E+02  0.54367079735E+02  0.39999989872E+02 0.  0.
         12    1    3    3    0    0 -0.30548229323E+02 -0.12962707824E+01 -0.20515982464E+02  0.36820920265E+02  0.00000000000E+00 0. -1.
         11    1    4    4    0    0  0.36318172880E+01  0.89837866136E+01 -0.68818297434E+01  0.11885205072E+02  0.51100000000E-03 0. -1.
        -11    1    4    4    0    0  0.16847540904E+01  0.24263639603E+01 -0.10496694568E+01  0.31348755386E+01  0.51100000000E-03 0.  1.
        -12    1    4    4    0    0  0.25231657944E+02 -0.10113879792E+02  0.28447481664E+02  0.39346999124E+02  0.00000000000E+00 0.  1.
</event>
<event>
 8    1  0.1261983E-006  0.9118800E+02  0.7816164E-02  0.1184000E+00
        -11   -1    0    0    0    0  0.00000000000E+00  0.00000000000E+00  0.45593999997E+02  0.45594000000E+02  0.51100000000E-03 0.  1.
         11   -1    0    0    0    0 -0.00000000000E+00 -0.00000000000E+00 -0.45593999997E+02  0.45594000000E+02  0.51100000000E-03 0. -1.
         23    2    1    2    0    0 -0.22204460493E-15  0.00000000000E+00  0.00000000000E+00  0.91188000000E+02  0.91188000000E+02 0.  0.
    9900012    2    3    3    0    0  0.13139309756E+01  0.19256779066E+02  0.31356492407E+02  0.54367087862E+02  0.40000008399E+02 0.  0.
         12    1    3    3    0    0 -0.13139309756E+01 -0.19256779066E+02 -0.31356492407E+02  0.36820912138E+02  0.00000000000E+00 0. -1.
         11    1    4    4    0    0  0.45480119141E+01  0.25778139888E+02  0.29804768714E+02  0.39667633492E+02  0.51100000000E-03 0. -1.
        -11    1    4    4    0    0 -0.46031101174E+01  0.25914031749E+01  0.14735401848E+01  0.54840964712E+01  0.51100000000E-03 0.  1.
         12    1    4    4    0    0  0.13690291790E+01 -0.91127639967E+01  0.78183507863E-01  0.92153578994E+01  0.00000000000E+00 0. -1.
</event>
<event>
 8    1  0.1261983E-006  0.9118800E+02  0.7816164E-02  0.1184000E+00
        -11   -1    0    0    0    0  0.00000000000E+00  0.00000000000E+00  0.45593999997E+02  0.45594000000E+02  0.51100000000E-03 0.  1.
         11   -1    0    0    0    0 -0.00000000000E+00 -0.00000000000E+00 -0.45593999997E+02  0.45594000000E+02  0.51100000000E-03 0. -1.
         23    2    1    2    0    0  0.00000000000E+00  0.00000000000E+00  0.88817841970E-15  0.91188000000E+02  0.91188000000E+02 0.  0.
    9900012    2    3    3    0    0 -0.30176001844E+02  0.20595862273E+02  0.45823881118E+01  0.54367096822E+02  0.40000028825E+02 0.  0.
        -12    1    3    3    0    0  0.30176001844E+02 -0.20595862273E+02 -0.45823881118E+01  0.36820903178E+02  0.00000000000E+00 0.  1.
         11    1    4    4    0    0  0.17799162132E+01 -0.24102424982E+01 -0.12300472904E+01  0.32388867260E+01  0.51100000000E-03 0. -1.
        -11    1    4    4    0    0 -0.69587636825E+01  0.20750193515E+02  0.12433077092E+02  0.25170942158E+02  0.51100000000E-03 0.  1.
         12    1    4    4    0    0 -0.24997154374E+02  0.22559112570E+01 -0.66206416896E+01  0.25957267938E+02  0.00000000000E+00 0. -1.
</event>
<event>
 8    1  0.1261983E-006  0.9118800E+02  0.7816164E-02  0.1184000E+00
        -11   -1    0    0    0    0  0.00000000000E+00  0.00000000000E+00  0.45593999997E+02  0.45594000000E+02  0.51100000000E-03 0. -1.
         11   -1    0    0    0    0 -0.00000000000E+00 -0.00000000000E+00 -0.45593999997E+02  0.45594000000E+02  0.51100000000E-03 0.  1.
         23    2    1    2    0    0  0.00000000000E+00 -0.22204460493E-15  0.35527136788E-14  0.91188000000E+02  0.91188000000E+02 0.  0.
    9900012    2    3    3    0    0 -0.26472991164E+02 -0.17610754778E+01 -0.25531551369E+02  0.54367071667E+02  0.39999971479E+02 0.  0.
         12    1    3    3    0    0  0.26472991164E+02  0.17610754778E+01  0.25531551369E+02  0.36820928333E+02  0.00000000000E+00 0. -1.
         11    1    4    4    0    0 -0.31931287547E+02  0.70686363077E+01 -0.13790109075E+02  0.35492814093E+02  0.51100000000E-03 0. -1.
        -11    1    4    4    0    0  0.81071528662E+00 -0.70398411913E+01 -0.11946045068E+02  0.13889730606E+02  0.51100000000E-03 0.  1.
         12    1    4    4    0    0  0.46475810971E+01 -0.17898705942E+01  0.20460277392E+00  0.49845269678E+01  0.00000000000E+00 0. -1.
</event>
<event>
 8    1  0.1261983E-006  0.9118800E+02  0.7816164E-02  0.1184000E+00
        -11   -1    0    0    0    0  0.00000000000E+00  0.00000000000E+00  0.45593999997E+02  0.45594000000E+02  0.51100000000E-03 0. -1.
         11   -1    0    0    0    0 -0.00000000000E+00 -0.00000000000E+00 -0.45593999997E+02  0.45594000000E+02  0.51100000000E-03 0.  1.
         23    2    1    2    0    0  0.71054273576E-14 -0.17763568394E-14  0.88817841970E-15  0.91188000000E+02  0.91188000000E+02 0.  0.
    9900012    2    3    3    0    0 -0.35203359964E+02  0.80675872033E+01 -0.71705398531E+01  0.54367093469E+02  0.40000021181E+02 0.  0.
        -12    1    3    3    0    0  0.35203359964E+02 -0.80675872033E+01  0.71705398531E+01  0.36820906531E+02  0.00000000000E+00 0.  1.
         11    1    4    4    0    0 -0.31093731456E+02  0.14876486000E+02 -0.48606331545E+01  0.34810281908E+02  0.51100000000E-03 0. -1.
        -11    1    4    4    0    0  0.39377924514E+01 -0.46232238593E+01 -0.75643284931E+01  0.97004883411E+01  0.51100000000E-03 0.  1.
         12    1    4    4    0    0 -0.80474209588E+01 -0.21856749372E+01  0.52544217946E+01  0.98563232198E+01  0.00000000000E+00 0. -1.
</event>
<event>
 8    1  0.1261983E-006  0.9118800E+02  0.7816164E-02  0.1184000E+00
        -11   -1    0    0    0    0  0.00000000000E+00  0.00000000000E+00  0.45593999997E+02  0.45594000000E+02  0.51100000000E-03 0.  1.
         11   -1    0    0    0    0 -0.00000000000E+00 -0.00000000000E+00 -0.45593999997E+02  0.45594000000E+02  0.51100000000E-03 0. -1.
         23    2    1    2    0    0 -0.71054273576E-14  0.00000000000E+00  0.00000000000E+00  0.91188000000E+02  0.91188000000E+02 0.  0.
    9900012    2    3    3    0    0  0.32534168523E+02  0.99937004263E+01 -0.14051107929E+02  0.54367084697E+02  0.40000001184E+02 0.  0.
        -12    1    3    3    0    0 -0.32534168523E+02 -0.99937004263E+01  0.14051107929E+02  0.36820915303E+02  0.00000000000E+00 0.  1.
         11    1    4    4    0    0 -0.77003700377E+00 -0.79393929499E+01 -0.10299335059E+02  0.13027018858E+02  0.51100000000E-03 0. -1.
        -11    1    4    4    0    0  0.10589924026E+02  0.12306242864E+02 -0.70645697995E+01  0.17705881820E+02  0.51100000000E-03 0.  1.
        -12    1    4    4    0    0  0.22714281501E+02  0.56268505123E+01  0.33127969297E+01  0.23634184020E+02  0.00000000000E+00 0.  1.
</event>
<event>
 8    1  0.1261983E-006  0.9118800E+02  0.7816164E-02  0.1184000E+00
        -11   -1    0    0    0    0  0.00000000000E+00  0.00000000000E+00  0.45593999997E+02  0.45594000000E+02  0.51100000000E-03 0.  1.
         11   -1    0    0    0    0 -0.00000000000E+00 -0.00000000000E+00 -0.45593999997E+02  0.45594000000E+02  0.51100000000E-03 0. -1.
         23    2    1    2    0    0  0.00000000000E+00 -0.35527136788E-14  0.00000000000E+00  0.91188000000E+02  0.91188000000E+02 0.  0.
    9900012    2    3    3    0    0 -0.15345023500E+02  0.31252351492E+02 -0.11983251791E+02  0.54367115390E+02  0.40000071154E+02 0.  0.
        -12    1    3    3    0    0  0.15345023500E+02 -0.31252351492E+02  0.11983251791E+02  0.36820884610E+02  0.00000000000E+00 0.  1.
         11    1    4    4    0    0  0.76046143819E+01  0.81069086218E+01 -0.62515285403E+01  0.12752793288E+02  0.51100000000E-03 0. -1.
        -11    1    4    4    0    0 -0.10498433788E+02  0.26335688682E+02 -0.34555071664E+01  0.28560919810E+02  0.51100000000E-03 0.  1.
         12    1    4    4    0    0 -0.12451204093E+02 -0.31902458117E+01 -0.22762160845E+01  0.13053402291E+02  0.00000000000E+00 0. -1.
</event>
<event>
 8    1  0.1261983E-006  0.9118800E+02  0.7816164E-02  0.1184000E+00
        -11   -1    0    0    0    0  0.00000000000E+00  0.00000000000E+00  0.45593999997E+02  0.45594000000E+02  0.51100000000E-03 0.  1.
         11   -1    0    0    0    0 -0.00000000000E+00 -0.00000000000E+00 -0.45593999997E+02  0.45594000000E+02  0.51100000000E-03 0. -1.
         23    2    1    2    0    0  0.17763568394E-14  0.00000000000E+00  0.00000000000E+00  0.91188000000E+02  0.91188000000E+02 0.  0.
    9900012    2    3    3    0    0  0.11743515228E+02  0.31760094726E+02  0.14462578799E+02  0.54367082678E+02  0.39999996581E+02 0.  0.
         12    1    3    3    0    0 -0.11743515228E+02 -0.31760094726E+02 -0.14462578799E+02  0.36820917322E+02  0.00000000000E+00 0. -1.
         11    1    4    4    0    0  0.18511281589E+02  0.13919268370E+02  0.20434900242E+01  0.23250579128E+02  0.51100000000E-03 0. -1.
        -11    1    4    4    0    0  0.52470632530E+01  0.61272330897E+00  0.81042549724E+01  0.96739883995E+01  0.51100000000E-03 0.  1.
        -12    1    4    4    0    0 -0.12014829614E+02  0.17228103047E+02  0.43148338026E+01  0.21442515151E+02  0.00000000000E+00 0.  1.
</event>
<event>
 8    1  0.1261983E-006  0.9118800E+02  0.7816164E-02  0.1184000E+00
        -11   -1    0    0    0    0  0.00000000000E+00  0.00000000000E+00  0.45593999997E+02  0.45594000000E+02  0.51100000000E-03 0.  1.
         11   -1    0    0    0    0 -0.00000000000E+00 -0.00000000000E+00 -0.45593999997E+02  0.45594000000E+02  0.51100000000E-03 0. -1.
         23    2    1    2    0    0  0.00000000000E+00  0.00000000000E+00 -0.17763568394E-14  0.91188000000E+02  0.91188000000E+02 0.  0.
    9900012    2    3    3    0    0  0.35187038371E+02  0.56114011330E+01 -0.92827878903E+01  0.54367005404E+02  0.39999820419E+02 0.  0.
        -12    1    3    3    0    0 -0.35187038371E+02 -0.56114011330E+01  0.92827878903E+01  0.36820994596E+02  0.00000000000E+00 0.  1.
         11    1    4    4    0    0  0.33524678203E+01 -0.56752032433E+01 -0.81832619500E+01  0.10507747082E+02  0.51100000000E-03 0. -1.
        -11    1    4    4    0    0  0.36855645293E+02  0.10588065724E+02  0.10311793476E+01  0.38360253608E+02  0.51100000000E-03 0.  1.
        -12    1    4    4    0    0 -0.50210747424E+01  0.69853865253E+00 -0.21307052879E+01  0.54990047137E+01  0.00000000000E+00 0.  1.
</event>
<event>
 8    1  0.1261983E-006  0.9118800E+02  0.7816164E-02  0.1184000E+00
        -11   -1    0    0    0    0  0.00000000000E+00  0.00000000000E+00  0.45593999997E+02  0.45594000000E+02  0.51100000000E-03 0.  1.
         11   -1    0    0    0    0 -0.00000000000E+00 -0.00000000000E+00 -0.45593999997E+02  0.45594000000E+02  0.51100000000E-03 0. -1.
         23    2    1    2    0    0  0.17763568394E-14 -0.88817841970E-15  0.00000000000E+00  0.91188000000E+02  0.91188000000E+02 0.  0.
    9900012    2    3    3    0    0 -0.89592040896E+01  0.51483956831E+01 -0.35341283149E+02  0.54367087319E+02  0.40000007162E+02 0.  0.
        -12    1    3    3    0    0  0.89592040896E+01 -0.51483956831E+01  0.35341283149E+02  0.36820912681E+02  0.00000000000E+00 0.  1.
         11    1    4    4    0    0  0.17945725096E+01  0.30548792131E+01 -0.40257667050E+02  0.40413271757E+02  0.51100000000E-03 0. -1.
        -11    1    4    4    0    0 -0.58578295883E+01  0.30104439416E+01  0.59395162866E+01  0.88687538128E+01  0.51100000000E-03 0.  1.
         12    1    4    4    0    0 -0.48959470108E+01 -0.91692747160E+00 -0.10231323854E+01  0.50850617498E+01  0.00000000000E+00 0. -1.
</event>
<event>
 8    1  0.1261983E-006  0.9118800E+02  0.7816164E-02  0.1184000E+00
        -11   -1    0    0    0    0  0.00000000000E+00  0.00000000000E+00  0.45593999997E+02  0.45594000000E+02  0.51100000000E-03 0.  1.
         11   -1    0    0    0    0 -0.00000000000E+00 -0.00000000000E+00 -0.45593999997E+02  0.45594000000E+02  0.51100000000E-03 0. -1.
         23    2    1    2    0    0  0.00000000000E+00  0.00000000000E+00  0.00000000000E+00  0.91188000000E+02  0.91188000000E+02 0.  0.
    9900012    2    3    3    0    0 -0.25891899591E+02  0.25615002816E+02 -0.54093311932E+01  0.54367086138E+02  0.40000004469E+02 0.  0.
        -12    1    3    3    0    0  0.25891899591E+02 -0.25615002816E+02  0.54093311932E+01  0.36820913862E+02  0.00000000000E+00 0.  1.
         11    1    4    4    0    0 -0.85509876080E+01  0.82323599321E+01 -0.49878235831E+01  0.12875151396E+02  0.51100000000E-03 0. -1.
        -11    1    4    4    0    0  0.80344128671E+01  0.28623089169E+00 -0.64491594602E+01  0.10306569567E+02  0.51100000000E-03 0.  1.
         12    1    4    4    0    0 -0.25375324850E+02  0.17096411992E+02  0.60276518501E+01  0.31185365174E+02  0.00000000000E+00 0. -1.
</event>
<event>
 8    1  0.1261983E-006  0.9118800E+02  0.7816164E-02  0.1184000E+00
        -11   -1    0    0    0    0  0.00000000000E+00  0.00000000000E+00  0.45593999997E+02  0.45594000000E+02  0.51100000000E-03 0.  1.
         11   -1    0    0    0    0 -0.00000000000E+00 -0.00000000000E+00 -0.45593999997E+02  0.45594000000E+02  0.51100000000E-03 0. -1.
         23    2    1    2    0    0  0.00000000000E+00 -0.35527136788E-14  0.00000000000E+00  0.91188000000E+02  0.91188000000E+02 0.  0.
    9900012    2    3    3    0    0  0.76426704494E+01  0.29960934126E+02  0.19992762775E+02  0.54367101740E+02  0.40000040036E+02 0.  0.
         12    1    3    3    0    0 -0.76426704494E+01 -0.29960934126E+02 -0.19992762775E+02  0.36820898260E+02  0.00000000000E+00 0. -1.
         11    1    4    4    0    0 -0.84122301004E+00 -0.11038671405E+01  0.34742130696E+01  0.37411676694E+01  0.51100000000E-03 0. -1.
        -11    1    4    4    0    0  0.15813436854E+02  0.34894741370E+02  0.87883806991E+01  0.39305767974E+02  0.51100000000E-03 0.  1.
        -12    1    4    4    0    0 -0.73295433949E+01 -0.38299401038E+01  0.77301690067E+01  0.11320166096E+02  0.00000000000E+00 0.  1.
</event>
<event>
 8    1  0.1261983E-006  0.9118800E+02  0.7816164E-02  0.1184000E+00
        -11   -1    0    0    0    0  0.00000000000E+00  0.00000000000E+00  0.45593999997E+02  0.45594000000E+02  0.51100000000E-03 0.  1.
         11   -1    0    0    0    0 -0.00000000000E+00 -0.00000000000E+00 -0.45593999997E+02  0.45594000000E+02  0.51100000000E-03 0. -1.
         23    2    1    2    0    0  0.17763568394E-14  0.00000000000E+00  0.35527136788E-14  0.91188000000E+02  0.91188000000E+02 0.  0.
    9900012    2    3    3    0    0 -0.10257771055E+02 -0.27825645017E+02  0.21824107951E+02  0.54367081007E+02  0.39999992772E+02 0.  0.
         12    1    3    3    0    0  0.10257771055E+02  0.27825645017E+02 -0.21824107951E+02  0.36820918993E+02  0.00000000000E+00 0. -1.
         11    1    4    4    0    0 -0.64969521262E+01 -0.70047858108E+01 -0.18367225842E+01  0.97288725605E+01  0.51100000000E-03 0. -1.
        -11    1    4    4    0    0 -0.16817563316E+02 -0.94734380978E+01  0.67541554263E+01  0.20449818607E+02  0.51100000000E-03 0.  1.
        -12    1    4    4    0    0  0.13056744387E+02 -0.11347421108E+02  0.16906675109E+02  0.24188389840E+02  0.00000000000E+00 0.  1.
</event>
<event>
 8    1  0.1261983E-006  0.9118800E+02  0.7816164E-02  0.1184000E+00
        -11   -1    0    0    0    0  0.00000000000E+00  0.00000000000E+00  0.45593999997E+02  0.45594000000E+02  0.51100000000E-03 0.  1.
         11   -1    0    0    0    0 -0.00000000000E+00 -0.00000000000E+00 -0.45593999997E+02  0.45594000000E+02  0.51100000000E-03 0. -1.
         23    2    1    2    0    0  0.13322676296E-14  0.00000000000E+00  0.88817841970E-15  0.91188000000E+02  0.91188000000E+02 0.  0.
    9900012    2    3    3    0    0 -0.33733139906E+01  0.36073869104E+02 -0.65632858014E+01  0.54367082033E+02  0.39999995110E+02 0.  0.
        -12    1    3    3    0    0  0.33733139906E+01 -0.36073869104E+02  0.65632858014E+01  0.36820917967E+02  0.00000000000E+00 0.  1.
         11    1    4    4    0    0 -0.11256570869E+02  0.17140078103E+02 -0.90100199513E+01  0.22398060740E+02  0.51100000000E-03 0. -1.
        -11    1    4    4    0    0 -0.10988938611E+01  0.11555784823E+02  0.12167359929E+02  0.16816312869E+02  0.51100000000E-03 0.  1.
         12    1    4    4    0    0  0.89821507392E+01  0.73780061775E+01 -0.97206257789E+01  0.15152708424E+02  0.00000000000E+00 0. -1.
</event>
<event>
 8    1  0.1261983E-006  0.9118800E+02  0.7816164E-02  0.1184000E+00
        -11   -1    0    0    0    0  0.00000000000E+00  0.00000000000E+00  0.45593999997E+02  0.45594000000E+02  0.51100000000E-03 0. -1.
         11   -1    0    0    0    0 -0.00000000000E+00 -0.00000000000E+00 -0.45593999997E+02  0.45594000000E+02  0.51100000000E-03 0.  1.
         23    2    1    2    0    0 -0.26645352591E-14 -0.17763568394E-14  0.00000000000E+00  0.91188000000E+02  0.91188000000E+02 0.  0.
    9900012    2    3    3    0    0 -0.59535825954E+01  0.11253483010E+02 -0.34549874003E+02  0.54367084488E+02  0.40000000706E+02 0.  0.
         12    1    3    3    0    0  0.59535825954E+01 -0.11253483010E+02  0.34549874003E+02  0.36820915512E+02  0.00000000000E+00 0. -1.
         11    1    4    4    0    0 -0.17849015424E+02  0.19048495145E+01 -0.35368581295E+01  0.18295495866E+02  0.51100000000E-03 0. -1.
        -11    1    4    4    0    0  0.11969499311E+01  0.34315767823E+01 -0.11645520757E+01  0.38163582312E+01  0.51100000000E-03 0.  1.
         12    1    4    4    0    0  0.10698482898E+02  0.59170567132E+01 -0.29848463797E+02  0.32255230390E+02  0.00000000000E+00 0. -1.
</event>
<event>
 8    1  0.1261983E-006  0.9118800E+02  0.7816164E-02  0.1184000E+00
        -11   -1    0    0    0    0  0.00000000000E+00  0.00000000000E+00  0.45593999997E+02  0.45594000000E+02  0.51100000000E-03 0. -1.
         11   -1    0    0    0    0 -0.00000000000E+00 -0.00000000000E+00 -0.45593999997E+02  0.45594000000E+02  0.51100000000E-03 0.  1.
         23    2    1    2    0    0  0.17763568394E-14  0.00000000000E+00  0.00000000000E+00  0.91188000000E+02  0.91188000000E+02 0.  0.
    9900012    2    3    3    0    0  0.15627139534E+02 -0.50818572038E+01  0.32950694425E+02  0.54367068103E+02  0.39999963355E+02 0.  0.
        -12    1    3    3    0    0 -0.15627139534E+02  0.50818572038E+01 -0.32950694425E+02  0.36820931897E+02  0.00000000000E+00 0.  1.
         11    1    4    4    0    0  0.27876607429E+02 -0.63008705708E+01  0.26243247496E+02  0.38800956832E+02  0.51100000000E-03 0. -1.
        -11    1    4    4    0    0 -0.25598015958E+01 -0.25787015272E+01  0.19370137337E+01  0.41175609579E+01  0.51100000000E-03 0.  1.
         12    1    4    4    0    0 -0.96896662988E+01  0.37977148943E+01  0.47704331950E+01  0.11448550313E+02  0.00000000000E+00 0. -1.
</event>
<event>
 8    1  0.1261983E-006  0.9118800E+02  0.7816164E-02  0.1184000E+00
        -11   -1    0    0    0    0  0.00000000000E+00  0.00000000000E+00  0.45593999997E+02  0.45594000000E+02  0.51100000000E-03 0.  1.
         11   -1    0    0    0    0 -0.00000000000E+00 -0.00000000000E+00 -0.45593999997E+02  0.45594000000E+02  0.51100000000E-03 0. -1.
         23    2    1    2    0    0 -0.17763568394E-14 -0.33306690739E-15 -0.71054273576E-14  0.91188000000E+02  0.91188000000E+02 0.  0.
    9900012    2    3    3    0    0  0.58945838023E+01 -0.51591941019E+00  0.36342357535E+02  0.54367092322E+02  0.40000018566E+02 0.  0.
         12    1    3    3    0    0 -0.58945838023E+01  0.51591941019E+00 -0.36342357535E+02  0.36820907678E+02  0.00000000000E+00 0. -1.
         11    1    4    4    0    0  0.14595642843E+02 -0.38673445992E+01  0.65939453298E+01  0.16476324212E+02  0.51100000000E-03 0. -1.
        -11    1    4    4    0    0 -0.90532037827E+01 -0.76754102680E+01  0.11256763653E+02  0.16358091261E+02  0.51100000000E-03 0.  1.
         12    1    4    4    0    0  0.35214474203E+00  0.11026835457E+02  0.18491648552E+02  0.21532676849E+02  0.00000000000E+00 0. -1.
</event>
<event>
 8    1  0.1261983E-006  0.9118800E+02  0.7816164E-02  0.1184000E+00
        -11   -1    0    0    0    0  0.00000000000E+00  0.00000000000E+00  0.45593999997E+02  0.45594000000E+02  0.51100000000E-03 0.  1.
         11   -1    0    0    0    0 -0.00000000000E+00 -0.00000000000E+00 -0.45593999997E+02  0.45594000000E+02  0.51100000000E-03 0. -1.
         23    2    1    2    0    0 -0.35527136788E-14  0.00000000000E+00  0.00000000000E+00  0.91188000000E+02  0.91188000000E+02 0.  0.
    9900012    2    3    3    0    0  0.25382136229E+02 -0.25558183776E+01  0.26551639232E+02  0.54367155454E+02  0.40000162489E+02 0.  0.
         12    1    3    3    0    0 -0.25382136229E+02  0.25558183776E+01 -0.26551639232E+02  0.36820844546E+02  0.00000000000E+00 0. -1.
         11    1    4    4    0    0  0.18556529469E+01  0.26844320640E+01  0.12433694368E+02  0.12854819301E+02  0.51100000000E-03 0. -1.
        -11    1    4    4    0    0  0.30602940563E+02 -0.19429334903E+01  0.13988026666E+02  0.33704300199E+02  0.51100000000E-03 0.  1.
         12    1    4    4    0    0 -0.70764572808E+01 -0.32973169513E+01  0.12991819845E+00  0.78080359542E+01  0.00000000000E+00 0. -1.
</event>
<event>
 8    1  0.1261983E-006  0.9118800E+02  0.7816164E-02  0.1184000E+00
        -11   -1    0    0    0    0  0.00000000000E+00  0.00000000000E+00  0.45593999997E+02  0.45594000000E+02  0.51100000000E-03 0.  1.
         11   -1    0    0    0    0 -0.00000000000E+00 -0.00000000000E+00 -0.45593999997E+02  0.45594000000E+02  0.51100000000E-03 0. -1.
         23    2    1    2    0    0 -0.10658141036E-13  0.17763568394E-14 -0.71054273576E-14  0.91188000000E+02  0.91188000000E+02 0.  0.
    9900012    2    3    3    0    0 -0.20345996961E+02  0.14162626484E+02 -0.27225729881E+02  0.54367082727E+02  0.39999996693E+02 0.  0.
        -12    1    3    3    0    0  0.20345996961E+02 -0.14162626484E+02  0.27225729881E+02  0.36820917273E+02  0.00000000000E+00 0.  1.
         11    1    4    4    0    0 -0.52123258973E+01  0.91641718981E+01 -0.48397090651E+01  0.11600567742E+02  0.51100000000E-03 0. -1.
        -11    1    4    4    0    0  0.62733845653E+01  0.11714266111E+02 -0.43569088966E+01  0.13984349817E+02  0.51100000000E-03 0.  1.
         12    1    4    4    0    0 -0.21407055629E+02 -0.67158115248E+01 -0.18029111919E+02  0.28782165168E+02  0.00000000000E+00 0. -1.
</event>
<event>
 8    1  0.1261983E-006  0.9118800E+02  0.7816164E-02  0.1184000E+00
        -11   -1    0    0    0    0  0.00000000000E+00  0.00000000000E+00  0.45593999997E+02  0.45594000000E+02  0.51100000000E-03 0. -1.
         11   -1    0    0    0    0 -0.00000000000E+00 -0.00000000000E+00 -0.45593999997E+02  0.45594000000E+02  0.51100000000E-03 0.  1.
         23    2    1    2    0    0 -0.88817841970E-15  0.00000000000E+00 -0.35527136788E-14  0.91188000000E+02  0.91188000000E+02 0.  0.
    9900012    2    3    3    0    0  0.69701320930E+01  0.18430319610E+02  0.31104992689E+02  0.54367082134E+02  0.39999995341E+02 0.  0.
        -12    1    3    3    0    0 -0.69701320930E+01 -0.18430319610E+02 -0.31104992689E+02  0.36820917866E+02  0.00000000000E+00 0.  1.
         11    1    4    4    0    0  0.13370499315E+02  0.21565705789E+02  0.19478399274E+02  0.31988403471E+02  0.51100000000E-03 0. -1.
        -11    1    4    4    0    0 -0.60648311860E+01 -0.90308789670E+01  0.12317348157E+02  0.16433381214E+02  0.51100000000E-03 0.  1.
        -12    1    4    4    0    0 -0.33553603559E+00  0.58954927886E+01 -0.69075474228E+00  0.59452974497E+01  0.00000000000E+00 0.  1.
</event>
<event>
 8    1  0.1261983E-006  0.9118800E+02  0.7816164E-02  0.1184000E+00
        -11   -1    0    0    0    0  0.00000000000E+00  0.00000000000E+00  0.45593999997E+02  0.45594000000E+02  0.51100000000E-03 0. -1.
         11   -1    0    0    0    0 -0.00000000000E+00 -0.00000000000E+00 -0.45593999997E+02  0.45594000000E+02  0.51100000000E-03 0.  1.
         23    2    1    2    0    0  0.00000000000E+00 -0.17763568394E-14  0.00000000000E+00  0.91188000000E+02  0.91188000000E+02 0.  0.
    9900012    2    3    3    0    0  0.33019438199E+02 -0.11842649443E+02 -0.11191437903E+02  0.54367083022E+02  0.39999997364E+02 0.  0.
        -12    1    3    3    0    0 -0.33019438199E+02  0.11842649443E+02  0.11191437903E+02  0.36820916978E+02  0.00000000000E+00 0.  1.
         11    1    4    4    0    0 -0.20126934136E+01 -0.57008157611E+01  0.23080147045E+01  0.64712570075E+01  0.51100000000E-03 0. -1.
        -11    1    4    4    0    0  0.24299586187E+02 -0.87058461230E+01 -0.22040609825E+02  0.33941863934E+02  0.51100000000E-03 0.  1.
         12    1    4    4    0    0  0.10732545426E+02  0.25640124411E+01  0.85411572180E+01  0.13953962080E+02  0.00000000000E+00 0. -1.
</event>
<event>
 8    1  0.1261983E-006  0.9118800E+02  0.7816164E-02  0.1184000E+00
        -11   -1    0    0    0    0  0.00000000000E+00  0.00000000000E+00  0.45593999997E+02  0.45594000000E+02  0.51100000000E-03 0.  1.
         11   -1    0    0    0    0 -0.00000000000E+00 -0.00000000000E+00 -0.45593999997E+02  0.45594000000E+02  0.51100000000E-03 0. -1.
         23    2    1    2    0    0 -0.27755575616E-15  0.00000000000E+00  0.71054273576E-14  0.91188000000E+02  0.91188000000E+02 0.  0.
    9900012    2    3    3    0    0  0.44501233005E+00 -0.16860602697E+02 -0.32730770747E+02  0.54367064203E+02  0.39999954463E+02 0.  0.
        -12    1    3    3    0    0 -0.44501233005E+00  0.16860602697E+02  0.32730770747E+02  0.36820935797E+02  0.00000000000E+00 0.  1.
         11    1    4    4    0    0 -0.11111493144E+01 -0.71588023824E+01 -0.22675390695E+02  0.23804546788E+02  0.51100000000E-03 0. -1.
        -11    1    4    4    0    0  0.65762811182E+01 -0.10470997619E+02 -0.17574793297E+02  0.21488662689E+02  0.51100000000E-03 0.  1.
        -12    1    4    4    0    0 -0.50201194737E+01  0.76919730446E+00  0.75194132452E+01  0.90738547253E+01  0.00000000000E+00 0.  1.
</event>
<event>
 8    1  0.1261983E-006  0.9118800E+02  0.7816164E-02  0.1184000E+00
        -11   -1    0    0    0    0  0.00000000000E+00  0.00000000000E+00  0.45593999997E+02  0.45594000000E+02  0.51100000000E-03 0. -1.
         11   -1    0    0    0    0 -0.00000000000E+00 -0.00000000000E+00 -0.45593999997E+02  0.45594000000E+02  0.51100000000E-03 0.  1.
         23    2    1    2    0    0 -0.88817841970E-15 -0.35527136788E-14  0.00000000000E+00  0.91188000000E+02  0.91188000000E+02 0.  0.
    9900012    2    3    3    0    0  0.53777811604E+01  0.16450862020E+02  0.32499668212E+02  0.54367084405E+02  0.40000000518E+02 0.  0.
        -12    1    3    3    0    0 -0.53777811604E+01 -0.16450862020E+02 -0.32499668212E+02  0.36820915595E+02  0.00000000000E+00 0.  1.
         11    1    4    4    0    0  0.97168746096E+01 -0.45209509117E+01  0.52482930266E+01  0.11933198619E+02  0.51100000000E-03 0. -1.
        -11    1    4    4    0    0  0.45570619833E+01  0.22831269867E+02  0.17670139099E+02  0.29227855099E+02  0.51100000000E-03 0.  1.
        -12    1    4    4    0    0 -0.88961554324E+01 -0.18594569356E+01  0.95812360862E+01  0.13206030687E+02  0.00000000000E+00 0.  1.
</event>
<event>
 8    1  0.1261983E-006  0.9118800E+02  0.7816164E-02  0.1184000E+00
        -11   -1    0    0    0    0  0.00000000000E+00  0.00000000000E+00  0.45593999997E+02  0.45594000000E+02  0.51100000000E-03 0. -1.
         11   -1    0    0    0    0 -0.00000000000E+00 -0.00000000000E+00 -0.45593999997E+02  0.45594000000E+02  0.51100000000E-03 0.  1.
         23    2    1    2    0    0  0.00000000000E+00  0.13322676296E-14  0.17763568394E-14  0.91188000000E+02  0.91188000000E+02 0.  0.
    9900012    2    3    3    0    0 -0.36248385814E+02 -0.34266498353E+01  0.54858093657E+01  0.54367061560E+02  0.39999948438E+02 0.  0.
        -12    1    3    3    0    0  0.36248385814E+02  0.34266498353E+01 -0.54858093657E+01  0.36820938440E+02  0.00000000000E+00 0.  1.
         11    1    4    4    0    0 -0.13755289418E+02 -0.77194103572E+01  0.12218300086E+02  0.19952046022E+02  0.51100000000E-03 0. -1.
        -11    1    4    4    0    0 -0.14621412643E+02  0.97936215386E+01 -0.13905078698E+02  0.22428819505E+02  0.51100000000E-03 0.  1.
        -12    1    4    4    0    0 -0.78716837530E+01 -0.55008610168E+01  0.71725879780E+01  0.11986196033E+02  0.00000000000E+00 0.  1.
</event>
<event>
 8    1  0.1261983E-006  0.9118800E+02  0.7816164E-02  0.1184000E+00
        -11   -1    0    0    0    0  0.00000000000E+00  0.00000000000E+00  0.45593999997E+02  0.45594000000E+02  0.51100000000E-03 0.  1.
         11   -1    0    0    0    0 -0.00000000000E+00 -0.00000000000E+00 -0.45593999997E+02  0.45594000000E+02  0.51100000000E-03 0. -1.
         23    2    1    2    0    0  0.00000000000E+00 -0.66613381478E-15 -0.35527136788E-14  0.91188000000E+02  0.91188000000E+02 0.  0.
    9900012    2    3    3    0    0  0.29108254063E+02  0.69466818073E+00  0.22539009827E+02  0.54367082270E+02  0.39999995651E+02 0.  0.
         12    1    3    3    0    0 -0.29108254063E+02 -0.69466818073E+00 -0.22539009827E+02  0.36820917730E+02  0.00000000000E+00 0. -1.
         11    1    4    4    0    0 -0.41462081265E+01 -0.90391525009E+01  0.51234746147E+01  0.11186925947E+02  0.51100000000E-03 0. -1.
        -11    1    4    4    0    0  0.28936768381E+02  0.45451791395E+01  0.20506183865E+02  0.35756101503E+02  0.51100000000E-03 0.  1.
        -12    1    4    4    0    0  0.43176938088E+01  0.51886415421E+01 -0.30906486521E+01  0.74240548200E+01  0.00000000000E+00 0.  1.
</event>
<event>
 8    1  0.1261983E-006  0.9118800E+02  0.7816164E-02  0.1184000E+00
        -11   -1    0    0    0    0  0.00000000000E+00  0.00000000000E+00  0.45593999997E+02  0.45594000000E+02  0.51100000000E-03 0. -1.
         11   -1    0    0    0    0 -0.00000000000E+00 -0.00000000000E+00 -0.45593999997E+02  0.45594000000E+02  0.51100000000E-03 0.  1.
         23    2    1    2    0    0  0.00000000000E+00  0.00000000000E+00 -0.88817841970E-15  0.91188000000E+02  0.91188000000E+02 0.  0.
    9900012    2    3    3    0    0  0.35090074749E+02 -0.94420061949E+01 -0.59427070873E+01  0.54367073961E+02  0.39999976708E+02 0.  0.
        -12    1    3    3    0    0 -0.35090074749E+02  0.94420061949E+01  0.59427070873E+01  0.36820926039E+02  0.00000000000E+00 0.  1.
         11    1    4    4    0    0 -0.54260455834E+01 -0.58945678949E+01  0.16297199240E+01  0.81758111911E+01  0.51100000000E-03 0. -1.
        -11    1    4    4    0    0  0.17405319122E+02 -0.11470766595E+02 -0.89751307957E+00  0.20864542890E+02  0.51100000000E-03 0.  1.
         12    1    4    4    0    0  0.23110801210E+02  0.79233282951E+01 -0.66749139317E+01  0.25326719879E+02  0.00000000000E+00 0. -1.
</event>
<event>
 8    1  0.1261983E-006  0.9118800E+02  0.7816164E-02  0.1184000E+00
        -11   -1    0    0    0    0  0.00000000000E+00  0.00000000000E+00  0.45593999997E+02  0.45594000000E+02  0.51100000000E-03 0.  1.
         11   -1    0    0    0    0 -0.00000000000E+00 -0.00000000000E+00 -0.45593999997E+02  0.45594000000E+02  0.51100000000E-03 0. -1.
         23    2    1    2    0    0  0.00000000000E+00 -0.35527136788E-14  0.17763568394E-14  0.91188000000E+02  0.91188000000E+02 0.  0.
    9900012    2    3    3    0    0  0.21870654531E+02 -0.26509483809E+02  0.13217681752E+02  0.54367009080E+02  0.39999828800E+02 0.  0.
         12    1    3    3    0    0 -0.21870654531E+02  0.26509483809E+02 -0.13217681752E+02  0.36820990920E+02  0.00000000000E+00 0. -1.
         11    1    4    4    0    0  0.10211014742E+01 -0.67589488545E+01 -0.39606721653E+01  0.79001874725E+01  0.51100000000E-03 0. -1.
        -11    1    4    4    0    0  0.26853402822E+02 -0.16313950383E+02  0.41203500387E+01  0.31689548828E+02  0.51100000000E-03 0.  1.
        -12    1    4    4    0    0 -0.60038497655E+01 -0.34365845713E+01  0.13058003879E+02  0.14777272780E+02  0.00000000000E+00 0.  1.
</event>
<event>
 8    1  0.1261983E-006  0.9118800E+02  0.7816164E-02  0.1184000E+00
        -11   -1    0    0    0    0  0.00000000000E+00  0.00000000000E+00  0.45593999997E+02  0.45594000000E+02  0.51100000000E-03 0.  1.
         11   -1    0    0    0    0 -0.00000000000E+00 -0.00000000000E+00 -0.45593999997E+02  0.45594000000E+02  0.51100000000E-03 0. -1.
         23    2    1    2    0    0  0.00000000000E+00 -0.11102230246E-14  0.00000000000E+00  0.91188000000E+02  0.91188000000E+02 0.  0.
    9900012    2    3    3    0    0  0.32929597884E+02 -0.10526919893E+01 -0.16441243400E+02  0.54367067614E+02  0.39999962240E+02 0.  0.
        -12    1    3    3    0    0 -0.32929597884E+02  0.10526919893E+01  0.16441243400E+02  0.36820932386E+02  0.00000000000E+00 0.  1.
         11    1    4    4    0    0 -0.19521111797E+01 -0.11947984219E+02  0.25218624123E+01  0.12366278957E+02  0.51100000000E-03 0.  1.
        -11    1    4    4    0    0 -0.21913240334E-01  0.80659373937E+00  0.32030593122E+00  0.86814157900E+00  0.51100000000E-03 0. -1.
         12    1    4    4    0    0  0.34903622304E+02  0.10088698490E+02 -0.19283411743E+02  0.41132647078E+02  0.00000000000E+00 0. -1.
</event>
<event>
 8    1  0.1261983E-006  0.9118800E+02  0.7816164E-02  0.1184000E+00
        -11   -1    0    0    0    0  0.00000000000E+00  0.00000000000E+00  0.45593999997E+02  0.45594000000E+02  0.51100000000E-03 0. -1.
         11   -1    0    0    0    0 -0.00000000000E+00 -0.00000000000E+00 -0.45593999997E+02  0.45594000000E+02  0.51100000000E-03 0.  1.
         23    2    1    2    0    0 -0.44408920985E-15 -0.35527136788E-14  0.71054273576E-14  0.91188000000E+02  0.91188000000E+02 0.  0.
    9900012    2    3    3    0    0  0.32804893353E+01 -0.16763144384E+02  0.32619238976E+02  0.54367090569E+02  0.40000014571E+02 0.  0.
        -12    1    3    3    0    0 -0.32804893353E+01  0.16763144384E+02 -0.32619238976E+02  0.36820909431E+02  0.00000000000E+00 0.  1.
         11    1    4    4    0    0 -0.67991609046E+00 -0.33775699233E+01 -0.24019416530E+01  0.41999510047E+01  0.51100000000E-03 0.  1.
        -11    1    4    4    0    0 -0.11542867676E+02  0.22757273513E+01  0.46666231151E+01  0.12656780820E+02  0.51100000000E-03 0. -1.
         12    1    4    4    0    0  0.15503273101E+02 -0.15661301812E+02  0.30354557514E+02  0.37510358745E+02  0.00000000000E+00 0. -1.
</event>
<event>
 8    1  0.1261983E-006  0.9118800E+02  0.7816164E-02  0.1184000E+00
        -11   -1    0    0    0    0  0.00000000000E+00  0.00000000000E+00  0.45593999997E+02  0.45594000000E+02  0.51100000000E-03 0. -1.
         11   -1    0    0    0    0 -0.00000000000E+00 -0.00000000000E+00 -0.45593999997E+02  0.45594000000E+02  0.51100000000E-03 0.  1.
         23    2    1    2    0    0  0.88817841970E-15  0.17763568394E-14  0.71054273576E-14  0.91188000000E+02  0.91188000000E+02 0.  0.
    9900012    2    3    3    0    0 -0.28343951643E+01  0.15457839803E+02 -0.33298670075E+02  0.54367081542E+02  0.39999993991E+02 0.  0.
         12    1    3    3    0    0  0.28343951643E+01 -0.15457839803E+02  0.33298670075E+02  0.36820918458E+02  0.00000000000E+00 0. -1.
         11    1    4    4    0    0  0.82167921815E+01 -0.71892155289E+01 -0.78839790285E+01  0.13466908304E+02  0.51100000000E-03 0. -1.
        -11    1    4    4    0    0 -0.62602887548E+01  0.21739310830E+02 -0.27489110083E+02  0.35601123916E+02  0.51100000000E-03 0.  1.
        -12    1    4    4    0    0 -0.47908985910E+01  0.90774450136E+00  0.20744190358E+01  0.52990493228E+01  0.00000000000E+00 0.  1.
</event>
<event>
 8    1  0.1261983E-006  0.9118800E+02  0.7816164E-02  0.1184000E+00
        -11   -1    0    0    0    0  0.00000000000E+00  0.00000000000E+00  0.45593999997E+02  0.45594000000E+02  0.51100000000E-03 0.  1.
         11   -1    0    0    0    0 -0.00000000000E+00 -0.00000000000E+00 -0.45593999997E+02  0.45594000000E+02  0.51100000000E-03 0. -1.
         23    2    1    2    0    0  0.00000000000E+00  0.00000000000E+00  0.26645352591E-14  0.91188000000E+02  0.91188000000E+02 0.  0.
    9900012    2    3    3    0    0 -0.44434649114E+01  0.35983078598E+02 -0.64229582135E+01  0.54367072282E+02  0.39999972881E+02 0.  0.
        -12    1    3    3    0    0  0.44434649114E+01 -0.35983078598E+02  0.64229582135E+01  0.36820927718E+02  0.00000000000E+00 0.  1.
         11    1    4    4    0    0 -0.77373451282E+01  0.17995420032E+02 -0.81368672363E+01  0.21211088148E+02  0.51100000000E-03 0. -1.
        -11    1    4    4    0    0 -0.41695102395E+01 -0.15109407982E+01  0.98077744354E+01  0.10763837483E+02  0.51100000000E-03 0.  1.
         12    1    4    4    0    0  0.74633904563E+01  0.19498599365E+02 -0.80938654126E+01  0.22392146650E+02  0.00000000000E+00 0. -1.
</event>
<event>
 8    1  0.1261983E-006  0.9118800E+02  0.7816164E-02  0.1184000E+00
        -11   -1    0    0    0    0  0.00000000000E+00  0.00000000000E+00  0.45593999997E+02  0.45594000000E+02  0.51100000000E-03 0.  1.
         11   -1    0    0    0    0 -0.00000000000E+00 -0.00000000000E+00 -0.45593999997E+02  0.45594000000E+02  0.51100000000E-03 0. -1.
         23    2    1    2    0    0  0.00000000000E+00 -0.35527136788E-14  0.00000000000E+00  0.91188000000E+02  0.91188000000E+02 0.  0.
    9900012    2    3    3    0    0  0.21764951147E+02 -0.28340775377E+02  0.88816234867E+01  0.54366866352E+02  0.39999503419E+02 0.  0.
         12    1    3    3    0    0 -0.21764951147E+02  0.28340775377E+02 -0.88816234867E+01  0.36821133648E+02  0.00000000000E+00 0. -1.
         11    1    4    4    0    0 -0.21103923972E-01 -0.19544991189E+02  0.16293160414E+01  0.19612796766E+02  0.51100000000E-03 0. -1.
        -11    1    4    4    0    0  0.53821829432E+01  0.72049493016E+00 -0.85096918493E+01  0.10094645205E+02  0.51100000000E-03 0.  1.
        -12    1    4    4    0    0  0.16403872128E+02 -0.95162791177E+01  0.15761999295E+02  0.24659424381E+02  0.00000000000E+00 0.  1.
</event>
<event>
 8    1  0.1261983E-006  0.9118800E+02  0.7816164E-02  0.1184000E+00
        -11   -1    0    0    0    0  0.00000000000E+00  0.00000000000E+00  0.45593999997E+02  0.45594000000E+02  0.51100000000E-03 0.  1.
         11   -1    0    0    0    0 -0.00000000000E+00 -0.00000000000E+00 -0.45593999997E+02  0.45594000000E+02  0.51100000000E-03 0. -1.
         23    2    1    2    0    0  0.00000000000E+00  0.00000000000E+00  0.35527136788E-14  0.91188000000E+02  0.91188000000E+02 0.  0.
    9900012    2    3    3    0    0 -0.30629832285E+02  0.98148902186E+01 -0.17923737206E+02  0.54367094916E+02  0.40000024480E+02 0.  0.
        -12    1    3    3    0    0  0.30629832285E+02 -0.98148902186E+01  0.17923737206E+02  0.36820905084E+02  0.00000000000E+00 0.  1.
         11    1    4    4    0    0 -0.29713754436E+02  0.81718269359E+01 -0.14009607967E+01  0.30848803049E+02  0.51100000000E-03 0.  1.
        -11    1    4    4    0    0 -0.75011535702E+00 -0.75261946443E+01 -0.72791262171E+01  0.10497235713E+02  0.51100000000E-03 0. -1.
         12    1    4    4    0    0 -0.16596249132E+00  0.91692579271E+01 -0.92436501919E+01  0.13021056153E+02  0.00000000000E+00 0. -1.
</event>
<event>
 8    1  0.1261983E-006  0.9118800E+02  0.7816164E-02  0.1184000E+00
        -11   -1    0    0    0    0  0.00000000000E+00  0.00000000000E+00  0.45593999997E+02  0.45594000000E+02  0.51100000000E-03 0.  1.
         11   -1    0    0    0    0 -0.00000000000E+00 -0.00000000000E+00 -0.45593999997E+02  0.45594000000E+02  0.51100000000E-03 0. -1.
         23    2    1    2    0    0  0.00000000000E+00  0.58286708793E-15 -0.71054273576E-14  0.91188000000E+02  0.91188000000E+02 0.  0.
    9900012    2    3    3    0    0 -0.13640361664E+02  0.15820802236E+00  0.34200792764E+02  0.54367099389E+02  0.40000034676E+02 0.  0.
         12    1    3    3    0    0  0.13640361664E+02 -0.15820802236E+00 -0.34200792764E+02  0.36820900611E+02  0.00000000000E+00 0. -1.
         11    1    4    4    0    0 -0.39727469322E+01  0.59735764724E+01 -0.33017122131E+01  0.78973183967E+01  0.51100000000E-03 0.  1.
        -11    1    4    4    0    0 -0.69416701558E-01 -0.43973950227E+01 -0.26681586842E+01  0.51440230063E+01  0.51100000000E-03 0. -1.
        -12    1    4    4    0    0 -0.95981980303E+01 -0.14179734273E+01  0.40170663662E+02  0.41325757986E+02  0.00000000000E+00 0.  1.
</event>
<event>
 8    1  0.1261983E-006  0.9118800E+02  0.7816164E-02  0.1184000E+00
        -11   -1    0    0    0    0  0.00000000000E+00  0.00000000000E+00  0.45593999997E+02  0.45594000000E+02  0.51100000000E-03 0. -1.
         11   -1    0    0    0    0 -0.00000000000E+00 -0.00000000000E+00 -0.45593999997E+02  0.45594000000E+02  0.51100000000E-03 0.  1.
         23    2    1    2    0    0 -0.17763568394E-14  0.00000000000E+00  0.35527136788E-14  0.91188000000E+02  0.91188000000E+02 0.  0.
    9900012    2    3    3    0    0 -0.14442647624E+02 -0.20385174582E+02 -0.27048839968E+02  0.54367012008E+02  0.39999835473E+02 0.  0.
         12    1    3    3    0    0  0.14442647624E+02  0.20385174582E+02  0.27048839968E+02  0.36820987992E+02  0.00000000000E+00 0. -1.
         11    1    4    4    0    0 -0.10952438848E+00 -0.50441937724E+00  0.30752128578E+01  0.31182316915E+01  0.51100000000E-03 0. -1.
        -11    1    4    4    0    0 -0.23598235509E+02 -0.20127898518E+02 -0.27897553041E+02  0.41716693108E+02  0.51100000000E-03 0.  1.
        -12    1    4    4    0    0  0.92651122738E+01  0.24714331237E+00 -0.22264997841E+01  0.95320872086E+01  0.00000000000E+00 0.  1.
</event>
<event>
 8    1  0.1261983E-006  0.9118800E+02  0.7816164E-02  0.1184000E+00
        -11   -1    0    0    0    0  0.00000000000E+00  0.00000000000E+00  0.45593999997E+02  0.45594000000E+02  0.51100000000E-03 0. -1.
         11   -1    0    0    0    0 -0.00000000000E+00 -0.00000000000E+00 -0.45593999997E+02  0.45594000000E+02  0.51100000000E-03 0.  1.
         23    2    1    2    0    0  0.35527136788E-14  0.35527136788E-14  0.00000000000E+00  0.91188000000E+02  0.91188000000E+02 0.  0.
    9900012    2    3    3    0    0 -0.24061756813E+02  0.18178311708E+02  0.21127262305E+02  0.54367077008E+02  0.39999983654E+02 0.  0.
        -12    1    3    3    0    0  0.24061756813E+02 -0.18178311708E+02 -0.21127262305E+02  0.36820922992E+02  0.00000000000E+00 0.  1.
         11    1    4    4    0    0  0.20532825347E+01  0.14590485203E+01 -0.15130963410E+01  0.29384098676E+01  0.51100000000E-03 0. -1.
        -11    1    4    4    0    0  0.55896199423E+01 -0.50160518716E+01  0.18839233847E+01  0.77429836018E+01  0.51100000000E-03 0.  1.
         12    1    4    4    0    0 -0.31704659290E+02  0.21735315059E+02  0.20756435261E+02  0.43685683538E+02  0.00000000000E+00 0. -1.
</event>
<event>
 8    1  0.1261983E-006  0.9118800E+02  0.7816164E-02  0.1184000E+00
        -11   -1    0    0    0    0  0.00000000000E+00  0.00000000000E+00  0.45593999997E+02  0.45594000000E+02  0.51100000000E-03 0.  1.
         11   -1    0    0    0    0 -0.00000000000E+00 -0.00000000000E+00 -0.45593999997E+02  0.45594000000E+02  0.51100000000E-03 0. -1.
         23    2    1    2    0    0  0.00000000000E+00 -0.35527136788E-14  0.35527136788E-14  0.91188000000E+02  0.91188000000E+02 0.  0.
    9900012    2    3    3    0    0  0.15947105737E+02  0.20997049197E+02 -0.25702034340E+02  0.54367070822E+02  0.39999969552E+02 0.  0.
        -12    1    3    3    0    0 -0.15947105737E+02 -0.20997049197E+02  0.25702034340E+02  0.36820929178E+02  0.00000000000E+00 0.  1.
         11    1    4    4    0    0 -0.47412463078E+01  0.61968745506E+01 -0.23272576995E+02  0.24545743236E+02  0.51100000000E-03 0. -1.
        -11    1    4    4    0    0  0.11851971455E+02  0.10178661189E+02 -0.88555628934E+01  0.17958155958E+02  0.51100000000E-03 0.  1.
        -12    1    4    4    0    0  0.88363805895E+01  0.46215134566E+01  0.64261055486E+01  0.11863171628E+02  0.00000000000E+00 0.  1.
</event>
<event>
 8    1  0.1261983E-006  0.9118800E+02  0.7816164E-02  0.1184000E+00
        -11   -1    0    0    0    0  0.00000000000E+00  0.00000000000E+00  0.45593999997E+02  0.45594000000E+02  0.51100000000E-03 0.  1.
         11   -1    0    0    0    0 -0.00000000000E+00 -0.00000000000E+00 -0.45593999997E+02  0.45594000000E+02  0.51100000000E-03 0. -1.
         23    2    1    2    0    0  0.00000000000E+00 -0.88817841970E-15  0.00000000000E+00  0.91188000000E+02  0.91188000000E+02 0.  0.
    9900012    2    3    3    0    0 -0.17421669530E+02  0.53616099757E+01 -0.31992469337E+02  0.54367088482E+02  0.40000009813E+02 0.  0.
        -12    1    3    3    0    0  0.17421669530E+02 -0.53616099757E+01  0.31992469337E+02  0.36820911518E+02  0.00000000000E+00 0.  1.
         11    1    4    4    0    0  0.84293219743E+01  0.31551819156E+01 -0.84413103288E+01  0.12339544651E+02  0.51100000000E-03 0. -1.
        -11    1    4    4    0    0 -0.18380864260E+02 -0.14355882691E+01 -0.27274161534E+02  0.32921071858E+02  0.51100000000E-03 0.  1.
        -12    1    4    4    0    0 -0.74701272442E+01  0.36420163292E+01  0.37230025263E+01  0.91064719731E+01  0.00000000000E+00 0.  1.
</event>
<event>
 8    1  0.1261983E-006  0.9118800E+02  0.7816164E-02  0.1184000E+00
        -11   -1    0    0    0    0  0.00000000000E+00  0.00000000000E+00  0.45593999997E+02  0.45594000000E+02  0.51100000000E-03 0. -1.
         11   -1    0    0    0    0 -0.00000000000E+00 -0.00000000000E+00 -0.45593999997E+02  0.45594000000E+02  0.51100000000E-03 0.  1.
         23    2    1    2    0    0  0.00000000000E+00  0.00000000000E+00  0.00000000000E+00  0.91188000000E+02  0.91188000000E+02 0.  0.
    9900012    2    3    3    0    0  0.20312689319E+02 -0.26423351777E+02 -0.15652173143E+02  0.54366954516E+02  0.39999704408E+02 0.  0.
         12    1    3    3    0    0 -0.20312689319E+02  0.26423351777E+02  0.15652173143E+02  0.36821045484E+02  0.00000000000E+00 0. -1.
         11    1    4    4    0    0 -0.52484051678E+01 -0.20240235929E+02 -0.89194488842E+01  0.22732564218E+02  0.51100000000E-03 0. -1.
        -11    1    4    4    0    0 -0.23086027771E+01 -0.10935585421E+01 -0.21378497676E+00  0.25634393586E+01  0.51100000000E-03 0.  1.
        -12    1    4    4    0    0  0.27869697263E+02 -0.50895573052E+01 -0.65189392823E+01  0.29070950939E+02  0.00000000000E+00 0.  1.
</event>
<event>
 8    1  0.1261983E-006  0.9118800E+02  0.7816164E-02  0.1184000E+00
        -11   -1    0    0    0    0  0.00000000000E+00  0.00000000000E+00  0.45593999997E+02  0.45594000000E+02  0.51100000000E-03 0.  1.
         11   -1    0    0    0    0 -0.00000000000E+00 -0.00000000000E+00 -0.45593999997E+02  0.45594000000E+02  0.51100000000E-03 0. -1.
         23    2    1    2    0    0 -0.16653345369E-15 -0.17763568394E-14  0.00000000000E+00  0.91188000000E+02  0.91188000000E+02 0.  0.
    9900012    2    3    3    0    0 -0.43217346124E+00  0.12694394946E+02 -0.34560750981E+02  0.54367082775E+02  0.39999996801E+02 0.  0.
        -12    1    3    3    0    0  0.43217346124E+00 -0.12694394946E+02  0.34560750981E+02  0.36820917225E+02  0.00000000000E+00 0.  1.
         11    1    4    4    0    0 -0.32277468424E+01 -0.12018392578E+02 -0.60473384106E+01  0.13835837956E+02  0.51100000000E-03 0. -1.
        -11    1    4    4    0    0  0.60090104643E+01  0.40314665151E+01 -0.38922940720E+01  0.82165006193E+01  0.51100000000E-03 0.  1.
         12    1    4    4    0    0 -0.32134370831E+01  0.20681321008E+02 -0.24621118499E+02  0.32314744199E+02  0.00000000000E+00 0. -1.
</event>
<event>
 8    1  0.1261983E-006  0.9118800E+02  0.7816164E-02  0.1184000E+00
        -11   -1    0    0    0    0  0.00000000000E+00  0.00000000000E+00  0.45593999997E+02  0.45594000000E+02  0.51100000000E-03 0.  1.
         11   -1    0    0    0    0 -0.00000000000E+00 -0.00000000000E+00 -0.45593999997E+02  0.45594000000E+02  0.51100000000E-03 0. -1.
         23    2    1    2    0    0 -0.35527136788E-14 -0.44408920985E-15  0.00000000000E+00  0.91188000000E+02  0.91188000000E+02 0.  0.
    9900012    2    3    3    0    0 -0.10145155473E+02  0.25464189863E+01  0.35303949921E+02  0.54367118570E+02  0.40000078405E+02 0.  0.
         12    1    3    3    0    0  0.10145155473E+02 -0.25464189863E+01 -0.35303949921E+02  0.36820881430E+02  0.00000000000E+00 0. -1.
         11    1    4    4    0    0  0.79902604574E+01 -0.60203300682E+01  0.96554747686E+00  0.10050916301E+02  0.51100000000E-03 0. -1.
        -11    1    4    4    0    0 -0.17387448761E+02  0.29547950078E+01  0.34396261612E+02  0.38654327068E+02  0.51100000000E-03 0.  1.
         12    1    4    4    0    0 -0.74796716966E+00  0.56119540467E+01 -0.57859167685E-01  0.56618752011E+01  0.00000000000E+00 0. -1.
</event>
<event>
 8    1  0.1261983E-006  0.9118800E+02  0.7816164E-02  0.1184000E+00
        -11   -1    0    0    0    0  0.00000000000E+00  0.00000000000E+00  0.45593999997E+02  0.45594000000E+02  0.51100000000E-03 0.  1.
         11   -1    0    0    0    0 -0.00000000000E+00 -0.00000000000E+00 -0.45593999997E+02  0.45594000000E+02  0.51100000000E-03 0. -1.
         23    2    1    2    0    0 -0.29143354396E-15  0.88817841970E-15  0.00000000000E+00  0.91188000000E+02  0.91188000000E+02 0.  0.
    9900012    2    3    3    0    0  0.32237553525E-01  0.41783820951E+01  0.36583062524E+02  0.54367076874E+02  0.39999983350E+02 0.  0.
         12    1    3    3    0    0 -0.32237553525E-01 -0.41783820951E+01 -0.36583062524E+02  0.36820923126E+02  0.00000000000E+00 0. -1.
         11    1    4    4    0    0  0.55015558965E+01  0.10337048311E+02 -0.24167821258E+01  0.11956693572E+02  0.51100000000E-03 0. -1.
        -11    1    4    4    0    0 -0.82288562676E+01  0.11793210348E+01  0.25242162488E+02  0.26575771690E+02  0.51100000000E-03 0.  1.
         12    1    4    4    0    0  0.27595379246E+01 -0.73379872505E+01  0.13757682162E+02  0.15834611613E+02  0.00000000000E+00 0. -1.
</event>
<event>
 8    1  0.1261983E-006  0.9118800E+02  0.7816164E-02  0.1184000E+00
        -11   -1    0    0    0    0  0.00000000000E+00  0.00000000000E+00  0.45593999997E+02  0.45594000000E+02  0.51100000000E-03 0. -1.
         11   -1    0    0    0    0 -0.00000000000E+00 -0.00000000000E+00 -0.45593999997E+02  0.45594000000E+02  0.51100000000E-03 0.  1.
         23    2    1    2    0    0 -0.71054273576E-14 -0.35527136788E-14  0.00000000000E+00  0.91188000000E+02  0.91188000000E+02 0.  0.
    9900012    2    3    3    0    0 -0.29607140893E+02 -0.19456004888E+02 -0.10032972999E+02  0.54367089293E+02  0.40000011662E+02 0.  0.
         12    1    3    3    0    0  0.29607140893E+02  0.19456004888E+02  0.10032972999E+02  0.36820910707E+02  0.00000000000E+00 0. -1.
         11    1    4    4    0    0 -0.12403548114E+02 -0.14472816299E+02 -0.10485586962E+02  0.21754492677E+02  0.51100000000E-03 0. -1.
        -11    1    4    4    0    0  0.27702724099E+01 -0.10120237701E+02 -0.44769674723E+01  0.11407754309E+02  0.51100000000E-03 0.  1.
         12    1    4    4    0    0 -0.19973865189E+02  0.51370491123E+01  0.49295814351E+01  0.21204842308E+02  0.00000000000E+00 0. -1.
</event>
<event>
 8    1  0.1261983E-006  0.9118800E+02  0.7816164E-02  0.1184000E+00
        -11   -1    0    0    0    0  0.00000000000E+00  0.00000000000E+00  0.45593999997E+02  0.45594000000E+02  0.51100000000E-03 0.  1.
         11   -1    0    0    0    0 -0.00000000000E+00 -0.00000000000E+00 -0.45593999997E+02  0.45594000000E+02  0.51100000000E-03 0. -1.
         23    2    1    2    0    0  0.00000000000E+00  0.00000000000E+00  0.71054273576E-14  0.91188000000E+02  0.91188000000E+02 0.  0.
    9900012    2    3    3    0    0  0.37394961300E+01  0.14222711553E+02 -0.33756644590E+02  0.54367076475E+02  0.39999982440E+02 0.  0.
        -12    1    3    3    0    0 -0.37394961300E+01 -0.14222711553E+02  0.33756644590E+02  0.36820923525E+02  0.00000000000E+00 0.  1.
         11    1    4    4    0    0  0.21804095931E+01  0.20760431667E+02 -0.12007764441E+02  0.24081862804E+02  0.51100000000E-03 0. -1.
        -11    1    4    4    0    0 -0.78822043434E+01 -0.67427117969E+01 -0.61742511865E+01  0.12071233809E+02  0.51100000000E-03 0.  1.
         12    1    4    4    0    0  0.94412908804E+01  0.20499168297E+00 -0.15574628963E+02  0.18213979862E+02  0.00000000000E+00 0. -1.
</event>
<event>
 8    1  0.1261983E-006  0.9118800E+02  0.7816164E-02  0.1184000E+00
        -11   -1    0    0    0    0  0.00000000000E+00  0.00000000000E+00  0.45593999997E+02  0.45594000000E+02  0.51100000000E-03 0. -1.
         11   -1    0    0    0    0 -0.00000000000E+00 -0.00000000000E+00 -0.45593999997E+02  0.45594000000E+02  0.51100000000E-03 0.  1.
         23    2    1    2    0    0  0.00000000000E+00  0.00000000000E+00  0.00000000000E+00  0.91188000000E+02  0.91188000000E+02 0.  0.
    9900012    2    3    3    0    0 -0.16986677990E+02 -0.23334352992E+01 -0.32585171357E+02  0.54367006779E+02  0.39999823553E+02 0.  0.
         12    1    3    3    0    0  0.16986677990E+02  0.23334352992E+01  0.32585171357E+02  0.36820993221E+02  0.00000000000E+00 0. -1.
         11    1    4    4    0    0  0.17060616012E+01  0.42654263478E+01 -0.21044313230E+02  0.21539907793E+02  0.51100000000E-03 0. -1.
        -11    1    4    4    0    0  0.27553804410E+01 -0.44348546324E+01  0.37236258078E+01  0.64129124743E+01  0.51100000000E-03 0.  1.
        -12    1    4    4    0    0 -0.21448120033E+02 -0.21640070146E+01 -0.15264483934E+02  0.26414186512E+02  0.00000000000E+00 0.  1.
</event>
<event>
 8    1  0.1261983E-006  0.9118800E+02  0.7816164E-02  0.1184000E+00
        -11   -1    0    0    0    0  0.00000000000E+00  0.00000000000E+00  0.45593999997E+02  0.45594000000E+02  0.51100000000E-03 0. -1.
         11   -1    0    0    0    0 -0.00000000000E+00 -0.00000000000E+00 -0.45593999997E+02  0.45594000000E+02  0.51100000000E-03 0.  1.
         23    2    1    2    0    0  0.00000000000E+00  0.00000000000E+00  0.88817841970E-15  0.91188000000E+02  0.91188000000E+02 0.  0.
    9900012    2    3    3    0    0  0.18859826800E+02 -0.31390592975E+02  0.38366879467E+01  0.54367047152E+02  0.39999915592E+02 0.  0.
         12    1    3    3    0    0 -0.18859826800E+02  0.31390592975E+02 -0.38366879467E+01  0.36820952848E+02  0.00000000000E+00 0. -1.
         11    1    4    4    0    0 -0.75475655403E+01 -0.25332599804E+01 -0.31081583307E+00  0.79674185567E+01  0.51100000000E-03 0. -1.
        -11    1    4    4    0    0  0.21079739606E+02 -0.27661304946E+02  0.12039473013E+02  0.36802882005E+02  0.51100000000E-03 0.  1.
        -12    1    4    4    0    0  0.53276527348E+01 -0.11960280480E+01 -0.78919692327E+01  0.95967465906E+01  0.00000000000E+00 0.  1.
</event>
<event>
 8    1  0.1261983E-006  0.9118800E+02  0.7816164E-02  0.1184000E+00
        -11   -1    0    0    0    0  0.00000000000E+00  0.00000000000E+00  0.45593999997E+02  0.45594000000E+02  0.51100000000E-03 0. -1.
         11   -1    0    0    0    0 -0.00000000000E+00 -0.00000000000E+00 -0.45593999997E+02  0.45594000000E+02  0.51100000000E-03 0.  1.
         23    2    1    2    0    0  0.44408920985E-15  0.00000000000E+00 -0.35527136788E-14  0.91188000000E+02  0.91188000000E+02 0.  0.
    9900012    2    3    3    0    0  0.32301060781E+01  0.19015162174E+02  0.31365113445E+02  0.54367077698E+02  0.39999985228E+02 0.  0.
        -12    1    3    3    0    0 -0.32301060781E+01 -0.19015162174E+02 -0.31365113445E+02  0.36820922302E+02  0.00000000000E+00 0.  1.
         11    1    4    4    0    0  0.25784610996E+01  0.89131648997E+01  0.18911675259E+02  0.21065242262E+02  0.51100000000E-03 0. -1.
        -11    1    4    4    0    0  0.14916047881E+02  0.54350987145E+01  0.65818021902E+01  0.17185717988E+02  0.51100000000E-03 0.  1.
        -12    1    4    4    0    0 -0.14264402903E+02  0.46668985596E+01  0.58716359953E+01  0.16116117448E+02  0.00000000000E+00 0.  1.
</event>
<event>
 8    1  0.1261983E-006  0.9118800E+02  0.7816164E-02  0.1184000E+00
        -11   -1    0    0    0    0  0.00000000000E+00  0.00000000000E+00  0.45593999997E+02  0.45594000000E+02  0.51100000000E-03 0. -1.
         11   -1    0    0    0    0 -0.00000000000E+00 -0.00000000000E+00 -0.45593999997E+02  0.45594000000E+02  0.51100000000E-03 0.  1.
         23    2    1    2    0    0  0.00000000000E+00 -0.35527136788E-14 -0.44408920985E-15  0.91188000000E+02  0.91188000000E+02 0.  0.
    9900012    2    3    3    0    0  0.26040839517E+02  0.25723852840E+02  0.39925157893E+01  0.54367053380E+02  0.39999929790E+02 0.  0.
        -12    1    3    3    0    0 -0.26040839517E+02 -0.25723852840E+02 -0.39925157893E+01  0.36820946620E+02  0.00000000000E+00 0.  1.
         11    1    4    4    0    0  0.20469569073E+02  0.23117455288E+02  0.75847405794E+01  0.31795412985E+02  0.51100000000E-03 0. -1.
        -11    1    4    4    0    0 -0.83209513695E+00 -0.31870056662E+01  0.76890262849E+01  0.83648378887E+01  0.51100000000E-03 0.  1.
         12    1    4    4    0    0  0.64033655815E+01  0.57934032182E+01 -0.11281251075E+02  0.14206802506E+02  0.00000000000E+00 0. -1.
</event>
<event>
 8    1  0.1261983E-006  0.9118800E+02  0.7816164E-02  0.1184000E+00
        -11   -1    0    0    0    0  0.00000000000E+00  0.00000000000E+00  0.45593999997E+02  0.45594000000E+02  0.51100000000E-03 0.  1.
         11   -1    0    0    0    0 -0.00000000000E+00 -0.00000000000E+00 -0.45593999997E+02  0.45594000000E+02  0.51100000000E-03 0. -1.
         23    2    1    2    0    0  0.00000000000E+00  0.17763568394E-14  0.00000000000E+00  0.91188000000E+02  0.91188000000E+02 0.  0.
    9900012    2    3    3    0    0  0.13761457639E+01  0.10557850915E+02 -0.35247950562E+02  0.54367081871E+02  0.39999994740E+02 0.  0.
        -12    1    3    3    0    0 -0.13761457639E+01 -0.10557850915E+02  0.35247950562E+02  0.36820918129E+02  0.00000000000E+00 0.  1.
         11    1    4    4    0    0 -0.35355158908E+01  0.64250763985E+01 -0.21571018426E+02  0.22783553619E+02  0.51100000000E-03 0. -1.
        -11    1    4    4    0    0  0.77746135906E+01 -0.49440023663E+01 -0.18681830478E+02  0.20830232023E+02  0.51100000000E-03 0.  1.
        -12    1    4    4    0    0 -0.28629519360E+01  0.90767768823E+01  0.50048983417E+01  0.10753296228E+02  0.00000000000E+00 0.  1.
</event>
<event>
 8    1  0.1261983E-006  0.9118800E+02  0.7816164E-02  0.1184000E+00
        -11   -1    0    0    0    0  0.00000000000E+00  0.00000000000E+00  0.45593999997E+02  0.45594000000E+02  0.51100000000E-03 0.  1.
         11   -1    0    0    0    0 -0.00000000000E+00 -0.00000000000E+00 -0.45593999997E+02  0.45594000000E+02  0.51100000000E-03 0. -1.
         23    2    1    2    0    0  0.35527136788E-14 -0.35527136788E-14  0.00000000000E+00  0.91188000000E+02  0.91188000000E+02 0.  0.
    9900012    2    3    3    0    0  0.17904536761E+02  0.20023128818E+02 -0.25184943338E+02  0.54367088887E+02  0.40000010735E+02 0.  0.
        -12    1    3    3    0    0 -0.17904536761E+02 -0.20023128818E+02  0.25184943338E+02  0.36820911113E+02  0.00000000000E+00 0.  1.
         11    1    4    4    0    0 -0.19408145493E+01  0.17448586804E+01 -0.18523596921E+02  0.18706547947E+02  0.51100000000E-03 0. -1.
        -11    1    4    4    0    0 -0.31575175008E+01  0.86938005348E+01 -0.53967238140E+01  0.10708721338E+02  0.51100000000E-03 0.  1.
        -12    1    4    4    0    0  0.23002868811E+02  0.95844696030E+01 -0.12646226027E+01  0.24951819602E+02  0.00000000000E+00 0.  1.
</event>
<event>
 8    1  0.1261983E-006  0.9118800E+02  0.7816164E-02  0.1184000E+00
        -11   -1    0    0    0    0  0.00000000000E+00  0.00000000000E+00  0.45593999997E+02  0.45594000000E+02  0.51100000000E-03 0.  1.
         11   -1    0    0    0    0 -0.00000000000E+00 -0.00000000000E+00 -0.45593999997E+02  0.45594000000E+02  0.51100000000E-03 0. -1.
         23    2    1    2    0    0  0.00000000000E+00 -0.17763568394E-14  0.88817841970E-15  0.91188000000E+02  0.91188000000E+02 0.  0.
    9900012    2    3    3    0    0 -0.33901482234E+02  0.13548200067E+02 -0.47869746063E+01  0.54367090878E+02  0.40000015274E+02 0.  0.
         12    1    3    3    0    0  0.33901482234E+02 -0.13548200067E+02  0.47869746063E+01  0.36820909122E+02  0.00000000000E+00 0. -1.
         11    1    4    4    0    0 -0.12291158746E+02  0.54045023870E+01  0.12921585963E+02  0.18634607949E+02  0.51100000000E-03 0. -1.
        -11    1    4    4    0    0 -0.13712328437E+02 -0.58926402230E+01 -0.81943795118E+01  0.17026421110E+02  0.51100000000E-03 0.  1.
         12    1    4    4    0    0 -0.78979950507E+01  0.14036337903E+02 -0.95141810577E+01  0.18706061818E+02  0.00000000000E+00 0. -1.
</event>
<event>
 8    1  0.1261983E-006  0.9118800E+02  0.7816164E-02  0.1184000E+00
        -11   -1    0    0    0    0  0.00000000000E+00  0.00000000000E+00  0.45593999997E+02  0.45594000000E+02  0.51100000000E-03 0. -1.
         11   -1    0    0    0    0 -0.00000000000E+00 -0.00000000000E+00 -0.45593999997E+02  0.45594000000E+02  0.51100000000E-03 0.  1.
         23    2    1    2    0    0  0.35527136788E-14 -0.35527136788E-14  0.00000000000E+00  0.91188000000E+02  0.91188000000E+02 0.  0.
    9900012    2    3    3    0    0  0.12102916686E+02 -0.22538078142E+02 -0.26482727058E+02  0.54367076721E+02  0.39999983001E+02 0.  0.
         12    1    3    3    0    0 -0.12102916686E+02  0.22538078142E+02  0.26482727058E+02  0.36820923279E+02  0.00000000000E+00 0. -1.
         11    1    4    4    0    0  0.20447966128E+01  0.52667402505E+01  0.14777644840E+01  0.58398231297E+01  0.51100000000E-03 0. -1.
        -11    1    4    4    0    0 -0.61146764337E+01  0.12296184275E+01 -0.27700658372E+01  0.68245508548E+01  0.51100000000E-03 0.  1.
        -12    1    4    4    0    0  0.16172796507E+02 -0.29034436820E+02 -0.25190425705E+02  0.41702702737E+02  0.00000000000E+00 0.  1.
</event>
<event>
 8    1  0.1261983E-006  0.9118800E+02  0.7816164E-02  0.1184000E+00
        -11   -1    0    0    0    0  0.00000000000E+00  0.00000000000E+00  0.45593999997E+02  0.45594000000E+02  0.51100000000E-03 0.  1.
         11   -1    0    0    0    0 -0.00000000000E+00 -0.00000000000E+00 -0.45593999997E+02  0.45594000000E+02  0.51100000000E-03 0. -1.
         23    2    1    2    0    0 -0.88817841970E-15 -0.71054273576E-14 -0.44408920985E-15  0.91188000000E+02  0.91188000000E+02 0.  0.
    9900012    2    3    3    0    0 -0.35508667792E+01 -0.36453323090E+02 -0.37851974988E+01  0.54367066562E+02  0.39999959840E+02 0.  0.
         12    1    3    3    0    0  0.35508667792E+01  0.36453323090E+02  0.37851974988E+01  0.36820933438E+02  0.00000000000E+00 0. -1.
         11    1    4    4    0    0  0.34130223722E+01  0.13888850841E+01 -0.33317501756E+01  0.49677241251E+01  0.51100000000E-03 0. -1.
        -11    1    4    4    0    0 -0.11011507081E+02 -0.28276416838E+02 -0.13084842384E+02  0.33045758243E+02  0.51100000000E-03 0.  1.
         12    1    4    4    0    0  0.40476179297E+01 -0.95657913361E+01  0.12631395061E+02  0.16353584193E+02  0.00000000000E+00 0. -1.
</event>
<event>
 8    1  0.1261983E-006  0.9118800E+02  0.7816164E-02  0.1184000E+00
        -11   -1    0    0    0    0  0.00000000000E+00  0.00000000000E+00  0.45593999997E+02  0.45594000000E+02  0.51100000000E-03 0. -1.
         11   -1    0    0    0    0 -0.00000000000E+00 -0.00000000000E+00 -0.45593999997E+02  0.45594000000E+02  0.51100000000E-03 0.  1.
         23    2    1    2    0    0  0.00000000000E+00 -0.88817841970E-15  0.00000000000E+00  0.91188000000E+02  0.91188000000E+02 0.  0.
    9900012    2    3    3    0    0  0.10248377736E+01 -0.46881991445E+01 -0.36506882165E+02  0.54367055565E+02  0.39999934771E+02 0.  0.
         12    1    3    3    0    0 -0.10248377736E+01  0.46881991445E+01  0.36506882165E+02  0.36820944435E+02  0.00000000000E+00 0. -1.
         11    1    4    4    0    0  0.54114978380E+01 -0.75333322405E+01  0.45148688413E+01  0.10315980051E+02  0.51100000000E-03 0. -1.
        -11    1    4    4    0    0  0.32929540453E+01 -0.34387254587E+01 -0.22907343598E+02  0.23396896591E+02  0.51100000000E-03 0.  1.
        -12    1    4    4    0    0 -0.76796141097E+01  0.62838585547E+01 -0.18114407409E+02  0.20654178923E+02  0.00000000000E+00 0.  1.
</event>
<event>
 8    1  0.1261983E-006  0.9118800E+02  0.7816164E-02  0.1184000E+00
        -11   -1    0    0    0    0  0.00000000000E+00  0.00000000000E+00  0.45593999997E+02  0.45594000000E+02  0.51100000000E-03 0.  1.
         11   -1    0    0    0    0 -0.00000000000E+00 -0.00000000000E+00 -0.45593999997E+02  0.45594000000E+02  0.51100000000E-03 0. -1.
         23    2    1    2    0    0  0.00000000000E+00  0.00000000000E+00 -0.88817841970E-15  0.91188000000E+02  0.91188000000E+02 0.  0.
    9900012    2    3    3    0    0  0.88598563304E+01 -0.35655278593E+02  0.24464266636E+01  0.54367069143E+02  0.39999965725E+02 0.  0.
        -12    1    3    3    0    0 -0.88598563304E+01  0.35655278593E+02 -0.24464266636E+01  0.36820930857E+02  0.00000000000E+00 0.  1.
         11    1    4    4    0    0  0.26800988875E+01 -0.23993586799E+02 -0.91764847414E+01  0.25827950170E+02  0.51100000000E-03 0. -1.
        -11    1    4    4    0    0  0.34667430387E+01  0.66699291914E+01  0.28938753505E+01  0.80548604904E+01  0.51100000000E-03 0.  1.
         12    1    4    4    0    0  0.27130144043E+01 -0.18331620986E+02  0.87290360544E+01  0.20484258482E+02  0.00000000000E+00 0. -1.
</event>
<event>
 8    1  0.1261983E-006  0.9118800E+02  0.7816164E-02  0.1184000E+00
        -11   -1    0    0    0    0  0.00000000000E+00  0.00000000000E+00  0.45593999997E+02  0.45594000000E+02  0.51100000000E-03 0. -1.
         11   -1    0    0    0    0 -0.00000000000E+00 -0.00000000000E+00 -0.45593999997E+02  0.45594000000E+02  0.51100000000E-03 0.  1.
         23    2    1    2    0    0 -0.35527136788E-14  0.17763568394E-14 -0.35527136788E-14  0.91188000000E+02  0.91188000000E+02 0.  0.
    9900012    2    3    3    0    0  0.28242996400E+02 -0.53327592906E+01 -0.23014666506E+02  0.54367081467E+02  0.39999993819E+02 0.  0.
         12    1    3    3    0    0 -0.28242996400E+02  0.53327592906E+01  0.23014666506E+02  0.36820918533E+02  0.00000000000E+00 0. -1.
         11    1    4    4    0    0 -0.28538850991E+01 -0.11154926584E+02 -0.16430985844E+01  0.11630856394E+02  0.51100000000E-03 0. -1.
        -11    1    4    4    0    0  0.39603401815E+01  0.84897935849E+01 -0.29202281754E+01  0.98126766137E+01  0.51100000000E-03 0.  1.
        -12    1    4    4    0    0  0.27136541317E+02 -0.26676262920E+01 -0.18451339746E+02  0.32923548459E+02  0.00000000000E+00 0.  1.
</event>
<event>
 8    1  0.1261983E-006  0.9118800E+02  0.7816164E-02  0.1184000E+00
        -11   -1    0    0    0    0  0.00000000000E+00  0.00000000000E+00  0.45593999997E+02  0.45594000000E+02  0.51100000000E-03 0.  1.
         11   -1    0    0    0    0 -0.00000000000E+00 -0.00000000000E+00 -0.45593999997E+02  0.45594000000E+02  0.51100000000E-03 0. -1.
         23    2    1    2    0    0  0.00000000000E+00  0.88817841970E-15  0.00000000000E+00  0.91188000000E+02  0.91188000000E+02 0.  0.
    9900012    2    3    3    0    0 -0.15256664225E+02 -0.13284156261E+01 -0.33485075404E+02  0.54367071628E+02  0.39999971390E+02 0.  0.
         12    1    3    3    0    0  0.15256664225E+02  0.13284156261E+01  0.33485075404E+02  0.36820928372E+02  0.00000000000E+00 0. -1.
         11    1    4    4    0    0  0.35913274925E+01 -0.17868666751E+01  0.72959247791E+00  0.40771106335E+01  0.51100000000E-03 0. -1.
        -11    1    4    4    0    0  0.39085259352E+01 -0.98077072982E+01 -0.16832850652E+02  0.19869890759E+02  0.51100000000E-03 0.  1.
         12    1    4    4    0    0 -0.22756517653E+02  0.10266158347E+02 -0.17381817230E+02  0.30420070236E+02  0.00000000000E+00 0. -1.
</event>
<event>
 8    1  0.1261983E-006  0.9118800E+02  0.7816164E-02  0.1184000E+00
        -11   -1    0    0    0    0  0.00000000000E+00  0.00000000000E+00  0.45593999997E+02  0.45594000000E+02  0.51100000000E-03 0.  1.
         11   -1    0    0    0    0 -0.00000000000E+00 -0.00000000000E+00 -0.45593999997E+02  0.45594000000E+02  0.51100000000E-03 0. -1.
         23    2    1    2    0    0  0.35527136788E-14  0.17763568394E-14  0.00000000000E+00  0.91188000000E+02  0.91188000000E+02 0.  0.
    9900012    2    3    3    0    0 -0.28471076629E+02 -0.13985914548E+02  0.18696833204E+02  0.54367087708E+02  0.40000008047E+02 0.  0.
        -12    1    3    3    0    0  0.28471076629E+02  0.13985914548E+02 -0.18696833204E+02  0.36820912292E+02  0.00000000000E+00 0.  1.
         11    1    4    4    0    0  0.43858500445E+01 -0.40678123089E+01 -0.63010853541E+01  0.86882941072E+01  0.51100000000E-03 0. -1.
        -11    1    4    4    0    0 -0.71550800118E+01 -0.30231272452E+01  0.15654281734E+02  0.17475440057E+02  0.51100000000E-03 0.  1.
        -12    1    4    4    0    0 -0.25701846662E+02 -0.68949749943E+01  0.93436368245E+01  0.28203353544E+02  0.00000000000E+00 0.  1.
</event>
<event>
 8    1  0.1261983E-006  0.9118800E+02  0.7816164E-02  0.1184000E+00
        -11   -1    0    0    0    0  0.00000000000E+00  0.00000000000E+00  0.45593999997E+02  0.45594000000E+02  0.51100000000E-03 0. -1.
         11   -1    0    0    0    0 -0.00000000000E+00 -0.00000000000E+00 -0.45593999997E+02  0.45594000000E+02  0.51100000000E-03 0.  1.
         23    2    1    2    0    0 -0.66613381478E-15  0.35527136788E-14  0.00000000000E+00  0.91188000000E+02  0.91188000000E+02 0.  0.
    9900012    2    3    3    0    0 -0.11595730962E+01  0.27863545135E+02 -0.24042839526E+02  0.54367083529E+02  0.39999998522E+02 0.  0.
         12    1    3    3    0    0  0.11595730962E+01 -0.27863545135E+02  0.24042839526E+02  0.36820916471E+02  0.00000000000E+00 0. -1.
         11    1    4    4    0    0 -0.11125214902E+02  0.24323706278E+02 -0.19443550676E+02  0.33067578637E+02  0.51100000000E-03 0. -1.
        -11    1    4    4    0    0  0.69171524541E+01  0.76228408699E+01 -0.96611652756E+01  0.14117110744E+02  0.51100000000E-03 0.  1.
         12    1    4    4    0    0  0.30484893514E+01 -0.40830020133E+01  0.50618764257E+01  0.71823941493E+01  0.00000000000E+00 0. -1.
</event>
<event>
 8    1  0.1261983E-006  0.9118800E+02  0.7816164E-02  0.1184000E+00
        -11   -1    0    0    0    0  0.00000000000E+00  0.00000000000E+00  0.45593999997E+02  0.45594000000E+02  0.51100000000E-03 0. -1.
         11   -1    0    0    0    0 -0.00000000000E+00 -0.00000000000E+00 -0.45593999997E+02  0.45594000000E+02  0.51100000000E-03 0.  1.
         23    2    1    2    0    0  0.00000000000E+00  0.00000000000E+00  0.35527136788E-14  0.91188000000E+02  0.91188000000E+02 0.  0.
    9900012    2    3    3    0    0 -0.29427516581E+02 -0.72919449100E+01 -0.20895638618E+02  0.54367096889E+02  0.40000028977E+02 0.  0.
         12    1    3    3    0    0  0.29427516581E+02  0.72919449100E+01  0.20895638618E+02  0.36820903111E+02  0.00000000000E+00 0. -1.
         11    1    4    4    0    0 -0.22361726880E+02  0.95160366750E+01 -0.46703373307E+01  0.24746996466E+02  0.51100000000E-03 0. -1.
        -11    1    4    4    0    0 -0.12611642264E+02 -0.12513166729E+02 -0.11705477502E+02  0.21275597900E+02  0.51100000000E-03 0.  1.
         12    1    4    4    0    0  0.55458525631E+01 -0.42948148564E+01 -0.45198237859E+01  0.83445025231E+01  0.00000000000E+00 0. -1.
</event>
<event>
 8    1  0.1261983E-006  0.9118800E+02  0.7816164E-02  0.1184000E+00
        -11   -1    0    0    0    0  0.00000000000E+00  0.00000000000E+00  0.45593999997E+02  0.45594000000E+02  0.51100000000E-03 0.  1.
         11   -1    0    0    0    0 -0.00000000000E+00 -0.00000000000E+00 -0.45593999997E+02  0.45594000000E+02  0.51100000000E-03 0. -1.
         23    2    1    2    0    0  0.00000000000E+00 -0.35527136788E-14 -0.35527136788E-14  0.91188000000E+02  0.91188000000E+02 0.  0.
    9900012    2    3    3    0    0 -0.17239859428E+02 -0.27922067157E+02  0.16701084895E+02  0.54367070842E+02  0.39999969598E+02 0.  0.
         12    1    3    3    0    0  0.17239859428E+02  0.27922067157E+02 -0.16701084895E+02  0.36820929158E+02  0.00000000000E+00 0. -1.
         11    1    4    4    0    0 -0.46051656910E+01 -0.10234059541E+02 -0.10751202195E+02  0.15541295783E+02  0.51100000000E-03 0. -1.
        -11    1    4    4    0    0 -0.13376405384E+02 -0.11620503755E+02  0.10026895646E+02  0.20359345890E+02  0.51100000000E-03 0.  1.
        -12    1    4    4    0    0  0.74171164689E+00 -0.60675038612E+01  0.17425391444E+02  0.18466429168E+02  0.00000000000E+00 0.  1.
</event>
<event>
 8    1  0.1261983E-006  0.9118800E+02  0.7816164E-02  0.1184000E+00
        -11   -1    0    0    0    0  0.00000000000E+00  0.00000000000E+00  0.45593999997E+02  0.45594000000E+02  0.51100000000E-03 0. -1.
         11   -1    0    0    0    0 -0.00000000000E+00 -0.00000000000E+00 -0.45593999997E+02  0.45594000000E+02  0.51100000000E-03 0.  1.
         23    2    1    2    0    0  0.88817841970E-15  0.35527136788E-14 -0.35527136788E-14  0.91188000000E+02  0.91188000000E+02 0.  0.
    9900012    2    3    3    0    0 -0.50160316614E+01 -0.22937662444E+02  0.28363414062E+02  0.54367079462E+02  0.39999989250E+02 0.  0.
        -12    1    3    3    0    0  0.50160316614E+01  0.22937662444E+02 -0.28363414062E+02  0.36820920538E+02  0.00000000000E+00 0.  1.
         11    1    4    4    0    0  0.11911473151E+02 -0.13434736457E+02  0.12960603447E+01  0.18001530740E+02  0.51100000000E-03 0. -1.
        -11    1    4    4    0    0  0.10640079897E+01 -0.53455011899E+01  0.37216472712E+01  0.65997844393E+01  0.51100000000E-03 0.  1.
        -12    1    4    4    0    0 -0.17991512802E+02 -0.41574247963E+01  0.23345706446E+02  0.29765764283E+02  0.00000000000E+00 0.  1.
</event>
<event>
 8    1  0.1261983E-006  0.9118800E+02  0.7816164E-02  0.1184000E+00
        -11   -1    0    0    0    0  0.00000000000E+00  0.00000000000E+00  0.45593999997E+02  0.45594000000E+02  0.51100000000E-03 0. -1.
         11   -1    0    0    0    0 -0.00000000000E+00 -0.00000000000E+00 -0.45593999997E+02  0.45594000000E+02  0.51100000000E-03 0.  1.
         23    2    1    2    0    0 -0.35527136788E-14 -0.66613381478E-15 -0.35527136788E-14  0.91188000000E+02  0.91188000000E+02 0.  0.
    9900012    2    3    3    0    0  0.25025244134E+02  0.10369769587E+01  0.26989656851E+02  0.54367085534E+02  0.40000003092E+02 0.  0.
        -12    1    3    3    0    0 -0.25025244134E+02 -0.10369769587E+01 -0.26989656851E+02  0.36820914466E+02  0.00000000000E+00 0.  1.
         11    1    4    4    0    0 -0.77137669530E+01 -0.51536947345E+01  0.58121737969E+01  0.10947334586E+02  0.51100000000E-03 0. -1.
        -11    1    4    4    0    0  0.20617640983E+02  0.88838622207E+01  0.49547765428E+01  0.22990431455E+02  0.51100000000E-03 0.  1.
        -12    1    4    4    0    0  0.12121370104E+02 -0.26931905274E+01  0.16222706511E+02  0.20429319493E+02  0.00000000000E+00 0.  1.
</event>
<event>
 8    1  0.1261983E-006  0.9118800E+02  0.7816164E-02  0.1184000E+00
        -11   -1    0    0    0    0  0.00000000000E+00  0.00000000000E+00  0.45593999997E+02  0.45594000000E+02  0.51100000000E-03 0. -1.
         11   -1    0    0    0    0 -0.00000000000E+00 -0.00000000000E+00 -0.45593999997E+02  0.45594000000E+02  0.51100000000E-03 0.  1.
         23    2    1    2    0    0 -0.35527136788E-14  0.00000000000E+00  0.35527136788E-14  0.91188000000E+02  0.91188000000E+02 0.  0.
    9900012    2    3    3    0    0 -0.21865053332E+02 -0.83393438218E+01 -0.28428059174E+02  0.54367085278E+02  0.40000002507E+02 0.  0.
         12    1    3    3    0    0  0.21865053332E+02  0.83393438218E+01  0.28428059174E+02  0.36820914722E+02  0.00000000000E+00 0. -1.
         11    1    4    4    0    0  0.10789871630E+01 -0.70171257053E+01 -0.13785254315E+02  0.15506047313E+02  0.51100000000E-03 0. -1.
        -11    1    4    4    0    0 -0.91173354802E+01 -0.72404640370E+01 -0.19793272502E+02  0.22963531138E+02  0.51100000000E-03 0.  1.
         12    1    4    4    0    0 -0.13826705015E+02  0.59182459206E+01  0.51504676439E+01  0.15897506826E+02  0.00000000000E+00 0. -1.
</event>
<event>
 8    1  0.1261983E-006  0.9118800E+02  0.7816164E-02  0.1184000E+00
        -11   -1    0    0    0    0  0.00000000000E+00  0.00000000000E+00  0.45593999997E+02  0.45594000000E+02  0.51100000000E-03 0.  1.
         11   -1    0    0    0    0 -0.00000000000E+00 -0.00000000000E+00 -0.45593999997E+02  0.45594000000E+02  0.51100000000E-03 0. -1.
         23    2    1    2    0    0 -0.13322676296E-14  0.00000000000E+00  0.00000000000E+00  0.91188000000E+02  0.91188000000E+02 0.  0.
    9900012    2    3    3    0    0 -0.24220583144E+01 -0.10363545205E+02 -0.35249270311E+02  0.54367075336E+02  0.39999979843E+02 0.  0.
        -12    1    3    3    0    0  0.24220583144E+01  0.10363545205E+02  0.35249270311E+02  0.36820924664E+02  0.00000000000E+00 0.  1.
         11    1    4    4    0    0 -0.19691195583E+01 -0.40154221688E+00 -0.92201524104E+01  0.94366243286E+01  0.51100000000E-03 0. -1.
        -11    1    4    4    0    0  0.14717076093E+02  0.20269646227E+01 -0.19516731028E+02  0.24527611065E+02  0.51100000000E-03 0.  1.
        -12    1    4    4    0    0 -0.15170014849E+02 -0.11988967611E+02 -0.65123868726E+01  0.20402839942E+02  0.00000000000E+00 0.  1.
</event>
<event>
 8    1  0.1261983E-006  0.9118800E+02  0.7816164E-02  0.1184000E+00
        -11   -1    0    0    0    0  0.00000000000E+00  0.00000000000E+00  0.45593999997E+02  0.45594000000E+02  0.51100000000E-03 0.  1.
         11   -1    0    0    0    0 -0.00000000000E+00 -0.00000000000E+00 -0.45593999997E+02  0.45594000000E+02  0.51100000000E-03 0. -1.
         23    2    1    2    0    0  0.00000000000E+00  0.35527136788E-14  0.00000000000E+00  0.91188000000E+02  0.91188000000E+02 0.  0.
    9900012    2    3    3    0    0 -0.17631962686E+02 -0.26270980073E+02 -0.18834239212E+02  0.54367094676E+02  0.40000023933E+02 0.  0.
        -12    1    3    3    0    0  0.17631962686E+02  0.26270980073E+02  0.18834239212E+02  0.36820905324E+02  0.00000000000E+00 0.  1.
         11    1    4    4    0    0 -0.67792868143E+01 -0.20300732717E+02 -0.16725790064E+02  0.27163036135E+02  0.51100000000E-03 0. -1.
        -11    1    4    4    0    0  0.11491866443E+01  0.74985539217E+01  0.34402208740E+01  0.83297095258E+01  0.51100000000E-03 0.  1.
        -12    1    4    4    0    0 -0.12001862516E+02 -0.13468801278E+02 -0.55486700219E+01  0.18874349015E+02  0.00000000000E+00 0.  1.
</event>
<event>
 8    1  0.1261983E-006  0.9118800E+02  0.7816164E-02  0.1184000E+00
        -11   -1    0    0    0    0  0.00000000000E+00  0.00000000000E+00  0.45593999997E+02  0.45594000000E+02  0.51100000000E-03 0. -1.
         11   -1    0    0    0    0 -0.00000000000E+00 -0.00000000000E+00 -0.45593999997E+02  0.45594000000E+02  0.51100000000E-03 0.  1.
         23    2    1    2    0    0 -0.33306690739E-15 -0.35527136788E-14  0.00000000000E+00  0.91188000000E+02  0.91188000000E+02 0.  0.
    9900012    2    3    3    0    0  0.81396266508E+00  0.26775260140E+02 -0.25262670523E+02  0.54367087291E+02  0.40000007096E+02 0.  0.
         12    1    3    3    0    0 -0.81396266508E+00 -0.26775260140E+02  0.25262670523E+02  0.36820912709E+02  0.00000000000E+00 0. -1.
         11    1    4    4    0    0 -0.40431687692E+00  0.19378517022E+02 -0.78551427409E+01  0.20913958541E+02  0.51100000000E-03 0. -1.
        -11    1    4    4    0    0 -0.96485990481E+01  0.11533868925E+02 -0.15631862359E+02  0.21690567467E+02  0.51100000000E-03 0.  1.
         12    1    4    4    0    0  0.10866878590E+02 -0.41371258070E+01 -0.17756654239E+01  0.11762561283E+02  0.00000000000E+00 0. -1.
</event>
<event>
 8    1  0.1261983E-006  0.9118800E+02  0.7816164E-02  0.1184000E+00
        -11   -1    0    0    0    0  0.00000000000E+00  0.00000000000E+00  0.45593999997E+02  0.45594000000E+02  0.51100000000E-03 0. -1.
         11   -1    0    0    0    0 -0.00000000000E+00 -0.00000000000E+00 -0.45593999997E+02  0.45594000000E+02  0.51100000000E-03 0.  1.
         23    2    1    2    0    0  0.00000000000E+00 -0.17763568394E-14 -0.24424906542E-14  0.91188000000E+02  0.91188000000E+02 0.  0.
    9900012    2    3    3    0    0  0.34788158361E+02 -0.12026834095E+02 -0.95893832149E+00  0.54367078458E+02  0.39999986961E+02 0.  0.
        -12    1    3    3    0    0 -0.34788158361E+02  0.12026834095E+02  0.95893832149E+00  0.36820921542E+02  0.00000000000E+00 0.  1.
         11    1    4    4    0    0  0.34386641012E+02 -0.12246942482E+02 -0.11903972761E+02  0.38394442931E+02  0.51100000000E-03 0.  1.
        -11    1    4    4    0    0  0.35073804628E+01 -0.36050344503E+01  0.96434979307E+01  0.10876352500E+02  0.51100000000E-03 0. -1.
        -12    1    4    4    0    0 -0.31058631142E+01  0.38251428370E+01  0.13015365091E+01  0.50962830271E+01  0.00000000000E+00 0.  1.
</event>
<event>
 8    1  0.1261983E-006  0.9118800E+02  0.7816164E-02  0.1184000E+00
        -11   -1    0    0    0    0  0.00000000000E+00  0.00000000000E+00  0.45593999997E+02  0.45594000000E+02  0.51100000000E-03 0. -1.
         11   -1    0    0    0    0 -0.00000000000E+00 -0.00000000000E+00 -0.45593999997E+02  0.45594000000E+02  0.51100000000E-03 0.  1.
         23    2    1    2    0    0  0.00000000000E+00  0.00000000000E+00 -0.17763568394E-14  0.91188000000E+02  0.91188000000E+02 0.  0.
    9900012    2    3    3    0    0 -0.43415255691E+01 -0.34646422915E+02  0.11685922474E+02  0.54367024333E+02  0.39999863571E+02 0.  0.
        -12    1    3    3    0    0  0.43415255691E+01  0.34646422915E+02 -0.11685922474E+02  0.36820975667E+02  0.00000000000E+00 0.  1.
         11    1    4    4    0    0 -0.17876679113E+01 -0.34360262680E+00 -0.28845252942E+01  0.34109098141E+01  0.51100000000E-03 0. -1.
        -11    1    4    4    0    0 -0.77485501182E+01  0.43051283909E+00  0.13794829596E+02  0.15827908709E+02  0.51100000000E-03 0.  1.
         12    1    4    4    0    0  0.51946924604E+01 -0.34733333127E+02  0.77561817125E+00  0.35128205810E+02  0.00000000000E+00 0. -1.
</event>
<event>
 8    1  0.1261983E-006  0.9118800E+02  0.7816164E-02  0.1184000E+00
        -11   -1    0    0    0    0  0.00000000000E+00  0.00000000000E+00  0.45593999997E+02  0.45594000000E+02  0.51100000000E-03 0. -1.
         11   -1    0    0    0    0 -0.00000000000E+00 -0.00000000000E+00 -0.45593999997E+02  0.45594000000E+02  0.51100000000E-03 0.  1.
         23    2    1    2    0    0  0.88817841970E-15  0.00000000000E+00  0.00000000000E+00  0.91188000000E+02  0.91188000000E+02 0.  0.
    9900012    2    3    3    0    0  0.43850265648E+01 -0.17920618150E+02  0.31865362203E+02  0.54367104829E+02  0.40000047079E+02 0.  0.
        -12    1    3    3    0    0 -0.43850265648E+01  0.17920618150E+02 -0.31865362203E+02  0.36820895171E+02  0.00000000000E+00 0.  1.
         11    1    4    4    0    0  0.14824136680E+02 -0.81820709374E+01  0.12722182279E+02  0.21179122629E+02  0.51100000000E-03 0. -1.
        -11    1    4    4    0    0 -0.12621861035E+01 -0.56926681884E+01  0.22000176799E+02  0.22759775137E+02  0.51100000000E-03 0.  1.
        -12    1    4    4    0    0 -0.91769240119E+01 -0.40458790246E+01 -0.28569968750E+01  0.10428207063E+02  0.00000000000E+00 0.  1.
</event>
<event>
 8    1  0.1261983E-006  0.9118800E+02  0.7816164E-02  0.1184000E+00
        -11   -1    0    0    0    0  0.00000000000E+00  0.00000000000E+00  0.45593999997E+02  0.45594000000E+02  0.51100000000E-03 0.  1.
         11   -1    0    0    0    0 -0.00000000000E+00 -0.00000000000E+00 -0.45593999997E+02  0.45594000000E+02  0.51100000000E-03 0. -1.
         23    2    1    2    0    0  0.22204460493E-15  0.00000000000E+00 -0.35527136788E-14  0.91188000000E+02  0.91188000000E+02 0.  0.
    9900012    2    3    3    0    0 -0.24094270183E+00  0.21852251861E+02  0.29634532520E+02  0.54367021164E+02  0.39999856347E+02 0.  0.
         12    1    3    3    0    0  0.24094270183E+00 -0.21852251861E+02 -0.29634532520E+02  0.36820978836E+02  0.00000000000E+00 0. -1.
         11    1    4    4    0    0  0.31494057614E+01 -0.44460898475E+01  0.20919045227E+01  0.58363118813E+01  0.51100000000E-03 0. -1.
        -11    1    4    4    0    0 -0.15100317398E+00  0.17900308617E+02 -0.16548401664E+01  0.17977273062E+02  0.51100000000E-03 0.  1.
        -12    1    4    4    0    0 -0.32393452892E+01  0.83980330921E+01  0.29197468163E+02  0.30553436220E+02  0.00000000000E+00 0.  1.
</event>
<event>
 8    1  0.1261983E-006  0.9118800E+02  0.7816164E-02  0.1184000E+00
        -11   -1    0    0    0    0  0.00000000000E+00  0.00000000000E+00  0.45593999997E+02  0.45594000000E+02  0.51100000000E-03 0.  1.
         11   -1    0    0    0    0 -0.00000000000E+00 -0.00000000000E+00 -0.45593999997E+02  0.45594000000E+02  0.51100000000E-03 0. -1.
         23    2    1    2    0    0  0.00000000000E+00  0.00000000000E+00  0.35527136788E-14  0.91188000000E+02  0.91188000000E+02 0.  0.
    9900012    2    3    3    0    0  0.26667246263E+02 -0.94873941961E+01  0.23550532772E+02  0.54367078424E+02  0.39999986882E+02 0.  0.
         12    1    3    3    0    0 -0.26667246263E+02  0.94873941961E+01 -0.23550532772E+02  0.36820921576E+02  0.00000000000E+00 0. -1.
         11    1    4    4    0    0 -0.42229021680E+01 -0.83112097006E+01  0.83017163409E+01  0.12483092721E+02  0.51100000000E-03 0. -1.
        -11    1    4    4    0    0  0.16391394845E+02  0.50835566441E+00  0.20606381213E+02  0.26335512097E+02  0.51100000000E-03 0.  1.
         12    1    4    4    0    0  0.14498753586E+02 -0.16845401599E+01 -0.53575647817E+01  0.15548473606E+02  0.00000000000E+00 0. -1.
</event>
<event>
 8    1  0.1261983E-006  0.9118800E+02  0.7816164E-02  0.1184000E+00
        -11   -1    0    0    0    0  0.00000000000E+00  0.00000000000E+00  0.45593999997E+02  0.45594000000E+02  0.51100000000E-03 0. -1.
         11   -1    0    0    0    0 -0.00000000000E+00 -0.00000000000E+00 -0.45593999997E+02  0.45594000000E+02  0.51100000000E-03 0.  1.
         23    2    1    2    0    0 -0.71054273576E-14 -0.77715611724E-15 -0.71054273576E-14  0.91188000000E+02  0.91188000000E+02 0.  0.
    9900012    2    3    3    0    0  0.22965910117E+02  0.47781164139E+00  0.28777047403E+02  0.54367084902E+02  0.40000001651E+02 0.  0.
        -12    1    3    3    0    0 -0.22965910117E+02 -0.47781164139E+00 -0.28777047403E+02  0.36820915098E+02  0.00000000000E+00 0.  1.
         11    1    4    4    0    0  0.25461004005E+02 -0.11799244756E+02  0.18095467086E+02  0.33390579976E+02  0.51100000000E-03 0. -1.
        -11    1    4    4    0    0  0.53055691132E+00 -0.21750958730E+01  0.43870672695E+01  0.49253316823E+01  0.51100000000E-03 0.  1.
        -12    1    4    4    0    0 -0.30256507997E+01  0.14452152271E+02  0.62945130466E+01  0.16051173244E+02  0.00000000000E+00 0.  1.
</event>
<event>
 8    1  0.1261983E-006  0.9118800E+02  0.7816164E-02  0.1184000E+00
        -11   -1    0    0    0    0  0.00000000000E+00  0.00000000000E+00  0.45593999997E+02  0.45594000000E+02  0.51100000000E-03 0. -1.
         11   -1    0    0    0    0 -0.00000000000E+00 -0.00000000000E+00 -0.45593999997E+02  0.45594000000E+02  0.51100000000E-03 0.  1.
         23    2    1    2    0    0 -0.88817841970E-15  0.00000000000E+00  0.00000000000E+00  0.91188000000E+02  0.91188000000E+02 0.  0.
    9900012    2    3    3    0    0 -0.59473664214E+01  0.35401873918E+02  0.81922746017E+01  0.54367119953E+02  0.40000081557E+02 0.  0.
         12    1    3    3    0    0  0.59473664214E+01 -0.35401873918E+02 -0.81922746017E+01  0.36820880047E+02  0.00000000000E+00 0. -1.
         11    1    4    4    0    0 -0.11555958544E+01  0.17238574616E+02  0.17446659895E+02  0.24553814333E+02  0.51100000000E-03 0. -1.
        -11    1    4    4    0    0 -0.54474360819E+01 -0.34796034064E+01 -0.58822672553E+00  0.64906248292E+01  0.51100000000E-03 0.  1.
         12    1    4    4    0    0  0.65566551490E+00  0.21642902709E+02 -0.86661585680E+01  0.23322680791E+02  0.00000000000E+00 0. -1.
</event>
<event>
 8    1  0.1261983E-006  0.9118800E+02  0.7816164E-02  0.1184000E+00
        -11   -1    0    0    0    0  0.00000000000E+00  0.00000000000E+00  0.45593999997E+02  0.45594000000E+02  0.51100000000E-03 0.  1.
         11   -1    0    0    0    0 -0.00000000000E+00 -0.00000000000E+00 -0.45593999997E+02  0.45594000000E+02  0.51100000000E-03 0. -1.
         23    2    1    2    0    0  0.00000000000E+00  0.00000000000E+00 -0.88817841970E-15  0.91188000000E+02  0.91188000000E+02 0.  0.
    9900012    2    3    3    0    0  0.12924872801E+02  0.34311094453E+02 -0.33876774954E+01  0.54367083413E+02  0.39999998257E+02 0.  0.
        -12    1    3    3    0    0 -0.12924872801E+02 -0.34311094453E+02  0.33876774954E+01  0.36820916587E+02  0.00000000000E+00 0.  1.
         11    1    4    4    0    0 -0.22607091500E+01  0.25629014932E+02  0.11424795021E+02  0.28151077311E+02  0.51100000000E-03 0. -1.
        -11    1    4    4    0    0  0.73406215210E+01 -0.22351534890E+01 -0.27414538120E+01  0.81483866316E+01  0.51100000000E-03 0.  1.
         12    1    4    4    0    0  0.78449604302E+01  0.10917233010E+02 -0.12071018705E+02  0.18067619470E+02  0.00000000000E+00 0. -1.
</event>
<event>
 8    1  0.1261983E-006  0.9118800E+02  0.7816164E-02  0.1184000E+00
        -11   -1    0    0    0    0  0.00000000000E+00  0.00000000000E+00  0.45593999997E+02  0.45594000000E+02  0.51100000000E-03 0.  1.
         11   -1    0    0    0    0 -0.00000000000E+00 -0.00000000000E+00 -0.45593999997E+02  0.45594000000E+02  0.51100000000E-03 0. -1.
         23    2    1    2    0    0  0.00000000000E+00  0.35527136788E-14  0.00000000000E+00  0.91188000000E+02  0.91188000000E+02 0.  0.
    9900012    2    3    3    0    0 -0.19499057660E+02 -0.30391289111E+02 -0.72068103426E+01  0.54367057335E+02  0.39999938807E+02 0.  0.
         12    1    3    3    0    0  0.19499057660E+02  0.30391289111E+02  0.72068103426E+01  0.36820942665E+02  0.00000000000E+00 0. -1.
         11    1    4    4    0    0  0.86362181811E+01  0.42800061108E+00 -0.46970811387E+01  0.98402246153E+01  0.51100000000E-03 0. -1.
        -11    1    4    4    0    0 -0.44240439155E-01 -0.86411487711E+01 -0.10688239232E+01  0.87071116991E+01  0.51100000000E-03 0.  1.
        -12    1    4    4    0    0 -0.28091035402E+02 -0.22178140951E+02 -0.14409052808E+01  0.35819721021E+02  0.00000000000E+00 0.  1.
</event>
<event>
 8    1  0.1261983E-006  0.9118800E+02  0.7816164E-02  0.1184000E+00
        -11   -1    0    0    0    0  0.00000000000E+00  0.00000000000E+00  0.45593999997E+02  0.45594000000E+02  0.51100000000E-03 0.  1.
         11   -1    0    0    0    0 -0.00000000000E+00 -0.00000000000E+00 -0.45593999997E+02  0.45594000000E+02  0.51100000000E-03 0. -1.
         23    2    1    2    0    0  0.00000000000E+00  0.22204460493E-14 -0.35527136788E-14  0.91188000000E+02  0.91188000000E+02 0.  0.
    9900012    2    3    3    0    0 -0.25619522584E+02  0.22200689097E+01  0.26353201759E+02  0.54367083576E+02  0.39999998627E+02 0.  0.
         12    1    3    3    0    0  0.25619522584E+02 -0.22200689097E+01 -0.26353201759E+02  0.36820916424E+02  0.00000000000E+00 0. -1.
         11    1    4    4    0    0 -0.16590680424E+01 -0.37534318129E+01  0.11523049696E+01  0.42624598705E+01  0.51100000000E-03 0. -1.
        -11    1    4    4    0    0 -0.89723783770E+01  0.15257966157E+02  0.27103586494E+02  0.32371492182E+02  0.51100000000E-03 0.  1.
        -12    1    4    4    0    0 -0.14988076164E+02 -0.92844654344E+01 -0.19026897045E+01  0.17733131523E+02  0.00000000000E+00 0.  1.
</event>
<event>
 8    1  0.1261983E-006  0.9118800E+02  0.7816164E-02  0.1184000E+00
        -11   -1    0    0    0    0  0.00000000000E+00  0.00000000000E+00  0.45593999997E+02  0.45594000000E+02  0.51100000000E-03 0. -1.
         11   -1    0    0    0    0 -0.00000000000E+00 -0.00000000000E+00 -0.45593999997E+02  0.45594000000E+02  0.51100000000E-03 0.  1.
         23    2    1    2    0    0  0.00000000000E+00  0.33306690739E-15 -0.35527136788E-14  0.91188000000E+02  0.91188000000E+02 0.  0.
    9900012    2    3    3    0    0 -0.25107671855E+02 -0.99129630917E+00  0.26914706708E+02  0.54367091653E+02  0.40000017040E+02 0.  0.
        -12    1    3    3    0    0  0.25107671855E+02  0.99129630917E+00 -0.26914706708E+02  0.36820908347E+02  0.00000000000E+00 0.  1.
         11    1    4    4    0    0 -0.12904232095E+02 -0.10085594403E+02  0.27995619381E+02  0.32434443501E+02  0.51100000000E-03 0. -1.
        -11    1    4    4    0    0  0.23579273210E+01 -0.23883541793E+01 -0.34564680503E+00  0.33739485639E+01  0.51100000000E-03 0.  1.
         12    1    4    4    0    0 -0.14561367081E+02  0.11482652273E+02 -0.73526586795E+00  0.18558699588E+02  0.00000000000E+00 0. -1.
</event>
<event>
 8    1  0.1261983E-006  0.9118800E+02  0.7816164E-02  0.1184000E+00
        -11   -1    0    0    0    0  0.00000000000E+00  0.00000000000E+00  0.45593999997E+02  0.45594000000E+02  0.51100000000E-03 0.  1.
         11   -1    0    0    0    0 -0.00000000000E+00 -0.00000000000E+00 -0.45593999997E+02  0.45594000000E+02  0.51100000000E-03 0. -1.
         23    2    1    2    0    0  0.00000000000E+00  0.71054273576E-14 -0.13322676296E-14  0.91188000000E+02  0.91188000000E+02 0.  0.
    9900012    2    3    3    0    0 -0.10648162215E+02 -0.35242734503E+02  0.58771264217E+00  0.54367094254E+02  0.40000022971E+02 0.  0.
         12    1    3    3    0    0  0.10648162215E+02  0.35242734503E+02 -0.58771264217E+00  0.36820905746E+02  0.00000000000E+00 0. -1.
         11    1    4    4    0    0 -0.50895915254E+00 -0.16708484753E+01 -0.10046381572E+02  0.10197085711E+02  0.51100000000E-03 0. -1.
        -11    1    4    4    0    0 -0.14530024049E+01 -0.11168052979E+02 -0.79565063888E+01  0.13789221062E+02  0.51100000000E-03 0.  1.
        -12    1    4    4    0    0 -0.86862006574E+01 -0.22403833049E+02  0.18590600603E+02  0.30380787481E+02  0.00000000000E+00 0.  1.
</event>
<event>
 8    1  0.1261983E-006  0.9118800E+02  0.7816164E-02  0.1184000E+00
        -11   -1    0    0    0    0  0.00000000000E+00  0.00000000000E+00  0.45593999997E+02  0.45594000000E+02  0.51100000000E-03 0.  1.
         11   -1    0    0    0    0 -0.00000000000E+00 -0.00000000000E+00 -0.45593999997E+02  0.45594000000E+02  0.51100000000E-03 0. -1.
         23    2    1    2    0    0 -0.88817841970E-15 -0.35527136788E-14  0.00000000000E+00  0.91188000000E+02  0.91188000000E+02 0.  0.
    9900012    2    3    3    0    0  0.41518491411E+01  0.22718646911E+02 -0.28677636730E+02  0.54367060072E+02  0.39999945046E+02 0.  0.
        -12    1    3    3    0    0 -0.41518491411E+01 -0.22718646911E+02  0.28677636730E+02  0.36820939928E+02  0.00000000000E+00 0.  1.
         11    1    4    4    0    0 -0.49157818028E+01 -0.13457632411E+01 -0.37785085805E+01  0.63445344028E+01  0.51100000000E-03 0. -1.
        -11    1    4    4    0    0 -0.74824984238E+01  0.30016625579E+01 -0.18934511488E+02  0.20579443295E+02  0.51100000000E-03 0.  1.
         12    1    4    4    0    0  0.16550129368E+02  0.21062747594E+02 -0.59646166618E+01  0.27443082374E+02  0.00000000000E+00 0. -1.
</event>
<event>
 8    1  0.1261983E-006  0.9118800E+02  0.7816164E-02  0.1184000E+00
        -11   -1    0    0    0    0  0.00000000000E+00  0.00000000000E+00  0.45593999997E+02  0.45594000000E+02  0.51100000000E-03 0.  1.
         11   -1    0    0    0    0 -0.00000000000E+00 -0.00000000000E+00 -0.45593999997E+02  0.45594000000E+02  0.51100000000E-03 0. -1.
         23    2    1    2    0    0  0.00000000000E+00 -0.35527136788E-14 -0.35527136788E-14  0.91188000000E+02  0.91188000000E+02 0.  0.
    9900012    2    3    3    0    0 -0.17858542632E+02  0.14465884170E+02 -0.28767962158E+02  0.54367014184E+02  0.39999840434E+02 0.  0.
        -12    1    3    3    0    0  0.17858542632E+02 -0.14465884170E+02  0.28767962158E+02  0.36820985816E+02  0.00000000000E+00 0.  1.
         11    1    4    4    0    0 -0.15714258353E+01  0.73760258297E+01  0.43658525233E+01  0.87141152570E+01  0.51100000000E-03 0. -1.
        -11    1    4    4    0    0 -0.35922978993E+01 -0.95591397956E+01 -0.13697046633E+02  0.17084813273E+02  0.51100000000E-03 0.  1.
         12    1    4    4    0    0 -0.12694818898E+02  0.16648998136E+02 -0.19436768048E+02  0.28568085654E+02  0.00000000000E+00 0. -1.
</event>
<event>
 8    1  0.1261983E-006  0.9118800E+02  0.7816164E-02  0.1184000E+00
        -11   -1    0    0    0    0  0.00000000000E+00  0.00000000000E+00  0.45593999997E+02  0.45594000000E+02  0.51100000000E-03 0. -1.
         11   -1    0    0    0    0 -0.00000000000E+00 -0.00000000000E+00 -0.45593999997E+02  0.45594000000E+02  0.51100000000E-03 0.  1.
         23    2    1    2    0    0  0.00000000000E+00 -0.26645352591E-14 -0.35527136788E-14  0.91188000000E+02  0.91188000000E+02 0.  0.
    9900012    2    3    3    0    0  0.26199390573E+02  0.76740694502E+01  0.24707900598E+02  0.54367085288E+02  0.40000002531E+02 0.  0.
        -12    1    3    3    0    0 -0.26199390573E+02 -0.76740694502E+01 -0.24707900598E+02  0.36820914712E+02  0.00000000000E+00 0.  1.
         11    1    4    4    0    0  0.10644583239E+02  0.16621233502E+02  0.21299015205E+02  0.29038261043E+02  0.51100000000E-03 0. -1.
        -11    1    4    4    0    0  0.86175594660E+01 -0.13954768171E+02  0.35095574681E+01  0.16772444060E+02  0.51100000000E-03 0.  1.
        -12    1    4    4    0    0  0.69372478677E+01  0.50076041193E+01 -0.10067207557E+00  0.85563801844E+01  0.00000000000E+00 0.  1.
</event>
<event>
 8    1  0.1261983E-006  0.9118800E+02  0.7816164E-02  0.1184000E+00
        -11   -1    0    0    0    0  0.00000000000E+00  0.00000000000E+00  0.45593999997E+02  0.45594000000E+02  0.51100000000E-03 0.  1.
         11   -1    0    0    0    0 -0.00000000000E+00 -0.00000000000E+00 -0.45593999997E+02  0.45594000000E+02  0.51100000000E-03 0. -1.
         23    2    1    2    0    0 -0.17763568394E-14  0.00000000000E+00  0.00000000000E+00  0.91188000000E+02  0.91188000000E+02 0.  0.
    9900012    2    3    3    0    0  0.49046025811E+01 -0.15353548483E+02  0.33105822799E+02  0.54367053778E+02  0.39999930698E+02 0.  0.
         12    1    3    3    0    0 -0.49046025811E+01  0.15353548483E+02 -0.33105822799E+02  0.36820946222E+02  0.00000000000E+00 0. -1.
         11    1    4    4    0    0  0.73388724951E+01 -0.10584477908E+02  0.16300215410E+01  0.12982572648E+02  0.51100000000E-03 0. -1.
        -11    1    4    4    0    0 -0.85829618980E+01 -0.12949983736E+02  0.12973932845E+02  0.20240855896E+02  0.51100000000E-03 0.  1.
        -12    1    4    4    0    0  0.61486919840E+01  0.81809131608E+01  0.18501868413E+02  0.21143625234E+02  0.00000000000E+00 0.  1.
</event>
<event>
 8    1  0.1261983E-006  0.9118800E+02  0.7816164E-02  0.1184000E+00
        -11   -1    0    0    0    0  0.00000000000E+00  0.00000000000E+00  0.45593999997E+02  0.45594000000E+02  0.51100000000E-03 0.  1.
         11   -1    0    0    0    0 -0.00000000000E+00 -0.00000000000E+00 -0.45593999997E+02  0.45594000000E+02  0.51100000000E-03 0. -1.
         23    2    1    2    0    0  0.99920072216E-15 -0.17763568394E-14  0.00000000000E+00  0.91188000000E+02  0.91188000000E+02 0.  0.
    9900012    2    3    3    0    0 -0.60797037500E+00 -0.14541787297E+02 -0.33822224383E+02  0.54367135426E+02  0.40000116831E+02 0.  0.
        -12    1    3    3    0    0  0.60797037500E+00  0.14541787297E+02  0.33822224383E+02  0.36820864574E+02  0.00000000000E+00 0.  1.
         11    1    4    4    0    0  0.30168358816E+01 -0.23094293470E+02 -0.20897398577E+02  0.31291355950E+02  0.51100000000E-03 0. -1.
        -11    1    4    4    0    0 -0.93014163382E+01  0.82339607702E+01 -0.51586667375E+01  0.13450884678E+02  0.51100000000E-03 0.  1.
         12    1    4    4    0    0  0.56766100816E+01  0.31854540303E+00 -0.77661590684E+01  0.96248947978E+01  0.00000000000E+00 0. -1.
</event>
<event>
 8    1  0.1261983E-006  0.9118800E+02  0.7816164E-02  0.1184000E+00
        -11   -1    0    0    0    0  0.00000000000E+00  0.00000000000E+00  0.45593999997E+02  0.45594000000E+02  0.51100000000E-03 0.  1.
         11   -1    0    0    0    0 -0.00000000000E+00 -0.00000000000E+00 -0.45593999997E+02  0.45594000000E+02  0.51100000000E-03 0. -1.
         23    2    1    2    0    0  0.00000000000E+00 -0.35527136788E-14  0.17763568394E-14  0.91188000000E+02  0.91188000000E+02 0.  0.
    9900012    2    3    3    0    0  0.27972209320E+02  0.22090114048E+02 -0.92391370231E+01  0.54367091729E+02  0.40000017215E+02 0.  0.
        -12    1    3    3    0    0 -0.27972209320E+02 -0.22090114048E+02  0.92391370231E+01  0.36820908271E+02  0.00000000000E+00 0.  1.
         11    1    4    4    0    0  0.50524748054E+01  0.58159599085E+01 -0.67885011310E+01  0.10268234473E+02  0.51100000000E-03 0. -1.
        -11    1    4    4    0    0  0.11468723094E+01 -0.46509443289E+01  0.10269054926E+02  0.11331376288E+02  0.51100000000E-03 0.  1.
        -12    1    4    4    0    0  0.21772862206E+02  0.20925098469E+02 -0.12719690818E+02  0.32767480969E+02  0.00000000000E+00 0.  1.
</event>
<event>
 8    1  0.1261983E-006  0.9118800E+02  0.7816164E-02  0.1184000E+00
        -11   -1    0    0    0    0  0.00000000000E+00  0.00000000000E+00  0.45593999997E+02  0.45594000000E+02  0.51100000000E-03 0. -1.
         11   -1    0    0    0    0 -0.00000000000E+00 -0.00000000000E+00 -0.45593999997E+02  0.45594000000E+02  0.51100000000E-03 0.  1.
         23    2    1    2    0    0 -0.11102230246E-15  0.16427831318E-14  0.00000000000E+00  0.91188000000E+02  0.91188000000E+02 0.  0.
    9900012    2    3    3    0    0 -0.98387048666E+00 -0.82855497324E-02  0.36807763989E+02  0.54367088012E+02  0.40000008740E+02 0.  0.
        -12    1    3    3    0    0  0.98387048666E+00  0.82855497324E-02 -0.36807763989E+02  0.36820911988E+02  0.00000000000E+00 0.  1.
         11    1    4    4    0    0 -0.79111594947E+01  0.17249228089E+02  0.25198880147E+02  0.31545298780E+02  0.51100000000E-03 0. -1.
        -11    1    4    4    0    0  0.70902250796E+01 -0.94578566270E+01  0.75736218615E+01  0.14038592950E+02  0.51100000000E-03 0.  1.
         12    1    4    4    0    0 -0.16293607153E+00 -0.77996570115E+01  0.40352619803E+01  0.87831962810E+01  0.00000000000E+00 0. -1.
</event>
<event>
 8    1  0.1261983E-006  0.9118800E+02  0.7816164E-02  0.1184000E+00
        -11   -1    0    0    0    0  0.00000000000E+00  0.00000000000E+00  0.45593999997E+02  0.45594000000E+02  0.51100000000E-03 0.  1.
         11   -1    0    0    0    0 -0.00000000000E+00 -0.00000000000E+00 -0.45593999997E+02  0.45594000000E+02  0.51100000000E-03 0. -1.
         23    2    1    2    0    0  0.35527136788E-14  0.38857805862E-15 -0.71054273576E-14  0.91188000000E+02  0.91188000000E+02 0.  0.
    9900012    2    3    3    0    0 -0.19926608006E+02  0.12172446989E+00  0.30962798311E+02  0.54367090143E+02  0.40000013599E+02 0.  0.
         12    1    3    3    0    0  0.19926608006E+02 -0.12172446989E+00 -0.30962798311E+02  0.36820909857E+02  0.00000000000E+00 0. -1.
         11    1    4    4    0    0 -0.24965712390E+01 -0.49979871568E+01 -0.10784542872E+01  0.56899742953E+01  0.51100000000E-03 0. -1.
        -11    1    4    4    0    0 -0.41897319810E+01 -0.81235162222E+01  0.28087887126E+02  0.29537683953E+02  0.51100000000E-03 0.  1.
         12    1    4    4    0    0 -0.13240304786E+02  0.13243227849E+02  0.39533654720E+01  0.19139431894E+02  0.00000000000E+00 0. -1.
</event>
<event>
 8    1  0.1261983E-006  0.9118800E+02  0.7816164E-02  0.1184000E+00
        -11   -1    0    0    0    0  0.00000000000E+00  0.00000000000E+00  0.45593999997E+02  0.45594000000E+02  0.51100000000E-03 0.  1.
         11   -1    0    0    0    0 -0.00000000000E+00 -0.00000000000E+00 -0.45593999997E+02  0.45594000000E+02  0.51100000000E-03 0. -1.
         23    2    1    2    0    0  0.00000000000E+00  0.00000000000E+00 -0.17763568394E-14  0.91188000000E+02  0.91188000000E+02 0.  0.
    9900012    2    3    3    0    0  0.31102131496E+02  0.13530158491E+02  0.14330649997E+02  0.54367145831E+02  0.40000140551E+02 0.  0.
         12    1    3    3    0    0 -0.31102131496E+02 -0.13530158491E+02 -0.14330649997E+02  0.36820854169E+02  0.00000000000E+00 0. -1.
         11    1    4    4    0    0 -0.67074827148E+01  0.88471886857E+01  0.90944469791E+00  0.11139576380E+02  0.51100000000E-03 0. -1.
        -11    1    4    4    0    0  0.38385801736E+01  0.22661471212E+01 -0.30455554804E+01  0.53986599235E+01  0.51100000000E-03 0.  1.
        -12    1    4    4    0    0  0.33971034038E+02  0.24168226844E+01  0.16466760779E+02  0.37828909527E+02  0.00000000000E+00 0.  1.
</event>
<event>
 8    1  0.1261983E-006  0.9118800E+02  0.7816164E-02  0.1184000E+00
        -11   -1    0    0    0    0  0.00000000000E+00  0.00000000000E+00  0.45593999997E+02  0.45594000000E+02  0.51100000000E-03 0. -1.
         11   -1    0    0    0    0 -0.00000000000E+00 -0.00000000000E+00 -0.45593999997E+02  0.45594000000E+02  0.51100000000E-03 0.  1.
         23    2    1    2    0    0  0.71054273576E-14  0.00000000000E+00  0.00000000000E+00  0.91188000000E+02  0.91188000000E+02 0.  0.
    9900012    2    3    3    0    0 -0.22707005378E+02  0.82389479153E+01  0.27790137297E+02  0.54367080851E+02  0.39999992416E+02 0.  0.
        -12    1    3    3    0    0  0.22707005378E+02 -0.82389479153E+01 -0.27790137297E+02  0.36820919149E+02  0.00000000000E+00 0.  1.
         11    1    4    4    0    0 -0.24407926038E+01  0.20330404010E+02  0.83070091907E+01  0.22097266747E+02  0.51100000000E-03 0. -1.
        -11    1    4    4    0    0 -0.17287607768E+02 -0.80014282517E+01  0.19429132589E+02  0.27209840680E+02  0.51100000000E-03 0.  1.
         12    1    4    4    0    0 -0.29786050058E+01 -0.40900278426E+01  0.53995517440E-01  0.50599734239E+01  0.00000000000E+00 0. -1.
</event>
<event>
 8    1  0.1261983E-006  0.9118800E+02  0.7816164E-02  0.1184000E+00
        -11   -1    0    0    0    0  0.00000000000E+00  0.00000000000E+00  0.45593999997E+02  0.45594000000E+02  0.51100000000E-03 0.  1.
         11   -1    0    0    0    0 -0.00000000000E+00 -0.00000000000E+00 -0.45593999997E+02  0.45594000000E+02  0.51100000000E-03 0. -1.
         23    2    1    2    0    0  0.00000000000E+00  0.17763568394E-14 -0.17763568394E-14  0.91188000000E+02  0.91188000000E+02 0.  0.
    9900012    2    3    3    0    0  0.33121034935E+02 -0.12568508053E+02 -0.10040261766E+02  0.54367119970E+02  0.40000081595E+02 0.  0.
        -12    1    3    3    0    0 -0.33121034935E+02  0.12568508053E+02  0.10040261766E+02  0.36820880030E+02  0.00000000000E+00 0.  1.
         11    1    4    4    0    0  0.33579300382E+02  0.30773089611E+01 -0.12350817500E+01  0.33742623961E+02  0.51100000000E-03 0. -1.
        -11    1    4    4    0    0  0.39033596536E+01 -0.78103882935E+01 -0.76009839801E+01  0.11576413072E+02  0.51100000000E-03 0.  1.
         12    1    4    4    0    0 -0.43616251000E+01 -0.78354287208E+01 -0.12041960354E+01  0.90480829375E+01  0.00000000000E+00 0. -1.
</event>
<event>
 8    1  0.1261983E-006  0.9118800E+02  0.7816164E-02  0.1184000E+00
        -11   -1    0    0    0    0  0.00000000000E+00  0.00000000000E+00  0.45593999997E+02  0.45594000000E+02  0.51100000000E-03 0.  1.
         11   -1    0    0    0    0 -0.00000000000E+00 -0.00000000000E+00 -0.45593999997E+02  0.45594000000E+02  0.51100000000E-03 0. -1.
         23    2    1    2    0    0 -0.17763568394E-14  0.35527136788E-14  0.17763568394E-14  0.91188000000E+02  0.91188000000E+02 0.  0.
    9900012    2    3    3    0    0  0.11599234139E+02 -0.31696930600E+02  0.14715360259E+02  0.54367089235E+02  0.40000011528E+02 0.  0.
         12    1    3    3    0    0 -0.11599234139E+02  0.31696930600E+02 -0.14715360259E+02  0.36820910765E+02  0.00000000000E+00 0. -1.
         11    1    4    4    0    0 -0.31299510681E+01 -0.64368023377E+01 -0.60530233783E+00  0.71829944455E+01  0.51100000000E-03 0. -1.
        -11    1    4    4    0    0 -0.75909871529E+01 -0.16344453378E+01  0.12295147097E+02  0.14541841009E+02  0.51100000000E-03 0.  1.
        -12    1    4    4    0    0  0.22320172360E+02 -0.23625682924E+02  0.30255154993E+01  0.32642253780E+02  0.00000000000E+00 0.  1.
</event>
<event>
 8    1  0.1261983E-006  0.9118800E+02  0.7816164E-02  0.1184000E+00
        -11   -1    0    0    0    0  0.00000000000E+00  0.00000000000E+00  0.45593999997E+02  0.45594000000E+02  0.51100000000E-03 0. -1.
         11   -1    0    0    0    0 -0.00000000000E+00 -0.00000000000E+00 -0.45593999997E+02  0.45594000000E+02  0.51100000000E-03 0.  1.
         23    2    1    2    0    0  0.00000000000E+00 -0.35527136788E-14  0.00000000000E+00  0.91188000000E+02  0.91188000000E+02 0.  0.
    9900012    2    3    3    0    0 -0.27451520646E+02 -0.23189843470E+02 -0.80265327657E+01  0.54367081297E+02  0.39999993432E+02 0.  0.
        -12    1    3    3    0    0  0.27451520646E+02  0.23189843470E+02  0.80265327657E+01  0.36820918703E+02  0.00000000000E+00 0.  1.
         11    1    4    4    0    0 -0.23940184875E+01 -0.65316160868E+01 -0.84866565103E+01  0.10973453067E+02  0.51100000000E-03 0. -1.
        -11    1    4    4    0    0  0.57887898499E+01 -0.42088087218E+01  0.64028168926E+01  0.96031361130E+01  0.51100000000E-03 0.  1.
        -12    1    4    4    0    0 -0.30846292008E+02 -0.12449418662E+02 -0.59426931480E+01  0.33790492117E+02  0.00000000000E+00 0.  1.
</event>
<event>
 8    1  0.1261983E-006  0.9118800E+02  0.7816164E-02  0.1184000E+00
        -11   -1    0    0    0    0  0.00000000000E+00  0.00000000000E+00  0.45593999997E+02  0.45594000000E+02  0.51100000000E-03 0.  1.
         11   -1    0    0    0    0 -0.00000000000E+00 -0.00000000000E+00 -0.45593999997E+02  0.45594000000E+02  0.51100000000E-03 0. -1.
         23    2    1    2    0    0  0.00000000000E+00  0.00000000000E+00  0.88817841970E-15  0.91188000000E+02  0.91188000000E+02 0.  0.
    9900012    2    3    3    0    0  0.35609626617E+02  0.55175244160E+01 -0.75689741111E+01  0.54367109835E+02  0.40000058491E+02 0.  0.
         12    1    3    3    0    0 -0.35609626617E+02 -0.55175244160E+01  0.75689741111E+01  0.36820890165E+02  0.00000000000E+00 0. -1.
         11    1    4    4    0    0 -0.31030311409E+00  0.10043751490E+02 -0.81443781621E+00  0.10081494990E+02  0.51100000000E-03 0.  1.
        -11    1    4    4    0    0 -0.11594284890E+01  0.24905050598E+01 -0.59342412371E+01  0.65392743630E+01  0.51100000000E-03 0. -1.
        -12    1    4    4    0    0  0.37079358220E+02 -0.70167321337E+01 -0.82029505781E+00  0.37746340482E+02  0.00000000000E+00 0.  1.
</event>
<event>
 8    1  0.1261983E-006  0.9118800E+02  0.7816164E-02  0.1184000E+00
        -11   -1    0    0    0    0  0.00000000000E+00  0.00000000000E+00  0.45593999997E+02  0.45594000000E+02  0.51100000000E-03 0.  1.
         11   -1    0    0    0    0 -0.00000000000E+00 -0.00000000000E+00 -0.45593999997E+02  0.45594000000E+02  0.51100000000E-03 0. -1.
         23    2    1    2    0    0 -0.88817841970E-15  0.00000000000E+00  0.35527136788E-14  0.91188000000E+02  0.91188000000E+02 0.  0.
    9900012    2    3    3    0    0  0.28915653118E+01  0.24424658654E+02 -0.27401569745E+02  0.54367202551E+02  0.40000269854E+02 0.  0.
        -12    1    3    3    0    0 -0.28915653118E+01 -0.24424658654E+02  0.27401569745E+02  0.36820797449E+02  0.00000000000E+00 0.  1.
         11    1    4    4    0    0  0.64721385190E+00  0.24621458491E+01  0.42800924988E+01  0.49799839369E+01  0.51100000000E-03 0. -1.
        -11    1    4    4    0    0 -0.94272376202E+01  0.14650267400E+02 -0.31481142858E+01  0.17703495922E+02  0.51100000000E-03 0.  1.
         12    1    4    4    0    0  0.11671589080E+02  0.73122454045E+01 -0.28533547958E+02  0.31683722691E+02  0.00000000000E+00 0. -1.
</event>
<event>
 8    1  0.1261983E-006  0.9118800E+02  0.7816164E-02  0.1184000E+00
        -11   -1    0    0    0    0  0.00000000000E+00  0.00000000000E+00  0.45593999997E+02  0.45594000000E+02  0.51100000000E-03 0.  1.
         11   -1    0    0    0    0 -0.00000000000E+00 -0.00000000000E+00 -0.45593999997E+02  0.45594000000E+02  0.51100000000E-03 0. -1.
         23    2    1    2    0    0 -0.17763568394E-14  0.00000000000E+00 -0.35527136788E-14  0.91188000000E+02  0.91188000000E+02 0.  0.
    9900012    2    3    3    0    0  0.14445607075E+02 -0.23601391414E+02  0.24291555157E+02  0.54367069914E+02  0.39999967483E+02 0.  0.
         12    1    3    3    0    0 -0.14445607075E+02  0.23601391414E+02 -0.24291555157E+02  0.36820930086E+02  0.00000000000E+00 0. -1.
         11    1    4    4    0    0  0.60549211360E+01 -0.11664287249E+02  0.15439406372E+01  0.13232589313E+02  0.51100000000E-03 0. -1.
        -11    1    4    4    0    0  0.18965861451E+02 -0.10992553359E+02  0.88379709841E+01  0.23635775031E+02  0.51100000000E-03 0.  1.
         12    1    4    4    0    0 -0.10575175512E+02 -0.94455080662E+00  0.13909643536E+02  0.17498705570E+02  0.00000000000E+00 0. -1.
</event>
<event>
 8    1  0.1261983E-006  0.9118800E+02  0.7816164E-02  0.1184000E+00
        -11   -1    0    0    0    0  0.00000000000E+00  0.00000000000E+00  0.45593999997E+02  0.45594000000E+02  0.51100000000E-03 0. -1.
         11   -1    0    0    0    0 -0.00000000000E+00 -0.00000000000E+00 -0.45593999997E+02  0.45594000000E+02  0.51100000000E-03 0.  1.
         23    2    1    2    0    0  0.44408920985E-15  0.00000000000E+00  0.00000000000E+00  0.91188000000E+02  0.91188000000E+02 0.  0.
    9900012    2    3    3    0    0 -0.67621163055E+00 -0.36533265121E+02 -0.45432352115E+01  0.54367113146E+02  0.40000066038E+02 0.  0.
         12    1    3    3    0    0  0.67621163055E+00  0.36533265121E+02  0.45432352115E+01  0.36820886854E+02  0.00000000000E+00 0. -1.
         11    1    4    4    0    0  0.13748278821E+01 -0.11347269470E+02  0.87080911661E+01  0.14369465131E+02  0.51100000000E-03 0. -1.
        -11    1    4    4    0    0 -0.75070959708E+01 -0.11336271302E+02 -0.19567319810E+02  0.23827453531E+02  0.51100000000E-03 0.  1.
        -12    1    4    4    0    0  0.54560564582E+01 -0.13849724349E+02  0.63159934326E+01  0.16170194484E+02  0.00000000000E+00 0.  1.
</event>
<event>
 8    1  0.1261983E-006  0.9118800E+02  0.7816164E-02  0.1184000E+00
        -11   -1    0    0    0    0  0.00000000000E+00  0.00000000000E+00  0.45593999997E+02  0.45594000000E+02  0.51100000000E-03 0. -1.
         11   -1    0    0    0    0 -0.00000000000E+00 -0.00000000000E+00 -0.45593999997E+02  0.45594000000E+02  0.51100000000E-03 0.  1.
         23    2    1    2    0    0  0.00000000000E+00  0.00000000000E+00 -0.35527136788E-14  0.91188000000E+02  0.91188000000E+02 0.  0.
    9900012    2    3    3    0    0 -0.28557941760E+02 -0.13693973447E+02 -0.18780278339E+02  0.54367084737E+02  0.40000001275E+02 0.  0.
         12    1    3    3    0    0  0.28557941760E+02  0.13693973447E+02  0.18780278339E+02  0.36820915263E+02  0.00000000000E+00 0. -1.
         11    1    4    4    0    0  0.78950210899E+00  0.43270668284E+00  0.15534741857E+01  0.17955029825E+01  0.51100000000E-03 0. -1.
        -11    1    4    4    0    0 -0.25734988793E+02 -0.11690855403E+02 -0.30455931364E+02  0.41551528296E+02  0.51100000000E-03 0.  1.
        -12    1    4    4    0    0 -0.36124550755E+01 -0.24358247264E+01  0.10122178839E+02  0.11020053458E+02  0.00000000000E+00 0.  1.
</event>
<event>
 8    1  0.1261983E-006  0.9118800E+02  0.7816164E-02  0.1184000E+00
        -11   -1    0    0    0    0  0.00000000000E+00  0.00000000000E+00  0.45593999997E+02  0.45594000000E+02  0.51100000000E-03 0. -1.
         11   -1    0    0    0    0 -0.00000000000E+00 -0.00000000000E+00 -0.45593999997E+02  0.45594000000E+02  0.51100000000E-03 0.  1.
         23    2    1    2    0    0  0.00000000000E+00  0.00000000000E+00  0.55511151231E-15  0.91188000000E+02  0.91188000000E+02 0.  0.
    9900012    2    3    3    0    0  0.35109378770E+02  0.11059987268E+02  0.88711107075E+00  0.54367098843E+02  0.40000033433E+02 0.  0.
        -12    1    3    3    0    0 -0.35109378770E+02 -0.11059987268E+02 -0.88711107075E+00  0.36820901157E+02  0.00000000000E+00 0.  1.
         11    1    4    4    0    0  0.47105234649E+00 -0.13939242944E+01  0.24127391490E+01  0.28259911029E+01  0.51100000000E-03 0. -1.
        -11    1    4    4    0    0  0.55112744901E+00  0.11077942520E+02  0.10593215866E+02  0.15337560908E+02  0.51100000000E-03 0.  1.
         12    1    4    4    0    0  0.34087198974E+02  0.13759690416E+01 -0.12118843944E+02  0.36203546833E+02  0.00000000000E+00 0. -1.
</event>
<event>
 8    1  0.1261983E-006  0.9118800E+02  0.7816164E-02  0.1184000E+00
        -11   -1    0    0    0    0  0.00000000000E+00  0.00000000000E+00  0.45593999997E+02  0.45594000000E+02  0.51100000000E-03 0.  1.
         11   -1    0    0    0    0 -0.00000000000E+00 -0.00000000000E+00 -0.45593999997E+02  0.45594000000E+02  0.51100000000E-03 0. -1.
         23    2    1    2    0    0 -0.35527136788E-14  0.44408920985E-15  0.00000000000E+00  0.91188000000E+02  0.91188000000E+02 0.  0.
    9900012    2    3    3    0    0 -0.18284430657E+02 -0.25178163836E+01  0.31860960039E+02  0.54367074177E+02  0.39999977202E+02 0.  0.
         12    1    3    3    0    0  0.18284430657E+02  0.25178163836E+01 -0.31860960039E+02  0.36820925823E+02  0.00000000000E+00 0. -1.
         11    1    4    4    0    0  0.59268105220E+01 -0.15595774500E+00  0.69266006681E+01  0.91175217498E+01  0.51100000000E-03 0. -1.
        -11    1    4    4    0    0 -0.81350159685E+00  0.86815335469E+01  0.15359023220E+02  0.17661551577E+02  0.51100000000E-03 0.  1.
        -12    1    4    4    0    0 -0.23397739582E+02 -0.11043392185E+02  0.95753361513E+01  0.27588000851E+02  0.00000000000E+00 0.  1.
</event>
<event>
 8    1  0.1261983E-006  0.9118800E+02  0.7816164E-02  0.1184000E+00
        -11   -1    0    0    0    0  0.00000000000E+00  0.00000000000E+00  0.45593999997E+02  0.45594000000E+02  0.51100000000E-03 0.  1.
         11   -1    0    0    0    0 -0.00000000000E+00 -0.00000000000E+00 -0.45593999997E+02  0.45594000000E+02  0.51100000000E-03 0. -1.
         23    2    1    2    0    0  0.00000000000E+00  0.13322676296E-14 -0.35527136788E-14  0.91188000000E+02  0.91188000000E+02 0.  0.
    9900012    2    3    3    0    0 -0.23901492169E+02 -0.34628162763E+01 -0.27794024456E+02  0.54367079045E+02  0.39999988299E+02 0.  0.
        -12    1    3    3    0    0  0.23901492169E+02  0.34628162763E+01  0.27794024456E+02  0.36820920955E+02  0.00000000000E+00 0.  1.
         11    1    4    4    0    0  0.88716331409E+01  0.46987308610E+01 -0.95796978192E+01  0.13876402879E+02  0.51100000000E-03 0. -1.
        -11    1    4    4    0    0 -0.15604546138E+02  0.23006651780E+00 -0.13902538920E+02  0.20900607155E+02  0.51100000000E-03 0.  1.
         12    1    4    4    0    0 -0.17168579172E+02 -0.83916136551E+01 -0.43117877173E+01  0.19590069011E+02  0.00000000000E+00 0. -1.
</event>
<event>
 8    1  0.1261983E-006  0.9118800E+02  0.7816164E-02  0.1184000E+00
        -11   -1    0    0    0    0  0.00000000000E+00  0.00000000000E+00  0.45593999997E+02  0.45594000000E+02  0.51100000000E-03 0.  1.
         11   -1    0    0    0    0 -0.00000000000E+00 -0.00000000000E+00 -0.45593999997E+02  0.45594000000E+02  0.51100000000E-03 0. -1.
         23    2    1    2    0    0  0.17763568394E-14  0.17763568394E-14 -0.71054273576E-14  0.91188000000E+02  0.91188000000E+02 0.  0.
    9900012    2    3    3    0    0  0.12376113648E+02  0.10954452430E+02 -0.32903053634E+02  0.54367093500E+02  0.40000021251E+02 0.  0.
        -12    1    3    3    0    0 -0.12376113648E+02 -0.10954452430E+02  0.32903053634E+02  0.36820906500E+02  0.00000000000E+00 0.  1.
         11    1    4    4    0    0 -0.23775780321E+01 -0.56803554991E+01 -0.20204446574E+02  0.21122002214E+02  0.51100000000E-03 0. -1.
        -11    1    4    4    0    0  0.15337417725E+02  0.13277380569E+02 -0.17881613403E+02  0.27042139623E+02  0.51100000000E-03 0.  1.
        -12    1    4    4    0    0 -0.58372604426E+00  0.33574273592E+01  0.51830063437E+01  0.62029516623E+01  0.00000000000E+00 0.  1.
</event>
<event>
 8    1  0.1261983E-006  0.9118800E+02  0.7816164E-02  0.1184000E+00
        -11   -1    0    0    0    0  0.00000000000E+00  0.00000000000E+00  0.45593999997E+02  0.45594000000E+02  0.51100000000E-03 0.  1.
         11   -1    0    0    0    0 -0.00000000000E+00 -0.00000000000E+00 -0.45593999997E+02  0.45594000000E+02  0.51100000000E-03 0. -1.
         23    2    1    2    0    0  0.00000000000E+00 -0.35527136788E-14  0.35527136788E-14  0.91188000000E+02  0.91188000000E+02 0.  0.
    9900012    2    3    3    0    0 -0.16848377933E+02  0.21119045586E+02 -0.25017948164E+02  0.54367086706E+02  0.40000005764E+02 0.  0.
        -12    1    3    3    0    0  0.16848377933E+02 -0.21119045586E+02  0.25017948164E+02  0.36820913294E+02  0.00000000000E+00 0.  1.
         11    1    4    4    0    0 -0.14518376210E+02  0.16325029796E+02 -0.11310510634E+02  0.24601168604E+02  0.51100000000E-03 0. -1.
        -11    1    4    4    0    0 -0.73467008549E+01  0.63779361463E+00  0.56831798258E+01  0.93101733249E+01  0.51100000000E-03 0.  1.
        -12    1    4    4    0    0  0.50166991322E+01  0.41562221755E+01 -0.19390617356E+02  0.20455744777E+02  0.00000000000E+00 0.  1.
</event>
<event>
 8    1  0.1261983E-006  0.9118800E+02  0.7816164E-02  0.1184000E+00
        -11   -1    0    0    0    0  0.00000000000E+00  0.00000000000E+00  0.45593999997E+02  0.45594000000E+02  0.51100000000E-03 0. -1.
         11   -1    0    0    0    0 -0.00000000000E+00 -0.00000000000E+00 -0.45593999997E+02  0.45594000000E+02  0.51100000000E-03 0.  1.
         23    2    1    2    0    0  0.00000000000E+00  0.00000000000E+00  0.00000000000E+00  0.91188000000E+02  0.91188000000E+02 0.  0.
    9900012    2    3    3    0    0 -0.26374820502E+02  0.91637450893E+01 -0.24003573679E+02  0.54367123721E+02  0.40000090146E+02 0.  0.
         12    1    3    3    0    0  0.26374820502E+02 -0.91637450893E+01  0.24003573679E+02  0.36820876279E+02  0.00000000000E+00 0. -1.
         11    1    4    4    0    0 -0.10572980530E+02  0.80713205194E+00  0.80664354597E+01  0.13323166317E+02  0.51100000000E-03 0. -1.
        -11    1    4    4    0    0 -0.94978165910E+01 -0.50773127940E+01 -0.13064517260E+02  0.16931309361E+02  0.51100000000E-03 0.  1.
         12    1    4    4    0    0 -0.63040233817E+01  0.13433925831E+02 -0.19005491879E+02  0.24112648042E+02  0.00000000000E+00 0. -1.
</event>
<event>
 8    1  0.1261983E-006  0.9118800E+02  0.7816164E-02  0.1184000E+00
        -11   -1    0    0    0    0  0.00000000000E+00  0.00000000000E+00  0.45593999997E+02  0.45594000000E+02  0.51100000000E-03 0. -1.
         11   -1    0    0    0    0 -0.00000000000E+00 -0.00000000000E+00 -0.45593999997E+02  0.45594000000E+02  0.51100000000E-03 0.  1.
         23    2    1    2    0    0  0.88817841970E-15  0.00000000000E+00  0.00000000000E+00  0.91188000000E+02  0.91188000000E+02 0.  0.
    9900012    2    3    3    0    0 -0.72841486737E+01  0.73799430887E+01 -0.35330744387E+02  0.54367029333E+02  0.39999874970E+02 0.  0.
         12    1    3    3    0    0  0.72841486737E+01 -0.73799430887E+01  0.35330744387E+02  0.36820970667E+02  0.00000000000E+00 0. -1.
         11    1    4    4    0    0  0.57801394342E+01  0.11092179903E+02  0.19000184218E+01  0.12651345270E+02  0.51100000000E-03 0. -1.
        -11    1    4    4    0    0 -0.12663731458E+02 -0.14161608030E+01 -0.37266283031E+02  0.39384660175E+02  0.51100000000E-03 0.  1.
         12    1    4    4    0    0 -0.40055664949E+00 -0.22960760113E+01  0.35520222134E-01  0.23310238877E+01  0.00000000000E+00 0. -1.
</event>
<event>
 8    1  0.1261983E-006  0.9118800E+02  0.7816164E-02  0.1184000E+00
        -11   -1    0    0    0    0  0.00000000000E+00  0.00000000000E+00  0.45593999997E+02  0.45594000000E+02  0.51100000000E-03 0. -1.
         11   -1    0    0    0    0 -0.00000000000E+00 -0.00000000000E+00 -0.45593999997E+02  0.45594000000E+02  0.51100000000E-03 0.  1.
         23    2    1    2    0    0  0.13322676296E-14  0.00000000000E+00  0.00000000000E+00  0.91188000000E+02  0.91188000000E+02 0.  0.
    9900012    2    3    3    0    0  0.38596900994E+01  0.17547066412E+01 -0.36576009948E+02  0.54367072435E+02  0.39999973230E+02 0.  0.
         12    1    3    3    0    0 -0.38596900994E+01 -0.17547066412E+01  0.36576009948E+02  0.36820927565E+02  0.00000000000E+00 0. -1.
         11    1    4    4    0    0  0.29710537349E+00  0.53226591343E+01  0.76169446155E+00  0.53850859396E+01  0.51100000000E-03 0. -1.
        -11    1    4    4    0    0 -0.13173745584E+02 -0.95428537891E+00 -0.24106266605E+02  0.27487639462E+02  0.51100000000E-03 0.  1.
         12    1    4    4    0    0  0.16736330310E+02 -0.26136671142E+01 -0.13231437805E+02  0.21494347034E+02  0.00000000000E+00 0. -1.
</event>
<event>
 8    1  0.1261983E-006  0.9118800E+02  0.7816164E-02  0.1184000E+00
        -11   -1    0    0    0    0  0.00000000000E+00  0.00000000000E+00  0.45593999997E+02  0.45594000000E+02  0.51100000000E-03 0.  1.
         11   -1    0    0    0    0 -0.00000000000E+00 -0.00000000000E+00 -0.45593999997E+02  0.45594000000E+02  0.51100000000E-03 0. -1.
         23    2    1    2    0    0 -0.71054273576E-14  0.00000000000E+00 -0.44408920985E-15  0.91188000000E+02  0.91188000000E+02 0.  0.
    9900012    2    3    3    0    0  0.32621332653E+02 -0.16741042477E+02 -0.33714593865E+01  0.54367074079E+02  0.39999976979E+02 0.  0.
        -12    1    3    3    0    0 -0.32621332653E+02  0.16741042477E+02  0.33714593865E+01  0.36820925921E+02  0.00000000000E+00 0.  1.
         11    1    4    4    0    0  0.25387355955E+02 -0.67817009805E+01 -0.18141669102E+02  0.31931637425E+02  0.51100000000E-03 0. -1.
        -11    1    4    4    0    0  0.24907254762E+01 -0.11546163612E+02  0.93891967981E+01  0.15088890759E+02  0.51100000000E-03 0.  1.
        -12    1    4    4    0    0  0.47432512212E+01  0.15868221160E+01  0.53810129171E+01  0.73465458952E+01  0.00000000000E+00 0.  1.
</event>
<event>
 8    1  0.1261983E-006  0.9118800E+02  0.7816164E-02  0.1184000E+00
        -11   -1    0    0    0    0  0.00000000000E+00  0.00000000000E+00  0.45593999997E+02  0.45594000000E+02  0.51100000000E-03 0. -1.
         11   -1    0    0    0    0 -0.00000000000E+00 -0.00000000000E+00 -0.45593999997E+02  0.45594000000E+02  0.51100000000E-03 0.  1.
         23    2    1    2    0    0  0.35527136788E-14  0.00000000000E+00  0.00000000000E+00  0.91188000000E+02  0.91188000000E+02 0.  0.
    9900012    2    3    3    0    0  0.16759941311E+02 -0.11304360134E+02 -0.30774911580E+02  0.54367090539E+02  0.40000014501E+02 0.  0.
         12    1    3    3    0    0 -0.16759941311E+02  0.11304360134E+02  0.30774911580E+02  0.36820909461E+02  0.00000000000E+00 0. -1.
         11    1    4    4    0    0  0.25446829323E+01 -0.32447981227E+01 -0.65348496007E+01  0.77271201393E+01  0.51100000000E-03 0. -1.
        -11    1    4    4    0    0  0.26140366254E+02 -0.24766220588E+01 -0.19254106422E+02  0.32560298203E+02  0.51100000000E-03 0.  1.
         12    1    4    4    0    0 -0.11925107875E+02 -0.55829399521E+01 -0.49859555570E+01  0.14079672196E+02  0.00000000000E+00 0. -1.
</event>
<event>
 8    1  0.1261983E-006  0.9118800E+02  0.7816164E-02  0.1184000E+00
        -11   -1    0    0    0    0  0.00000000000E+00  0.00000000000E+00  0.45593999997E+02  0.45594000000E+02  0.51100000000E-03 0.  1.
         11   -1    0    0    0    0 -0.00000000000E+00 -0.00000000000E+00 -0.45593999997E+02  0.45594000000E+02  0.51100000000E-03 0. -1.
         23    2    1    2    0    0 -0.35527136788E-14 -0.17763568394E-14 -0.35527136788E-14  0.91188000000E+02  0.91188000000E+02 0.  0.
    9900012    2    3    3    0    0 -0.23746481506E+02 -0.13208366773E+02 -0.24847986601E+02  0.54367098669E+02  0.40000033035E+02 0.  0.
        -12    1    3    3    0    0  0.23746481506E+02  0.13208366773E+02  0.24847986601E+02  0.36820901331E+02  0.00000000000E+00 0.  1.
         11    1    4    4    0    0 -0.24704009704E+02  0.25303506110E+01 -0.18157088064E+02  0.30763137306E+02  0.51100000000E-03 0. -1.
        -11    1    4    4    0    0 -0.56945019184E+01 -0.12433007368E+02 -0.10315933244E+00  0.13675440264E+02  0.51100000000E-03 0.  1.
        -12    1    4    4    0    0  0.66520301164E+01 -0.33057100162E+01 -0.65877392044E+01  0.99285210986E+01  0.00000000000E+00 0.  1.
</event>
<event>
 8    1  0.1261983E-006  0.9118800E+02  0.7816164E-02  0.1184000E+00
        -11   -1    0    0    0    0  0.00000000000E+00  0.00000000000E+00  0.45593999997E+02  0.45594000000E+02  0.51100000000E-03 0.  1.
         11   -1    0    0    0    0 -0.00000000000E+00 -0.00000000000E+00 -0.45593999997E+02  0.45594000000E+02  0.51100000000E-03 0. -1.
         23    2    1    2    0    0  0.00000000000E+00  0.00000000000E+00  0.00000000000E+00  0.91188000000E+02  0.91188000000E+02 0.  0.
    9900012    2    3    3    0    0 -0.30633090913E+02 -0.79441197347E+01 -0.18822439855E+02  0.54367088287E+02  0.40000009369E+02 0.  0.
        -12    1    3    3    0    0  0.30633090913E+02  0.79441197347E+01  0.18822439855E+02  0.36820911713E+02  0.00000000000E+00 0.  1.
         11    1    4    4    0    0 -0.26203925549E+02  0.19577231619E+01 -0.25993262596E+02  0.36961170095E+02  0.51100000000E-03 0. -1.
        -11    1    4    4    0    0 -0.76820118097E+01 -0.42392803455E+01  0.63354864140E+01  0.10822346865E+02  0.51100000000E-03 0.  1.
         12    1    4    4    0    0  0.32528464458E+01 -0.56625625511E+01  0.83533632723E+00  0.65835713275E+01  0.00000000000E+00 0. -1.
</event>
<event>
 8    1  0.1261983E-006  0.9118800E+02  0.7816164E-02  0.1184000E+00
        -11   -1    0    0    0    0  0.00000000000E+00  0.00000000000E+00  0.45593999997E+02  0.45594000000E+02  0.51100000000E-03 0. -1.
         11   -1    0    0    0    0 -0.00000000000E+00 -0.00000000000E+00 -0.45593999997E+02  0.45594000000E+02  0.51100000000E-03 0.  1.
         23    2    1    2    0    0  0.15959455979E-14  0.35527136788E-14  0.35527136788E-14  0.91188000000E+02  0.91188000000E+02 0.  0.
    9900012    2    3    3    0    0  0.87216770678E-01 -0.23560073367E+02 -0.28296584975E+02  0.54367063224E+02  0.39999952232E+02 0.  0.
         12    1    3    3    0    0 -0.87216770678E-01  0.23560073367E+02  0.28296584975E+02  0.36820936776E+02  0.00000000000E+00 0. -1.
         11    1    4    4    0    0 -0.15410717534E+02 -0.86784579247E+00 -0.50010963149E+01  0.16225114356E+02  0.51100000000E-03 0. -1.
        -11    1    4    4    0    0  0.37358618430E+00 -0.44812820134E+01  0.56337781465E+00  0.45319807969E+01  0.51100000000E-03 0.  1.
        -12    1    4    4    0    0  0.15124348121E+02 -0.18210945561E+02 -0.23858866475E+02  0.33609968071E+02  0.00000000000E+00 0.  1.
</event>
<event>
 8    1  0.1261983E-006  0.9118800E+02  0.7816164E-02  0.1184000E+00
        -11   -1    0    0    0    0  0.00000000000E+00  0.00000000000E+00  0.45593999997E+02  0.45594000000E+02  0.51100000000E-03 0. -1.
         11   -1    0    0    0    0 -0.00000000000E+00 -0.00000000000E+00 -0.45593999997E+02  0.45594000000E+02  0.51100000000E-03 0.  1.
         23    2    1    2    0    0  0.13322676296E-14  0.00000000000E+00  0.00000000000E+00  0.91188000000E+02  0.91188000000E+02 0.  0.
    9900012    2    3    3    0    0 -0.13618486002E+01  0.28268166619E+02  0.23554953491E+02  0.54367085976E+02  0.40000004099E+02 0.  0.
        -12    1    3    3    0    0  0.13618486002E+01 -0.28268166619E+02 -0.23554953491E+02  0.36820914024E+02  0.00000000000E+00 0.  1.
         11    1    4    4    0    0 -0.10503151065E+02  0.13697563532E+02  0.23251314486E+02  0.28957953218E+02  0.51100000000E-03 0. -1.
        -11    1    4    4    0    0  0.45575702908E+00  0.10579144047E+01 -0.74737683006E+01  0.75620176031E+01  0.51100000000E-03 0.  1.
         12    1    4    4    0    0  0.86855454361E+01  0.13512688682E+02  0.77774073056E+01  0.17847115155E+02  0.00000000000E+00 0. -1.
</event>
<event>
 8    1  0.1261983E-006  0.9118800E+02  0.7816164E-02  0.1184000E+00
        -11   -1    0    0    0    0  0.00000000000E+00  0.00000000000E+00  0.45593999997E+02  0.45594000000E+02  0.51100000000E-03 0.  1.
         11   -1    0    0    0    0 -0.00000000000E+00 -0.00000000000E+00 -0.45593999997E+02  0.45594000000E+02  0.51100000000E-03 0. -1.
         23    2    1    2    0    0  0.17763568394E-14 -0.35527136788E-14  0.00000000000E+00  0.91188000000E+02  0.91188000000E+02 0.  0.
    9900012    2    3    3    0    0 -0.12682097820E+02 -0.19869996744E+02  0.28286526246E+02  0.54367082809E+02  0.39999996879E+02 0.  0.
         12    1    3    3    0    0  0.12682097820E+02  0.19869996744E+02 -0.28286526246E+02  0.36820917191E+02  0.00000000000E+00 0. -1.
         11    1    4    4    0    0 -0.31477282559E+01  0.11814605815E+01  0.11381951218E+02  0.11868144592E+02  0.51100000000E-03 0. -1.
        -11    1    4    4    0    0 -0.20306726600E+02 -0.13438573881E+02  0.16283310475E+02  0.29293422699E+02  0.51100000000E-03 0.  1.
         12    1    4    4    0    0  0.10772357035E+02 -0.76128834448E+01  0.62126455326E+00  0.13205515517E+02  0.00000000000E+00 0. -1.
</event>
<event>
 8    1  0.1261983E-006  0.9118800E+02  0.7816164E-02  0.1184000E+00
        -11   -1    0    0    0    0  0.00000000000E+00  0.00000000000E+00  0.45593999997E+02  0.45594000000E+02  0.51100000000E-03 0.  1.
         11   -1    0    0    0    0 -0.00000000000E+00 -0.00000000000E+00 -0.45593999997E+02  0.45594000000E+02  0.51100000000E-03 0. -1.
         23    2    1    2    0    0  0.35527136788E-14 -0.88817841970E-15 -0.35527136788E-14  0.91188000000E+02  0.91188000000E+02 0.  0.
    9900012    2    3    3    0    0  0.17884078013E+02 -0.73781815515E+01 -0.31328904260E+02  0.54367108491E+02  0.40000055426E+02 0.  0.
        -12    1    3    3    0    0 -0.17884078013E+02  0.73781815515E+01  0.31328904260E+02  0.36820891509E+02  0.00000000000E+00 0.  1.
         11    1    4    4    0    0 -0.38945730487E-01  0.40330823934E+01 -0.23611514734E+02  0.23953515372E+02  0.51100000000E-03 0. -1.
        -11    1    4    4    0    0  0.18100770155E+02 -0.32490740790E+00 -0.29420057486E+01  0.18341178891E+02  0.51100000000E-03 0.  1.
        -12    1    4    4    0    0 -0.17774641189E+00 -0.11086356537E+02 -0.47753837774E+01  0.12072414227E+02  0.00000000000E+00 0.  1.
</event>
<event>
 8    1  0.1261983E-006  0.9118800E+02  0.7816164E-02  0.1184000E+00
        -11   -1    0    0    0    0  0.00000000000E+00  0.00000000000E+00  0.45593999997E+02  0.45594000000E+02  0.51100000000E-03 0.  1.
         11   -1    0    0    0    0 -0.00000000000E+00 -0.00000000000E+00 -0.45593999997E+02  0.45594000000E+02  0.51100000000E-03 0. -1.
         23    2    1    2    0    0  0.00000000000E+00  0.00000000000E+00  0.00000000000E+00  0.91188000000E+02  0.91188000000E+02 0.  0.
    9900012    2    3    3    0    0 -0.22090359508E+02  0.23773278494E+02 -0.17396148415E+02  0.54367099234E+02  0.40000034324E+02 0.  0.
        -12    1    3    3    0    0  0.22090359508E+02 -0.23773278494E+02  0.17396148415E+02  0.36820900766E+02  0.00000000000E+00 0.  1.
         11    1    4    4    0    0 -0.61493927200E+01 -0.91664005269E+01 -0.10492932891E+02  0.15229562382E+02  0.51100000000E-03 0. -1.
        -11    1    4    4    0    0 -0.58098967587E+01  0.17544564920E+02  0.21468763383E+01  0.18605798474E+02  0.51100000000E-03 0.  1.
         12    1    4    4    0    0 -0.10131070029E+02  0.15395114101E+02 -0.90500918628E+01  0.20531738378E+02  0.00000000000E+00 0. -1.
</event>
<event>
 8    1  0.1261983E-006  0.9118800E+02  0.7816164E-02  0.1184000E+00
        -11   -1    0    0    0    0  0.00000000000E+00  0.00000000000E+00  0.45593999997E+02  0.45594000000E+02  0.51100000000E-03 0. -1.
         11   -1    0    0    0    0 -0.00000000000E+00 -0.00000000000E+00 -0.45593999997E+02  0.45594000000E+02  0.51100000000E-03 0.  1.
         23    2    1    2    0    0 -0.17763568394E-14  0.00000000000E+00  0.00000000000E+00  0.91188000000E+02  0.91188000000E+02 0.  0.
    9900012    2    3    3    0    0  0.49775027346E+01 -0.15995060452E+02 -0.32789646649E+02  0.54367103492E+02  0.40000044030E+02 0.  0.
         12    1    3    3    0    0 -0.49775027346E+01  0.15995060452E+02  0.32789646649E+02  0.36820896508E+02  0.00000000000E+00 0. -1.
         11    1    4    4    0    0 -0.16231881723E+02  0.85763805340E+00 -0.11564922250E+02  0.19948858469E+02  0.51100000000E-03 0. -1.
        -11    1    4    4    0    0  0.24132417962E+01 -0.21311030190E+01 -0.24852275881E+01  0.40671479529E+01  0.51100000000E-03 0.  1.
         12    1    4    4    0    0  0.18796142662E+02 -0.14721595487E+02 -0.18739496810E+02  0.30351097070E+02  0.00000000000E+00 0. -1.
</event>
<event>
 8    1  0.1261983E-006  0.9118800E+02  0.7816164E-02  0.1184000E+00
        -11   -1    0    0    0    0  0.00000000000E+00  0.00000000000E+00  0.45593999997E+02  0.45594000000E+02  0.51100000000E-03 0. -1.
         11   -1    0    0    0    0 -0.00000000000E+00 -0.00000000000E+00 -0.45593999997E+02  0.45594000000E+02  0.51100000000E-03 0.  1.
         23    2    1    2    0    0 -0.17763568394E-14  0.00000000000E+00 -0.22204460493E-15  0.91188000000E+02  0.91188000000E+02 0.  0.
    9900012    2    3    3    0    0  0.13646561467E+02 -0.34176583802E+02  0.12295289340E+01  0.54367092059E+02  0.40000017966E+02 0.  0.
        -12    1    3    3    0    0 -0.13646561467E+02  0.34176583802E+02 -0.12295289340E+01  0.36820907941E+02  0.00000000000E+00 0.  1.
         11    1    4    4    0    0  0.67219663440E+01 -0.37887002939E+02 -0.90536821762E+01  0.39529469822E+02  0.51100000000E-03 0. -1.
        -11    1    4    4    0    0 -0.18624186253E+00  0.18076913846E+01 -0.40309731603E+00  0.18614300633E+01  0.51100000000E-03 0.  1.
         12    1    4    4    0    0  0.71108369852E+01  0.19027277526E+01  0.10686308426E+02  0.12976192173E+02  0.00000000000E+00 0. -1.
</event>
<event>
 8    1  0.1261983E-006  0.9118800E+02  0.7816164E-02  0.1184000E+00
        -11   -1    0    0    0    0  0.00000000000E+00  0.00000000000E+00  0.45593999997E+02  0.45594000000E+02  0.51100000000E-03 0.  1.
         11   -1    0    0    0    0 -0.00000000000E+00 -0.00000000000E+00 -0.45593999997E+02  0.45594000000E+02  0.51100000000E-03 0. -1.
         23    2    1    2    0    0  0.00000000000E+00  0.00000000000E+00 -0.35527136788E-14  0.91188000000E+02  0.91188000000E+02 0.  0.
    9900012    2    3    3    0    0  0.21112290055E+02 -0.17955742981E+02  0.24241331993E+02  0.54367086457E+02  0.40000005196E+02 0.  0.
         12    1    3    3    0    0 -0.21112290055E+02  0.17955742981E+02 -0.24241331993E+02  0.36820913543E+02  0.00000000000E+00 0. -1.
         11    1    4    4    0    0  0.30144779620E+02 -0.10026933107E+02  0.22470596883E+02  0.38912399700E+02  0.51100000000E-03 0.  1.
        -11    1    4    4    0    0 -0.78231779549E+01 -0.10437435177E+01 -0.95818670421E+00  0.79504487839E+01  0.51100000000E-03 0. -1.
         12    1    4    4    0    0 -0.12093116097E+01 -0.68850663559E+01  0.27289218137E+01  0.75042379733E+01  0.00000000000E+00 0. -1.
</event>
<event>
 8    1  0.1261983E-006  0.9118800E+02  0.7816164E-02  0.1184000E+00
        -11   -1    0    0    0    0  0.00000000000E+00  0.00000000000E+00  0.45593999997E+02  0.45594000000E+02  0.51100000000E-03 0. -1.
         11   -1    0    0    0    0 -0.00000000000E+00 -0.00000000000E+00 -0.45593999997E+02  0.45594000000E+02  0.51100000000E-03 0.  1.
         23    2    1    2    0    0  0.00000000000E+00 -0.88817841970E-15  0.00000000000E+00  0.91188000000E+02  0.91188000000E+02 0.  0.
    9900012    2    3    3    0    0 -0.36438059701E+02  0.50017684603E+01  0.17404452376E+01  0.54367095175E+02  0.40000025070E+02 0.  0.
        -12    1    3    3    0    0  0.36438059701E+02 -0.50017684603E+01 -0.17404452376E+01  0.36820904825E+02  0.00000000000E+00 0.  1.
         11    1    4    4    0    0 -0.86936663231E+00 -0.28251566354E+01  0.37104340349E+01  0.47439044409E+01  0.51100000000E-03 0. -1.
        -11    1    4    4    0    0 -0.25672965310E+02  0.20801790803E+02  0.89988523832E+00  0.33054885299E+02  0.51100000000E-03 0.  1.
        -12    1    4    4    0    0 -0.98957277586E+01 -0.12974865708E+02 -0.28698740357E+01  0.16568305435E+02  0.00000000000E+00 0.  1.
</event>
<event>
 8    1  0.1261983E-006  0.9118800E+02  0.7816164E-02  0.1184000E+00
        -11   -1    0    0    0    0  0.00000000000E+00  0.00000000000E+00  0.45593999997E+02  0.45594000000E+02  0.51100000000E-03 0.  1.
         11   -1    0    0    0    0 -0.00000000000E+00 -0.00000000000E+00 -0.45593999997E+02  0.45594000000E+02  0.51100000000E-03 0. -1.
         23    2    1    2    0    0  0.00000000000E+00 -0.21094237468E-14  0.00000000000E+00  0.91188000000E+02  0.91188000000E+02 0.  0.
    9900012    2    3    3    0    0  0.36676881463E+02 -0.71013442696E+00  0.31752516810E+01  0.54367080023E+02  0.39999990527E+02 0.  0.
         12    1    3    3    0    0 -0.36676881463E+02  0.71013442696E+00 -0.31752516810E+01  0.36820919977E+02  0.00000000000E+00 0. -1.
         11    1    4    4    0    0  0.29289330682E+02  0.16685738400E+02  0.45350961568E+01  0.34012436772E+02  0.51100000000E-03 0. -1.
        -11    1    4    4    0    0  0.17392103504E+01 -0.95958135876E+01  0.23551998671E+01  0.10032520009E+02  0.51100000000E-03 0.  1.
        -12    1    4    4    0    0  0.56483404309E+01 -0.78000592392E+01 -0.37150443429E+01  0.10322123242E+02  0.00000000000E+00 0.  1.
</event>
<event>
 8    1  0.1261983E-006  0.9118800E+02  0.7816164E-02  0.1184000E+00
        -11   -1    0    0    0    0  0.00000000000E+00  0.00000000000E+00  0.45593999997E+02  0.45594000000E+02  0.51100000000E-03 0. -1.
         11   -1    0    0    0    0 -0.00000000000E+00 -0.00000000000E+00 -0.45593999997E+02  0.45594000000E+02  0.51100000000E-03 0.  1.
         23    2    1    2    0    0 -0.17763568394E-14  0.00000000000E+00  0.71054273576E-14  0.91188000000E+02  0.91188000000E+02 0.  0.
    9900012    2    3    3    0    0 -0.11362654676E+02 -0.15564751821E+02  0.31375270542E+02  0.54367095311E+02  0.40000025381E+02 0.  0.
        -12    1    3    3    0    0  0.11362654676E+02  0.15564751821E+02 -0.31375270542E+02  0.36820904689E+02  0.00000000000E+00 0.  1.
         11    1    4    4    0    0 -0.18110230110E+02 -0.10946896635E+02  0.25241753672E+02  0.32938747840E+02  0.51100000000E-03 0. -1.
        -11    1    4    4    0    0 -0.46531889609E+01  0.39189906728E+01  0.47295996471E+00  0.61019953120E+01  0.51100000000E-03 0.  1.
         12    1    4    4    0    0  0.11400764395E+02 -0.85368458593E+01  0.56605569047E+01  0.15326352159E+02  0.00000000000E+00 0. -1.
</event>
<event>
 8    1  0.1261983E-006  0.9118800E+02  0.7816164E-02  0.1184000E+00
        -11   -1    0    0    0    0  0.00000000000E+00  0.00000000000E+00  0.45593999997E+02  0.45594000000E+02  0.51100000000E-03 0. -1.
         11   -1    0    0    0    0 -0.00000000000E+00 -0.00000000000E+00 -0.45593999997E+02  0.45594000000E+02  0.51100000000E-03 0.  1.
         23    2    1    2    0    0  0.00000000000E+00  0.00000000000E+00 -0.88817841970E-15  0.91188000000E+02  0.91188000000E+02 0.  0.
    9900012    2    3    3    0    0 -0.28573960954E+02  0.22874132971E+02 -0.40106960045E+01  0.54367042839E+02  0.39999905760E+02 0.  0.
         12    1    3    3    0    0  0.28573960954E+02 -0.22874132971E+02  0.40106960045E+01  0.36820957161E+02  0.00000000000E+00 0. -1.
         11    1    4    4    0    0 -0.28249166793E+02  0.33826228000E+01  0.49115489898E+01  0.28871800693E+02  0.51100000000E-03 0. -1.
        -11    1    4    4    0    0 -0.52267134948E+01  0.93639829410E+01 -0.93615254534E+01  0.14235198262E+02  0.51100000000E-03 0.  1.
         12    1    4    4    0    0  0.49019193338E+01  0.10127527230E+02  0.43928045909E+00  0.11260043884E+02  0.00000000000E+00 0. -1.
</event>
<event>
 8    1  0.1261983E-006  0.9118800E+02  0.7816164E-02  0.1184000E+00
        -11   -1    0    0    0    0  0.00000000000E+00  0.00000000000E+00  0.45593999997E+02  0.45594000000E+02  0.51100000000E-03 0.  1.
         11   -1    0    0    0    0 -0.00000000000E+00 -0.00000000000E+00 -0.45593999997E+02  0.45594000000E+02  0.51100000000E-03 0. -1.
         23    2    1    2    0    0  0.00000000000E+00  0.00000000000E+00  0.00000000000E+00  0.91188000000E+02  0.91188000000E+02 0.  0.
    9900012    2    3    3    0    0  0.18023856339E+02 -0.28218563728E+02 -0.15317732640E+02  0.54367086521E+02  0.40000005343E+02 0.  0.
        -12    1    3    3    0    0 -0.18023856339E+02  0.28218563728E+02  0.15317732640E+02  0.36820913479E+02  0.00000000000E+00 0.  1.
         11    1    4    4    0    0  0.15990723958E+02 -0.35047142373E+02 -0.44514761607E+01  0.38779132036E+02  0.51100000000E-03 0. -1.
        -11    1    4    4    0    0 -0.48743740095E+00  0.58901663071E+01 -0.18712574553E+01  0.61994563528E+01  0.51100000000E-03 0.  1.
         12    1    4    4    0    0  0.25205697815E+01  0.93841233824E+00 -0.89949990237E+01  0.93884981321E+01  0.00000000000E+00 0. -1.
</event>
<event>
 8    1  0.1261983E-006  0.9118800E+02  0.7816164E-02  0.1184000E+00
        -11   -1    0    0    0    0  0.00000000000E+00  0.00000000000E+00  0.45593999997E+02  0.45594000000E+02  0.51100000000E-03 0. -1.
         11   -1    0    0    0    0 -0.00000000000E+00 -0.00000000000E+00 -0.45593999997E+02  0.45594000000E+02  0.51100000000E-03 0.  1.
         23    2    1    2    0    0 -0.35527136788E-14  0.00000000000E+00  0.00000000000E+00  0.91188000000E+02  0.91188000000E+02 0.  0.
    9900012    2    3    3    0    0 -0.26761933022E+02 -0.74065489828E+01  0.24181062189E+02  0.54367057650E+02  0.39999939525E+02 0.  0.
        -12    1    3    3    0    0  0.26761933022E+02  0.74065489828E+01 -0.24181062189E+02  0.36820942350E+02  0.00000000000E+00 0.  1.
         11    1    4    4    0    0  0.62989960966E+01  0.17657594626E+01  0.10038186884E+01  0.66183767289E+01  0.51100000000E-03 0. -1.
        -11    1    4    4    0    0 -0.14307617967E+02 -0.14203667432E+02  0.41900738427E+01  0.20591474437E+02  0.51100000000E-03 0.  1.
         12    1    4    4    0    0 -0.18753311152E+02  0.50313589866E+01  0.18987169658E+02  0.27157206484E+02  0.00000000000E+00 0. -1.
</event>
<event>
 8    1  0.1261983E-006  0.9118800E+02  0.7816164E-02  0.1184000E+00
        -11   -1    0    0    0    0  0.00000000000E+00  0.00000000000E+00  0.45593999997E+02  0.45594000000E+02  0.51100000000E-03 0. -1.
         11   -1    0    0    0    0 -0.00000000000E+00 -0.00000000000E+00 -0.45593999997E+02  0.45594000000E+02  0.51100000000E-03 0.  1.
         23    2    1    2    0    0  0.00000000000E+00 -0.35527136788E-14  0.00000000000E+00  0.91188000000E+02  0.91188000000E+02 0.  0.
    9900012    2    3    3    0    0 -0.19926447900E+02  0.26108632151E+02 -0.16644999968E+02  0.54367081725E+02  0.39999994408E+02 0.  0.
         12    1    3    3    0    0  0.19926447900E+02 -0.26108632151E+02  0.16644999968E+02  0.36820918275E+02  0.00000000000E+00 0. -1.
         11    1    4    4    0    0  0.99515642212E+01  0.66707265543E+01 -0.31535873550E+01  0.12388597042E+02  0.51100000000E-03 0. -1.
        -11    1    4    4    0    0 -0.88851760228E+01 -0.26521104507E+01 -0.34247253039E+01  0.98847754889E+01  0.51100000000E-03 0.  1.
        -12    1    4    4    0    0 -0.20992836098E+02  0.22090016047E+02 -0.10066687309E+02  0.32093709194E+02  0.00000000000E+00 0.  1.
</event>
<event>
 8    1  0.1261983E-006  0.9118800E+02  0.7816164E-02  0.1184000E+00
        -11   -1    0    0    0    0  0.00000000000E+00  0.00000000000E+00  0.45593999997E+02  0.45594000000E+02  0.51100000000E-03 0. -1.
         11   -1    0    0    0    0 -0.00000000000E+00 -0.00000000000E+00 -0.45593999997E+02  0.45594000000E+02  0.51100000000E-03 0.  1.
         23    2    1    2    0    0  0.11102230246E-14 -0.71054273576E-14  0.00000000000E+00  0.91188000000E+02  0.91188000000E+02 0.  0.
    9900012    2    3    3    0    0  0.10770367538E+01  0.36468305355E+02 -0.49692834462E+01  0.54366931553E+02  0.39999652060E+02 0.  0.
         12    1    3    3    0    0 -0.10770367538E+01 -0.36468305355E+02  0.49692834462E+01  0.36821068447E+02  0.00000000000E+00 0. -1.
         11    1    4    4    0    0 -0.10618367065E+02  0.19065610037E+02 -0.80559429288E+01  0.23262532578E+02  0.51100000000E-03 0.  1.
        -11    1    4    4    0    0  0.14943233920E+02  0.20036300131E+01  0.54166329101E-01  0.15077058979E+02  0.51100000000E-03 0. -1.
         12    1    4    4    0    0 -0.32478301008E+01  0.15399065304E+02  0.30324931535E+01  0.16027339995E+02  0.00000000000E+00 0. -1.
</event>
<event>
 8    1  0.1261983E-006  0.9118800E+02  0.7816164E-02  0.1184000E+00
        -11   -1    0    0    0    0  0.00000000000E+00  0.00000000000E+00  0.45593999997E+02  0.45594000000E+02  0.51100000000E-03 0.  1.
         11   -1    0    0    0    0 -0.00000000000E+00 -0.00000000000E+00 -0.45593999997E+02  0.45594000000E+02  0.51100000000E-03 0. -1.
         23    2    1    2    0    0 -0.88817841970E-15 -0.26645352591E-14  0.00000000000E+00  0.91188000000E+02  0.91188000000E+02 0.  0.
    9900012    2    3    3    0    0 -0.14824988257E+01 -0.44593972656E+01 -0.36519897196E+02  0.54366988092E+02  0.39999780953E+02 0.  0.
        -12    1    3    3    0    0  0.14824988257E+01  0.44593972656E+01  0.36519897196E+02  0.36821011908E+02  0.00000000000E+00 0.  1.
         11    1    4    4    0    0 -0.58193415548E+01  0.51309643176E+01 -0.30387755800E+01  0.83322078855E+01  0.51100000000E-03 0. -1.
        -11    1    4    4    0    0  0.12440376313E+02 -0.16618044269E+02 -0.20222358747E+02  0.28980444297E+02  0.51100000000E-03 0.  1.
        -12    1    4    4    0    0 -0.81035335842E+01  0.70276826856E+01 -0.13258762869E+02  0.17054335909E+02  0.00000000000E+00 0.  1.
</event>
<event>
 8    1  0.1261983E-006  0.9118800E+02  0.7816164E-02  0.1184000E+00
        -11   -1    0    0    0    0  0.00000000000E+00  0.00000000000E+00  0.45593999997E+02  0.45594000000E+02  0.51100000000E-03 0.  1.
         11   -1    0    0    0    0 -0.00000000000E+00 -0.00000000000E+00 -0.45593999997E+02  0.45594000000E+02  0.51100000000E-03 0. -1.
         23    2    1    2    0    0  0.00000000000E+00 -0.66613381478E-15 -0.88817841970E-15  0.91188000000E+02  0.91188000000E+02 0.  0.
    9900012    2    3    3    0    0  0.36006022714E+02  0.13747012533E+01 -0.75799886723E+01  0.54367086058E+02  0.40000004287E+02 0.  0.
         12    1    3    3    0    0 -0.36006022714E+02 -0.13747012533E+01  0.75799886723E+01  0.36820913942E+02  0.00000000000E+00 0. -1.
         11    1    4    4    0    0  0.21875376392E+02  0.22507804727E+01 -0.16465482762E+02  0.27471989878E+02  0.51100000000E-03 0. -1.
        -11    1    4    4    0    0  0.18631665074E+02 -0.48411039547E+01  0.79361726071E+01  0.20822057219E+02  0.51100000000E-03 0.  1.
         12    1    4    4    0    0 -0.45010187509E+01  0.39650247353E+01  0.94932148269E+00  0.60730389613E+01  0.00000000000E+00 0. -1.
</event>
<event>
 8    1  0.1261983E-006  0.9118800E+02  0.7816164E-02  0.1184000E+00
        -11   -1    0    0    0    0  0.00000000000E+00  0.00000000000E+00  0.45593999997E+02  0.45594000000E+02  0.51100000000E-03 0.  1.
         11   -1    0    0    0    0 -0.00000000000E+00 -0.00000000000E+00 -0.45593999997E+02  0.45594000000E+02  0.51100000000E-03 0. -1.
         23    2    1    2    0    0  0.00000000000E+00  0.00000000000E+00  0.00000000000E+00  0.91188000000E+02  0.91188000000E+02 0.  0.
    9900012    2    3    3    0    0 -0.32939925907E+02 -0.11077948936E+02 -0.12166020180E+02  0.54367194490E+02  0.40000251477E+02 0.  0.
        -12    1    3    3    0    0  0.32939925907E+02  0.11077948936E+02  0.12166020180E+02  0.36820805510E+02  0.00000000000E+00 0.  1.
         11    1    4    4    0    0 -0.18852328932E+02  0.12183197711E+02 -0.89574846043E+01  0.24167688001E+02  0.51100000000E-03 0. -1.
        -11    1    4    4    0    0 -0.87965976191E+01 -0.34757579455E+01 -0.21011690865E+01  0.96889594261E+01  0.51100000000E-03 0.  1.
        -12    1    4    4    0    0 -0.52909993562E+01 -0.19785388701E+02 -0.11073664895E+01  0.20510547062E+02  0.00000000000E+00 0.  1.
</event>
<event>
 8    1  0.1261983E-006  0.9118800E+02  0.7816164E-02  0.1184000E+00
        -11   -1    0    0    0    0  0.00000000000E+00  0.00000000000E+00  0.45593999997E+02  0.45594000000E+02  0.51100000000E-03 0.  1.
         11   -1    0    0    0    0 -0.00000000000E+00 -0.00000000000E+00 -0.45593999997E+02  0.45594000000E+02  0.51100000000E-03 0. -1.
         23    2    1    2    0    0  0.00000000000E+00  0.00000000000E+00  0.00000000000E+00  0.91188000000E+02  0.91188000000E+02 0.  0.
    9900012    2    3    3    0    0  0.19813986421E+02  0.68484910320E+01 -0.30270174689E+02  0.54367090682E+02  0.40000014828E+02 0.  0.
        -12    1    3    3    0    0 -0.19813986421E+02 -0.68484910320E+01  0.30270174689E+02  0.36820909318E+02  0.00000000000E+00 0.  1.
         11    1    4    4    0    0  0.94549733712E+01  0.26537233890E+01 -0.25297678437E+02  0.27136899304E+02  0.51100000000E-03 0. -1.
        -11    1    4    4    0    0  0.11322533930E+02  0.64969111503E+01  0.71291112950E+01  0.14873932137E+02  0.51100000000E-03 0.  1.
        -12    1    4    4    0    0 -0.96352088021E+00 -0.23021435073E+01 -0.12101607547E+02  0.12356259242E+02  0.00000000000E+00 0.  1.
</event>
<event>
 8    1  0.1261983E-006  0.9118800E+02  0.7816164E-02  0.1184000E+00
        -11   -1    0    0    0    0  0.00000000000E+00  0.00000000000E+00  0.45593999997E+02  0.45594000000E+02  0.51100000000E-03 0. -1.
         11   -1    0    0    0    0 -0.00000000000E+00 -0.00000000000E+00 -0.45593999997E+02  0.45594000000E+02  0.51100000000E-03 0.  1.
         23    2    1    2    0    0  0.00000000000E+00 -0.66613381478E-15  0.35527136788E-14  0.91188000000E+02  0.91188000000E+02 0.  0.
    9900012    2    3    3    0    0  0.30110644571E+02 -0.19166864632E+01 -0.21105800820E+02  0.54367089749E+02  0.40000012700E+02 0.  0.
         12    1    3    3    0    0 -0.30110644571E+02  0.19166864632E+01  0.21105800820E+02  0.36820910251E+02  0.00000000000E+00 0. -1.
         11    1    4    4    0    0  0.26392481057E+02  0.29762914079E+01  0.31081500196E+01  0.26741016504E+02  0.51100000000E-03 0. -1.
        -11    1    4    4    0    0  0.71372330763E+01 -0.53315259546E+01 -0.12065573222E+02  0.14998110629E+02  0.51100000000E-03 0.  1.
         12    1    4    4    0    0 -0.34190695619E+01  0.43854808348E+00 -0.12148377618E+02  0.12627962616E+02  0.00000000000E+00 0. -1.
</event>
<event>
 8    1  0.1261983E-006  0.9118800E+02  0.7816164E-02  0.1184000E+00
        -11   -1    0    0    0    0  0.00000000000E+00  0.00000000000E+00  0.45593999997E+02  0.45594000000E+02  0.51100000000E-03 0.  1.
         11   -1    0    0    0    0 -0.00000000000E+00 -0.00000000000E+00 -0.45593999997E+02  0.45594000000E+02  0.51100000000E-03 0. -1.
         23    2    1    2    0    0  0.35527136788E-14  0.00000000000E+00  0.00000000000E+00  0.91188000000E+02  0.91188000000E+02 0.  0.
    9900012    2    3    3    0    0  0.19001394268E+02 -0.28325699689E+02  0.13870074960E+02  0.54367119696E+02  0.40000080971E+02 0.  0.
         12    1    3    3    0    0 -0.19001394268E+02  0.28325699689E+02 -0.13870074960E+02  0.36820880304E+02  0.00000000000E+00 0. -1.
         11    1    4    4    0    0  0.29648807204E+01 -0.17822358056E+01 -0.18548462386E+01  0.39252180809E+01  0.51100000000E-03 0. -1.
        -11    1    4    4    0    0 -0.10618117907E+00 -0.31131880903E+02  0.96342553921E+01  0.32588712159E+02  0.51100000000E-03 0.  1.
        -12    1    4    4    0    0  0.16142694726E+02  0.45884170194E+01  0.60906658062E+01  0.17853189456E+02  0.00000000000E+00 0.  1.
</event>
<event>
 8    1  0.1261983E-006  0.9118800E+02  0.7816164E-02  0.1184000E+00
        -11   -1    0    0    0    0  0.00000000000E+00  0.00000000000E+00  0.45593999997E+02  0.45594000000E+02  0.51100000000E-03 0. -1.
         11   -1    0    0    0    0 -0.00000000000E+00 -0.00000000000E+00 -0.45593999997E+02  0.45594000000E+02  0.51100000000E-03 0.  1.
         23    2    1    2    0    0  0.00000000000E+00 -0.16653345369E-14 -0.17763568394E-14  0.91188000000E+02  0.91188000000E+02 0.  0.
    9900012    2    3    3    0    0  0.35853909869E+02 -0.29798101972E+00  0.83778126434E+01  0.54367090312E+02  0.40000013985E+02 0.  0.
         12    1    3    3    0    0 -0.35853909869E+02  0.29798101972E+00 -0.83778126434E+01  0.36820909688E+02  0.00000000000E+00 0. -1.
         11    1    4    4    0    0  0.60095177319E+01  0.12539087632E+02  0.22410709942E+01  0.14084225981E+02  0.51100000000E-03 0. -1.
        -11    1    4    4    0    0  0.13172823907E+02 -0.34768661333E-01  0.12663777792E+02  0.18272814965E+02  0.51100000000E-03 0.  1.
         12    1    4    4    0    0  0.16671568230E+02 -0.12802299991E+02 -0.65270361424E+01  0.22010049366E+02  0.00000000000E+00 0. -1.
</event>
<event>
 8    1  0.1261983E-006  0.9118800E+02  0.7816164E-02  0.1184000E+00
        -11   -1    0    0    0    0  0.00000000000E+00  0.00000000000E+00  0.45593999997E+02  0.45594000000E+02  0.51100000000E-03 0. -1.
         11   -1    0    0    0    0 -0.00000000000E+00 -0.00000000000E+00 -0.45593999997E+02  0.45594000000E+02  0.51100000000E-03 0.  1.
         23    2    1    2    0    0 -0.71054273576E-14  0.35527136788E-14 -0.13322676296E-14  0.91188000000E+02  0.91188000000E+02 0.  0.
    9900012    2    3    3    0    0  0.22022915897E+02 -0.29333140145E+02  0.32151510580E+01  0.54367093823E+02  0.40000021988E+02 0.  0.
         12    1    3    3    0    0 -0.22022915897E+02  0.29333140145E+02 -0.32151510580E+01  0.36820906177E+02  0.00000000000E+00 0. -1.
         11    1    4    4    0    0 -0.83260671164E+01 -0.11085500996E+02 -0.28319661077E+01  0.14150327143E+02  0.51100000000E-03 0. -1.
        -11    1    4    4    0    0  0.47026708364E+01 -0.11650332595E+02  0.55393830819E+01  0.13730627362E+02  0.51100000000E-03 0.  1.
         12    1    4    4    0    0  0.25646312177E+02 -0.65973065541E+01  0.50773408382E+00  0.26486139318E+02  0.00000000000E+00 0. -1.
</event>
<event>
 8    1  0.1261983E-006  0.9118800E+02  0.7816164E-02  0.1184000E+00
        -11   -1    0    0    0    0  0.00000000000E+00  0.00000000000E+00  0.45593999997E+02  0.45594000000E+02  0.51100000000E-03 0. -1.
         11   -1    0    0    0    0 -0.00000000000E+00 -0.00000000000E+00 -0.45593999997E+02  0.45594000000E+02  0.51100000000E-03 0.  1.
         23    2    1    2    0    0  0.17763568394E-14 -0.17763568394E-14 -0.35527136788E-14  0.91188000000E+02  0.91188000000E+02 0.  0.
    9900012    2    3    3    0    0  0.14626472393E+02  0.13289577638E+02  0.31068163225E+02  0.54367118226E+02  0.40000077619E+02 0.  0.
        -12    1    3    3    0    0 -0.14626472393E+02 -0.13289577638E+02 -0.31068163225E+02  0.36820881774E+02  0.00000000000E+00 0.  1.
         11    1    4    4    0    0  0.20469484399E+02  0.80069497706E+01  0.26622600058E+02  0.34523526330E+02  0.51100000000E-03 0. -1.
        -11    1    4    4    0    0 -0.54069330493E+01  0.10621252730E+02 -0.12994057281E+01  0.11988927811E+02  0.51100000000E-03 0.  1.
        -12    1    4    4    0    0 -0.43607895628E+00 -0.53386248622E+01  0.57449688948E+01  0.78546640844E+01  0.00000000000E+00 0.  1.
</event>
<event>
 8    1  0.1261983E-006  0.9118800E+02  0.7816164E-02  0.1184000E+00
        -11   -1    0    0    0    0  0.00000000000E+00  0.00000000000E+00  0.45593999997E+02  0.45594000000E+02  0.51100000000E-03 0.  1.
         11   -1    0    0    0    0 -0.00000000000E+00 -0.00000000000E+00 -0.45593999997E+02  0.45594000000E+02  0.51100000000E-03 0. -1.
         23    2    1    2    0    0  0.35527136788E-14 -0.35527136788E-14  0.00000000000E+00  0.91188000000E+02  0.91188000000E+02 0.  0.
    9900012    2    3    3    0    0 -0.24100553070E+02  0.26965408435E+02 -0.69146190999E+01  0.54367056671E+02  0.39999937292E+02 0.  0.
         12    1    3    3    0    0  0.24100553070E+02 -0.26965408435E+02  0.69146190999E+01  0.36820943329E+02  0.00000000000E+00 0. -1.
         11    1    4    4    0    0  0.18460599982E+01  0.51231081052E+01  0.35773247783E+01  0.65154759615E+01  0.51100000000E-03 0. -1.
        -11    1    4    4    0    0 -0.27250533389E+02  0.19227147375E+02  0.35219737206E+01  0.33536235109E+02  0.51100000000E-03 0.  1.
         12    1    4    4    0    0  0.13039203205E+01  0.26151529547E+01 -0.14013917599E+02  0.14315345600E+02  0.00000000000E+00 0. -1.
</event>
<event>
 8    1  0.1261983E-006  0.9118800E+02  0.7816164E-02  0.1184000E+00
        -11   -1    0    0    0    0  0.00000000000E+00  0.00000000000E+00  0.45593999997E+02  0.45594000000E+02  0.51100000000E-03 0.  1.
         11   -1    0    0    0    0 -0.00000000000E+00 -0.00000000000E+00 -0.45593999997E+02  0.45594000000E+02  0.51100000000E-03 0. -1.
         23    2    1    2    0    0 -0.35527136788E-14  0.00000000000E+00  0.00000000000E+00  0.91188000000E+02  0.91188000000E+02 0.  0.
    9900012    2    3    3    0    0  0.24527044967E+02 -0.21884636994E+02 -0.16591194446E+02  0.54367068394E+02  0.39999964018E+02 0.  0.
        -12    1    3    3    0    0 -0.24527044967E+02  0.21884636994E+02  0.16591194446E+02  0.36820931606E+02  0.00000000000E+00 0.  1.
         11    1    4    4    0    0 -0.23135777953E+01 -0.14129244480E+01 -0.17923379221E+01  0.32498420267E+01  0.51100000000E-03 0.  1.
        -11    1    4    4    0    0  0.59470462189E+01 -0.11372869006E+02 -0.23457578479E+02  0.26738876127E+02  0.51100000000E-03 0. -1.
        -12    1    4    4    0    0  0.20893576544E+02 -0.90988435395E+01  0.86587219551E+01  0.24378350240E+02  0.00000000000E+00 0.  1.
</event>
<event>
 8    1  0.1261983E-006  0.9118800E+02  0.7816164E-02  0.1184000E+00
        -11   -1    0    0    0    0  0.00000000000E+00  0.00000000000E+00  0.45593999997E+02  0.45594000000E+02  0.51100000000E-03 0. -1.
         11   -1    0    0    0    0 -0.00000000000E+00 -0.00000000000E+00 -0.45593999997E+02  0.45594000000E+02  0.51100000000E-03 0.  1.
         23    2    1    2    0    0  0.00000000000E+00  0.88817841970E-15  0.71054273576E-14  0.91188000000E+02  0.91188000000E+02 0.  0.
    9900012    2    3    3    0    0  0.20576837007E+02  0.60816444748E+01  0.29922975122E+02  0.54367121943E+02  0.40000086093E+02 0.  0.
        -12    1    3    3    0    0 -0.20576837007E+02 -0.60816444748E+01 -0.29922975122E+02  0.36820878057E+02  0.00000000000E+00 0.  1.
         11    1    4    4    0    0 -0.10665753139E+02  0.68073863935E+01  0.12938098280E+02  0.18096772831E+02  0.51100000000E-03 0. -1.
        -11    1    4    4    0    0  0.12171819489E+01 -0.45629111088E+00  0.27471664848E+01  0.30391869687E+01  0.51100000000E-03 0.  1.
        -12    1    4    4    0    0  0.30025408197E+02 -0.26945080789E+00  0.14237710358E+02  0.33231162143E+02  0.00000000000E+00 0.  1.
</event>
<event>
 8    1  0.1261983E-006  0.9118800E+02  0.7816164E-02  0.1184000E+00
        -11   -1    0    0    0    0  0.00000000000E+00  0.00000000000E+00  0.45593999997E+02  0.45594000000E+02  0.51100000000E-03 0.  1.
         11   -1    0    0    0    0 -0.00000000000E+00 -0.00000000000E+00 -0.45593999997E+02  0.45594000000E+02  0.51100000000E-03 0. -1.
         23    2    1    2    0    0  0.88817841970E-15  0.00000000000E+00  0.00000000000E+00  0.91188000000E+02  0.91188000000E+02 0.  0.
    9900012    2    3    3    0    0 -0.63313732232E+01 -0.32556835949E+02  0.15992030373E+02  0.54367097114E+02  0.40000029491E+02 0.  0.
        -12    1    3    3    0    0  0.63313732232E+01  0.32556835949E+02 -0.15992030373E+02  0.36820902886E+02  0.00000000000E+00 0.  1.
         11    1    4    4    0    0 -0.49570892823E+01 -0.22434544077E+02 -0.22319059006E+00  0.22976756002E+02  0.51100000000E-03 0. -1.
        -11    1    4    4    0    0 -0.85101138458E+01 -0.10246543272E+02  0.19434589126E+02  0.23560919792E+02  0.51100000000E-03 0.  1.
        -12    1    4    4    0    0  0.71358299048E+01  0.12425139960E+00 -0.32193681631E+01  0.78294213203E+01  0.00000000000E+00 0.  1.
</event>
<event>
 8    1  0.1261983E-006  0.9118800E+02  0.7816164E-02  0.1184000E+00
        -11   -1    0    0    0    0  0.00000000000E+00  0.00000000000E+00  0.45593999997E+02  0.45594000000E+02  0.51100000000E-03 0. -1.
         11   -1    0    0    0    0 -0.00000000000E+00 -0.00000000000E+00 -0.45593999997E+02  0.45594000000E+02  0.51100000000E-03 0.  1.
         23    2    1    2    0    0  0.00000000000E+00 -0.88817841970E-15  0.00000000000E+00  0.91188000000E+02  0.91188000000E+02 0.  0.
    9900012    2    3    3    0    0 -0.17309980546E+02 -0.43838205280E+01  0.32201344098E+02  0.54367083789E+02  0.39999999113E+02 0.  0.
        -12    1    3    3    0    0  0.17309980546E+02  0.43838205280E+01 -0.32201344098E+02  0.36820916211E+02  0.00000000000E+00 0.  1.
         11    1    4    4    0    0  0.22585525764E+00 -0.56564363887E+01  0.24115051042E+02  0.24770586797E+02  0.51100000000E-03 0. -1.
        -11    1    4    4    0    0 -0.12383530594E+02 -0.10083712361E+02  0.38633454803E+01  0.16430414587E+02  0.51100000000E-03 0.  1.
        -12    1    4    4    0    0 -0.51523052094E+01  0.11356328222E+02  0.42229475755E+01  0.13166082404E+02  0.00000000000E+00 0.  1.
</event>
<event>
 8    1  0.1261983E-006  0.9118800E+02  0.7816164E-02  0.1184000E+00
        -11   -1    0    0    0    0  0.00000000000E+00  0.00000000000E+00  0.45593999997E+02  0.45594000000E+02  0.51100000000E-03 0. -1.
         11   -1    0    0    0    0 -0.00000000000E+00 -0.00000000000E+00 -0.45593999997E+02  0.45594000000E+02  0.51100000000E-03 0.  1.
         23    2    1    2    0    0  0.00000000000E+00  0.00000000000E+00 -0.88817841970E-15  0.91188000000E+02  0.91188000000E+02 0.  0.
    9900012    2    3    3    0    0  0.12999475617E+02 -0.34164537047E+02  0.44245125102E+01  0.54367105539E+02  0.40000048697E+02 0.  0.
        -12    1    3    3    0    0 -0.12999475617E+02  0.34164537047E+02 -0.44245125102E+01  0.36820894461E+02  0.00000000000E+00 0.  1.
         11    1    4    4    0    0  0.39633696305E+01 -0.15772297422E+02 -0.62064529076E+01  0.17406714875E+02  0.51100000000E-03 0. -1.
        -11    1    4    4    0    0 -0.10482338003E+02 -0.46922157038E+01  0.45298518735E+01  0.12345681693E+02  0.51100000000E-03 0.  1.
        -12    1    4    4    0    0  0.19518443989E+02 -0.13700023921E+02  0.61011135443E+01  0.24614708970E+02  0.00000000000E+00 0.  1.
</event>
<event>
 8    1  0.1261983E-006  0.9118800E+02  0.7816164E-02  0.1184000E+00
        -11   -1    0    0    0    0  0.00000000000E+00  0.00000000000E+00  0.45593999997E+02  0.45594000000E+02  0.51100000000E-03 0.  1.
         11   -1    0    0    0    0 -0.00000000000E+00 -0.00000000000E+00 -0.45593999997E+02  0.45594000000E+02  0.51100000000E-03 0. -1.
         23    2    1    2    0    0  0.00000000000E+00 -0.17763568394E-14  0.00000000000E+00  0.91188000000E+02  0.91188000000E+02 0.  0.
    9900012    2    3    3    0    0 -0.16967677975E+02  0.91543669123E+01  0.31369967370E+02  0.54367090421E+02  0.40000014234E+02 0.  0.
         12    1    3    3    0    0  0.16967677975E+02 -0.91543669123E+01 -0.31369967370E+02  0.36820909579E+02  0.00000000000E+00 0. -1.
         11    1    4    4    0    0 -0.10014089173E+02 -0.91017294969E+01  0.36979188433E+01  0.14028473396E+02  0.51100000000E-03 0. -1.
        -11    1    4    4    0    0 -0.75785963426E+01  0.56299068967E+01  0.25907922507E+02  0.27574470495E+02  0.51100000000E-03 0.  1.
        -12    1    4    4    0    0  0.62500754074E+00  0.12626189513E+02  0.17641260195E+01  0.12764146530E+02  0.00000000000E+00 0.  1.
</event>
<event>
 8    1  0.1261983E-006  0.9118800E+02  0.7816164E-02  0.1184000E+00
        -11   -1    0    0    0    0  0.00000000000E+00  0.00000000000E+00  0.45593999997E+02  0.45594000000E+02  0.51100000000E-03 0.  1.
         11   -1    0    0    0    0 -0.00000000000E+00 -0.00000000000E+00 -0.45593999997E+02  0.45594000000E+02  0.51100000000E-03 0. -1.
         23    2    1    2    0    0  0.00000000000E+00  0.00000000000E+00  0.00000000000E+00  0.91188000000E+02  0.91188000000E+02 0.  0.
    9900012    2    3    3    0    0  0.15395015006E+02  0.27992884750E+02  0.18307701822E+02  0.54367081630E+02  0.39999994191E+02 0.  0.
         12    1    3    3    0    0 -0.15395015006E+02 -0.27992884750E+02 -0.18307701822E+02  0.36820918370E+02  0.00000000000E+00 0. -1.
         11    1    4    4    0    0  0.74962670170E+01  0.24416657385E+02  0.11882287888E+02  0.28170125004E+02  0.51100000000E-03 0. -1.
        -11    1    4    4    0    0  0.10651259646E+02  0.11851012063E+02  0.71123021587E+01  0.17449374236E+02  0.51100000000E-03 0.  1.
         12    1    4    4    0    0 -0.27525116564E+01 -0.82747846986E+01 -0.68688822484E+00  0.87475823895E+01  0.00000000000E+00 0. -1.
</event>
<event>
 8    1  0.1261983E-006  0.9118800E+02  0.7816164E-02  0.1184000E+00
        -11   -1    0    0    0    0  0.00000000000E+00  0.00000000000E+00  0.45593999997E+02  0.45594000000E+02  0.51100000000E-03 0.  1.
         11   -1    0    0    0    0 -0.00000000000E+00 -0.00000000000E+00 -0.45593999997E+02  0.45594000000E+02  0.51100000000E-03 0. -1.
         23    2    1    2    0    0 -0.35527136788E-14 -0.35527136788E-14  0.00000000000E+00  0.91188000000E+02  0.91188000000E+02 0.  0.
    9900012    2    3    3    0    0  0.24478022647E+02 -0.25481233170E+02  0.10359194205E+02  0.54367085547E+02  0.40000003122E+02 0.  0.
         12    1    3    3    0    0 -0.24478022647E+02  0.25481233170E+02 -0.10359194205E+02  0.36820914453E+02  0.00000000000E+00 0. -1.
         11    1    4    4    0    0  0.16894882349E+02 -0.57525814759E+01 -0.89024205819E+01  0.19944481335E+02  0.51100000000E-03 0. -1.
        -11    1    4    4    0    0  0.65866850327E+01 -0.13848065455E+02  0.11769890118E+01  0.15379812741E+02  0.51100000000E-03 0.  1.
         12    1    4    4    0    0  0.99645526547E+00 -0.58805862392E+01  0.18084625775E+02  0.19042791471E+02  0.00000000000E+00 0. -1.
</event>
<event>
 8    1  0.1261983E-006  0.9118800E+02  0.7816164E-02  0.1184000E+00
        -11   -1    0    0    0    0  0.00000000000E+00  0.00000000000E+00  0.45593999997E+02  0.45594000000E+02  0.51100000000E-03 0.  1.
         11   -1    0    0    0    0 -0.00000000000E+00 -0.00000000000E+00 -0.45593999997E+02  0.45594000000E+02  0.51100000000E-03 0. -1.
         23    2    1    2    0    0  0.88817841970E-15 -0.35527136788E-14  0.00000000000E+00  0.91188000000E+02  0.91188000000E+02 0.  0.
    9900012    2    3    3    0    0 -0.17431774372E+01 -0.27177814410E+02  0.24781215094E+02  0.54367070011E+02  0.39999967705E+02 0.  0.
         12    1    3    3    0    0  0.17431774372E+01  0.27177814410E+02 -0.24781215094E+02  0.36820929989E+02  0.00000000000E+00 0. -1.
         11    1    4    4    0    0 -0.65996289471E+01  0.17901959288E+01  0.83870007533E+01  0.10821353224E+02  0.51100000000E-03 0. -1.
        -11    1    4    4    0    0  0.14028224153E+02 -0.12246924327E+02  0.35335018414E+00  0.18625334492E+02  0.51100000000E-03 0.  1.
        -12    1    4    4    0    0 -0.91717726427E+01 -0.16721086012E+02  0.16040864157E+02  0.24920382295E+02  0.00000000000E+00 0.  1.
</event>
<event>
 8    1  0.1261983E-006  0.9118800E+02  0.7816164E-02  0.1184000E+00
        -11   -1    0    0    0    0  0.00000000000E+00  0.00000000000E+00  0.45593999997E+02  0.45594000000E+02  0.51100000000E-03 0.  1.
         11   -1    0    0    0    0 -0.00000000000E+00 -0.00000000000E+00 -0.45593999997E+02  0.45594000000E+02  0.51100000000E-03 0. -1.
         23    2    1    2    0    0 -0.88817841970E-15  0.17763568394E-14  0.00000000000E+00  0.91188000000E+02  0.91188000000E+02 0.  0.
    9900012    2    3    3    0    0 -0.58020247263E+01  0.14004366632E+02  0.33555862092E+02  0.54367059539E+02  0.39999943831E+02 0.  0.
         12    1    3    3    0    0  0.58020247263E+01 -0.14004366632E+02 -0.33555862092E+02  0.36820940461E+02  0.00000000000E+00 0. -1.
         11    1    4    4    0    0 -0.42590479045E+01 -0.11679231045E+01  0.65717978501E+01  0.79178318165E+01  0.51100000000E-03 0. -1.
        -11    1    4    4    0    0  0.87478031176E+01 -0.77407380989E+01  0.13805413697E+02  0.18084040846E+02  0.51100000000E-03 0.  1.
        -12    1    4    4    0    0 -0.10290779939E+02  0.22913027836E+02  0.13178650545E+02  0.28365186876E+02  0.00000000000E+00 0.  1.
</event>
<event>
 8    1  0.1261983E-006  0.9118800E+02  0.7816164E-02  0.1184000E+00
        -11   -1    0    0    0    0  0.00000000000E+00  0.00000000000E+00  0.45593999997E+02  0.45594000000E+02  0.51100000000E-03 0. -1.
         11   -1    0    0    0    0 -0.00000000000E+00 -0.00000000000E+00 -0.45593999997E+02  0.45594000000E+02  0.51100000000E-03 0.  1.
         23    2    1    2    0    0 -0.71054273576E-14  0.00000000000E+00 -0.17763568394E-14  0.91188000000E+02  0.91188000000E+02 0.  0.
    9900012    2    3    3    0    0 -0.32521437761E+02 -0.16611284468E+02  0.47124084259E+01  0.54367007633E+02  0.39999825500E+02 0.  0.
        -12    1    3    3    0    0  0.32521437761E+02  0.16611284468E+02 -0.47124084259E+01  0.36820992367E+02  0.00000000000E+00 0.  1.
         11    1    4    4    0    0 -0.14392610524E+02  0.50487209342E+01  0.93738511955E+01  0.17902678773E+02  0.51100000000E-03 0. -1.
        -11    1    4    4    0    0 -0.65941232127E+01 -0.82928405055E+00 -0.10052232430E+02  0.12050624468E+02  0.51100000000E-03 0.  1.
         12    1    4    4    0    0 -0.11534704024E+02 -0.20830721352E+02  0.53907896601E+01  0.24413704392E+02  0.00000000000E+00 0. -1.
</event>
<event>
 8    1  0.1261983E-006  0.9118800E+02  0.7816164E-02  0.1184000E+00
        -11   -1    0    0    0    0  0.00000000000E+00  0.00000000000E+00  0.45593999997E+02  0.45594000000E+02  0.51100000000E-03 0.  1.
         11   -1    0    0    0    0 -0.00000000000E+00 -0.00000000000E+00 -0.45593999997E+02  0.45594000000E+02  0.51100000000E-03 0. -1.
         23    2    1    2    0    0 -0.88817841970E-15  0.35527136788E-14  0.00000000000E+00  0.91188000000E+02  0.91188000000E+02 0.  0.
    9900012    2    3    3    0    0  0.53436157346E+01 -0.31511359730E+02  0.18282766422E+02  0.54367087882E+02  0.40000008444E+02 0.  0.
         12    1    3    3    0    0 -0.53436157346E+01  0.31511359730E+02 -0.18282766422E+02  0.36820912118E+02  0.00000000000E+00 0. -1.
         11    1    4    4    0    0 -0.20387503621E+01  0.24770935048E+01  0.93105465100E+01  0.98477800466E+01  0.51100000000E-03 0. -1.
        -11    1    4    4    0    0  0.71065690164E+01  0.21082283287E+01  0.26498839729E+01  0.78720921744E+01  0.51100000000E-03 0.  1.
         12    1    4    4    0    0  0.27579708029E+00 -0.36096681564E+02  0.63223359395E+01  0.36647215661E+02  0.00000000000E+00 0. -1.
</event>
<event>
 8    1  0.1261983E-006  0.9118800E+02  0.7816164E-02  0.1184000E+00
        -11   -1    0    0    0    0  0.00000000000E+00  0.00000000000E+00  0.45593999997E+02  0.45594000000E+02  0.51100000000E-03 0. -1.
         11   -1    0    0    0    0 -0.00000000000E+00 -0.00000000000E+00 -0.45593999997E+02  0.45594000000E+02  0.51100000000E-03 0.  1.
         23    2    1    2    0    0 -0.17763568394E-14  0.00000000000E+00 -0.35527136788E-14  0.91188000000E+02  0.91188000000E+02 0.  0.
    9900012    2    3    3    0    0 -0.11792240159E+02 -0.24201269325E+02 -0.25120118070E+02  0.54367099729E+02  0.40000035453E+02 0.  0.
         12    1    3    3    0    0  0.11792240159E+02  0.24201269325E+02  0.25120118070E+02  0.36820900271E+02  0.00000000000E+00 0. -1.
         11    1    4    4    0    0 -0.89165951419E+01 -0.50954729187E+01 -0.17674514794E+00  0.10271355913E+02  0.51100000000E-03 0. -1.
        -11    1    4    4    0    0 -0.90241187021E+01  0.32647418986E+01 -0.17094427062E+02  0.19603894890E+02  0.51100000000E-03 0.  1.
         12    1    4    4    0    0  0.61484736850E+01 -0.22370538305E+02 -0.78489458598E+01  0.24491848926E+02  0.00000000000E+00 0. -1.
</event>
<event>
 8    1  0.1261983E-006  0.9118800E+02  0.7816164E-02  0.1184000E+00
        -11   -1    0    0    0    0  0.00000000000E+00  0.00000000000E+00  0.45593999997E+02  0.45594000000E+02  0.51100000000E-03 0. -1.
         11   -1    0    0    0    0 -0.00000000000E+00 -0.00000000000E+00 -0.45593999997E+02  0.45594000000E+02  0.51100000000E-03 0.  1.
         23    2    1    2    0    0  0.00000000000E+00  0.00000000000E+00  0.35527136788E-14  0.91188000000E+02  0.91188000000E+02 0.  0.
    9900012    2    3    3    0    0 -0.26030215469E+02  0.15760301862E+02  0.20732115669E+02  0.54367084038E+02  0.39999999681E+02 0.  0.
        -12    1    3    3    0    0  0.26030215469E+02 -0.15760301862E+02 -0.20732115669E+02  0.36820915962E+02  0.00000000000E+00 0.  1.
         11    1    4    4    0    0 -0.25931782474E+02  0.16503852526E+02  0.24234618119E+02  0.39142703102E+02  0.51100000000E-03 0. -1.
        -11    1    4    4    0    0  0.90943382303E+00  0.69356199165E+01 -0.24320692937E+01  0.74057312141E+01  0.51100000000E-03 0.  1.
        -12    1    4    4    0    0 -0.10078668185E+01 -0.76791705806E+01 -0.10704331565E+01  0.78186497218E+01  0.00000000000E+00 0.  1.
</event>
<event>
 8    1  0.1261983E-006  0.9118800E+02  0.7816164E-02  0.1184000E+00
        -11   -1    0    0    0    0  0.00000000000E+00  0.00000000000E+00  0.45593999997E+02  0.45594000000E+02  0.51100000000E-03 0.  1.
         11   -1    0    0    0    0 -0.00000000000E+00 -0.00000000000E+00 -0.45593999997E+02  0.45594000000E+02  0.51100000000E-03 0. -1.
         23    2    1    2    0    0  0.00000000000E+00 -0.44408920985E-15  0.00000000000E+00  0.91188000000E+02  0.91188000000E+02 0.  0.
    9900012    2    3    3    0    0 -0.19946067817E+02 -0.17640253551E+01 -0.30900195558E+02  0.54367088925E+02  0.40000010823E+02 0.  0.
        -12    1    3    3    0    0  0.19946067817E+02  0.17640253551E+01  0.30900195558E+02  0.36820911075E+02  0.00000000000E+00 0.  1.
         11    1    4    4    0    0 -0.22015368603E+02  0.70447967574E+01 -0.23396043034E+02  0.32888910684E+02  0.51100000000E-03 0. -1.
        -11    1    4    4    0    0 -0.70511643155E+01 -0.72797154038E+01 -0.10247550058E+01  0.10186427129E+02  0.51100000000E-03 0.  1.
         12    1    4    4    0    0  0.91204651010E+01 -0.15291067086E+01 -0.64793975188E+01  0.11291751113E+02  0.00000000000E+00 0. -1.
</event>
<event>
 8    1  0.1261983E-006  0.9118800E+02  0.7816164E-02  0.1184000E+00
        -11   -1    0    0    0    0  0.00000000000E+00  0.00000000000E+00  0.45593999997E+02  0.45594000000E+02  0.51100000000E-03 0.  1.
         11   -1    0    0    0    0 -0.00000000000E+00 -0.00000000000E+00 -0.45593999997E+02  0.45594000000E+02  0.51100000000E-03 0. -1.
         23    2    1    2    0    0  0.00000000000E+00 -0.17763568394E-14  0.00000000000E+00  0.91188000000E+02  0.91188000000E+02 0.  0.
    9900012    2    3    3    0    0  0.18266171917E+02 -0.15782043903E+02  0.27803823578E+02  0.54367101698E+02  0.40000039940E+02 0.  0.
         12    1    3    3    0    0 -0.18266171917E+02  0.15782043903E+02 -0.27803823578E+02  0.36820898302E+02  0.00000000000E+00 0. -1.
         11    1    4    4    0    0  0.22817358951E+02 -0.31268457515E+00  0.11812784944E+02  0.25695749250E+02  0.51100000000E-03 0. -1.
        -11    1    4    4    0    0  0.66362879682E+01 -0.72073950614E+01  0.78665823752E+01  0.12564632111E+02  0.51100000000E-03 0.  1.
        -12    1    4    4    0    0 -0.11187475003E+02 -0.82619642669E+01  0.81244562584E+01  0.16106720336E+02  0.00000000000E+00 0.  1.
</event>
<event>
 8    1  0.1261983E-006  0.9118800E+02  0.7816164E-02  0.1184000E+00
        -11   -1    0    0    0    0  0.00000000000E+00  0.00000000000E+00  0.45593999997E+02  0.45594000000E+02  0.51100000000E-03 0. -1.
         11   -1    0    0    0    0 -0.00000000000E+00 -0.00000000000E+00 -0.45593999997E+02  0.45594000000E+02  0.51100000000E-03 0.  1.
         23    2    1    2    0    0  0.35527136788E-14 -0.88817841970E-15  0.00000000000E+00  0.91188000000E+02  0.91188000000E+02 0.  0.
    9900012    2    3    3    0    0 -0.26492451065E+02  0.56819892893E+01 -0.24932802420E+02  0.54367087433E+02  0.40000007422E+02 0.  0.
         12    1    3    3    0    0  0.26492451065E+02 -0.56819892893E+01  0.24932802420E+02  0.36820912567E+02  0.00000000000E+00 0. -1.
         11    1    4    4    0    0 -0.17990773699E+02  0.18347635107E+01 -0.20802953888E+02  0.27564418843E+02  0.51100000000E-03 0. -1.
        -11    1    4    4    0    0 -0.15961431014E+02  0.80686468975E+01 -0.33493806404E+01  0.18195842759E+02  0.51100000000E-03 0.  1.
         12    1    4    4    0    0  0.74597536484E+01 -0.42214211188E+01 -0.78046789184E+00  0.86068258311E+01  0.00000000000E+00 0. -1.
</event>
<event>
 8    1  0.1261983E-006  0.9118800E+02  0.7816164E-02  0.1184000E+00
        -11   -1    0    0    0    0  0.00000000000E+00  0.00000000000E+00  0.45593999997E+02  0.45594000000E+02  0.51100000000E-03 0.  1.
         11   -1    0    0    0    0 -0.00000000000E+00 -0.00000000000E+00 -0.45593999997E+02  0.45594000000E+02  0.51100000000E-03 0. -1.
         23    2    1    2    0    0  0.00000000000E+00  0.35527136788E-14  0.00000000000E+00  0.91188000000E+02  0.91188000000E+02 0.  0.
    9900012    2    3    3    0    0  0.28516760418E+02 -0.21595505350E+02  0.87296852905E+01  0.54367097223E+02  0.40000029738E+02 0.  0.
         12    1    3    3    0    0 -0.28516760418E+02  0.21595505350E+02 -0.87296852905E+01  0.36820902777E+02  0.00000000000E+00 0. -1.
         11    1    4    4    0    0  0.14876980978E+02 -0.22067012446E+02 -0.59025833493E+01  0.27260192438E+02  0.51100000000E-03 0. -1.
        -11    1    4    4    0    0  0.42167597328E+01  0.55660563233E+01  0.14831351889E+02  0.16393018171E+02  0.51100000000E-03 0.  1.
        -12    1    4    4    0    0  0.94230197075E+01 -0.50945492276E+01 -0.19908324880E+00  0.10713886614E+02  0.00000000000E+00 0.  1.
</event>
<event>
 8    1  0.1261983E-006  0.9118800E+02  0.7816164E-02  0.1184000E+00
        -11   -1    0    0    0    0  0.00000000000E+00  0.00000000000E+00  0.45593999997E+02  0.45594000000E+02  0.51100000000E-03 0. -1.
         11   -1    0    0    0    0 -0.00000000000E+00 -0.00000000000E+00 -0.45593999997E+02  0.45594000000E+02  0.51100000000E-03 0.  1.
         23    2    1    2    0    0  0.00000000000E+00  0.00000000000E+00  0.00000000000E+00  0.91188000000E+02  0.91188000000E+02 0.  0.
    9900012    2    3    3    0    0  0.23209317865E+02 -0.68062654042E+01 -0.27762892238E+02  0.54367138116E+02  0.40000122962E+02 0.  0.
         12    1    3    3    0    0 -0.23209317865E+02  0.68062654042E+01  0.27762892238E+02  0.36820861884E+02  0.00000000000E+00 0. -1.
         11    1    4    4    0    0  0.20103687360E+02 -0.11323399828E+02 -0.82508648432E+01  0.24504171075E+02  0.51100000000E-03 0. -1.
        -11    1    4    4    0    0  0.29548776312E+01 -0.55195507521E+01  0.16210064838E+01  0.64671790297E+01  0.51100000000E-03 0.  1.
         12    1    4    4    0    0  0.15075287327E+00  0.10036685176E+02 -0.21133033878E+02  0.23395788011E+02  0.00000000000E+00 0. -1.
</event>
<event>
 8    1  0.1261983E-006  0.9118800E+02  0.7816164E-02  0.1184000E+00
        -11   -1    0    0    0    0  0.00000000000E+00  0.00000000000E+00  0.45593999997E+02  0.45594000000E+02  0.51100000000E-03 0. -1.
         11   -1    0    0    0    0 -0.00000000000E+00 -0.00000000000E+00 -0.45593999997E+02  0.45594000000E+02  0.51100000000E-03 0.  1.
         23    2    1    2    0    0  0.00000000000E+00  0.35527136788E-14  0.35527136788E-14  0.91188000000E+02  0.91188000000E+02 0.  0.
    9900012    2    3    3    0    0 -0.16050419155E+02  0.22840894458E+02 -0.24009546584E+02  0.54367071958E+02  0.39999972142E+02 0.  0.
         12    1    3    3    0    0  0.16050419155E+02 -0.22840894458E+02  0.24009546584E+02  0.36820928042E+02  0.00000000000E+00 0. -1.
         11    1    4    4    0    0 -0.91142916323E+01  0.69513666513E+01  0.41693297924E+00  0.11470206783E+02  0.51100000000E-03 0. -1.
        -11    1    4    4    0    0 -0.14282573876E+02  0.15112458966E+02 -0.27848697766E+02  0.34755262911E+02  0.51100000000E-03 0.  1.
        -12    1    4    4    0    0  0.73464463528E+01  0.77706884071E+00  0.34222182020E+01  0.81416022637E+01  0.00000000000E+00 0.  1.
</event>
<event>
 8    1  0.1261983E-006  0.9118800E+02  0.7816164E-02  0.1184000E+00
        -11   -1    0    0    0    0  0.00000000000E+00  0.00000000000E+00  0.45593999997E+02  0.45594000000E+02  0.51100000000E-03 0.  1.
         11   -1    0    0    0    0 -0.00000000000E+00 -0.00000000000E+00 -0.45593999997E+02  0.45594000000E+02  0.51100000000E-03 0. -1.
         23    2    1    2    0    0  0.88817841970E-15  0.88817841970E-15  0.00000000000E+00  0.91188000000E+02  0.91188000000E+02 0.  0.
    9900012    2    3    3    0    0  0.46978590389E+01  0.71440059782E+01 -0.35814435438E+02  0.54367075423E+02  0.39999980041E+02 0.  0.
        -12    1    3    3    0    0 -0.46978590389E+01 -0.71440059782E+01  0.35814435438E+02  0.36820924577E+02  0.00000000000E+00 0.  1.
         11    1    4    4    0    0  0.16792606338E+01 -0.87985710908E+00 -0.24142734998E+02  0.24217054285E+02  0.51100000000E-03 0. -1.
        -11    1    4    4    0    0  0.11160059106E+02  0.13772297138E+02 -0.61926508371E+01  0.18776901032E+02  0.51100000000E-03 0.  1.
        -12    1    4    4    0    0 -0.81414607009E+01 -0.57484340507E+01 -0.54790496033E+01  0.11373120106E+02  0.00000000000E+00 0.  1.
</event>
<event>
 8    1  0.1261983E-006  0.9118800E+02  0.7816164E-02  0.1184000E+00
        -11   -1    0    0    0    0  0.00000000000E+00  0.00000000000E+00  0.45593999997E+02  0.45594000000E+02  0.51100000000E-03 0.  1.
         11   -1    0    0    0    0 -0.00000000000E+00 -0.00000000000E+00 -0.45593999997E+02  0.45594000000E+02  0.51100000000E-03 0. -1.
         23    2    1    2    0    0 -0.17763568394E-14  0.00000000000E+00 -0.35527136788E-14  0.91188000000E+02  0.91188000000E+02 0.  0.
    9900012    2    3    3    0    0  0.12940162463E+02  0.26594573440E+02  0.21933171227E+02  0.54367039379E+02  0.39999897872E+02 0.  0.
         12    1    3    3    0    0 -0.12940162463E+02 -0.26594573440E+02 -0.21933171227E+02  0.36820960621E+02  0.00000000000E+00 0. -1.
         11    1    4    4    0    0  0.40709355856E+01  0.65992585051E+01 -0.28738914936E+00  0.77592088607E+01  0.51100000000E-03 0. -1.
        -11    1    4    4    0    0  0.17262338508E+02  0.16772559211E+02  0.16110328263E+01  0.24122655333E+02  0.51100000000E-03 0.  1.
         12    1    4    4    0    0 -0.83931116305E+01  0.32227557232E+01  0.20609527550E+02  0.22485175185E+02  0.00000000000E+00 0. -1.
</event>
<event>
 8    1  0.1261983E-006  0.9118800E+02  0.7816164E-02  0.1184000E+00
        -11   -1    0    0    0    0  0.00000000000E+00  0.00000000000E+00  0.45593999997E+02  0.45594000000E+02  0.51100000000E-03 0.  1.
         11   -1    0    0    0    0 -0.00000000000E+00 -0.00000000000E+00 -0.45593999997E+02  0.45594000000E+02  0.51100000000E-03 0. -1.
         23    2    1    2    0    0 -0.44408920985E-15 -0.44408920985E-15  0.00000000000E+00  0.91188000000E+02  0.91188000000E+02 0.  0.
    9900012    2    3    3    0    0 -0.39153866225E+01  0.26726157879E+01 -0.36514463054E+02  0.54367093715E+02  0.40000021741E+02 0.  0.
        -12    1    3    3    0    0  0.39153866225E+01 -0.26726157879E+01  0.36514463054E+02  0.36820906285E+02  0.00000000000E+00 0.  1.
         11    1    4    4    0    0 -0.77656563459E+01 -0.50599096888E+01 -0.12920542354E+01  0.93582855775E+01  0.51100000000E-03 0. -1.
        -11    1    4    4    0    0 -0.91970868611E+01 -0.43627889123E+01 -0.11538990309E+02  0.15387287982E+02  0.51100000000E-03 0.  1.
         12    1    4    4    0    0  0.13047356585E+02  0.12095314389E+02 -0.23683418509E+02  0.29621520155E+02  0.00000000000E+00 0. -1.
</event>
<event>
 8    1  0.1261983E-006  0.9118800E+02  0.7816164E-02  0.1184000E+00
        -11   -1    0    0    0    0  0.00000000000E+00  0.00000000000E+00  0.45593999997E+02  0.45594000000E+02  0.51100000000E-03 0. -1.
         11   -1    0    0    0    0 -0.00000000000E+00 -0.00000000000E+00 -0.45593999997E+02  0.45594000000E+02  0.51100000000E-03 0.  1.
         23    2    1    2    0    0  0.17763568394E-14 -0.44408920985E-15  0.00000000000E+00  0.91188000000E+02  0.91188000000E+02 0.  0.
    9900012    2    3    3    0    0 -0.14618049414E+02 -0.11633096905E+01 -0.33774809967E+02  0.54367103128E+02  0.40000043202E+02 0.  0.
         12    1    3    3    0    0  0.14618049414E+02  0.11633096905E+01  0.33774809967E+02  0.36820896872E+02  0.00000000000E+00 0. -1.
         11    1    4    4    0    0  0.55717267161E+01  0.13984059446E+01  0.62911896405E+00  0.57788812686E+01  0.51100000000E-03 0. -1.
        -11    1    4    4    0    0 -0.14893117114E+02 -0.14584204710E+02 -0.24293933674E+02  0.32010922792E+02  0.51100000000E-03 0.  1.
        -12    1    4    4    0    0 -0.52966590153E+01  0.12022489075E+02 -0.10109995258E+02  0.16577299068E+02  0.00000000000E+00 0.  1.
</event>
<event>
 8    1  0.1261983E-006  0.9118800E+02  0.7816164E-02  0.1184000E+00
        -11   -1    0    0    0    0  0.00000000000E+00  0.00000000000E+00  0.45593999997E+02  0.45594000000E+02  0.51100000000E-03 0. -1.
         11   -1    0    0    0    0 -0.00000000000E+00 -0.00000000000E+00 -0.45593999997E+02  0.45594000000E+02  0.51100000000E-03 0.  1.
         23    2    1    2    0    0  0.00000000000E+00  0.00000000000E+00  0.00000000000E+00  0.91188000000E+02  0.91188000000E+02 0.  0.
    9900012    2    3    3    0    0 -0.17658650453E+02  0.86526692857E+01 -0.31130096160E+02  0.54367088706E+02  0.40000010323E+02 0.  0.
         12    1    3    3    0    0  0.17658650453E+02 -0.86526692857E+01  0.31130096160E+02  0.36820911294E+02  0.00000000000E+00 0. -1.
         11    1    4    4    0    0 -0.11190229391E+00 -0.72356752514E+01 -0.44064804582E+01  0.84725786368E+01  0.51100000000E-03 0. -1.
        -11    1    4    4    0    0 -0.23140568251E+02  0.16920379836E+02 -0.13885479160E+02  0.31852655848E+02  0.51100000000E-03 0.  1.
        -12    1    4    4    0    0  0.55938200928E+01 -0.10320352989E+01 -0.12838136543E+02  0.14041854221E+02  0.00000000000E+00 0.  1.
</event>
<event>
 8    1  0.1261983E-006  0.9118800E+02  0.7816164E-02  0.1184000E+00
        -11   -1    0    0    0    0  0.00000000000E+00  0.00000000000E+00  0.45593999997E+02  0.45594000000E+02  0.51100000000E-03 0.  1.
         11   -1    0    0    0    0 -0.00000000000E+00 -0.00000000000E+00 -0.45593999997E+02  0.45594000000E+02  0.51100000000E-03 0. -1.
         23    2    1    2    0    0  0.00000000000E+00  0.00000000000E+00  0.00000000000E+00  0.91188000000E+02  0.91188000000E+02 0.  0.
    9900012    2    3    3    0    0  0.14363058631E+02 -0.17965325384E+02  0.28752921040E+02  0.54367070656E+02  0.39999969175E+02 0.  0.
         12    1    3    3    0    0 -0.14363058631E+02  0.17965325384E+02 -0.28752921040E+02  0.36820929344E+02  0.00000000000E+00 0. -1.
         11    1    4    4    0    0 -0.91086820425E+01  0.15785540273E+01  0.80458028000E+01  0.12255401435E+02  0.51100000000E-03 0. -1.
        -11    1    4    4    0    0  0.18844470773E+02 -0.21735254511E+02  0.22672411934E+02  0.36627498285E+02  0.51100000000E-03 0.  1.
        -12    1    4    4    0    0  0.46272699005E+01  0.21913750997E+01 -0.19652936943E+01  0.54841709369E+01  0.00000000000E+00 0.  1.
</event>
<event>
 8    1  0.1261983E-006  0.9118800E+02  0.7816164E-02  0.1184000E+00
        -11   -1    0    0    0    0  0.00000000000E+00  0.00000000000E+00  0.45593999997E+02  0.45594000000E+02  0.51100000000E-03 0.  1.
         11   -1    0    0    0    0 -0.00000000000E+00 -0.00000000000E+00 -0.45593999997E+02  0.45594000000E+02  0.51100000000E-03 0. -1.
         23    2    1    2    0    0 -0.13322676296E-14  0.17763568394E-14  0.00000000000E+00  0.91188000000E+02  0.91188000000E+02 0.  0.
    9900012    2    3    3    0    0 -0.30000442212E+01  0.14806666559E+02 -0.33578900416E+02  0.54367079410E+02  0.39999989131E+02 0.  0.
        -12    1    3    3    0    0  0.30000442212E+01 -0.14806666559E+02  0.33578900416E+02  0.36820920590E+02  0.00000000000E+00 0.  1.
         11    1    4    4    0    0 -0.38457163492E+00 -0.12979072276E+01  0.49119482371E+01  0.50950656776E+01  0.51100000000E-03 0. -1.
        -11    1    4    4    0    0  0.94497151512E+01 -0.13420079816E+01 -0.12291720543E+02  0.15562277984E+02  0.51100000000E-03 0.  1.
         12    1    4    4    0    0 -0.12065187737E+02  0.17446581768E+02 -0.26199128110E+02  0.33709735749E+02  0.00000000000E+00 0. -1.
</event>
<event>
 8    1  0.1261983E-006  0.9118800E+02  0.7816164E-02  0.1184000E+00
        -11   -1    0    0    0    0  0.00000000000E+00  0.00000000000E+00  0.45593999997E+02  0.45594000000E+02  0.51100000000E-03 0.  1.
         11   -1    0    0    0    0 -0.00000000000E+00 -0.00000000000E+00 -0.45593999997E+02  0.45594000000E+02  0.51100000000E-03 0. -1.
         23    2    1    2    0    0  0.00000000000E+00 -0.35527136788E-14  0.17763568394E-14  0.91188000000E+02  0.91188000000E+02 0.  0.
    9900012    2    3    3    0    0  0.27070231067E+02 -0.20649130149E+02 -0.14021267875E+02  0.54367082864E+02  0.39999997005E+02 0.  0.
        -12    1    3    3    0    0 -0.27070231067E+02  0.20649130149E+02  0.14021267875E+02  0.36820917136E+02  0.00000000000E+00 0.  1.
         11    1    4    4    0    0  0.19987450337E+02  0.37118091871E+00 -0.52427707320E+01  0.20666944415E+02  0.51100000000E-03 0. -1.
        -11    1    4    4    0    0 -0.18290367287E+01  0.34576115956E+01 -0.64540828818E+01  0.75468960114E+01  0.51100000000E-03 0.  1.
         12    1    4    4    0    0  0.89118174583E+01 -0.24477922663E+02 -0.23244142612E+01  0.26153242437E+02  0.00000000000E+00 0. -1.
</event>
<event>
 8    1  0.1261983E-006  0.9118800E+02  0.7816164E-02  0.1184000E+00
        -11   -1    0    0    0    0  0.00000000000E+00  0.00000000000E+00  0.45593999997E+02  0.45594000000E+02  0.51100000000E-03 0. -1.
         11   -1    0    0    0    0 -0.00000000000E+00 -0.00000000000E+00 -0.45593999997E+02  0.45594000000E+02  0.51100000000E-03 0.  1.
         23    2    1    2    0    0 -0.71054273576E-14 -0.35527136788E-14 -0.35527136788E-14  0.91188000000E+02  0.91188000000E+02 0.  0.
    9900012    2    3    3    0    0  0.23164834283E+02  0.21053308080E+02  0.19388850888E+02  0.54367097415E+02  0.40000030177E+02 0.  0.
        -12    1    3    3    0    0 -0.23164834283E+02 -0.21053308080E+02 -0.19388850888E+02  0.36820902585E+02  0.00000000000E+00 0.  1.
         11    1    4    4    0    0  0.16363588485E+02  0.63220675502E+01  0.22329853125E+02  0.28396441803E+02  0.51100000000E-03 0.  1.
        -11    1    4    4    0    0  0.11493083057E+02  0.74579920378E+01  0.46395688247E+01  0.14465068356E+02  0.51100000000E-03 0. -1.
        -12    1    4    4    0    0 -0.46918372597E+01  0.72732484916E+01 -0.75805710617E+01  0.11505587256E+02  0.00000000000E+00 0.  1.
</event>
<event>
 8    1  0.1261983E-006  0.9118800E+02  0.7816164E-02  0.1184000E+00
        -11   -1    0    0    0    0  0.00000000000E+00  0.00000000000E+00  0.45593999997E+02  0.45594000000E+02  0.51100000000E-03 0. -1.
         11   -1    0    0    0    0 -0.00000000000E+00 -0.00000000000E+00 -0.45593999997E+02  0.45594000000E+02  0.51100000000E-03 0.  1.
         23    2    1    2    0    0 -0.17763568394E-14  0.00000000000E+00 -0.35527136788E-14  0.91188000000E+02  0.91188000000E+02 0.  0.
    9900012    2    3    3    0    0  0.10591689161E+02  0.24390015578E+02  0.25470051694E+02  0.54367078332E+02  0.39999986674E+02 0.  0.
        -12    1    3    3    0    0 -0.10591689161E+02 -0.24390015578E+02 -0.25470051694E+02  0.36820921668E+02  0.00000000000E+00 0.  1.
         11    1    4    4    0    0  0.11737071038E+02  0.23419968193E+02  0.16364033683E+02  0.30887462592E+02  0.51100000000E-03 0. -1.
        -11    1    4    4    0    0  0.96187859840E+01 -0.23802965006E+01  0.66735037259E+01  0.11946652564E+02  0.51100000000E-03 0.  1.
        -12    1    4    4    0    0 -0.10764167861E+02  0.33503438854E+01  0.24325142851E+01  0.11532963177E+02  0.00000000000E+00 0.  1.
</event>
<event>
 8    1  0.1261983E-006  0.9118800E+02  0.7816164E-02  0.1184000E+00
        -11   -1    0    0    0    0  0.00000000000E+00  0.00000000000E+00  0.45593999997E+02  0.45594000000E+02  0.51100000000E-03 0. -1.
         11   -1    0    0    0    0 -0.00000000000E+00 -0.00000000000E+00 -0.45593999997E+02  0.45594000000E+02  0.51100000000E-03 0.  1.
         23    2    1    2    0    0 -0.88817841970E-15  0.88817841970E-15  0.71054273576E-14  0.91188000000E+02  0.91188000000E+02 0.  0.
    9900012    2    3    3    0    0 -0.40109158881E+01 -0.75248041199E+01  0.35819969326E+02  0.54367077608E+02  0.39999985023E+02 0.  0.
        -12    1    3    3    0    0  0.40109158881E+01  0.75248041199E+01 -0.35819969326E+02  0.36820922392E+02  0.00000000000E+00 0.  1.
         11    1    4    4    0    0  0.75932569712E+01  0.19184128612E+01  0.28012981789E+02  0.29087196639E+02  0.51100000000E-03 0. -1.
        -11    1    4    4    0    0 -0.18805282366E+01  0.54464800606E+01 -0.22565328685E+00  0.57664071281E+01  0.51100000000E-03 0.  1.
        -12    1    4    4    0    0 -0.97236446226E+01 -0.14889697042E+02  0.80326408231E+01  0.19513473841E+02  0.00000000000E+00 0.  1.
</event>
<event>
 8    1  0.1261983E-006  0.9118800E+02  0.7816164E-02  0.1184000E+00
        -11   -1    0    0    0    0  0.00000000000E+00  0.00000000000E+00  0.45593999997E+02  0.45594000000E+02  0.51100000000E-03 0.  1.
         11   -1    0    0    0    0 -0.00000000000E+00 -0.00000000000E+00 -0.45593999997E+02  0.45594000000E+02  0.51100000000E-03 0. -1.
         23    2    1    2    0    0  0.17763568394E-14 -0.35527136788E-14 -0.35527136788E-14  0.91188000000E+02  0.91188000000E+02 0.  0.
    9900012    2    3    3    0    0  0.11293756226E+02 -0.30049482200E+02 -0.18034943820E+02  0.54367088702E+02  0.40000010315E+02 0.  0.
        -12    1    3    3    0    0 -0.11293756226E+02  0.30049482200E+02  0.18034943820E+02  0.36820911298E+02  0.00000000000E+00 0.  1.
         11    1    4    4    0    0  0.18957123868E+02 -0.92144013715E+01 -0.13126860801E+02  0.24831274891E+02  0.51100000000E-03 0. -1.
        -11    1    4    4    0    0 -0.94860459109E+01 -0.22961737873E+02 -0.72549745999E+01  0.25881675561E+02  0.51100000000E-03 0.  1.
        -12    1    4    4    0    0  0.18226782692E+01  0.21266570438E+01  0.23468915810E+01  0.36541382497E+01  0.00000000000E+00 0.  1.
</event>
<event>
 8    1  0.1261983E-006  0.9118800E+02  0.7816164E-02  0.1184000E+00
        -11   -1    0    0    0    0  0.00000000000E+00  0.00000000000E+00  0.45593999997E+02  0.45594000000E+02  0.51100000000E-03 0. -1.
         11   -1    0    0    0    0 -0.00000000000E+00 -0.00000000000E+00 -0.45593999997E+02  0.45594000000E+02  0.51100000000E-03 0.  1.
         23    2    1    2    0    0  0.00000000000E+00  0.00000000000E+00  0.00000000000E+00  0.91188000000E+02  0.91188000000E+02 0.  0.
    9900012    2    3    3    0    0  0.15727141106E+02 -0.20654462279E+02 -0.26111801746E+02  0.54367136759E+02  0.40000119870E+02 0.  0.
         12    1    3    3    0    0 -0.15727141106E+02  0.20654462279E+02  0.26111801746E+02  0.36820863241E+02  0.00000000000E+00 0. -1.
         11    1    4    4    0    0 -0.56880349074E+01  0.71991003515E+01  0.13542705318E+01  0.92744183599E+01  0.51100000000E-03 0. -1.
        -11    1    4    4    0    0  0.28010061498E+01 -0.11864875371E+01 -0.11291833491E+01  0.32447562965E+01  0.51100000000E-03 0.  1.
         12    1    4    4    0    0  0.18614169864E+02 -0.26667075093E+02 -0.26336888928E+02  0.41847962103E+02  0.00000000000E+00 0. -1.
</event>
<event>
 8    1  0.1261983E-006  0.9118800E+02  0.7816164E-02  0.1184000E+00
        -11   -1    0    0    0    0  0.00000000000E+00  0.00000000000E+00  0.45593999997E+02  0.45594000000E+02  0.51100000000E-03 0.  1.
         11   -1    0    0    0    0 -0.00000000000E+00 -0.00000000000E+00 -0.45593999997E+02  0.45594000000E+02  0.51100000000E-03 0. -1.
         23    2    1    2    0    0  0.00000000000E+00 -0.88817841970E-15  0.00000000000E+00  0.91188000000E+02  0.91188000000E+02 0.  0.
    9900012    2    3    3    0    0  0.35508982590E+02  0.79538046523E+01  0.56240024399E+01  0.54367078549E+02  0.39999987169E+02 0.  0.
        -12    1    3    3    0    0 -0.35508982590E+02 -0.79538046523E+01 -0.56240024399E+01  0.36820921451E+02  0.00000000000E+00 0.  1.
         11    1    4    4    0    0  0.28326868315E+02 -0.39182437990E+01 -0.39697063855E+01  0.28870792716E+02  0.51100000000E-03 0. -1.
        -11    1    4    4    0    0  0.59336640541E+01  0.16772146011E+02  0.10025644237E+02  0.20421233889E+02  0.51100000000E-03 0.  1.
        -12    1    4    4    0    0  0.12484502212E+01 -0.49000975592E+01 -0.43193541166E+00  0.50750519450E+01  0.00000000000E+00 0.  1.
</event>
<event>
 8    1  0.1261983E-006  0.9118800E+02  0.7816164E-02  0.1184000E+00
        -11   -1    0    0    0    0  0.00000000000E+00  0.00000000000E+00  0.45593999997E+02  0.45594000000E+02  0.51100000000E-03 0.  1.
         11   -1    0    0    0    0 -0.00000000000E+00 -0.00000000000E+00 -0.45593999997E+02  0.45594000000E+02  0.51100000000E-03 0. -1.
         23    2    1    2    0    0 -0.88817841970E-15  0.35527136788E-14  0.00000000000E+00  0.91188000000E+02  0.91188000000E+02 0.  0.
    9900012    2    3    3    0    0  0.63033517043E+01 -0.30903334169E+02 -0.19001107736E+02  0.54366940800E+02  0.39999673139E+02 0.  0.
        -12    1    3    3    0    0 -0.63033517043E+01  0.30903334169E+02  0.19001107736E+02  0.36821059200E+02  0.00000000000E+00 0.  1.
         11    1    4    4    0    0 -0.64099997112E+01  0.56525607201E+01  0.16788601204E+01  0.87096561676E+01  0.51100000000E-03 0. -1.
        -11    1    4    4    0    0  0.96345444027E+01 -0.10030623223E+02 -0.56267434049E+01  0.15003269300E+02  0.51100000000E-03 0.  1.
         12    1    4    4    0    0  0.30788070127E+01 -0.26525271666E+02 -0.15053224452E+02  0.30654015332E+02  0.00000000000E+00 0. -1.
</event>
<event>
 8    1  0.1261983E-006  0.9118800E+02  0.7816164E-02  0.1184000E+00
        -11   -1    0    0    0    0  0.00000000000E+00  0.00000000000E+00  0.45593999997E+02  0.45594000000E+02  0.51100000000E-03 0. -1.
         11   -1    0    0    0    0 -0.00000000000E+00 -0.00000000000E+00 -0.45593999997E+02  0.45594000000E+02  0.51100000000E-03 0.  1.
         23    2    1    2    0    0  0.00000000000E+00  0.00000000000E+00  0.00000000000E+00  0.91188000000E+02  0.91188000000E+02 0.  0.
    9900012    2    3    3    0    0 -0.85885488420E+01 -0.34286842887E+02 -0.10316265460E+02  0.54367134999E+02  0.40000115857E+02 0.  0.
         12    1    3    3    0    0  0.85885488420E+01  0.34286842887E+02  0.10316265460E+02  0.36820865001E+02  0.00000000000E+00 0. -1.
         11    1    4    4    0    0 -0.10838751248E+02 -0.79508252832E+01 -0.38462946685E+01  0.13981707129E+02  0.51100000000E-03 0. -1.
        -11    1    4    4    0    0 -0.11117361968E+02 -0.31873799736E+01 -0.72377399723E+01  0.13643313688E+02  0.51100000000E-03 0.  1.
        -12    1    4    4    0    0  0.13367564374E+02 -0.23148637630E+02  0.76776918075E+00  0.26742114182E+02  0.00000000000E+00 0.  1.
</event>
<event>
 8    1  0.1261983E-006  0.9118800E+02  0.7816164E-02  0.1184000E+00
        -11   -1    0    0    0    0  0.00000000000E+00  0.00000000000E+00  0.45593999997E+02  0.45594000000E+02  0.51100000000E-03 0. -1.
         11   -1    0    0    0    0 -0.00000000000E+00 -0.00000000000E+00 -0.45593999997E+02  0.45594000000E+02  0.51100000000E-03 0.  1.
         23    2    1    2    0    0  0.00000000000E+00  0.00000000000E+00 -0.17763568394E-14  0.91188000000E+02  0.91188000000E+02 0.  0.
    9900012    2    3    3    0    0 -0.21981399608E+02 -0.26084153151E+02  0.13864153949E+02  0.54367085576E+02  0.40000003187E+02 0.  0.
         12    1    3    3    0    0  0.21981399608E+02  0.26084153151E+02 -0.13864153949E+02  0.36820914424E+02  0.00000000000E+00 0. -1.
         11    1    4    4    0    0  0.73324404119E+01 -0.23961182755E+01 -0.97837706213E+00  0.77758142417E+01  0.51100000000E-03 0. -1.
        -11    1    4    4    0    0 -0.76491011469E+01 -0.19076995103E+02  0.12243711628E+01  0.20589792994E+02  0.51100000000E-03 0.  1.
         12    1    4    4    0    0 -0.21664738873E+02 -0.46110397720E+01  0.13618159848E+02  0.26001478340E+02  0.00000000000E+00 0. -1.
</event>
<event>
 8    1  0.1261983E-006  0.9118800E+02  0.7816164E-02  0.1184000E+00
        -11   -1    0    0    0    0  0.00000000000E+00  0.00000000000E+00  0.45593999997E+02  0.45594000000E+02  0.51100000000E-03 0.  1.
         11   -1    0    0    0    0 -0.00000000000E+00 -0.00000000000E+00 -0.45593999997E+02  0.45594000000E+02  0.51100000000E-03 0. -1.
         23    2    1    2    0    0  0.00000000000E+00  0.00000000000E+00  0.00000000000E+00  0.91188000000E+02  0.91188000000E+02 0.  0.
    9900012    2    3    3    0    0  0.27465748365E+02  0.23769529497E+02  0.60350221023E+01  0.54367090756E+02  0.40000014997E+02 0.  0.
        -12    1    3    3    0    0 -0.27465748365E+02 -0.23769529497E+02 -0.60350221023E+01  0.36820909244E+02  0.00000000000E+00 0.  1.
         11    1    4    4    0    0  0.16881742529E+01  0.94176200924E+01  0.51662523981E+01  0.10873438491E+02  0.51100000000E-03 0. -1.
        -11    1    4    4    0    0  0.21402506462E+01  0.10957358751E+02  0.12644722465E+02  0.16868117563E+02  0.51100000000E-03 0.  1.
        -12    1    4    4    0    0  0.23637323466E+02  0.33945506539E+01 -0.11775952761E+02  0.26625534703E+02  0.00000000000E+00 0.  1.
</event>
<event>
 8    1  0.1261983E-006  0.9118800E+02  0.7816164E-02  0.1184000E+00
        -11   -1    0    0    0    0  0.00000000000E+00  0.00000000000E+00  0.45593999997E+02  0.45594000000E+02  0.51100000000E-03 0. -1.
         11   -1    0    0    0    0 -0.00000000000E+00 -0.00000000000E+00 -0.45593999997E+02  0.45594000000E+02  0.51100000000E-03 0.  1.
         23    2    1    2    0    0  0.00000000000E+00  0.17763568394E-14 -0.35527136788E-14  0.91188000000E+02  0.91188000000E+02 0.  0.
    9900012    2    3    3    0    0 -0.16228929968E+02 -0.94620098021E+01  0.31668152982E+02  0.54367085961E+02  0.40000004065E+02 0.  0.
        -12    1    3    3    0    0  0.16228929968E+02  0.94620098021E+01 -0.31668152982E+02  0.36820914039E+02  0.00000000000E+00 0.  1.
         11    1    4    4    0    0 -0.31327432886E-01 -0.16824246046E+02  0.28814448275E+02  0.33366580077E+02  0.51100000000E-03 0. -1.
        -11    1    4    4    0    0 -0.55008228863E+01  0.23643232684E+01  0.63096502226E+01  0.86983195581E+01  0.51100000000E-03 0.  1.
        -12    1    4    4    0    0 -0.10696779649E+02  0.49979129751E+01 -0.34559455157E+01  0.12302186325E+02  0.00000000000E+00 0.  1.
</event>
<event>
 8    1  0.1261983E-006  0.9118800E+02  0.7816164E-02  0.1184000E+00
        -11   -1    0    0    0    0  0.00000000000E+00  0.00000000000E+00  0.45593999997E+02  0.45594000000E+02  0.51100000000E-03 0.  1.
         11   -1    0    0    0    0 -0.00000000000E+00 -0.00000000000E+00 -0.45593999997E+02  0.45594000000E+02  0.51100000000E-03 0. -1.
         23    2    1    2    0    0  0.00000000000E+00  0.00000000000E+00  0.71054273576E-14  0.91188000000E+02  0.91188000000E+02 0.  0.
    9900012    2    3    3    0    0 -0.18438874758E+02  0.94275510260E+01  0.30445173518E+02  0.54367090028E+02  0.40000013336E+02 0.  0.
         12    1    3    3    0    0  0.18438874758E+02 -0.94275510260E+01 -0.30445173518E+02  0.36820909972E+02  0.00000000000E+00 0. -1.
         11    1    4    4    0    0 -0.12854416819E+02  0.20051639679E+02  0.75892873454E+01  0.24998031287E+02  0.51100000000E-03 0.  1.
        -11    1    4    4    0    0  0.33702114806E+01 -0.49011526074E+01  0.25935394649E+01  0.64889189795E+01  0.51100000000E-03 0. -1.
        -12    1    4    4    0    0 -0.89546694192E+01 -0.57229360458E+01  0.20262346707E+02  0.22880139761E+02  0.00000000000E+00 0.  1.
</event>
<event>
 8    1  0.1261983E-006  0.9118800E+02  0.7816164E-02  0.1184000E+00
        -11   -1    0    0    0    0  0.00000000000E+00  0.00000000000E+00  0.45593999997E+02  0.45594000000E+02  0.51100000000E-03 0.  1.
         11   -1    0    0    0    0 -0.00000000000E+00 -0.00000000000E+00 -0.45593999997E+02  0.45594000000E+02  0.51100000000E-03 0. -1.
         23    2    1    2    0    0  0.00000000000E+00 -0.35527136788E-14  0.35527136788E-14  0.91188000000E+02  0.91188000000E+02 0.  0.
    9900012    2    3    3    0    0 -0.16559293385E+02 -0.14509162429E+02  0.29513663023E+02  0.54367050843E+02  0.39999924006E+02 0.  0.
         12    1    3    3    0    0  0.16559293385E+02  0.14509162429E+02 -0.29513663023E+02  0.36820949157E+02  0.00000000000E+00 0. -1.
         11    1    4    4    0    0  0.68659717611E+01 -0.15525292183E+02  0.12862366581E+02  0.21298280210E+02  0.51100000000E-03 0. -1.
        -11    1    4    4    0    0 -0.18839816469E+02 -0.20555698939E+01  0.19210296831E+02  0.26985172907E+02  0.51100000000E-03 0.  1.
        -12    1    4    4    0    0 -0.45854486765E+01  0.30716996475E+01 -0.25590003897E+01  0.60835977254E+01  0.00000000000E+00 0.  1.
</event>
<event>
 8    1  0.1261983E-006  0.9118800E+02  0.7816164E-02  0.1184000E+00
        -11   -1    0    0    0    0  0.00000000000E+00  0.00000000000E+00  0.45593999997E+02  0.45594000000E+02  0.51100000000E-03 0.  1.
         11   -1    0    0    0    0 -0.00000000000E+00 -0.00000000000E+00 -0.45593999997E+02  0.45594000000E+02  0.51100000000E-03 0. -1.
         23    2    1    2    0    0 -0.35527136788E-14  0.00000000000E+00  0.00000000000E+00  0.91188000000E+02  0.91188000000E+02 0.  0.
    9900012    2    3    3    0    0  0.20176534236E+02  0.16004590627E+02 -0.26316165194E+02  0.54367081958E+02  0.39999994940E+02 0.  0.
        -12    1    3    3    0    0 -0.20176534236E+02 -0.16004590627E+02  0.26316165194E+02  0.36820918042E+02  0.00000000000E+00 0.  1.
         11    1    4    4    0    0 -0.29514705688E+01  0.24982244868E+01 -0.75751142104E+01  0.85049785224E+01  0.51100000000E-03 0. -1.
        -11    1    4    4    0    0  0.45927859269E+01 -0.10529671361E+02 -0.45529332794E+01  0.12357057224E+02  0.51100000000E-03 0.  1.
        -12    1    4    4    0    0  0.18535218878E+02  0.24036037501E+02 -0.14188117704E+02  0.33505046211E+02  0.00000000000E+00 0.  1.
</event>
<event>
 8    1  0.1261983E-006  0.9118800E+02  0.7816164E-02  0.1184000E+00
        -11   -1    0    0    0    0  0.00000000000E+00  0.00000000000E+00  0.45593999997E+02  0.45594000000E+02  0.51100000000E-03 0. -1.
         11   -1    0    0    0    0 -0.00000000000E+00 -0.00000000000E+00 -0.45593999997E+02  0.45594000000E+02  0.51100000000E-03 0.  1.
         23    2    1    2    0    0  0.00000000000E+00  0.17763568394E-14  0.88817841970E-15  0.91188000000E+02  0.91188000000E+02 0.  0.
    9900012    2    3    3    0    0  0.34289809801E+02 -0.11558139740E+02  0.68116118311E+01  0.54367086022E+02  0.40000004205E+02 0.  0.
        -12    1    3    3    0    0 -0.34289809801E+02  0.11558139740E+02 -0.68116118311E+01  0.36820913978E+02  0.00000000000E+00 0.  1.
         11    1    4    4    0    0  0.98314624858E+01 -0.91628695100E-01  0.35025239812E+01  0.10437132026E+02  0.51100000000E-03 0. -1.
        -11    1    4    4    0    0 -0.18842527962E+01 -0.10794180899E+02  0.11935711246E+02  0.16202652656E+02  0.51100000000E-03 0.  1.
        -12    1    4    4    0    0  0.26342600111E+02 -0.67233014622E+00 -0.86266233961E+01  0.27727301341E+02  0.00000000000E+00 0.  1.
</event>
<event>
 8    1  0.1261983E-006  0.9118800E+02  0.7816164E-02  0.1184000E+00
        -11   -1    0    0    0    0  0.00000000000E+00  0.00000000000E+00  0.45593999997E+02  0.45594000000E+02  0.51100000000E-03 0. -1.
         11   -1    0    0    0    0 -0.00000000000E+00 -0.00000000000E+00 -0.45593999997E+02  0.45594000000E+02  0.51100000000E-03 0.  1.
         23    2    1    2    0    0  0.88817841970E-15  0.00000000000E+00  0.00000000000E+00  0.91188000000E+02  0.91188000000E+02 0.  0.
    9900012    2    3    3    0    0  0.34731879988E+01 -0.26518774088E+02  0.25307541399E+02  0.54367081140E+02  0.39999993076E+02 0.  0.
        -12    1    3    3    0    0 -0.34731879988E+01  0.26518774088E+02 -0.25307541399E+02  0.36820918860E+02  0.00000000000E+00 0.  1.
         11    1    4    4    0    0  0.41911364876E+01 -0.10541182595E+02  0.51273066258E+01  0.12448752108E+02  0.51100000000E-03 0. -1.
        -11    1    4    4    0    0 -0.17084029995E+01  0.10012887244E+02  0.24752759317E+01  0.10454833474E+02  0.51100000000E-03 0.  1.
        -12    1    4    4    0    0  0.99045451073E+00 -0.25990478737E+02  0.17704958842E+02  0.31463495558E+02  0.00000000000E+00 0.  1.
</event>
<event>
 8    1  0.1261983E-006  0.9118800E+02  0.7816164E-02  0.1184000E+00
        -11   -1    0    0    0    0  0.00000000000E+00  0.00000000000E+00  0.45593999997E+02  0.45594000000E+02  0.51100000000E-03 0. -1.
         11   -1    0    0    0    0 -0.00000000000E+00 -0.00000000000E+00 -0.45593999997E+02  0.45594000000E+02  0.51100000000E-03 0.  1.
         23    2    1    2    0    0  0.00000000000E+00  0.88817841970E-15  0.00000000000E+00  0.91188000000E+02  0.91188000000E+02 0.  0.
    9900012    2    3    3    0    0 -0.33612325015E+02 -0.13973829223E+01 -0.14967898969E+02  0.54367094641E+02  0.40000023853E+02 0.  0.
         12    1    3    3    0    0  0.33612325015E+02  0.13973829223E+01  0.14967898969E+02  0.36820905359E+02  0.00000000000E+00 0. -1.
         11    1    4    4    0    0 -0.11201727446E+02  0.14362914441E+02 -0.54785719968E+01  0.19020692953E+02  0.51100000000E-03 0. -1.
        -11    1    4    4    0    0 -0.26708059627E+00 -0.27431525069E+01 -0.92575851119E+01  0.96591459294E+01  0.51100000000E-03 0.  1.
        -12    1    4    4    0    0 -0.22143516972E+02 -0.13017144857E+02 -0.23174186065E+00  0.25687255759E+02  0.00000000000E+00 0.  1.
</event>
<event>
 8    1  0.1261983E-006  0.9118800E+02  0.7816164E-02  0.1184000E+00
        -11   -1    0    0    0    0  0.00000000000E+00  0.00000000000E+00  0.45593999997E+02  0.45594000000E+02  0.51100000000E-03 0.  1.
         11   -1    0    0    0    0 -0.00000000000E+00 -0.00000000000E+00 -0.45593999997E+02  0.45594000000E+02  0.51100000000E-03 0. -1.
         23    2    1    2    0    0  0.00000000000E+00  0.00000000000E+00 -0.35527136788E-14  0.91188000000E+02  0.91188000000E+02 0.  0.
    9900012    2    3    3    0    0  0.33095354712E+02 -0.11260322463E+01 -0.16100008479E+02  0.54367072185E+02  0.39999972661E+02 0.  0.
         12    1    3    3    0    0 -0.33095354712E+02  0.11260322463E+01  0.16100008479E+02  0.36820927815E+02  0.00000000000E+00 0. -1.
         11    1    4    4    0    0  0.99886599574E+01 -0.22138382446E+01 -0.20276139636E+02  0.22711148062E+02  0.51100000000E-03 0. -1.
        -11    1    4    4    0    0  0.17748655693E+02  0.10577389876E+01  0.12515694015E+02  0.21743417110E+02  0.51100000000E-03 0.  1.
        -12    1    4    4    0    0  0.53580390608E+01  0.30067010700E-01 -0.83395628588E+01  0.99125070127E+01  0.00000000000E+00 0.  1.
</event>
<event>
 8    1  0.1261983E-006  0.9118800E+02  0.7816164E-02  0.1184000E+00
        -11   -1    0    0    0    0  0.00000000000E+00  0.00000000000E+00  0.45593999997E+02  0.45594000000E+02  0.51100000000E-03 0. -1.
         11   -1    0    0    0    0 -0.00000000000E+00 -0.00000000000E+00 -0.45593999997E+02  0.45594000000E+02  0.51100000000E-03 0.  1.
         23    2    1    2    0    0  0.35527136788E-14 -0.35527136788E-14  0.41633363423E-15  0.91188000000E+02  0.91188000000E+02 0.  0.
    9900012    2    3    3    0    0 -0.20486062168E+02 -0.30594761422E+02 -0.24998728707E+00  0.54367073025E+02  0.39999974575E+02 0.  0.
        -12    1    3    3    0    0  0.20486062168E+02  0.30594761422E+02  0.24998728707E+00  0.36820926975E+02  0.00000000000E+00 0.  1.
         11    1    4    4    0    0 -0.16577333120E+02 -0.98749359955E+01 -0.28653303647E+01  0.19507241031E+02  0.51100000000E-03 0. -1.
        -11    1    4    4    0    0  0.92910904199E+01 -0.16877077636E+02 -0.38840180565E+01  0.19653134794E+02  0.51100000000E-03 0.  1.
         12    1    4    4    0    0 -0.13199819468E+02 -0.38427477911E+01  0.64993611341E+01  0.15206697200E+02  0.00000000000E+00 0. -1.
</event>
<event>
 8    1  0.1261983E-006  0.9118800E+02  0.7816164E-02  0.1184000E+00
        -11   -1    0    0    0    0  0.00000000000E+00  0.00000000000E+00  0.45593999997E+02  0.45594000000E+02  0.51100000000E-03 0. -1.
         11   -1    0    0    0    0 -0.00000000000E+00 -0.00000000000E+00 -0.45593999997E+02  0.45594000000E+02  0.51100000000E-03 0.  1.
         23    2    1    2    0    0  0.00000000000E+00  0.00000000000E+00  0.00000000000E+00  0.91188000000E+02  0.91188000000E+02 0.  0.
    9900012    2    3    3    0    0 -0.15532398097E+02  0.21201028339E+02 -0.25788398782E+02  0.54367075174E+02  0.39999979475E+02 0.  0.
         12    1    3    3    0    0  0.15532398097E+02 -0.21201028339E+02  0.25788398782E+02  0.36820924826E+02  0.00000000000E+00 0. -1.
         11    1    4    4    0    0 -0.89622193413E+00  0.16396004769E+01 -0.10901635533E+01  0.21633215926E+01  0.51100000000E-03 0. -1.
        -11    1    4    4    0    0 -0.86918369365E+01 -0.11313398035E+02 -0.10447786322E+02  0.17683247544E+02  0.51100000000E-03 0.  1.
        -12    1    4    4    0    0 -0.59443392266E+01  0.30874825897E+02 -0.14250448907E+02  0.34520506037E+02  0.00000000000E+00 0.  1.
</event>
<event>
 8    1  0.1261983E-006  0.9118800E+02  0.7816164E-02  0.1184000E+00
        -11   -1    0    0    0    0  0.00000000000E+00  0.00000000000E+00  0.45593999997E+02  0.45594000000E+02  0.51100000000E-03 0.  1.
         11   -1    0    0    0    0 -0.00000000000E+00 -0.00000000000E+00 -0.45593999997E+02  0.45594000000E+02  0.51100000000E-03 0. -1.
         23    2    1    2    0    0 -0.35527136788E-14  0.00000000000E+00 -0.17763568394E-14  0.91188000000E+02  0.91188000000E+02 0.  0.
    9900012    2    3    3    0    0 -0.26599992187E+02  0.22868854916E+02  0.11190793503E+02  0.54367109615E+02  0.40000057989E+02 0.  0.
         12    1    3    3    0    0  0.26599992187E+02 -0.22868854916E+02 -0.11190793503E+02  0.36820890385E+02  0.00000000000E+00 0. -1.
         11    1    4    4    0    0 -0.57843037675E+01  0.23367289886E-01 -0.21589118192E+01  0.61741085680E+01  0.51100000000E-03 0. -1.
        -11    1    4    4    0    0 -0.52045346304E+01  0.12430690590E+02 -0.11038665900E+02  0.17420143351E+02  0.51100000000E-03 0.  1.
        -12    1    4    4    0    0 -0.15611153789E+02  0.10414797036E+02  0.24388371222E+02  0.30772857696E+02  0.00000000000E+00 0.  1.
</event>
<event>
 8    1  0.1261983E-006  0.9118800E+02  0.7816164E-02  0.1184000E+00
        -11   -1    0    0    0    0  0.00000000000E+00  0.00000000000E+00  0.45593999997E+02  0.45594000000E+02  0.51100000000E-03 0. -1.
         11   -1    0    0    0    0 -0.00000000000E+00 -0.00000000000E+00 -0.45593999997E+02  0.45594000000E+02  0.51100000000E-03 0.  1.
         23    2    1    2    0    0 -0.35527136788E-14  0.35527136788E-14  0.00000000000E+00  0.91188000000E+02  0.91188000000E+02 0.  0.
    9900012    2    3    3    0    0  0.16907270650E+02 -0.30524730615E+02 -0.11754349183E+02  0.54367086042E+02  0.40000004251E+02 0.  0.
         12    1    3    3    0    0 -0.16907270650E+02  0.30524730615E+02  0.11754349183E+02  0.36820913958E+02  0.00000000000E+00 0. -1.
         11    1    4    4    0    0  0.26493997037E+02 -0.11406310675E+02 -0.45924913888E+01  0.29208334079E+02  0.51100000000E-03 0. -1.
        -11    1    4    4    0    0  0.27151161668E+00 -0.90806631132E+01 -0.63153021641E+01  0.11064140401E+02  0.51100000000E-03 0.  1.
         12    1    4    4    0    0 -0.98582380040E+01 -0.10037756827E+02 -0.84655562982E+00  0.14094611562E+02  0.00000000000E+00 0. -1.
</event>
<event>
 8    1  0.1261983E-006  0.9118800E+02  0.7816164E-02  0.1184000E+00
        -11   -1    0    0    0    0  0.00000000000E+00  0.00000000000E+00  0.45593999997E+02  0.45594000000E+02  0.51100000000E-03 0.  1.
         11   -1    0    0    0    0 -0.00000000000E+00 -0.00000000000E+00 -0.45593999997E+02  0.45594000000E+02  0.51100000000E-03 0. -1.
         23    2    1    2    0    0  0.17763568394E-14 -0.35527136788E-14  0.35527136788E-14  0.91188000000E+02  0.91188000000E+02 0.  0.
    9900012    2    3    3    0    0  0.12236923060E+02  0.27715054852E+02  0.20926376022E+02  0.54367085225E+02  0.40000002388E+02 0.  0.
         12    1    3    3    0    0 -0.12236923060E+02 -0.27715054852E+02 -0.20926376022E+02  0.36820914775E+02  0.00000000000E+00 0. -1.
         11    1    4    4    0    0 -0.33852080932E+01 -0.57104358316E+01  0.42199051344E+01  0.78661496824E+01  0.51100000000E-03 0. -1.
        -11    1    4    4    0    0  0.34998092200E+01  0.15917254492E+02  0.19058033614E+02  0.25076209853E+02  0.51100000000E-03 0.  1.
        -12    1    4    4    0    0  0.12122321933E+02  0.17508236193E+02 -0.23515627262E+01  0.21424725690E+02  0.00000000000E+00 0.  1.
</event>
<event>
 8    1  0.1261983E-006  0.9118800E+02  0.7816164E-02  0.1184000E+00
        -11   -1    0    0    0    0  0.00000000000E+00  0.00000000000E+00  0.45593999997E+02  0.45594000000E+02  0.51100000000E-03 0.  1.
         11   -1    0    0    0    0 -0.00000000000E+00 -0.00000000000E+00 -0.45593999997E+02  0.45594000000E+02  0.51100000000E-03 0. -1.
         23    2    1    2    0    0 -0.17763568394E-14  0.00000000000E+00 -0.35527136788E-14  0.91188000000E+02  0.91188000000E+02 0.  0.
    9900012    2    3    3    0    0 -0.13273555308E+02 -0.18551021664E+02 -0.28904204364E+02  0.54367072456E+02  0.39999973278E+02 0.  0.
        -12    1    3    3    0    0  0.13273555308E+02  0.18551021664E+02  0.28904204364E+02  0.36820927544E+02  0.00000000000E+00 0.  1.
         11    1    4    4    0    0  0.44612063130E+00 -0.17953469192E+02 -0.27659795713E+02  0.32978635187E+02  0.51100000000E-03 0. -1.
        -11    1    4    4    0    0  0.14485466541E+01 -0.17465079961E+01  0.45708774608E+01  0.51030871648E+01  0.51100000000E-03 0.  1.
        -12    1    4    4    0    0 -0.15168222594E+02  0.11489555243E+01 -0.58152861112E+01  0.16285350104E+02  0.00000000000E+00 0.  1.
</event>
<event>
 8    1  0.1261983E-006  0.9118800E+02  0.7816164E-02  0.1184000E+00
        -11   -1    0    0    0    0  0.00000000000E+00  0.00000000000E+00  0.45593999997E+02  0.45594000000E+02  0.51100000000E-03 0. -1.
         11   -1    0    0    0    0 -0.00000000000E+00 -0.00000000000E+00 -0.45593999997E+02  0.45594000000E+02  0.51100000000E-03 0.  1.
         23    2    1    2    0    0  0.88817841970E-15  0.00000000000E+00  0.00000000000E+00  0.91188000000E+02  0.91188000000E+02 0.  0.
    9900012    2    3    3    0    0 -0.69578653406E+01  0.21348959567E+02 -0.29182030528E+02  0.54367070212E+02  0.39999968162E+02 0.  0.
         12    1    3    3    0    0  0.69578653406E+01 -0.21348959567E+02  0.29182030528E+02  0.36820929788E+02  0.00000000000E+00 0. -1.
         11    1    4    4    0    0  0.12177300060E+02  0.11847521029E+02 -0.21604591184E+01  0.17126528404E+02  0.51100000000E-03 0. -1.
        -11    1    4    4    0    0 -0.91422415797E+01  0.11063685320E+02 -0.10182595299E+02  0.17597470308E+02  0.51100000000E-03 0.  1.
         12    1    4    4    0    0 -0.99929238212E+01 -0.15622467815E+01 -0.16838976111E+02  0.19643071500E+02  0.00000000000E+00 0. -1.
</event>
<event>
 8    1  0.1261983E-006  0.9118800E+02  0.7816164E-02  0.1184000E+00
        -11   -1    0    0    0    0  0.00000000000E+00  0.00000000000E+00  0.45593999997E+02  0.45594000000E+02  0.51100000000E-03 0. -1.
         11   -1    0    0    0    0 -0.00000000000E+00 -0.00000000000E+00 -0.45593999997E+02  0.45594000000E+02  0.51100000000E-03 0.  1.
         23    2    1    2    0    0  0.17763568394E-14 -0.17763568394E-14  0.00000000000E+00  0.91188000000E+02  0.91188000000E+02 0.  0.
    9900012    2    3    3    0    0 -0.10587989505E+02 -0.15849021172E+02  0.31503732080E+02  0.54367053124E+02  0.39999929207E+02 0.  0.
        -12    1    3    3    0    0  0.10587989505E+02  0.15849021172E+02 -0.31503732080E+02  0.36820946876E+02  0.00000000000E+00 0.  1.
         11    1    4    4    0    0 -0.10284614462E+02 -0.73250579490E+01  0.67411160537E+01  0.14313364891E+02  0.51100000000E-03 0. -1.
        -11    1    4    4    0    0 -0.10603360142E+02  0.41823404697E+01  0.13281860760E+01  0.11475508556E+02  0.51100000000E-03 0.  1.
         12    1    4    4    0    0  0.10299985099E+02 -0.12706303693E+02  0.23434429950E+02  0.28578179677E+02  0.00000000000E+00 0. -1.
</event>
<event>
 8    1  0.1261983E-006  0.9118800E+02  0.7816164E-02  0.1184000E+00
        -11   -1    0    0    0    0  0.00000000000E+00  0.00000000000E+00  0.45593999997E+02  0.45594000000E+02  0.51100000000E-03 0. -1.
         11   -1    0    0    0    0 -0.00000000000E+00 -0.00000000000E+00 -0.45593999997E+02  0.45594000000E+02  0.51100000000E-03 0.  1.
         23    2    1    2    0    0 -0.35527136788E-14 -0.35527136788E-14 -0.17763568394E-14  0.91188000000E+02  0.91188000000E+02 0.  0.
    9900012    2    3    3    0    0  0.23745655618E+02 -0.26581268204E+02  0.92391733742E+01  0.54367050736E+02  0.39999923763E+02 0.  0.
         12    1    3    3    0    0 -0.23745655618E+02  0.26581268204E+02 -0.92391733742E+01  0.36820949264E+02  0.00000000000E+00 0. -1.
         11    1    4    4    0    0  0.69145372636E+01  0.19661481172E+01  0.16528036288E+02  0.18023666325E+02  0.51100000000E-03 0. -1.
        -11    1    4    4    0    0  0.47022780887E+01 -0.14701713611E+02  0.22717668775E+01  0.15601689887E+02  0.51100000000E-03 0.  1.
         12    1    4    4    0    0  0.12128840265E+02 -0.13845702710E+02 -0.95606297912E+01  0.20741694524E+02  0.00000000000E+00 0. -1.
</event>
<event>
 8    1  0.1261983E-006  0.9118800E+02  0.7816164E-02  0.1184000E+00
        -11   -1    0    0    0    0  0.00000000000E+00  0.00000000000E+00  0.45593999997E+02  0.45594000000E+02  0.51100000000E-03 0.  1.
         11   -1    0    0    0    0 -0.00000000000E+00 -0.00000000000E+00 -0.45593999997E+02  0.45594000000E+02  0.51100000000E-03 0. -1.
         23    2    1    2    0    0  0.71054273576E-14  0.35527136788E-14  0.17763568394E-14  0.91188000000E+02  0.91188000000E+02 0.  0.
    9900012    2    3    3    0    0  0.30927628167E+02  0.16888942678E+02  0.10677461694E+02  0.54367316179E+02  0.40000528891E+02 0.  0.
         12    1    3    3    0    0 -0.30927628167E+02 -0.16888942678E+02 -0.10677461694E+02  0.36820683821E+02  0.00000000000E+00 0. -1.
         11    1    4    4    0    0  0.60867125155E+01  0.41774757438E+01  0.19548999550E+01  0.76368191632E+01  0.51100000000E-03 0. -1.
        -11    1    4    4    0    0  0.28569774620E+02  0.21870365588E+02  0.60297196623E+01  0.36481535498E+02  0.51100000000E-03 0.  1.
         12    1    4    4    0    0 -0.37288589692E+01 -0.91588986535E+01  0.26928420767E+01  0.10248961519E+02  0.00000000000E+00 0. -1.
</event>
<event>
 8    1  0.1261983E-006  0.9118800E+02  0.7816164E-02  0.1184000E+00
        -11   -1    0    0    0    0  0.00000000000E+00  0.00000000000E+00  0.45593999997E+02  0.45594000000E+02  0.51100000000E-03 0. -1.
         11   -1    0    0    0    0 -0.00000000000E+00 -0.00000000000E+00 -0.45593999997E+02  0.45594000000E+02  0.51100000000E-03 0.  1.
         23    2    1    2    0    0  0.00000000000E+00  0.00000000000E+00 -0.35527136788E-14  0.91188000000E+02  0.91188000000E+02 0.  0.
    9900012    2    3    3    0    0 -0.24078378429E+02  0.44467289342E+01  0.27499792538E+02  0.54367078018E+02  0.39999985957E+02 0.  0.
        -12    1    3    3    0    0  0.24078378429E+02 -0.44467289342E+01 -0.27499792538E+02  0.36820921982E+02  0.00000000000E+00 0.  1.
         11    1    4    4    0    0 -0.21074398173E+02 -0.30340324809E+01  0.22320797529E+02  0.30847262666E+02  0.51100000000E-03 0. -1.
        -11    1    4    4    0    0 -0.45368994414E+01 -0.33197098383E+01 -0.57757537250E+01  0.80599789891E+01  0.51100000000E-03 0.  1.
        -12    1    4    4    0    0  0.15329191849E+01  0.10800471253E+02  0.10954748734E+02  0.15459836362E+02  0.00000000000E+00 0.  1.
</event>
<event>
 8    1  0.1261983E-006  0.9118800E+02  0.7816164E-02  0.1184000E+00
        -11   -1    0    0    0    0  0.00000000000E+00  0.00000000000E+00  0.45593999997E+02  0.45594000000E+02  0.51100000000E-03 0.  1.
         11   -1    0    0    0    0 -0.00000000000E+00 -0.00000000000E+00 -0.45593999997E+02  0.45594000000E+02  0.51100000000E-03 0. -1.
         23    2    1    2    0    0  0.00000000000E+00 -0.35527136788E-14  0.00000000000E+00  0.91188000000E+02  0.91188000000E+02 0.  0.
    9900012    2    3    3    0    0 -0.26561115038E+02  0.24123412409E+02  0.82665583402E+01  0.54367247087E+02  0.40000371382E+02 0.  0.
         12    1    3    3    0    0  0.26561115038E+02 -0.24123412409E+02 -0.82665583402E+01  0.36820752913E+02  0.00000000000E+00 0. -1.
         11    1    4    4    0    0  0.45756217380E+01  0.44514516105E+01 -0.69249767847E+01  0.94184414559E+01  0.51100000000E-03 0. -1.
        -11    1    4    4    0    0 -0.31691335857E+02  0.22578878493E+02  0.12296059681E+02  0.40808572706E+02  0.51100000000E-03 0.  1.
         12    1    4    4    0    0  0.55459908091E+00 -0.29069176946E+01  0.28954754436E+01  0.41402329244E+01  0.00000000000E+00 0. -1.
</event>
<event>
 8    1  0.1261983E-006  0.9118800E+02  0.7816164E-02  0.1184000E+00
        -11   -1    0    0    0    0  0.00000000000E+00  0.00000000000E+00  0.45593999997E+02  0.45594000000E+02  0.51100000000E-03 0. -1.
         11   -1    0    0    0    0 -0.00000000000E+00 -0.00000000000E+00 -0.45593999997E+02  0.45594000000E+02  0.51100000000E-03 0.  1.
         23    2    1    2    0    0 -0.35527136788E-14 -0.88817841970E-15  0.00000000000E+00  0.91188000000E+02  0.91188000000E+02 0.  0.
    9900012    2    3    3    0    0  0.22545726809E+02  0.40848616456E+00  0.29108468201E+02  0.54367087745E+02  0.40000008132E+02 0.  0.
        -12    1    3    3    0    0 -0.22545726809E+02 -0.40848616456E+00 -0.29108468201E+02  0.36820912255E+02  0.00000000000E+00 0.  1.
         11    1    4    4    0    0  0.15878413536E+02 -0.89156168703E+00  0.27561920550E+02  0.31821036491E+02  0.51100000000E-03 0. -1.
        -11    1    4    4    0    0  0.80364189476E+01 -0.89942558414E+01  0.10861438394E+00  0.12062025741E+02  0.51100000000E-03 0.  1.
        -12    1    4    4    0    0 -0.13691056755E+01  0.10294303693E+02  0.14379332673E+01  0.10484025513E+02  0.00000000000E+00 0.  1.
</event>
<event>
 8    1  0.1261983E-006  0.9118800E+02  0.7816164E-02  0.1184000E+00
        -11   -1    0    0    0    0  0.00000000000E+00  0.00000000000E+00  0.45593999997E+02  0.45594000000E+02  0.51100000000E-03 0.  1.
         11   -1    0    0    0    0 -0.00000000000E+00 -0.00000000000E+00 -0.45593999997E+02  0.45594000000E+02  0.51100000000E-03 0. -1.
         23    2    1    2    0    0  0.35527136788E-14  0.00000000000E+00 -0.17763568394E-14  0.91188000000E+02  0.91188000000E+02 0.  0.
    9900012    2    3    3    0    0 -0.26004912466E+02  0.24679226488E+02  0.83940402266E+01  0.54367087413E+02  0.40000007375E+02 0.  0.
         12    1    3    3    0    0  0.26004912466E+02 -0.24679226488E+02 -0.83940402266E+01  0.36820912587E+02  0.00000000000E+00 0. -1.
         11    1    4    4    0    0 -0.58421741207E+01 -0.19260636602E+01 -0.48614845723E+01  0.78405836637E+01  0.51100000000E-03 0. -1.
        -11    1    4    4    0    0  0.49314400612E+01  0.16503366526E+02  0.24532392396E+01  0.17398235278E+02  0.51100000000E-03 0.  1.
         12    1    4    4    0    0 -0.25094178407E+02  0.10101923622E+02  0.10802285559E+02  0.29128268471E+02  0.00000000000E+00 0. -1.
</event>
<event>
 8    1  0.1261983E-006  0.9118800E+02  0.7816164E-02  0.1184000E+00
        -11   -1    0    0    0    0  0.00000000000E+00  0.00000000000E+00  0.45593999997E+02  0.45594000000E+02  0.51100000000E-03 0.  1.
         11   -1    0    0    0    0 -0.00000000000E+00 -0.00000000000E+00 -0.45593999997E+02  0.45594000000E+02  0.51100000000E-03 0. -1.
         23    2    1    2    0    0  0.88817841970E-15  0.00000000000E+00  0.00000000000E+00  0.91188000000E+02  0.91188000000E+02 0.  0.
    9900012    2    3    3    0    0 -0.45506092821E+01  0.34748429152E+02 -0.11296726024E+02  0.54367117444E+02  0.40000075836E+02 0.  0.
        -12    1    3    3    0    0  0.45506092821E+01 -0.34748429152E+02  0.11296726024E+02  0.36820882556E+02  0.00000000000E+00 0.  1.
         11    1    4    4    0    0  0.38612246921E+01  0.36315266352E+02 -0.11760199559E+02  0.38366781469E+02  0.51100000000E-03 0. -1.
        -11    1    4    4    0    0 -0.26321098071E+01 -0.58834561412E+01  0.43791994825E+01  0.77923325500E+01  0.51100000000E-03 0.  1.
         12    1    4    4    0    0 -0.57797241671E+01  0.43166189411E+01 -0.39157259474E+01  0.82080034250E+01  0.00000000000E+00 0. -1.
</event>
<event>
 8    1  0.1261983E-006  0.9118800E+02  0.7816164E-02  0.1184000E+00
        -11   -1    0    0    0    0  0.00000000000E+00  0.00000000000E+00  0.45593999997E+02  0.45594000000E+02  0.51100000000E-03 0.  1.
         11   -1    0    0    0    0 -0.00000000000E+00 -0.00000000000E+00 -0.45593999997E+02  0.45594000000E+02  0.51100000000E-03 0. -1.
         23    2    1    2    0    0  0.00000000000E+00  0.00000000000E+00  0.00000000000E+00  0.91188000000E+02  0.91188000000E+02 0.  0.
    9900012    2    3    3    0    0 -0.22566544488E+02 -0.23645269634E+02 -0.16953968357E+02  0.54367017541E+02  0.39999848089E+02 0.  0.
        -12    1    3    3    0    0  0.22566544488E+02  0.23645269634E+02  0.16953968357E+02  0.36820982459E+02  0.00000000000E+00 0.  1.
         11    1    4    4    0    0 -0.18985057975E+02 -0.36585134488E+01 -0.25288667031E+02  0.31832904791E+02  0.51100000000E-03 0. -1.
        -11    1    4    4    0    0 -0.72306946336E+00 -0.10429795755E+02  0.17990782577E+01  0.10608494322E+02  0.51100000000E-03 0.  1.
         12    1    4    4    0    0 -0.28584170491E+01 -0.95569604301E+01  0.65356204159E+01  0.11925618429E+02  0.00000000000E+00 0. -1.
</event>
<event>
 8    1  0.1261983E-006  0.9118800E+02  0.7816164E-02  0.1184000E+00
        -11   -1    0    0    0    0  0.00000000000E+00  0.00000000000E+00  0.45593999997E+02  0.45594000000E+02  0.51100000000E-03 0.  1.
         11   -1    0    0    0    0 -0.00000000000E+00 -0.00000000000E+00 -0.45593999997E+02  0.45594000000E+02  0.51100000000E-03 0. -1.
         23    2    1    2    0    0  0.35527136788E-14  0.00000000000E+00  0.00000000000E+00  0.91188000000E+02  0.91188000000E+02 0.  0.
    9900012    2    3    3    0    0  0.23877777582E+02  0.17070087861E+02 -0.22231596129E+02  0.54367081647E+02  0.39999994232E+02 0.  0.
        -12    1    3    3    0    0 -0.23877777582E+02 -0.17070087861E+02  0.22231596129E+02  0.36820918353E+02  0.00000000000E+00 0.  1.
         11    1    4    4    0    0  0.17138277592E+01  0.10671877613E+02 -0.28312011651E+02  0.30305052077E+02  0.51100000000E-03 0. -1.
        -11    1    4    4    0    0  0.10717522149E+02  0.26958380841E+01  0.13435014366E+01  0.11132736428E+02  0.51100000000E-03 0.  1.
         12    1    4    4    0    0  0.11446427674E+02  0.37023721639E+01  0.47369140851E+01  0.12929293143E+02  0.00000000000E+00 0. -1.
</event>
<event>
 8    1  0.1261983E-006  0.9118800E+02  0.7816164E-02  0.1184000E+00
        -11   -1    0    0    0    0  0.00000000000E+00  0.00000000000E+00  0.45593999997E+02  0.45594000000E+02  0.51100000000E-03 0.  1.
         11   -1    0    0    0    0 -0.00000000000E+00 -0.00000000000E+00 -0.45593999997E+02  0.45594000000E+02  0.51100000000E-03 0. -1.
         23    2    1    2    0    0 -0.71054273576E-14 -0.35527136788E-14  0.00000000000E+00  0.91188000000E+02  0.91188000000E+02 0.  0.
    9900012    2    3    3    0    0  0.31049803391E+02  0.19301908155E+02  0.43733056031E+01  0.54367085414E+02  0.40000002819E+02 0.  0.
         12    1    3    3    0    0 -0.31049803391E+02 -0.19301908155E+02 -0.43733056031E+01  0.36820914586E+02  0.00000000000E+00 0. -1.
         11    1    4    4    0    0  0.31539078960E+01 -0.53543249057E+01 -0.88371171597E+01  0.10803266643E+02  0.51100000000E-03 0. -1.
        -11    1    4    4    0    0  0.17466336046E+00  0.51355549793E+01  0.76360422896E+01  0.92039977371E+01  0.51100000000E-03 0.  1.
        -12    1    4    4    0    0  0.27721232134E+02  0.19520678082E+02  0.55743804733E+01  0.34359821034E+02  0.00000000000E+00 0.  1.
</event>
<event>
 8    1  0.1261983E-006  0.9118800E+02  0.7816164E-02  0.1184000E+00
        -11   -1    0    0    0    0  0.00000000000E+00  0.00000000000E+00  0.45593999997E+02  0.45594000000E+02  0.51100000000E-03 0.  1.
         11   -1    0    0    0    0 -0.00000000000E+00 -0.00000000000E+00 -0.45593999997E+02  0.45594000000E+02  0.51100000000E-03 0. -1.
         23    2    1    2    0    0  0.00000000000E+00 -0.22204460493E-15  0.71054273576E-14  0.91188000000E+02  0.91188000000E+02 0.  0.
    9900012    2    3    3    0    0  0.83446258126E+01 -0.44101397313E+00 -0.35860168281E+02  0.54367096393E+02  0.40000027847E+02 0.  0.
        -12    1    3    3    0    0 -0.83446258126E+01  0.44101397313E+00  0.35860168281E+02  0.36820903607E+02  0.00000000000E+00 0.  1.
         11    1    4    4    0    0  0.47426892576E+01 -0.20092664412E+01 -0.14976778304E+01  0.53640742137E+01  0.51100000000E-03 0. -1.
        -11    1    4    4    0    0  0.42552966647E+00 -0.40278275023E+00  0.72245666608E+01  0.72482876005E+01  0.51100000000E-03 0.  1.
         12    1    4    4    0    0  0.31764068885E+01  0.19710352183E+01 -0.41587057112E+02  0.41754734579E+02  0.00000000000E+00 0. -1.
</event>
<event>
 8    1  0.1261983E-006  0.9118800E+02  0.7816164E-02  0.1184000E+00
        -11   -1    0    0    0    0  0.00000000000E+00  0.00000000000E+00  0.45593999997E+02  0.45594000000E+02  0.51100000000E-03 0.  1.
         11   -1    0    0    0    0 -0.00000000000E+00 -0.00000000000E+00 -0.45593999997E+02  0.45594000000E+02  0.51100000000E-03 0. -1.
         23    2    1    2    0    0  0.00000000000E+00 -0.17763568394E-14  0.44408920985E-15  0.91188000000E+02  0.91188000000E+02 0.  0.
    9900012    2    3    3    0    0  0.35483401206E+02 -0.91288890383E+01  0.36565201015E+01  0.54367102191E+02  0.40000041065E+02 0.  0.
         12    1    3    3    0    0 -0.35483401206E+02  0.91288890383E+01 -0.36565201015E+01  0.36820897809E+02  0.00000000000E+00 0. -1.
         11    1    4    4    0    0  0.85395359960E+01  0.32812783169E+01 -0.97051591420E+01  0.13337187734E+02  0.51100000000E-03 0. -1.
        -11    1    4    4    0    0  0.18229037082E+02 -0.18592733819E+02  0.31119087195E+01  0.26223491757E+02  0.51100000000E-03 0.  1.
        -12    1    4    4    0    0  0.87148281281E+01  0.61825664639E+01  0.10249770524E+02  0.14806422700E+02  0.00000000000E+00 0.  1.
</event>
<event>
 8    1  0.1261983E-006  0.9118800E+02  0.7816164E-02  0.1184000E+00
        -11   -1    0    0    0    0  0.00000000000E+00  0.00000000000E+00  0.45593999997E+02  0.45594000000E+02  0.51100000000E-03 0.  1.
         11   -1    0    0    0    0 -0.00000000000E+00 -0.00000000000E+00 -0.45593999997E+02  0.45594000000E+02  0.51100000000E-03 0. -1.
         23    2    1    2    0    0  0.00000000000E+00 -0.88817841970E-15 -0.71054273576E-14  0.91188000000E+02  0.91188000000E+02 0.  0.
    9900012    2    3    3    0    0 -0.89757954071E+01 -0.30602395425E+01 -0.35578758428E+02  0.54367108912E+02  0.40000056386E+02 0.  0.
        -12    1    3    3    0    0  0.89757954071E+01  0.30602395425E+01  0.35578758428E+02  0.36820891088E+02  0.00000000000E+00 0.  1.
         11    1    4    4    0    0  0.88630573403E+01  0.52203659939E+00 -0.15768608792E+02  0.18096279483E+02  0.51100000000E-03 0.  1.
        -11    1    4    4    0    0 -0.56380117038E+01  0.85733925997E+01 -0.32643737359E+00  0.10266294281E+02  0.51100000000E-03 0. -1.
         12    1    4    4    0    0 -0.12200841044E+02 -0.12155668742E+02 -0.19483712262E+02  0.26004535148E+02  0.00000000000E+00 0. -1.
</event>
<event>
 8    1  0.1261983E-006  0.9118800E+02  0.7816164E-02  0.1184000E+00
        -11   -1    0    0    0    0  0.00000000000E+00  0.00000000000E+00  0.45593999997E+02  0.45594000000E+02  0.51100000000E-03 0. -1.
         11   -1    0    0    0    0 -0.00000000000E+00 -0.00000000000E+00 -0.45593999997E+02  0.45594000000E+02  0.51100000000E-03 0.  1.
         23    2    1    2    0    0  0.00000000000E+00  0.35527136788E-14  0.00000000000E+00  0.91188000000E+02  0.91188000000E+02 0.  0.
    9900012    2    3    3    0    0 -0.17256187681E+02 -0.30385153777E+02  0.11608007885E+02  0.54367089767E+02  0.40000012742E+02 0.  0.
         12    1    3    3    0    0  0.17256187681E+02  0.30385153777E+02 -0.11608007885E+02  0.36820910233E+02  0.00000000000E+00 0. -1.
         11    1    4    4    0    0 -0.14099307028E+02 -0.19332740522E+02  0.10209997396E+02  0.26015175607E+02  0.51100000000E-03 0. -1.
        -11    1    4    4    0    0 -0.11449130231E+02 -0.14782234634E+02 -0.16301762788E+01  0.18768444762E+02  0.51100000000E-03 0.  1.
         12    1    4    4    0    0  0.82922495781E+01  0.37298213801E+01  0.30281867674E+01  0.95834693974E+01  0.00000000000E+00 0. -1.
</event>
<event>
 8    1  0.1261983E-006  0.9118800E+02  0.7816164E-02  0.1184000E+00
        -11   -1    0    0    0    0  0.00000000000E+00  0.00000000000E+00  0.45593999997E+02  0.45594000000E+02  0.51100000000E-03 0. -1.
         11   -1    0    0    0    0 -0.00000000000E+00 -0.00000000000E+00 -0.45593999997E+02  0.45594000000E+02  0.51100000000E-03 0.  1.
         23    2    1    2    0    0  0.00000000000E+00  0.00000000000E+00  0.00000000000E+00  0.91188000000E+02  0.91188000000E+02 0.  0.
    9900012    2    3    3    0    0  0.24355058404E+02 -0.23145131724E+02 -0.15063549551E+02  0.54367129323E+02  0.40000102916E+02 0.  0.
         12    1    3    3    0    0 -0.24355058404E+02  0.23145131724E+02  0.15063549551E+02  0.36820870677E+02  0.00000000000E+00 0. -1.
         11    1    4    4    0    0 -0.28834264391E+01  0.22038575349E+01  0.60059010382E+01  0.70172632561E+01  0.51100000000E-03 0. -1.
        -11    1    4    4    0    0  0.25703196255E+02 -0.12396002822E+02 -0.18632346982E+02  0.34080486176E+02  0.51100000000E-03 0.  1.
        -12    1    4    4    0    0  0.15352885881E+01 -0.12952986437E+02 -0.24371036067E+01  0.13269379890E+02  0.00000000000E+00 0.  1.
</event>
<event>
 8    1  0.1261983E-006  0.9118800E+02  0.7816164E-02  0.1184000E+00
        -11   -1    0    0    0    0  0.00000000000E+00  0.00000000000E+00  0.45593999997E+02  0.45594000000E+02  0.51100000000E-03 0.  1.
         11   -1    0    0    0    0 -0.00000000000E+00 -0.00000000000E+00 -0.45593999997E+02  0.45594000000E+02  0.51100000000E-03 0. -1.
         23    2    1    2    0    0  0.00000000000E+00 -0.17763568394E-14  0.44408920985E-15  0.91188000000E+02  0.91188000000E+02 0.  0.
    9900012    2    3    3    0    0  0.34827384391E+02 -0.11618694533E+02  0.27998078642E+01  0.54367086238E+02  0.40000004697E+02 0.  0.
         12    1    3    3    0    0 -0.34827384391E+02  0.11618694533E+02 -0.27998078642E+01  0.36820913762E+02  0.00000000000E+00 0. -1.
         11    1    4    4    0    0  0.20664331977E+02 -0.85707348188E+01  0.12252301995E+02  0.25506685708E+02  0.51100000000E-03 0.  1.
        -11    1    4    4    0    0 -0.49923328456E+01 -0.45437931479E+01 -0.65914312234E+01  0.94348507803E+01  0.51100000000E-03 0. -1.
        -12    1    4    4    0    0  0.19155385260E+02  0.14958334339E+01 -0.28610629071E+01  0.19425549750E+02  0.00000000000E+00 0.  1.
</event>
<event>
 8    1  0.1261983E-006  0.9118800E+02  0.7816164E-02  0.1184000E+00
        -11   -1    0    0    0    0  0.00000000000E+00  0.00000000000E+00  0.45593999997E+02  0.45594000000E+02  0.51100000000E-03 0. -1.
         11   -1    0    0    0    0 -0.00000000000E+00 -0.00000000000E+00 -0.45593999997E+02  0.45594000000E+02  0.51100000000E-03 0.  1.
         23    2    1    2    0    0  0.00000000000E+00 -0.88817841970E-15  0.00000000000E+00  0.91188000000E+02  0.91188000000E+02 0.  0.
    9900012    2    3    3    0    0  0.35838459590E+02  0.37620746186E+01 -0.75652303040E+01  0.54367067085E+02  0.39999961033E+02 0.  0.
         12    1    3    3    0    0 -0.35838459590E+02 -0.37620746186E+01  0.75652303040E+01  0.36820932915E+02  0.00000000000E+00 0. -1.
         11    1    4    4    0    0  0.11203119082E+02 -0.46887737853E+01 -0.14087094447E+01  0.12226157996E+02  0.51100000000E-03 0. -1.
        -11    1    4    4    0    0 -0.70679681794E+01 -0.24981584087E+01  0.17122464601E+01  0.76895226003E+01  0.51100000000E-03 0.  1.
        -12    1    4    4    0    0  0.31703308687E+02  0.10949006813E+02 -0.78687673194E+01  0.34451386489E+02  0.00000000000E+00 0.  1.
</event>
<event>
 8    1  0.1261983E-006  0.9118800E+02  0.7816164E-02  0.1184000E+00
        -11   -1    0    0    0    0  0.00000000000E+00  0.00000000000E+00  0.45593999997E+02  0.45594000000E+02  0.51100000000E-03 0. -1.
         11   -1    0    0    0    0 -0.00000000000E+00 -0.00000000000E+00 -0.45593999997E+02  0.45594000000E+02  0.51100000000E-03 0.  1.
         23    2    1    2    0    0  0.00000000000E+00  0.17763568394E-14  0.00000000000E+00  0.91188000000E+02  0.91188000000E+02 0.  0.
    9900012    2    3    3    0    0  0.27946892284E+02 -0.12334456380E+02 -0.20557544318E+02  0.54367078896E+02  0.39999987960E+02 0.  0.
        -12    1    3    3    0    0 -0.27946892284E+02  0.12334456380E+02  0.20557544318E+02  0.36820921104E+02  0.00000000000E+00 0.  1.
         11    1    4    4    0    0  0.23868932315E+02 -0.23077282292E+01 -0.10296861934E+02  0.26097450170E+02  0.51100000000E-03 0. -1.
        -11    1    4    4    0    0 -0.73027938192E+00  0.50838153918E+01 -0.11265180658E+02  0.12380742402E+02  0.51100000000E-03 0.  1.
        -12    1    4    4    0    0  0.48082393510E+01 -0.15110543543E+02  0.10044982741E+01  0.15888886324E+02  0.00000000000E+00 0.  1.
</event>
<event>
 8    1  0.1261983E-006  0.9118800E+02  0.7816164E-02  0.1184000E+00
        -11   -1    0    0    0    0  0.00000000000E+00  0.00000000000E+00  0.45593999997E+02  0.45594000000E+02  0.51100000000E-03 0.  1.
         11   -1    0    0    0    0 -0.00000000000E+00 -0.00000000000E+00 -0.45593999997E+02  0.45594000000E+02  0.51100000000E-03 0. -1.
         23    2    1    2    0    0  0.00000000000E+00  0.88817841970E-15  0.00000000000E+00  0.91188000000E+02  0.91188000000E+02 0.  0.
    9900012    2    3    3    0    0  0.25513644628E+02  0.77535436433E+01  0.25391276626E+02  0.54367076194E+02  0.39999981799E+02 0.  0.
         12    1    3    3    0    0 -0.25513644628E+02 -0.77535436433E+01 -0.25391276626E+02  0.36820923806E+02  0.00000000000E+00 0. -1.
         11    1    4    4    0    0  0.43067117613E+00  0.85579928193E+01  0.14486159826E+02  0.16830732174E+02  0.51100000000E-03 0. -1.
        -11    1    4    4    0    0  0.30307146055E+02  0.35491185427E+00  0.10825515064E+02  0.32184481370E+02  0.51100000000E-03 0.  1.
         12    1    4    4    0    0 -0.52241726024E+01 -0.11593610303E+01  0.79601736164E-01  0.53518626491E+01  0.00000000000E+00 0. -1.
</event>
<event>
 8    1  0.1261983E-006  0.9118800E+02  0.7816164E-02  0.1184000E+00
        -11   -1    0    0    0    0  0.00000000000E+00  0.00000000000E+00  0.45593999997E+02  0.45594000000E+02  0.51100000000E-03 0. -1.
         11   -1    0    0    0    0 -0.00000000000E+00 -0.00000000000E+00 -0.45593999997E+02  0.45594000000E+02  0.51100000000E-03 0.  1.
         23    2    1    2    0    0  0.35527136788E-14  0.99920072216E-15  0.00000000000E+00  0.91188000000E+02  0.91188000000E+02 0.  0.
    9900012    2    3    3    0    0  0.27299098006E+02 -0.10993766421E+00 -0.24708760253E+02  0.54367140810E+02  0.40000129105E+02 0.  0.
         12    1    3    3    0    0 -0.27299098006E+02  0.10993766421E+00  0.24708760253E+02  0.36820859190E+02  0.00000000000E+00 0. -1.
         11    1    4    4    0    0  0.27518324126E+02 -0.10495625519E+02 -0.28936316124E+01  0.29593739573E+02  0.51100000000E-03 0.  1.
        -11    1    4    4    0    0 -0.23761813060E+01  0.53911865337E+01 -0.14546146648E+02  0.15693996062E+02  0.51100000000E-03 0. -1.
        -12    1    4    4    0    0  0.21569551856E+01  0.49945013214E+01 -0.72689819926E+01  0.90794051749E+01  0.00000000000E+00 0.  1.
</event>
<event>
 8    1  0.1261983E-006  0.9118800E+02  0.7816164E-02  0.1184000E+00
        -11   -1    0    0    0    0  0.00000000000E+00  0.00000000000E+00  0.45593999997E+02  0.45594000000E+02  0.51100000000E-03 0. -1.
         11   -1    0    0    0    0 -0.00000000000E+00 -0.00000000000E+00 -0.45593999997E+02  0.45594000000E+02  0.51100000000E-03 0.  1.
         23    2    1    2    0    0  0.00000000000E+00 -0.35527136788E-14  0.00000000000E+00  0.91188000000E+02  0.91188000000E+02 0.  0.
    9900012    2    3    3    0    0  0.54851173539E+01  0.17954957076E+02 -0.31675130017E+02  0.54367070387E+02  0.39999968561E+02 0.  0.
         12    1    3    3    0    0 -0.54851173539E+01 -0.17954957076E+02  0.31675130017E+02  0.36820929613E+02  0.00000000000E+00 0. -1.
         11    1    4    4    0    0  0.64659862178E+01  0.63647052018E+00  0.81642488367E+01  0.10434032385E+02  0.51100000000E-03 0. -1.
        -11    1    4    4    0    0  0.90469997881E+00  0.53340207211E+01 -0.65119828051E+01  0.84661785606E+01  0.51100000000E-03 0.  1.
         12    1    4    4    0    0 -0.18855688427E+01  0.11984465835E+02 -0.33327396049E+02  0.35466859441E+02  0.00000000000E+00 0. -1.
</event>
<event>
 8    1  0.1261983E-006  0.9118800E+02  0.7816164E-02  0.1184000E+00
        -11   -1    0    0    0    0  0.00000000000E+00  0.00000000000E+00  0.45593999997E+02  0.45594000000E+02  0.51100000000E-03 0. -1.
         11   -1    0    0    0    0 -0.00000000000E+00 -0.00000000000E+00 -0.45593999997E+02  0.45594000000E+02  0.51100000000E-03 0.  1.
         23    2    1    2    0    0 -0.35527136788E-14 -0.17763568394E-14  0.35527136788E-14  0.91188000000E+02  0.91188000000E+02 0.  0.
    9900012    2    3    3    0    0  0.23963447630E+02 -0.14675536102E+02  0.23794168869E+02  0.54367073146E+02  0.39999974852E+02 0.  0.
        -12    1    3    3    0    0 -0.23963447630E+02  0.14675536102E+02 -0.23794168869E+02  0.36820926854E+02  0.00000000000E+00 0.  1.
         11    1    4    4    0    0  0.39076680650E+01 -0.77755002429E+01 -0.12536851642E+01  0.87920418837E+01  0.51100000000E-03 0. -1.
        -11    1    4    4    0    0 -0.24982577287E+01 -0.10796285712E+02 -0.72607166252E+00  0.11105325622E+02  0.51100000000E-03 0.  1.
         12    1    4    4    0    0  0.22554037293E+02  0.38962498532E+01  0.25773925696E+02  0.34469705640E+02  0.00000000000E+00 0. -1.
</event>
<event>
 8    1  0.1261983E-006  0.9118800E+02  0.7816164E-02  0.1184000E+00
        -11   -1    0    0    0    0  0.00000000000E+00  0.00000000000E+00  0.45593999997E+02  0.45594000000E+02  0.51100000000E-03 0. -1.
         11   -1    0    0    0    0 -0.00000000000E+00 -0.00000000000E+00 -0.45593999997E+02  0.45594000000E+02  0.51100000000E-03 0.  1.
         23    2    1    2    0    0  0.00000000000E+00  0.00000000000E+00  0.00000000000E+00  0.91188000000E+02  0.91188000000E+02 0.  0.
    9900012    2    3    3    0    0 -0.31718588320E+02 -0.13699460405E+02 -0.12729343607E+02  0.54367078650E+02  0.39999987399E+02 0.  0.
         12    1    3    3    0    0  0.31718588320E+02  0.13699460405E+02  0.12729343607E+02  0.36820921350E+02  0.00000000000E+00 0. -1.
         11    1    4    4    0    0 -0.56562903745E+01 -0.39186964958E+01 -0.15103908652E+01  0.70449332043E+01  0.51100000000E-03 0. -1.
        -11    1    4    4    0    0 -0.31841576600E+02  0.16309022616E+01 -0.12951946903E+02  0.34413642228E+02  0.51100000000E-03 0.  1.
         12    1    4    4    0    0  0.57792786545E+01 -0.11411666170E+02  0.17329941616E+01  0.12908503218E+02  0.00000000000E+00 0. -1.
</event>
<event>
 8    1  0.1261983E-006  0.9118800E+02  0.7816164E-02  0.1184000E+00
        -11   -1    0    0    0    0  0.00000000000E+00  0.00000000000E+00  0.45593999997E+02  0.45594000000E+02  0.51100000000E-03 0.  1.
         11   -1    0    0    0    0 -0.00000000000E+00 -0.00000000000E+00 -0.45593999997E+02  0.45594000000E+02  0.51100000000E-03 0. -1.
         23    2    1    2    0    0  0.00000000000E+00 -0.17763568394E-14  0.00000000000E+00  0.91188000000E+02  0.91188000000E+02 0.  0.
    9900012    2    3    3    0    0 -0.28800937995E+02 -0.99761414074E+01  0.20658127300E+02  0.54367141098E+02  0.40000129760E+02 0.  0.
        -12    1    3    3    0    0  0.28800937995E+02  0.99761414074E+01 -0.20658127300E+02  0.36820858902E+02  0.00000000000E+00 0.  1.
         11    1    4    4    0    0  0.56547710656E+01  0.57712648337E+01  0.39471847919E+01  0.89924524812E+01  0.51100000000E-03 0. -1.
        -11    1    4    4    0    0 -0.65993647836E+00 -0.42431726437E+01  0.72762298453E+01  0.84488786985E+01  0.51100000000E-03 0.  1.
         12    1    4    4    0    0 -0.33795772582E+02 -0.11504233597E+02  0.94347126629E+01  0.36925809918E+02  0.00000000000E+00 0. -1.
</event>
<event>
 8    1  0.1261983E-006  0.9118800E+02  0.7816164E-02  0.1184000E+00
        -11   -1    0    0    0    0  0.00000000000E+00  0.00000000000E+00  0.45593999997E+02  0.45594000000E+02  0.51100000000E-03 0.  1.
         11   -1    0    0    0    0 -0.00000000000E+00 -0.00000000000E+00 -0.45593999997E+02  0.45594000000E+02  0.51100000000E-03 0. -1.
         23    2    1    2    0    0  0.35527136788E-14 -0.44408920985E-15 -0.35527136788E-14  0.91188000000E+02  0.91188000000E+02 0.  0.
    9900012    2    3    3    0    0 -0.20269290188E+02 -0.13994150999E+01 -0.30707875587E+02  0.54367134850E+02  0.40000115516E+02 0.  0.
        -12    1    3    3    0    0  0.20269290188E+02  0.13994150999E+01  0.30707875587E+02  0.36820865150E+02  0.00000000000E+00 0.  1.
         11    1    4    4    0    0  0.49317559123E+01 -0.75407390353E+01 -0.10802817152E+02  0.14067189494E+02  0.51100000000E-03 0. -1.
        -11    1    4    4    0    0  0.19891066858E+01  0.35241671217E+00  0.34460086829E+01  0.39944610463E+01  0.51100000000E-03 0.  1.
         12    1    4    4    0    0 -0.27190152787E+02  0.57889072233E+01 -0.23351067118E+02  0.36305484310E+02  0.00000000000E+00 0. -1.
</event>
<event>
 8    1  0.1261983E-006  0.9118800E+02  0.7816164E-02  0.1184000E+00
        -11   -1    0    0    0    0  0.00000000000E+00  0.00000000000E+00  0.45593999997E+02  0.45594000000E+02  0.51100000000E-03 0.  1.
         11   -1    0    0    0    0 -0.00000000000E+00 -0.00000000000E+00 -0.45593999997E+02  0.45594000000E+02  0.51100000000E-03 0. -1.
         23    2    1    2    0    0  0.00000000000E+00  0.00000000000E+00 -0.35527136788E-14  0.91188000000E+02  0.91188000000E+02 0.  0.
    9900012    2    3    3    0    0 -0.21079942785E+02  0.21558050283E+01 -0.30112584616E+02  0.54367092415E+02  0.40000018779E+02 0.  0.
        -12    1    3    3    0    0  0.21079942785E+02 -0.21558050283E+01  0.30112584616E+02  0.36820907585E+02  0.00000000000E+00 0.  1.
         11    1    4    4    0    0 -0.99631378697E+01  0.50625256980E+01 -0.15532608916E+02  0.19135182849E+02  0.51100000000E-03 0. -1.
        -11    1    4    4    0    0 -0.12376704989E+02  0.11782858251E+02 -0.56671787651E+01  0.18003763228E+02  0.51100000000E-03 0.  1.
        -12    1    4    4    0    0  0.12599000737E+01 -0.14689578921E+02 -0.89127969350E+01  0.17228146339E+02  0.00000000000E+00 0.  1.
</event>
<event>
 8    1  0.1261983E-006  0.9118800E+02  0.7816164E-02  0.1184000E+00
        -11   -1    0    0    0    0  0.00000000000E+00  0.00000000000E+00  0.45593999997E+02  0.45594000000E+02  0.51100000000E-03 0. -1.
         11   -1    0    0    0    0 -0.00000000000E+00 -0.00000000000E+00 -0.45593999997E+02  0.45594000000E+02  0.51100000000E-03 0.  1.
         23    2    1    2    0    0  0.88817841970E-15  0.00000000000E+00  0.00000000000E+00  0.91188000000E+02  0.91188000000E+02 0.  0.
    9900012    2    3    3    0    0 -0.79365908718E+01 -0.27584017142E+02 -0.23063229464E+02  0.54367081629E+02  0.39999994189E+02 0.  0.
         12    1    3    3    0    0  0.79365908718E+01  0.27584017142E+02  0.23063229464E+02  0.36820918371E+02  0.00000000000E+00 0. -1.
         11    1    4    4    0    0 -0.13197447202E+02 -0.10038497217E+02 -0.48148584762E+01  0.17266351712E+02  0.51100000000E-03 0. -1.
        -11    1    4    4    0    0 -0.38044152490E+01  0.59629465580E+01 -0.33097742255E+01  0.78092837524E+01  0.51100000000E-03 0.  1.
         12    1    4    4    0    0  0.90652715792E+01 -0.23508466483E+02 -0.14938596763E+02  0.29291446165E+02  0.00000000000E+00 0. -1.
</event>
<event>
 8    1  0.1261983E-006  0.9118800E+02  0.7816164E-02  0.1184000E+00
        -11   -1    0    0    0    0  0.00000000000E+00  0.00000000000E+00  0.45593999997E+02  0.45594000000E+02  0.51100000000E-03 0.  1.
         11   -1    0    0    0    0 -0.00000000000E+00 -0.00000000000E+00 -0.45593999997E+02  0.45594000000E+02  0.51100000000E-03 0. -1.
         23    2    1    2    0    0  0.00000000000E+00 -0.35527136788E-14  0.35527136788E-14  0.91188000000E+02  0.91188000000E+02 0.  0.
    9900012    2    3    3    0    0 -0.16995036186E+02 -0.19903646719E+02 -0.25899676766E+02  0.54367086591E+02  0.40000005501E+02 0.  0.
        -12    1    3    3    0    0  0.16995036186E+02  0.19903646719E+02  0.25899676766E+02  0.36820913409E+02  0.00000000000E+00 0.  1.
         11    1    4    4    0    0 -0.55978386850E+01 -0.21126256841E+02 -0.15769305184E+02  0.26950426941E+02  0.51100000000E-03 0. -1.
        -11    1    4    4    0    0 -0.10772771418E+02 -0.42832004129E+01 -0.15728916481E+02  0.19539632129E+02  0.51100000000E-03 0.  1.
        -12    1    4    4    0    0 -0.62442608345E+00  0.55058105350E+01  0.55985448992E+01  0.78770275211E+01  0.00000000000E+00 0.  1.
</event>
<event>
 8    1  0.1261983E-006  0.9118800E+02  0.7816164E-02  0.1184000E+00
        -11   -1    0    0    0    0  0.00000000000E+00  0.00000000000E+00  0.45593999997E+02  0.45594000000E+02  0.51100000000E-03 0.  1.
         11   -1    0    0    0    0 -0.00000000000E+00 -0.00000000000E+00 -0.45593999997E+02  0.45594000000E+02  0.51100000000E-03 0. -1.
         23    2    1    2    0    0  0.00000000000E+00 -0.88817841970E-15  0.00000000000E+00  0.91188000000E+02  0.91188000000E+02 0.  0.
    9900012    2    3    3    0    0 -0.36438321917E+02 -0.23946555434E+01 -0.47217332554E+01  0.54367076000E+02  0.39999981357E+02 0.  0.
        -12    1    3    3    0    0  0.36438321917E+02  0.23946555434E+01  0.47217332554E+01  0.36820924000E+02  0.00000000000E+00 0.  1.
         11    1    4    4    0    0 -0.16629516319E+02  0.28811356724E+00 -0.42124505613E+01  0.17157172332E+02  0.51100000000E-03 0. -1.
        -11    1    4    4    0    0 -0.12291420520E+02 -0.82366549734E+01  0.13724834758E+02  0.20181491346E+02  0.51100000000E-03 0.  1.
         12    1    4    4    0    0 -0.75173850782E+01  0.55538858627E+01 -0.14234117452E+02  0.17028412322E+02  0.00000000000E+00 0. -1.
</event>
<event>
 8    1  0.1261983E-006  0.9118800E+02  0.7816164E-02  0.1184000E+00
        -11   -1    0    0    0    0  0.00000000000E+00  0.00000000000E+00  0.45593999997E+02  0.45594000000E+02  0.51100000000E-03 0.  1.
         11   -1    0    0    0    0 -0.00000000000E+00 -0.00000000000E+00 -0.45593999997E+02  0.45594000000E+02  0.51100000000E-03 0. -1.
         23    2    1    2    0    0  0.00000000000E+00  0.00000000000E+00  0.00000000000E+00  0.91188000000E+02  0.91188000000E+02 0.  0.
    9900012    2    3    3    0    0 -0.23667043959E+02 -0.23799420133E+02  0.15140550020E+02  0.54367114305E+02  0.40000068681E+02 0.  0.
        -12    1    3    3    0    0  0.23667043959E+02  0.23799420133E+02 -0.15140550020E+02  0.36820885695E+02  0.00000000000E+00 0.  1.
         11    1    4    4    0    0 -0.26992797328E+02 -0.12732682947E+02  0.14271581811E+02  0.33081873742E+02  0.51100000000E-03 0. -1.
        -11    1    4    4    0    0 -0.21482774946E+01  0.42204473920E+00 -0.63063520200E+01  0.66755744335E+01  0.51100000000E-03 0.  1.
         12    1    4    4    0    0  0.54740308638E+01 -0.11488781925E+02  0.71753202295E+01  0.14609666130E+02  0.00000000000E+00 0. -1.
</event>
<event>
 8    1  0.1261983E-006  0.9118800E+02  0.7816164E-02  0.1184000E+00
        -11   -1    0    0    0    0  0.00000000000E+00  0.00000000000E+00  0.45593999997E+02  0.45594000000E+02  0.51100000000E-03 0.  1.
         11   -1    0    0    0    0 -0.00000000000E+00 -0.00000000000E+00 -0.45593999997E+02  0.45594000000E+02  0.51100000000E-03 0. -1.
         23    2    1    2    0    0  0.00000000000E+00  0.88817841970E-15 -0.71054273576E-14  0.91188000000E+02  0.91188000000E+02 0.  0.
    9900012    2    3    3    0    0  0.19037527581E+02 -0.62096367697E+01  0.30899742836E+02  0.54367066381E+02  0.39999959429E+02 0.  0.
         12    1    3    3    0    0 -0.19037527581E+02  0.62096367697E+01 -0.30899742836E+02  0.36820933619E+02  0.00000000000E+00 0. -1.
         11    1    4    4    0    0  0.49808213262E+01 -0.75308864629E+01 -0.81421222161E+01  0.12158000923E+02  0.51100000000E-03 0. -1.
        -11    1    4    4    0    0  0.12971293440E+01 -0.19881195039E+01  0.10577882904E+02  0.10840976463E+02  0.51100000000E-03 0.  1.
        -12    1    4    4    0    0  0.12759576911E+02  0.33093691971E+01  0.28463982148E+02  0.31368088995E+02  0.00000000000E+00 0.  1.
</event>
<event>
 8    1  0.1261983E-006  0.9118800E+02  0.7816164E-02  0.1184000E+00
        -11   -1    0    0    0    0  0.00000000000E+00  0.00000000000E+00  0.45593999997E+02  0.45594000000E+02  0.51100000000E-03 0.  1.
         11   -1    0    0    0    0 -0.00000000000E+00 -0.00000000000E+00 -0.45593999997E+02  0.45594000000E+02  0.51100000000E-03 0. -1.
         23    2    1    2    0    0 -0.35527136788E-14  0.00000000000E+00  0.00000000000E+00  0.91188000000E+02  0.91188000000E+02 0.  0.
    9900012    2    3    3    0    0 -0.20531343628E+02  0.28930446573E+02  0.98627260096E+01  0.54367079663E+02  0.39999989708E+02 0.  0.
         12    1    3    3    0    0  0.20531343628E+02 -0.28930446573E+02 -0.98627260096E+01  0.36820920337E+02  0.00000000000E+00 0. -1.
         11    1    4    4    0    0  0.26396441699E+01  0.39414340092E+01 -0.13950691961E+01  0.49445770007E+01  0.51100000000E-03 0. -1.
        -11    1    4    4    0    0 -0.17351494436E+02 -0.10166918273E+01  0.14423294696E+02  0.22586266881E+02  0.51100000000E-03 0.  1.
        -12    1    4    4    0    0 -0.58194933620E+01  0.26005704392E+02 -0.31654994907E+01  0.26836235781E+02  0.00000000000E+00 0.  1.
</event>
<event>
 8    1  0.1261983E-006  0.9118800E+02  0.7816164E-02  0.1184000E+00
        -11   -1    0    0    0    0  0.00000000000E+00  0.00000000000E+00  0.45593999997E+02  0.45594000000E+02  0.51100000000E-03 0.  1.
         11   -1    0    0    0    0 -0.00000000000E+00 -0.00000000000E+00 -0.45593999997E+02  0.45594000000E+02  0.51100000000E-03 0. -1.
         23    2    1    2    0    0 -0.35527136788E-14  0.35527136788E-14  0.00000000000E+00  0.91188000000E+02  0.91188000000E+02 0.  0.
    9900012    2    3    3    0    0 -0.23714221729E+02  0.25308462882E+02  0.12365184955E+02  0.54367076538E+02  0.39999982583E+02 0.  0.
         12    1    3    3    0    0  0.23714221729E+02 -0.25308462882E+02 -0.12365184955E+02  0.36820923462E+02  0.00000000000E+00 0. -1.
         11    1    4    4    0    0 -0.17176362379E+02 -0.39972394920E+01 -0.35038802140E+01  0.17980059092E+02  0.51100000000E-03 0. -1.
        -11    1    4    4    0    0  0.17393637319E+01  0.19204978581E+02  0.66350764286E+01  0.20393156400E+02  0.51100000000E-03 0.  1.
         12    1    4    4    0    0 -0.82772230820E+01  0.10100723792E+02  0.92339887401E+01  0.15993861045E+02  0.00000000000E+00 0. -1.
</event>
<event>
 8    1  0.1261983E-006  0.9118800E+02  0.7816164E-02  0.1184000E+00
        -11   -1    0    0    0    0  0.00000000000E+00  0.00000000000E+00  0.45593999997E+02  0.45594000000E+02  0.51100000000E-03 0. -1.
         11   -1    0    0    0    0 -0.00000000000E+00 -0.00000000000E+00 -0.45593999997E+02  0.45594000000E+02  0.51100000000E-03 0.  1.
         23    2    1    2    0    0  0.00000000000E+00 -0.17763568394E-14  0.00000000000E+00  0.91188000000E+02  0.91188000000E+02 0.  0.
    9900012    2    3    3    0    0  0.24065913281E+02 -0.13635522379E+02  0.24304031571E+02  0.54367060262E+02  0.39999945480E+02 0.  0.
        -12    1    3    3    0    0 -0.24065913281E+02  0.13635522379E+02 -0.24304031571E+02  0.36820939738E+02  0.00000000000E+00 0.  1.
         11    1    4    4    0    0  0.69479550462E+01 -0.21070181653E+02  0.23910577599E+02  0.32618129248E+02  0.51100000000E-03 0. -1.
        -11    1    4    4    0    0  0.43229370899E+01  0.12457174845E+00 -0.44810719911E+01  0.62276247200E+01  0.51100000000E-03 0.  1.
         12    1    4    4    0    0  0.12795021145E+02  0.73100875258E+01  0.48745259625E+01  0.15521306294E+02  0.00000000000E+00 0. -1.
</event>
<event>
 8    1  0.1261983E-006  0.9118800E+02  0.7816164E-02  0.1184000E+00
        -11   -1    0    0    0    0  0.00000000000E+00  0.00000000000E+00  0.45593999997E+02  0.45594000000E+02  0.51100000000E-03 0.  1.
         11   -1    0    0    0    0 -0.00000000000E+00 -0.00000000000E+00 -0.45593999997E+02  0.45594000000E+02  0.51100000000E-03 0. -1.
         23    2    1    2    0    0  0.00000000000E+00  0.00000000000E+00  0.00000000000E+00  0.91188000000E+02  0.91188000000E+02 0.  0.
    9900012    2    3    3    0    0 -0.36060544865E+02  0.72325562877E+01 -0.17627754165E+01  0.54367080082E+02  0.39999990664E+02 0.  0.
         12    1    3    3    0    0  0.36060544865E+02 -0.72325562877E+01  0.17627754165E+01  0.36820919918E+02  0.00000000000E+00 0. -1.
         11    1    4    4    0    0 -0.87051129421E+01  0.20116822597E+02  0.21841126359E+01  0.22028070523E+02  0.51100000000E-03 0. -1.
        -11    1    4    4    0    0 -0.16986687848E+02 -0.11976984440E+02 -0.62000833385E+01  0.21689554029E+02  0.51100000000E-03 0.  1.
         12    1    4    4    0    0 -0.10368744075E+02 -0.90728186888E+00  0.22531952861E+01  0.10649455530E+02  0.00000000000E+00 0. -1.
</event>
<event>
 8    1  0.1261983E-006  0.9118800E+02  0.7816164E-02  0.1184000E+00
        -11   -1    0    0    0    0  0.00000000000E+00  0.00000000000E+00  0.45593999997E+02  0.45594000000E+02  0.51100000000E-03 0. -1.
         11   -1    0    0    0    0 -0.00000000000E+00 -0.00000000000E+00 -0.45593999997E+02  0.45594000000E+02  0.51100000000E-03 0.  1.
         23    2    1    2    0    0 -0.88817841970E-15  0.17763568394E-14  0.00000000000E+00  0.91188000000E+02  0.91188000000E+02 0.  0.
    9900012    2    3    3    0    0 -0.61547777543E+01  0.59283369363E+01 -0.35815550375E+02  0.54367080447E+02  0.39999991496E+02 0.  0.
         12    1    3    3    0    0  0.61547777543E+01 -0.59283369363E+01  0.35815550375E+02  0.36820919553E+02  0.00000000000E+00 0. -1.
         11    1    4    4    0    0 -0.53303308696E+01  0.14292144725E+02 -0.43045868494E+01  0.15849520378E+02  0.51100000000E-03 0. -1.
        -11    1    4    4    0    0  0.83653329471E+01 -0.25839466987E+01 -0.55194098334E+01  0.10349853189E+02  0.51100000000E-03 0.  1.
         12    1    4    4    0    0 -0.91897798318E+01 -0.57798610898E+01 -0.25991553692E+02  0.28167706881E+02  0.00000000000E+00 0. -1.
</event>
<event>
 8    1  0.1261983E-006  0.9118800E+02  0.7816164E-02  0.1184000E+00
        -11   -1    0    0    0    0  0.00000000000E+00  0.00000000000E+00  0.45593999997E+02  0.45594000000E+02  0.51100000000E-03 0. -1.
         11   -1    0    0    0    0 -0.00000000000E+00 -0.00000000000E+00 -0.45593999997E+02  0.45594000000E+02  0.51100000000E-03 0.  1.
         23    2    1    2    0    0  0.35527136788E-14  0.44408920985E-15  0.00000000000E+00  0.91188000000E+02  0.91188000000E+02 0.  0.
    9900012    2    3    3    0    0  0.95515593811E+01 -0.39308887589E+01  0.35342555543E+02  0.54367076528E+02  0.39999982561E+02 0.  0.
        -12    1    3    3    0    0 -0.95515593811E+01  0.39308887589E+01 -0.35342555543E+02  0.36820923472E+02  0.00000000000E+00 0.  1.
         11    1    4    4    0    0 -0.34958778765E+01  0.96476760868E+00 -0.18948873219E+01  0.40917645204E+01  0.51100000000E-03 0. -1.
        -11    1    4    4    0    0  0.16942049131E+02  0.57291865508E+01  0.93538235130E+01  0.20182928971E+02  0.51100000000E-03 0.  1.
         12    1    4    4    0    0 -0.38946118732E+01 -0.10624842918E+02  0.27883619351E+02  0.30092383037E+02  0.00000000000E+00 0. -1.
</event>
<event>
 8    1  0.1261983E-006  0.9118800E+02  0.7816164E-02  0.1184000E+00
        -11   -1    0    0    0    0  0.00000000000E+00  0.00000000000E+00  0.45593999997E+02  0.45594000000E+02  0.51100000000E-03 0.  1.
         11   -1    0    0    0    0 -0.00000000000E+00 -0.00000000000E+00 -0.45593999997E+02  0.45594000000E+02  0.51100000000E-03 0. -1.
         23    2    1    2    0    0  0.17763568394E-14  0.00000000000E+00 -0.88817841970E-15  0.91188000000E+02  0.91188000000E+02 0.  0.
    9900012    2    3    3    0    0 -0.65036523767E+01 -0.36135940860E+02  0.27709297347E+01  0.54367058029E+02  0.39999940388E+02 0.  0.
         12    1    3    3    0    0  0.65036523767E+01  0.36135940860E+02 -0.27709297347E+01  0.36820941971E+02  0.00000000000E+00 0. -1.
         11    1    4    4    0    0  0.26890907835E+01 -0.37329222228E+01  0.47353636309E+01  0.66022410242E+01  0.51100000000E-03 0. -1.
        -11    1    4    4    0    0 -0.60851369156E+00  0.31297046894E+01  0.90429655562E+01  0.95885643694E+01  0.51100000000E-03 0.  1.
         12    1    4    4    0    0 -0.85842294686E+01 -0.35532723326E+02 -0.11007399452E+02  0.38176252635E+02  0.00000000000E+00 0. -1.
</event>
<event>
 8    1  0.1261983E-006  0.9118800E+02  0.7816164E-02  0.1184000E+00
        -11   -1    0    0    0    0  0.00000000000E+00  0.00000000000E+00  0.45593999997E+02  0.45594000000E+02  0.51100000000E-03 0.  1.
         11   -1    0    0    0    0 -0.00000000000E+00 -0.00000000000E+00 -0.45593999997E+02  0.45594000000E+02  0.51100000000E-03 0. -1.
         23    2    1    2    0    0  0.00000000000E+00  0.00000000000E+00  0.00000000000E+00  0.91188000000E+02  0.91188000000E+02 0.  0.
    9900012    2    3    3    0    0 -0.24443314053E+02 -0.16918992558E+02 -0.21726752159E+02  0.54367086508E+02  0.40000005312E+02 0.  0.
        -12    1    3    3    0    0  0.24443314053E+02  0.16918992558E+02  0.21726752159E+02  0.36820913492E+02  0.00000000000E+00 0.  1.
         11    1    4    4    0    0 -0.12314629342E+02 -0.12532627430E+02 -0.23455236328E+00  0.17571905452E+02  0.51100000000E-03 0. -1.
        -11    1    4    4    0    0 -0.62692158191E+01  0.82205669216E+01  0.96491634108E+00  0.10383248591E+02  0.51100000000E-03 0.  1.
        -12    1    4    4    0    0 -0.58594688918E+01 -0.12606932049E+02 -0.22457116136E+02  0.26411932465E+02  0.00000000000E+00 0.  1.
</event>
<event>
 8    1  0.1261983E-006  0.9118800E+02  0.7816164E-02  0.1184000E+00
        -11   -1    0    0    0    0  0.00000000000E+00  0.00000000000E+00  0.45593999997E+02  0.45594000000E+02  0.51100000000E-03 0.  1.
         11   -1    0    0    0    0 -0.00000000000E+00 -0.00000000000E+00 -0.45593999997E+02  0.45594000000E+02  0.51100000000E-03 0. -1.
         23    2    1    2    0    0  0.71054273576E-14  0.35527136788E-14 -0.13322676296E-14  0.91188000000E+02  0.91188000000E+02 0.  0.
    9900012    2    3    3    0    0  0.27108463827E+02  0.24893671146E+02 -0.11025909157E+01  0.54367090438E+02  0.40000014272E+02 0.  0.
         12    1    3    3    0    0 -0.27108463827E+02 -0.24893671146E+02  0.11025909157E+01  0.36820909562E+02  0.00000000000E+00 0. -1.
         11    1    4    4    0    0 -0.25396786433E+01 -0.11767334256E+01  0.56981284060E+01  0.63484909040E+01  0.51100000000E-03 0. -1.
        -11    1    4    4    0    0  0.18040832655E+02  0.52746572419E+00  0.30067190264E+01  0.18297273637E+02  0.51100000000E-03 0.  1.
         12    1    4    4    0    0  0.11607309815E+02  0.25542938848E+02 -0.98074383480E+01  0.29721325897E+02  0.00000000000E+00 0. -1.
</event>
<event>
 8    1  0.1261983E-006  0.9118800E+02  0.7816164E-02  0.1184000E+00
        -11   -1    0    0    0    0  0.00000000000E+00  0.00000000000E+00  0.45593999997E+02  0.45594000000E+02  0.51100000000E-03 0. -1.
         11   -1    0    0    0    0 -0.00000000000E+00 -0.00000000000E+00 -0.45593999997E+02  0.45594000000E+02  0.51100000000E-03 0.  1.
         23    2    1    2    0    0  0.00000000000E+00  0.35527136788E-14  0.00000000000E+00  0.91188000000E+02  0.91188000000E+02 0.  0.
    9900012    2    3    3    0    0 -0.20374138024E+02  0.21135316167E+02 -0.22225329397E+02  0.54367185825E+02  0.40000231725E+02 0.  0.
         12    1    3    3    0    0  0.20374138024E+02 -0.21135316167E+02  0.22225329397E+02  0.36820814175E+02  0.00000000000E+00 0. -1.
         11    1    4    4    0    0 -0.83760612710E+01  0.77241222894E+01  0.18002834608E+01  0.11535228145E+02  0.51100000000E-03 0. -1.
        -11    1    4    4    0    0 -0.20421142568E+01  0.20057013072E+02 -0.57137328531E+01  0.20954730907E+02  0.51100000000E-03 0.  1.
         12    1    4    4    0    0 -0.99559624959E+01 -0.66458191945E+01 -0.18311880005E+02  0.21877226773E+02  0.00000000000E+00 0. -1.
</event>
<event>
 8    1  0.1261983E-006  0.9118800E+02  0.7816164E-02  0.1184000E+00
        -11   -1    0    0    0    0  0.00000000000E+00  0.00000000000E+00  0.45593999997E+02  0.45594000000E+02  0.51100000000E-03 0.  1.
         11   -1    0    0    0    0 -0.00000000000E+00 -0.00000000000E+00 -0.45593999997E+02  0.45594000000E+02  0.51100000000E-03 0. -1.
         23    2    1    2    0    0 -0.44408920985E-15  0.17763568394E-14  0.00000000000E+00  0.91188000000E+02  0.91188000000E+02 0.  0.
    9900012    2    3    3    0    0 -0.95176188202E+00 -0.14938223214E+02 -0.33641094995E+02  0.54367086976E+02  0.40000006379E+02 0.  0.
        -12    1    3    3    0    0  0.95176188202E+00  0.14938223214E+02  0.33641094995E+02  0.36820913024E+02  0.00000000000E+00 0.  1.
         11    1    4    4    0    0  0.12878760981E+01 -0.10959003892E+02 -0.23331004057E+02  0.25808799695E+02  0.51100000000E-03 0. -1.
        -11    1    4    4    0    0 -0.45405272556E+01  0.65478832615E+01 -0.14859958843E+02  0.16861480956E+02  0.51100000000E-03 0.  1.
        -12    1    4    4    0    0  0.23008892755E+01 -0.10527102583E+02  0.45498679045E+01  0.11696806325E+02  0.00000000000E+00 0.  1.
</event>
<event>
 8    1  0.1261983E-006  0.9118800E+02  0.7816164E-02  0.1184000E+00
        -11   -1    0    0    0    0  0.00000000000E+00  0.00000000000E+00  0.45593999997E+02  0.45594000000E+02  0.51100000000E-03 0.  1.
         11   -1    0    0    0    0 -0.00000000000E+00 -0.00000000000E+00 -0.45593999997E+02  0.45594000000E+02  0.51100000000E-03 0. -1.
         23    2    1    2    0    0  0.00000000000E+00  0.35527136788E-14  0.35527136788E-14  0.91188000000E+02  0.91188000000E+02 0.  0.
    9900012    2    3    3    0    0 -0.57566680395E+01 -0.25298984433E+02 -0.26126664235E+02  0.54367076270E+02  0.39999981973E+02 0.  0.
        -12    1    3    3    0    0  0.57566680395E+01  0.25298984433E+02  0.26126664235E+02  0.36820923730E+02  0.00000000000E+00 0.  1.
         11    1    4    4    0    0  0.10746166096E+02 -0.38433789921E+01 -0.39397290139E+01  0.12073653664E+02  0.51100000000E-03 0. -1.
        -11    1    4    4    0    0 -0.94477855876E+01 -0.91301368489E+01 -0.24599405586E+02  0.27888184000E+02  0.51100000000E-03 0.  1.
        -12    1    4    4    0    0 -0.70550485478E+01 -0.12325468592E+02  0.24124703643E+01  0.14405238606E+02  0.00000000000E+00 0.  1.
</event>
<event>
 8    1  0.1261983E-006  0.9118800E+02  0.7816164E-02  0.1184000E+00
        -11   -1    0    0    0    0  0.00000000000E+00  0.00000000000E+00  0.45593999997E+02  0.45594000000E+02  0.51100000000E-03 0. -1.
         11   -1    0    0    0    0 -0.00000000000E+00 -0.00000000000E+00 -0.45593999997E+02  0.45594000000E+02  0.51100000000E-03 0.  1.
         23    2    1    2    0    0  0.00000000000E+00 -0.88817841970E-15 -0.35527136788E-14  0.91188000000E+02  0.91188000000E+02 0.  0.
    9900012    2    3    3    0    0  0.30894976136E+02  0.44388526679E+01 -0.19533983590E+02  0.54367089116E+02  0.40000011257E+02 0.  0.
         12    1    3    3    0    0 -0.30894976136E+02 -0.44388526679E+01  0.19533983590E+02  0.36820910884E+02  0.00000000000E+00 0. -1.
         11    1    4    4    0    0  0.29717737653E+02  0.10989728827E+02 -0.23912557102E+02  0.39695446317E+02  0.51100000000E-03 0.  1.
        -11    1    4    4    0    0 -0.95007365317E+00 -0.98291513147E+01  0.42794723977E+01  0.10762376121E+02  0.51100000000E-03 0. -1.
         12    1    4    4    0    0  0.21273121361E+01  0.32782751554E+01  0.99101114311E-01  0.39092666767E+01  0.00000000000E+00 0. -1.
</event>
<event>
 8    1  0.1261983E-006  0.9118800E+02  0.7816164E-02  0.1184000E+00
        -11   -1    0    0    0    0  0.00000000000E+00  0.00000000000E+00  0.45593999997E+02  0.45594000000E+02  0.51100000000E-03 0.  1.
         11   -1    0    0    0    0 -0.00000000000E+00 -0.00000000000E+00 -0.45593999997E+02  0.45594000000E+02  0.51100000000E-03 0. -1.
         23    2    1    2    0    0  0.00000000000E+00  0.00000000000E+00  0.00000000000E+00  0.91188000000E+02  0.91188000000E+02 0.  0.
    9900012    2    3    3    0    0  0.20797735318E+02 -0.23421864523E+02 -0.19355882566E+02  0.54367085807E+02  0.40000003714E+02 0.  0.
        -12    1    3    3    0    0 -0.20797735318E+02  0.23421864523E+02  0.19355882566E+02  0.36820914193E+02  0.00000000000E+00 0.  1.
         11    1    4    4    0    0  0.44952686663E+01  0.49620241394E+01 -0.15336527241E+02  0.16734341697E+02  0.51100000000E-03 0. -1.
        -11    1    4    4    0    0  0.12333385627E+02 -0.14043418044E+02 -0.10460873741E+02  0.21418680423E+02  0.51100000000E-03 0.  1.
        -12    1    4    4    0    0  0.39690810239E+01 -0.14340470619E+02  0.64415184159E+01  0.16214063687E+02  0.00000000000E+00 0.  1.
</event>
<event>
 8    1  0.1261983E-006  0.9118800E+02  0.7816164E-02  0.1184000E+00
        -11   -1    0    0    0    0  0.00000000000E+00  0.00000000000E+00  0.45593999997E+02  0.45594000000E+02  0.51100000000E-03 0.  1.
         11   -1    0    0    0    0 -0.00000000000E+00 -0.00000000000E+00 -0.45593999997E+02  0.45594000000E+02  0.51100000000E-03 0. -1.
         23    2    1    2    0    0 -0.17763568394E-14  0.00000000000E+00  0.00000000000E+00  0.91188000000E+02  0.91188000000E+02 0.  0.
    9900012    2    3    3    0    0  0.43238449185E+01  0.35540850214E+02 -0.85984308415E+01  0.54367072775E+02  0.39999974004E+02 0.  0.
         12    1    3    3    0    0 -0.43238449185E+01 -0.35540850214E+02  0.85984308415E+01  0.36820927225E+02  0.00000000000E+00 0. -1.
         11    1    4    4    0    0 -0.89237916241E+00 -0.14001047877E+00 -0.48558320494E+01  0.49391344036E+01  0.51100000000E-03 0. -1.
        -11    1    4    4    0    0  0.15267272291E+02  0.36354576302E+01 -0.79828033017E+00  0.15714433084E+02  0.51100000000E-03 0.  1.
        -12    1    4    4    0    0 -0.10051048210E+02  0.32045403062E+02 -0.29443184619E+01  0.33713505287E+02  0.00000000000E+00 0.  1.
</event>
<event>
 8    1  0.1261983E-006  0.9118800E+02  0.7816164E-02  0.1184000E+00
        -11   -1    0    0    0    0  0.00000000000E+00  0.00000000000E+00  0.45593999997E+02  0.45594000000E+02  0.51100000000E-03 0.  1.
         11   -1    0    0    0    0 -0.00000000000E+00 -0.00000000000E+00 -0.45593999997E+02  0.45594000000E+02  0.51100000000E-03 0. -1.
         23    2    1    2    0    0  0.17763568394E-14  0.00000000000E+00 -0.35527136788E-14  0.91188000000E+02  0.91188000000E+02 0.  0.
    9900012    2    3    3    0    0  0.12340911731E+02 -0.22425214727E+02  0.26468692438E+02  0.54367081526E+02  0.39999993954E+02 0.  0.
         12    1    3    3    0    0 -0.12340911731E+02  0.22425214727E+02 -0.26468692438E+02  0.36820918474E+02  0.00000000000E+00 0. -1.
         11    1    4    4    0    0  0.12310524397E+01 -0.19654564810E+02  0.24986355532E+02  0.31814075046E+02  0.51100000000E-03 0. -1.
        -11    1    4    4    0    0  0.10494673410E+02  0.34877359265E+01  0.78822319374E+01  0.13580576293E+02  0.51100000000E-03 0.  1.
         12    1    4    4    0    0  0.61518588055E+00 -0.62583858438E+01 -0.63998950317E+01  0.89724301866E+01  0.00000000000E+00 0. -1.
</event>
<event>
 8    1  0.1261983E-006  0.9118800E+02  0.7816164E-02  0.1184000E+00
        -11   -1    0    0    0    0  0.00000000000E+00  0.00000000000E+00  0.45593999997E+02  0.45594000000E+02  0.51100000000E-03 0. -1.
         11   -1    0    0    0    0 -0.00000000000E+00 -0.00000000000E+00 -0.45593999997E+02  0.45594000000E+02  0.51100000000E-03 0.  1.
         23    2    1    2    0    0  0.00000000000E+00  0.88817841970E-15  0.00000000000E+00  0.91188000000E+02  0.91188000000E+02 0.  0.
    9900012    2    3    3    0    0  0.17238848077E+02  0.59304280333E+01  0.31991114125E+02  0.54367092316E+02  0.40000018554E+02 0.  0.
        -12    1    3    3    0    0 -0.17238848077E+02 -0.59304280333E+01 -0.31991114125E+02  0.36820907684E+02  0.00000000000E+00 0.  1.
         11    1    4    4    0    0  0.13233008276E+02 -0.10970842387E+02  0.27989780740E+02  0.32846608909E+02  0.51100000000E-03 0. -1.
        -11    1    4    4    0    0  0.20374175937E+01 -0.13782129664E+01 -0.67343523451E+00  0.25503052186E+01  0.51100000000E-03 0.  1.
        -12    1    4    4    0    0  0.19684222071E+01  0.18279483387E+02  0.46747686201E+01  0.18970178189E+02  0.00000000000E+00 0.  1.
</event>
<event>
 8    1  0.1261983E-006  0.9118800E+02  0.7816164E-02  0.1184000E+00
        -11   -1    0    0    0    0  0.00000000000E+00  0.00000000000E+00  0.45593999997E+02  0.45594000000E+02  0.51100000000E-03 0. -1.
         11   -1    0    0    0    0 -0.00000000000E+00 -0.00000000000E+00 -0.45593999997E+02  0.45594000000E+02  0.51100000000E-03 0.  1.
         23    2    1    2    0    0  0.35527136788E-14  0.00000000000E+00 -0.35527136788E-14  0.91188000000E+02  0.91188000000E+02 0.  0.
    9900012    2    3    3    0    0  0.23127632401E+02  0.18975626646E+02 -0.21466630800E+02  0.54367108851E+02  0.40000056249E+02 0.  0.
         12    1    3    3    0    0 -0.23127632401E+02 -0.18975626646E+02  0.21466630800E+02  0.36820891149E+02  0.00000000000E+00 0. -1.
         11    1    4    4    0    0  0.46995866751E+01  0.13857866508E+02 -0.52955373899E+01  0.15561789601E+02  0.51100000000E-03 0. -1.
        -11    1    4    4    0    0  0.66937608395E+01  0.15046075689E+02 -0.16661746766E+02  0.23426579635E+02  0.51100000000E-03 0.  1.
         12    1    4    4    0    0  0.11734284886E+02 -0.99283155510E+01  0.49065335585E+00  0.15378739616E+02  0.00000000000E+00 0. -1.
</event>
<event>
 8    1  0.1261983E-006  0.9118800E+02  0.7816164E-02  0.1184000E+00
        -11   -1    0    0    0    0  0.00000000000E+00  0.00000000000E+00  0.45593999997E+02  0.45594000000E+02  0.51100000000E-03 0.  1.
         11   -1    0    0    0    0 -0.00000000000E+00 -0.00000000000E+00 -0.45593999997E+02  0.45594000000E+02  0.51100000000E-03 0. -1.
         23    2    1    2    0    0  0.00000000000E+00 -0.17763568394E-14  0.71054273576E-14  0.91188000000E+02  0.91188000000E+02 0.  0.
    9900012    2    3    3    0    0 -0.12320404270E+02 -0.11413327110E+02  0.32767754662E+02  0.54367052936E+02  0.39999928779E+02 0.  0.
         12    1    3    3    0    0  0.12320404270E+02  0.11413327110E+02 -0.32767754662E+02  0.36820947064E+02  0.00000000000E+00 0. -1.
         11    1    4    4    0    0 -0.10783628676E+02 -0.25330830059E+01 -0.66761858555E+00  0.11097246135E+02  0.51100000000E-03 0. -1.
        -11    1    4    4    0    0  0.10936233960E+02  0.63392188867E+00  0.19102563571E+02  0.22020694936E+02  0.51100000000E-03 0.  1.
         12    1    4    4    0    0 -0.12473009554E+02 -0.95141659927E+01  0.14332809676E+02  0.21249111866E+02  0.00000000000E+00 0. -1.
</event>
<event>
 8    1  0.1261983E-006  0.9118800E+02  0.7816164E-02  0.1184000E+00
        -11   -1    0    0    0    0  0.00000000000E+00  0.00000000000E+00  0.45593999997E+02  0.45594000000E+02  0.51100000000E-03 0.  1.
         11   -1    0    0    0    0 -0.00000000000E+00 -0.00000000000E+00 -0.45593999997E+02  0.45594000000E+02  0.51100000000E-03 0. -1.
         23    2    1    2    0    0  0.00000000000E+00  0.00000000000E+00  0.00000000000E+00  0.91188000000E+02  0.91188000000E+02 0.  0.
    9900012    2    3    3    0    0  0.28930451858E+02  0.21212474508E+02 -0.82969994222E+01  0.54367077702E+02  0.39999985237E+02 0.  0.
        -12    1    3    3    0    0 -0.28930451858E+02 -0.21212474508E+02  0.82969994222E+01  0.36820922298E+02  0.00000000000E+00 0.  1.
         11    1    4    4    0    0  0.13403640047E+02  0.25003711021E+02 -0.31125876512E+01  0.28539995330E+02  0.51100000000E-03 0. -1.
        -11    1    4    4    0    0  0.14585081583E+02  0.57734689420E+01 -0.34431626834E+01  0.16059667429E+02  0.51100000000E-03 0.  1.
        -12    1    4    4    0    0  0.94173022861E+00 -0.95647054551E+01 -0.17412490876E+01  0.97674149421E+01  0.00000000000E+00 0.  1.
</event>
<event>
 8    1  0.1261983E-006  0.9118800E+02  0.7816164E-02  0.1184000E+00
        -11   -1    0    0    0    0  0.00000000000E+00  0.00000000000E+00  0.45593999997E+02  0.45594000000E+02  0.51100000000E-03 0.  1.
         11   -1    0    0    0    0 -0.00000000000E+00 -0.00000000000E+00 -0.45593999997E+02  0.45594000000E+02  0.51100000000E-03 0. -1.
         23    2    1    2    0    0  0.00000000000E+00  0.00000000000E+00 -0.17763568394E-14  0.91188000000E+02  0.91188000000E+02 0.  0.
    9900012    2    3    3    0    0  0.18480659868E+02 -0.28293825172E+02  0.14618614258E+02  0.54367092694E+02  0.40000019415E+02 0.  0.
         12    1    3    3    0    0 -0.18480659868E+02  0.28293825172E+02 -0.14618614258E+02  0.36820907306E+02  0.00000000000E+00 0. -1.
         11    1    4    4    0    0 -0.79522247009E+01 -0.16879011043E+02 -0.31557989064E+01  0.18923476385E+02  0.51100000000E-03 0. -1.
        -11    1    4    4    0    0  0.32641374149E+01  0.18335448562E+01  0.84510321013E+00  0.38380567348E+01  0.51100000000E-03 0.  1.
        -12    1    4    4    0    0  0.23168747154E+02 -0.13248358984E+02  0.16929309954E+02  0.31605559574E+02  0.00000000000E+00 0.  1.
</event>
<event>
 8    1  0.1261983E-006  0.9118800E+02  0.7816164E-02  0.1184000E+00
        -11   -1    0    0    0    0  0.00000000000E+00  0.00000000000E+00  0.45593999997E+02  0.45594000000E+02  0.51100000000E-03 0. -1.
         11   -1    0    0    0    0 -0.00000000000E+00 -0.00000000000E+00 -0.45593999997E+02  0.45594000000E+02  0.51100000000E-03 0.  1.
         23    2    1    2    0    0  0.00000000000E+00  0.00000000000E+00 -0.35527136788E-14  0.91188000000E+02  0.91188000000E+02 0.  0.
    9900012    2    3    3    0    0 -0.33152840825E+02  0.10340939107E+02  0.12236575484E+02  0.54367086704E+02  0.40000005759E+02 0.  0.
        -12    1    3    3    0    0  0.33152840825E+02 -0.10340939107E+02 -0.12236575484E+02  0.36820913296E+02  0.00000000000E+00 0.  1.
         11    1    4    4    0    0 -0.14396760605E+02  0.13802500037E+02  0.21690189482E+02  0.29465913242E+02  0.51100000000E-03 0. -1.
        -11    1    4    4    0    0 -0.69407172656E+01 -0.78082577200E+01 -0.43397512776E+01  0.11312642759E+02  0.51100000000E-03 0.  1.
        -12    1    4    4    0    0 -0.11815362955E+02  0.43466967908E+01 -0.51138627197E+01  0.13588530703E+02  0.00000000000E+00 0.  1.
</event>
<event>
 8    1  0.1261983E-006  0.9118800E+02  0.7816164E-02  0.1184000E+00
        -11   -1    0    0    0    0  0.00000000000E+00  0.00000000000E+00  0.45593999997E+02  0.45594000000E+02  0.51100000000E-03 0.  1.
         11   -1    0    0    0    0 -0.00000000000E+00 -0.00000000000E+00 -0.45593999997E+02  0.45594000000E+02  0.51100000000E-03 0. -1.
         23    2    1    2    0    0  0.00000000000E+00 -0.17763568394E-14  0.00000000000E+00  0.91188000000E+02  0.91188000000E+02 0.  0.
    9900012    2    3    3    0    0 -0.18758097134E+02  0.12509587035E+02 -0.29110555246E+02  0.54367076565E+02  0.39999982645E+02 0.  0.
        -12    1    3    3    0    0  0.18758097134E+02 -0.12509587035E+02  0.29110555246E+02  0.36820923435E+02  0.00000000000E+00 0.  1.
         11    1    4    4    0    0 -0.13415574796E+02 -0.20180754391E+01 -0.77108536706E+01  0.15604728136E+02  0.51100000000E-03 0.  1.
        -11    1    4    4    0    0 -0.62536748653E+01  0.18700544040E+02 -0.25903883922E+02  0.32555030321E+02  0.51100000000E-03 0. -1.
         12    1    4    4    0    0  0.91115252730E+00 -0.41728815654E+01  0.45041823465E+01  0.62073181083E+01  0.00000000000E+00 0. -1.
</event>
<event>
 8    1  0.1261983E-006  0.9118800E+02  0.7816164E-02  0.1184000E+00
        -11   -1    0    0    0    0  0.00000000000E+00  0.00000000000E+00  0.45593999997E+02  0.45594000000E+02  0.51100000000E-03 0. -1.
         11   -1    0    0    0    0 -0.00000000000E+00 -0.00000000000E+00 -0.45593999997E+02  0.45594000000E+02  0.51100000000E-03 0.  1.
         23    2    1    2    0    0  0.00000000000E+00  0.00000000000E+00  0.00000000000E+00  0.91188000000E+02  0.91188000000E+02 0.  0.
    9900012    2    3    3    0    0 -0.30065857064E+02  0.88501445826E+01  0.19326107966E+02  0.54367091955E+02  0.40000017730E+02 0.  0.
        -12    1    3    3    0    0  0.30065857064E+02 -0.88501445826E+01 -0.19326107966E+02  0.36820908045E+02  0.00000000000E+00 0.  1.
         11    1    4    4    0    0 -0.14752617618E+02 -0.25066333281E+01  0.64783800940E+00  0.14978071691E+02  0.51100000000E-03 0. -1.
        -11    1    4    4    0    0 -0.92594570679E+01  0.28522807262E+00 -0.64379013482E+01  0.11281200037E+02  0.51100000000E-03 0.  1.
        -12    1    4    4    0    0 -0.60537823782E+01  0.11071549838E+02  0.25116171305E+02  0.28107820227E+02  0.00000000000E+00 0.  1.
</event>
<event>
 8    1  0.1261983E-006  0.9118800E+02  0.7816164E-02  0.1184000E+00
        -11   -1    0    0    0    0  0.00000000000E+00  0.00000000000E+00  0.45593999997E+02  0.45594000000E+02  0.51100000000E-03 0.  1.
         11   -1    0    0    0    0 -0.00000000000E+00 -0.00000000000E+00 -0.45593999997E+02  0.45594000000E+02  0.51100000000E-03 0. -1.
         23    2    1    2    0    0  0.35527136788E-14  0.35527136788E-14  0.88817841970E-15  0.91188000000E+02  0.91188000000E+02 0.  0.
    9900012    2    3    3    0    0 -0.19529824082E+02 -0.31133558171E+02  0.22513241674E+01  0.54367069355E+02  0.39999966209E+02 0.  0.
         12    1    3    3    0    0  0.19529824082E+02  0.31133558171E+02 -0.22513241674E+01  0.36820930645E+02  0.00000000000E+00 0. -1.
         11    1    4    4    0    0 -0.19349733294E+02 -0.43316356018E+01  0.99055968307E+01  0.22165200075E+02  0.51100000000E-03 0. -1.
        -11    1    4    4    0    0 -0.42616724851E+01 -0.15520534649E+02 -0.11297039341E+02  0.19663975852E+02  0.51100000000E-03 0.  1.
        -12    1    4    4    0    0  0.40815816968E+01 -0.11281387920E+02  0.36427666780E+01  0.12537893428E+02  0.00000000000E+00 0.  1.
</event>
<event>
 8    1  0.1261983E-006  0.9118800E+02  0.7816164E-02  0.1184000E+00
        -11   -1    0    0    0    0  0.00000000000E+00  0.00000000000E+00  0.45593999997E+02  0.45594000000E+02  0.51100000000E-03 0.  1.
         11   -1    0    0    0    0 -0.00000000000E+00 -0.00000000000E+00 -0.45593999997E+02  0.45594000000E+02  0.51100000000E-03 0. -1.
         23    2    1    2    0    0  0.41633363423E-15 -0.71054273576E-14  0.26645352591E-14  0.91188000000E+02  0.91188000000E+02 0.  0.
    9900012    2    3    3    0    0 -0.13588322365E+00  0.36095924275E+02 -0.72697796751E+01  0.54367028937E+02  0.39999874068E+02 0.  0.
        -12    1    3    3    0    0  0.13588322365E+00 -0.36095924275E+02  0.72697796751E+01  0.36820971063E+02  0.00000000000E+00 0.  1.
         11    1    4    4    0    0 -0.73370942158E+01  0.99367488269E+01 -0.15632296153E+02  0.19923368492E+02  0.51100000000E-03 0. -1.
        -11    1    4    4    0    0  0.16067971545E+01  0.13543805489E+02  0.13991924283E+02  0.19539457762E+02  0.51100000000E-03 0.  1.
        -12    1    4    4    0    0  0.55944138376E+01  0.12615369959E+02 -0.56294078054E+01  0.14904202683E+02  0.00000000000E+00 0.  1.
</event>
<event>
 8    1  0.1261983E-006  0.9118800E+02  0.7816164E-02  0.1184000E+00
        -11   -1    0    0    0    0  0.00000000000E+00  0.00000000000E+00  0.45593999997E+02  0.45594000000E+02  0.51100000000E-03 0.  1.
         11   -1    0    0    0    0 -0.00000000000E+00 -0.00000000000E+00 -0.45593999997E+02  0.45594000000E+02  0.51100000000E-03 0. -1.
         23    2    1    2    0    0  0.00000000000E+00  0.00000000000E+00  0.17763568394E-14  0.91188000000E+02  0.91188000000E+02 0.  0.
    9900012    2    3    3    0    0  0.28563817494E+02 -0.18718629969E+02 -0.13765949874E+02  0.54367079945E+02  0.39999990350E+02 0.  0.
        -12    1    3    3    0    0 -0.28563817494E+02  0.18718629969E+02  0.13765949874E+02  0.36820920055E+02  0.00000000000E+00 0.  1.
         11    1    4    4    0    0  0.11243776613E+02 -0.11054557625E+02 -0.92598334949E+01  0.18285794307E+02  0.51100000000E-03 0. -1.
        -11    1    4    4    0    0  0.15893310445E+02 -0.13925093294E+01 -0.16198865929E+02  0.22736307017E+02  0.51100000000E-03 0.  1.
        -12    1    4    4    0    0  0.14267304371E+01 -0.62715630143E+01  0.11692749549E+02  0.13344978621E+02  0.00000000000E+00 0.  1.
</event>
<event>
 8    1  0.1261983E-006  0.9118800E+02  0.7816164E-02  0.1184000E+00
        -11   -1    0    0    0    0  0.00000000000E+00  0.00000000000E+00  0.45593999997E+02  0.45594000000E+02  0.51100000000E-03 0. -1.
         11   -1    0    0    0    0 -0.00000000000E+00 -0.00000000000E+00 -0.45593999997E+02  0.45594000000E+02  0.51100000000E-03 0.  1.
         23    2    1    2    0    0 -0.71054273576E-14  0.00000000000E+00  0.35527136788E-14  0.91188000000E+02  0.91188000000E+02 0.  0.
    9900012    2    3    3    0    0 -0.24808608343E+02  0.76814295198E+01  0.26101897735E+02  0.54367075613E+02  0.39999980475E+02 0.  0.
        -12    1    3    3    0    0  0.24808608343E+02 -0.76814295198E+01 -0.26101897735E+02  0.36820924387E+02  0.00000000000E+00 0.  1.
         11    1    4    4    0    0 -0.41632216986E+01  0.62921018655E+01  0.11721342795E+02  0.13939613982E+02  0.51100000000E-03 0. -1.
        -11    1    4    4    0    0  0.44115804931E+01  0.88193204107E+01 -0.13039159673E+01  0.99469921114E+01  0.51100000000E-03 0.  1.
         12    1    4    4    0    0 -0.25056967137E+02 -0.74299927565E+01  0.15684470907E+02  0.30480469519E+02  0.00000000000E+00 0. -1.
</event>
<event>
 8    1  0.1261983E-006  0.9118800E+02  0.7816164E-02  0.1184000E+00
        -11   -1    0    0    0    0  0.00000000000E+00  0.00000000000E+00  0.45593999997E+02  0.45594000000E+02  0.51100000000E-03 0. -1.
         11   -1    0    0    0    0 -0.00000000000E+00 -0.00000000000E+00 -0.45593999997E+02  0.45594000000E+02  0.51100000000E-03 0.  1.
         23    2    1    2    0    0 -0.35527136788E-14 -0.35527136788E-14  0.00000000000E+00  0.91188000000E+02  0.91188000000E+02 0.  0.
    9900012    2    3    3    0    0  0.26366934937E+02  0.19944922558E+02 -0.16210020386E+02  0.54367082647E+02  0.39999996510E+02 0.  0.
         12    1    3    3    0    0 -0.26366934937E+02 -0.19944922558E+02  0.16210020386E+02  0.36820917353E+02  0.00000000000E+00 0. -1.
         11    1    4    4    0    0 -0.87176147024E+01  0.24856123297E+01 -0.10464571871E+01  0.91252478135E+01  0.51100000000E-03 0. -1.
        -11    1    4    4    0    0  0.25893236606E+02  0.47708822990E+01 -0.57038106628E+01  0.26939830663E+02  0.51100000000E-03 0.  1.
        -12    1    4    4    0    0  0.91913130334E+01  0.12688427929E+02 -0.94597525362E+01  0.18302004170E+02  0.00000000000E+00 0.  1.
</event>
<event>
 8    1  0.1261983E-006  0.9118800E+02  0.7816164E-02  0.1184000E+00
        -11   -1    0    0    0    0  0.00000000000E+00  0.00000000000E+00  0.45593999997E+02  0.45594000000E+02  0.51100000000E-03 0. -1.
         11   -1    0    0    0    0 -0.00000000000E+00 -0.00000000000E+00 -0.45593999997E+02  0.45594000000E+02  0.51100000000E-03 0.  1.
         23    2    1    2    0    0  0.35527136788E-14 -0.71054273576E-14 -0.88817841970E-15  0.91188000000E+02  0.91188000000E+02 0.  0.
    9900012    2    3    3    0    0 -0.15143095132E+02  0.33290390478E+02  0.42684096006E+01  0.54367044704E+02  0.39999910012E+02 0.  0.
         12    1    3    3    0    0  0.15143095132E+02 -0.33290390478E+02 -0.42684096006E+01  0.36820955296E+02  0.00000000000E+00 0. -1.
         11    1    4    4    0    0  0.31009499169E+01 -0.47614328613E+01  0.67665366451E+01  0.88359012959E+01  0.51100000000E-03 0. -1.
        -11    1    4    4    0    0 -0.20086158649E+01 -0.14289407106E+01  0.10832188009E+01  0.26925401536E+01  0.51100000000E-03 0.  1.
        -12    1    4    4    0    0 -0.16235429184E+02  0.39480764050E+02 -0.35813458454E+01  0.42838603255E+02  0.00000000000E+00 0.  1.
</event>
<event>
 8    1  0.1261983E-006  0.9118800E+02  0.7816164E-02  0.1184000E+00
        -11   -1    0    0    0    0  0.00000000000E+00  0.00000000000E+00  0.45593999997E+02  0.45594000000E+02  0.51100000000E-03 0.  1.
         11   -1    0    0    0    0 -0.00000000000E+00 -0.00000000000E+00 -0.45593999997E+02  0.45594000000E+02  0.51100000000E-03 0. -1.
         23    2    1    2    0    0  0.71054273576E-14  0.00000000000E+00 -0.17763568394E-14  0.91188000000E+02  0.91188000000E+02 0.  0.
    9900012    2    3    3    0    0 -0.34937896851E+02  0.59787866895E+01  0.99686376395E+01  0.54367132777E+02  0.40000110792E+02 0.  0.
        -12    1    3    3    0    0  0.34937896851E+02 -0.59787866895E+01 -0.99686376395E+01  0.36820867223E+02  0.00000000000E+00 0.  1.
         11    1    4    4    0    0  0.10165866184E+01  0.32701374989E+01  0.21129552703E+01  0.40239070379E+01  0.51100000000E-03 0.  1.
        -11    1    4    4    0    0  0.92943450116E+00 -0.55637175371E+01  0.11051836707E+02  0.12408138304E+02  0.51100000000E-03 0. -1.
         12    1    4    4    0    0 -0.36883917971E+02  0.82723667277E+01 -0.31961543376E+01  0.37935087435E+02  0.00000000000E+00 0. -1.
</event>
<event>
 8    1  0.1261983E-006  0.9118800E+02  0.7816164E-02  0.1184000E+00
        -11   -1    0    0    0    0  0.00000000000E+00  0.00000000000E+00  0.45593999997E+02  0.45594000000E+02  0.51100000000E-03 0.  1.
         11   -1    0    0    0    0 -0.00000000000E+00 -0.00000000000E+00 -0.45593999997E+02  0.45594000000E+02  0.51100000000E-03 0. -1.
         23    2    1    2    0    0 -0.88817841970E-15 -0.35527136788E-14 -0.71054273576E-14  0.91188000000E+02  0.91188000000E+02 0.  0.
    9900012    2    3    3    0    0 -0.47487524581E+01  0.27010193890E+02  0.24569891744E+02  0.54367071112E+02  0.39999970214E+02 0.  0.
         12    1    3    3    0    0  0.47487524581E+01 -0.27010193890E+02 -0.24569891744E+02  0.36820928888E+02  0.00000000000E+00 0. -1.
         11    1    4    4    0    0  0.89248866713E+00  0.14539859755E+02  0.28007631829E+01  0.14834026169E+02  0.51100000000E-03 0. -1.
        -11    1    4    4    0    0  0.81165322056E+01  0.12830528086E+01  0.20109133467E+02  0.21723295529E+02  0.51100000000E-03 0.  1.
         12    1    4    4    0    0 -0.13757773331E+02  0.11187281327E+02  0.16599950933E+01  0.17809749415E+02  0.00000000000E+00 0. -1.
</event>
<event>
 8    1  0.1261983E-006  0.9118800E+02  0.7816164E-02  0.1184000E+00
        -11   -1    0    0    0    0  0.00000000000E+00  0.00000000000E+00  0.45593999997E+02  0.45594000000E+02  0.51100000000E-03 0.  1.
         11   -1    0    0    0    0 -0.00000000000E+00 -0.00000000000E+00 -0.45593999997E+02  0.45594000000E+02  0.51100000000E-03 0. -1.
         23    2    1    2    0    0  0.17763568394E-14  0.71054273576E-14 -0.35527136788E-14  0.91188000000E+02  0.91188000000E+02 0.  0.
    9900012    2    3    3    0    0  0.10242676241E+02 -0.34219312229E+02  0.89393372802E+01  0.54367007387E+02  0.39999824940E+02 0.  0.
        -12    1    3    3    0    0 -0.10242676241E+02  0.34219312229E+02 -0.89393372802E+01  0.36820992613E+02  0.00000000000E+00 0.  1.
         11    1    4    4    0    0  0.38267485239E+01 -0.27109227395E+01 -0.77249358857E+01  0.90370205855E+01  0.51100000000E-03 0. -1.
        -11    1    4    4    0    0 -0.23867282344E+01  0.25565616846E+01 -0.33574374285E+01  0.48481816859E+01  0.51100000000E-03 0.  1.
        -12    1    4    4    0    0  0.88026559519E+01 -0.34064951174E+02  0.20021710594E+02  0.40481805116E+02  0.00000000000E+00 0.  1.
</event>
<event>
 8    1  0.1261983E-006  0.9118800E+02  0.7816164E-02  0.1184000E+00
        -11   -1    0    0    0    0  0.00000000000E+00  0.00000000000E+00  0.45593999997E+02  0.45594000000E+02  0.51100000000E-03 0.  1.
         11   -1    0    0    0    0 -0.00000000000E+00 -0.00000000000E+00 -0.45593999997E+02  0.45594000000E+02  0.51100000000E-03 0. -1.
         23    2    1    2    0    0 -0.17763568394E-14  0.35527136788E-14  0.00000000000E+00  0.91188000000E+02  0.91188000000E+02 0.  0.
    9900012    2    3    3    0    0 -0.98300834379E+01  0.11093561019E+02 -0.33705815446E+02  0.54367087038E+02  0.40000006520E+02 0.  0.
        -12    1    3    3    0    0  0.98300834379E+01 -0.11093561019E+02  0.33705815446E+02  0.36820912962E+02  0.00000000000E+00 0.  1.
         11    1    4    4    0    0 -0.85524769432E+01 -0.70372587806E+01 -0.25500395397E+01  0.11365323353E+02  0.51100000000E-03 0. -1.
        -11    1    4    4    0    0  0.22381035701E+01  0.81138769926E+01  0.16008938174E+01  0.85677866872E+01  0.51100000000E-03 0.  1.
         12    1    4    4    0    0 -0.35157100648E+01  0.10016942807E+02 -0.32756669724E+02  0.34433976997E+02  0.00000000000E+00 0. -1.
</event>
<event>
 8    1  0.1261983E-006  0.9118800E+02  0.7816164E-02  0.1184000E+00
        -11   -1    0    0    0    0  0.00000000000E+00  0.00000000000E+00  0.45593999997E+02  0.45594000000E+02  0.51100000000E-03 0.  1.
         11   -1    0    0    0    0 -0.00000000000E+00 -0.00000000000E+00 -0.45593999997E+02  0.45594000000E+02  0.51100000000E-03 0. -1.
         23    2    1    2    0    0  0.35527136788E-14  0.17763568394E-14 -0.17763568394E-14  0.91188000000E+02  0.91188000000E+02 0.  0.
    9900012    2    3    3    0    0  0.30491051930E+02  0.13340446720E+02 -0.15751342357E+02  0.54367128846E+02  0.40000101829E+02 0.  0.
        -12    1    3    3    0    0 -0.30491051930E+02 -0.13340446720E+02  0.15751342357E+02  0.36820871154E+02  0.00000000000E+00 0.  1.
         11    1    4    4    0    0  0.18210180039E+02 -0.71947355595E+00 -0.16193320214E+02  0.24379333852E+02  0.51100000000E-03 0. -1.
        -11    1    4    4    0    0  0.11160641729E+02  0.66117491455E+01  0.11007140679E+02  0.17012709859E+02  0.51100000000E-03 0.  1.
        -12    1    4    4    0    0  0.11202301626E+01  0.74481711306E+01 -0.10565162822E+02  0.12975085135E+02  0.00000000000E+00 0.  1.
</event>
<event>
 8    1  0.1261983E-006  0.9118800E+02  0.7816164E-02  0.1184000E+00
        -11   -1    0    0    0    0  0.00000000000E+00  0.00000000000E+00  0.45593999997E+02  0.45594000000E+02  0.51100000000E-03 0.  1.
         11   -1    0    0    0    0 -0.00000000000E+00 -0.00000000000E+00 -0.45593999997E+02  0.45594000000E+02  0.51100000000E-03 0. -1.
         23    2    1    2    0    0  0.00000000000E+00  0.00000000000E+00  0.00000000000E+00  0.91188000000E+02  0.91188000000E+02 0.  0.
    9900012    2    3    3    0    0 -0.14883666622E+02 -0.22008657563E+02  0.25492622033E+02  0.54367104873E+02  0.40000047179E+02 0.  0.
         12    1    3    3    0    0  0.14883666622E+02  0.22008657563E+02 -0.25492622033E+02  0.36820895127E+02  0.00000000000E+00 0. -1.
         11    1    4    4    0    0 -0.10979162906E+02 -0.22225788801E+02  0.77926638039E+01  0.25985636713E+02  0.51100000000E-03 0. -1.
        -11    1    4    4    0    0 -0.19546222969E+01 -0.10419836904E+02  0.12474622322E+02  0.16371003383E+02  0.51100000000E-03 0.  1.
         12    1    4    4    0    0 -0.19498814187E+01  0.10636968142E+02  0.52253359077E+01  0.12010464777E+02  0.00000000000E+00 0. -1.
</event>
<event>
 8    1  0.1261983E-006  0.9118800E+02  0.7816164E-02  0.1184000E+00
        -11   -1    0    0    0    0  0.00000000000E+00  0.00000000000E+00  0.45593999997E+02  0.45594000000E+02  0.51100000000E-03 0.  1.
         11   -1    0    0    0    0 -0.00000000000E+00 -0.00000000000E+00 -0.45593999997E+02  0.45594000000E+02  0.51100000000E-03 0. -1.
         23    2    1    2    0    0  0.00000000000E+00  0.00000000000E+00 -0.35527136788E-14  0.91188000000E+02  0.91188000000E+02 0.  0.
    9900012    2    3    3    0    0  0.27517028714E+02  0.16490686067E+02 -0.18073445570E+02  0.54367095191E+02  0.40000025106E+02 0.  0.
        -12    1    3    3    0    0 -0.27517028714E+02 -0.16490686067E+02  0.18073445570E+02  0.36820904809E+02  0.00000000000E+00 0.  1.
         11    1    4    4    0    0  0.10032607690E+02  0.15319118675E+02  0.53118382762E-01  0.18312057117E+02  0.51100000000E-03 0. -1.
        -11    1    4    4    0    0  0.24907732463E+01  0.22073835247E+01 -0.20562004377E+02  0.20829606757E+02  0.51100000000E-03 0.  1.
         12    1    4    4    0    0  0.14993647778E+02 -0.10358161325E+01  0.24354404237E+01  0.15225431317E+02  0.00000000000E+00 0. -1.
</event>
<event>
 8    1  0.1261983E-006  0.9118800E+02  0.7816164E-02  0.1184000E+00
        -11   -1    0    0    0    0  0.00000000000E+00  0.00000000000E+00  0.45593999997E+02  0.45594000000E+02  0.51100000000E-03 0.  1.
         11   -1    0    0    0    0 -0.00000000000E+00 -0.00000000000E+00 -0.45593999997E+02  0.45594000000E+02  0.51100000000E-03 0. -1.
         23    2    1    2    0    0  0.00000000000E+00  0.44408920985E-15  0.00000000000E+00  0.91188000000E+02  0.91188000000E+02 0.  0.
    9900012    2    3    3    0    0  0.96548178462E+01  0.33428596249E+01 -0.35374971461E+02  0.54367098001E+02  0.40000031513E+02 0.  0.
        -12    1    3    3    0    0 -0.96548178462E+01 -0.33428596249E+01  0.35374971461E+02  0.36820901999E+02  0.00000000000E+00 0.  1.
         11    1    4    4    0    0  0.34453162493E+01 -0.94642626799E+01 -0.17578258746E+02  0.20259260918E+02  0.51100000000E-03 0. -1.
        -11    1    4    4    0    0  0.51634584523E+01  0.21431886701E+01 -0.21923813524E+02  0.22625387523E+02  0.51100000000E-03 0.  1.
        -12    1    4    4    0    0  0.10460431446E+01  0.10663933635E+02  0.41271008087E+01  0.11482449561E+02  0.00000000000E+00 0.  1.
</event>
<event>
 8    1  0.1261983E-006  0.9118800E+02  0.7816164E-02  0.1184000E+00
        -11   -1    0    0    0    0  0.00000000000E+00  0.00000000000E+00  0.45593999997E+02  0.45594000000E+02  0.51100000000E-03 0. -1.
         11   -1    0    0    0    0 -0.00000000000E+00 -0.00000000000E+00 -0.45593999997E+02  0.45594000000E+02  0.51100000000E-03 0.  1.
         23    2    1    2    0    0  0.00000000000E+00  0.00000000000E+00 -0.17763568394E-14  0.91188000000E+02  0.91188000000E+02 0.  0.
    9900012    2    3    3    0    0  0.35969602146E+02 -0.50661683389E+01 -0.60246640301E+01  0.54367151057E+02  0.40000152464E+02 0.  0.
        -12    1    3    3    0    0 -0.35969602146E+02  0.50661683389E+01  0.60246640301E+01  0.36820848943E+02  0.00000000000E+00 0.  1.
         11    1    4    4    0    0  0.15720638536E+02 -0.35345716219E+01  0.14153754568E+02  0.21446688349E+02  0.51100000000E-03 0. -1.
        -11    1    4    4    0    0  0.20208305373E+02 -0.37518567420E+00 -0.22549592016E+02  0.30282015632E+02  0.51100000000E-03 0.  1.
        -12    1    4    4    0    0  0.40658237332E-01 -0.11564110428E+01  0.23711734186E+01  0.26384470761E+01  0.00000000000E+00 0.  1.
</event>
<event>
 8    1  0.1261983E-006  0.9118800E+02  0.7816164E-02  0.1184000E+00
        -11   -1    0    0    0    0  0.00000000000E+00  0.00000000000E+00  0.45593999997E+02  0.45594000000E+02  0.51100000000E-03 0.  1.
         11   -1    0    0    0    0 -0.00000000000E+00 -0.00000000000E+00 -0.45593999997E+02  0.45594000000E+02  0.51100000000E-03 0. -1.
         23    2    1    2    0    0  0.00000000000E+00 -0.35527136788E-14  0.00000000000E+00  0.91188000000E+02  0.91188000000E+02 0.  0.
    9900012    2    3    3    0    0 -0.31317964188E+02 -0.17238093465E+02 -0.88208786448E+01  0.54367154719E+02  0.40000160812E+02 0.  0.
        -12    1    3    3    0    0  0.31317964188E+02  0.17238093465E+02  0.88208786448E+01  0.36820845281E+02  0.00000000000E+00 0.  1.
         11    1    4    4    0    0 -0.13184754109E+02 -0.78574423949E+01  0.83880969647E+01  0.17491063800E+02  0.51100000000E-03 0. -1.
        -11    1    4    4    0    0 -0.21678342022E+02 -0.10248819369E+02 -0.20809324400E+02  0.31749280204E+02  0.51100000000E-03 0.  1.
        -12    1    4    4    0    0  0.35451319433E+01  0.86816829878E+00  0.36003487901E+01  0.51268107144E+01  0.00000000000E+00 0.  1.
</event>
<event>
 8    1  0.1261983E-006  0.9118800E+02  0.7816164E-02  0.1184000E+00
        -11   -1    0    0    0    0  0.00000000000E+00  0.00000000000E+00  0.45593999997E+02  0.45594000000E+02  0.51100000000E-03 0. -1.
         11   -1    0    0    0    0 -0.00000000000E+00 -0.00000000000E+00 -0.45593999997E+02  0.45594000000E+02  0.51100000000E-03 0.  1.
         23    2    1    2    0    0  0.00000000000E+00  0.00000000000E+00 -0.53290705182E-14  0.91188000000E+02  0.91188000000E+02 0.  0.
    9900012    2    3    3    0    0 -0.20404395123E+02 -0.26418809510E+02 -0.15539856709E+02  0.54367082266E+02  0.39999995641E+02 0.  0.
         12    1    3    3    0    0  0.20404395123E+02  0.26418809510E+02  0.15539856709E+02  0.36820917734E+02  0.00000000000E+00 0. -1.
         11    1    4    4    0    0 -0.99843034890E+01  0.61007270326E+01 -0.35427869064E+01  0.12225241340E+02  0.51100000000E-03 0. -1.
        -11    1    4    4    0    0  0.34027346563E+01 -0.82934525690E+01  0.41874435183E+01  0.98941721299E+01  0.51100000000E-03 0.  1.
        -12    1    4    4    0    0 -0.13822826291E+02 -0.24226083974E+02 -0.16184513321E+02  0.32247668796E+02  0.00000000000E+00 0.  1.
</event>
<event>
 8    1  0.1261983E-006  0.9118800E+02  0.7816164E-02  0.1184000E+00
        -11   -1    0    0    0    0  0.00000000000E+00  0.00000000000E+00  0.45593999997E+02  0.45594000000E+02  0.51100000000E-03 0. -1.
         11   -1    0    0    0    0 -0.00000000000E+00 -0.00000000000E+00 -0.45593999997E+02  0.45594000000E+02  0.51100000000E-03 0.  1.
         23    2    1    2    0    0 -0.35527136788E-14  0.17763568394E-14  0.00000000000E+00  0.91188000000E+02  0.91188000000E+02 0.  0.
    9900012    2    3    3    0    0  0.14968333231E+02 -0.11296971282E+02  0.31687641767E+02  0.54367092887E+02  0.40000019855E+02 0.  0.
        -12    1    3    3    0    0 -0.14968333231E+02  0.11296971282E+02 -0.31687641767E+02  0.36820907113E+02  0.00000000000E+00 0.  1.
         11    1    4    4    0    0  0.18468964601E+01  0.10787308243E+02  0.60030091521E+01  0.12482514363E+02  0.51100000000E-03 0. -1.
        -11    1    4    4    0    0 -0.51226172906E+01 -0.74983499852E+01  0.11123637488E+02  0.14359727422E+02  0.51100000000E-03 0.  1.
         12    1    4    4    0    0  0.18244054061E+02 -0.14585929540E+02  0.14560995126E+02  0.27524851103E+02  0.00000000000E+00 0. -1.
</event>
<event>
 8    1  0.1261983E-006  0.9118800E+02  0.7816164E-02  0.1184000E+00
        -11   -1    0    0    0    0  0.00000000000E+00  0.00000000000E+00  0.45593999997E+02  0.45594000000E+02  0.51100000000E-03 0. -1.
         11   -1    0    0    0    0 -0.00000000000E+00 -0.00000000000E+00 -0.45593999997E+02  0.45594000000E+02  0.51100000000E-03 0.  1.
         23    2    1    2    0    0  0.00000000000E+00  0.00000000000E+00  0.00000000000E+00  0.91188000000E+02  0.91188000000E+02 0.  0.
    9900012    2    3    3    0    0 -0.22363524496E+02  0.13369590647E+02 -0.26017366307E+02  0.54367129132E+02  0.40000102483E+02 0.  0.
         12    1    3    3    0    0  0.22363524496E+02 -0.13369590647E+02  0.26017366307E+02  0.36820870868E+02  0.00000000000E+00 0. -1.
         11    1    4    4    0    0 -0.12595508719E+02 -0.58634563521E+01 -0.14936583945E+02  0.20399227939E+02  0.51100000000E-03 0. -1.
        -11    1    4    4    0    0 -0.12513510363E+02  0.24427361382E+01 -0.11175631170E+02  0.16954339673E+02  0.51100000000E-03 0.  1.
         12    1    4    4    0    0  0.27454945868E+01  0.16790310860E+02  0.94848807714E-01  0.17013561521E+02  0.00000000000E+00 0. -1.
</event>
<event>
 8    1  0.1261983E-006  0.9118800E+02  0.7816164E-02  0.1184000E+00
        -11   -1    0    0    0    0  0.00000000000E+00  0.00000000000E+00  0.45593999997E+02  0.45594000000E+02  0.51100000000E-03 0.  1.
         11   -1    0    0    0    0 -0.00000000000E+00 -0.00000000000E+00 -0.45593999997E+02  0.45594000000E+02  0.51100000000E-03 0. -1.
         23    2    1    2    0    0  0.00000000000E+00  0.00000000000E+00  0.35527136788E-14  0.91188000000E+02  0.91188000000E+02 0.  0.
    9900012    2    3    3    0    0 -0.84718179383E+01  0.22265822956E+02 -0.28075662852E+02  0.54367062809E+02  0.39999951286E+02 0.  0.
        -12    1    3    3    0    0  0.84718179383E+01 -0.22265822956E+02  0.28075662852E+02  0.36820937191E+02  0.00000000000E+00 0.  1.
         11    1    4    4    0    0 -0.67692821750E+01  0.12213471785E+02 -0.16424216395E+02  0.21557990599E+02  0.51100000000E-03 0. -1.
        -11    1    4    4    0    0 -0.11363693867E+02  0.65116068353E+01  0.43363545225E+01  0.13796323158E+02  0.51100000000E-03 0.  1.
         12    1    4    4    0    0  0.96611581039E+01  0.35407443349E+01 -0.15987800979E+02  0.19012749052E+02  0.00000000000E+00 0. -1.
</event>
<event>
 8    1  0.1261983E-006  0.9118800E+02  0.7816164E-02  0.1184000E+00
        -11   -1    0    0    0    0  0.00000000000E+00  0.00000000000E+00  0.45593999997E+02  0.45594000000E+02  0.51100000000E-03 0.  1.
         11   -1    0    0    0    0 -0.00000000000E+00 -0.00000000000E+00 -0.45593999997E+02  0.45594000000E+02  0.51100000000E-03 0. -1.
         23    2    1    2    0    0  0.00000000000E+00  0.17763568394E-14  0.00000000000E+00  0.91188000000E+02  0.91188000000E+02 0.  0.
    9900012    2    3    3    0    0 -0.88807920149E+01 -0.13623857366E+02  0.33034863648E+02  0.54367079688E+02  0.39999989765E+02 0.  0.
         12    1    3    3    0    0  0.88807920149E+01  0.13623857366E+02 -0.33034863648E+02  0.36820920312E+02  0.00000000000E+00 0. -1.
         11    1    4    4    0    0 -0.13270095295E+02 -0.15311773916E+02  0.10994193379E+01  0.20291736563E+02  0.51100000000E-03 0. -1.
        -11    1    4    4    0    0  0.50209411668E+01  0.53569796254E+01  0.26417876286E+02  0.27419177023E+02  0.51100000000E-03 0.  1.
         12    1    4    4    0    0 -0.63163788631E+00 -0.36690630757E+01  0.55175680241E+01  0.66561661017E+01  0.00000000000E+00 0. -1.
</event>
<event>
 8    1  0.1261983E-006  0.9118800E+02  0.7816164E-02  0.1184000E+00
        -11   -1    0    0    0    0  0.00000000000E+00  0.00000000000E+00  0.45593999997E+02  0.45594000000E+02  0.51100000000E-03 0.  1.
         11   -1    0    0    0    0 -0.00000000000E+00 -0.00000000000E+00 -0.45593999997E+02  0.45594000000E+02  0.51100000000E-03 0. -1.
         23    2    1    2    0    0  0.35527136788E-14  0.35527136788E-14  0.00000000000E+00  0.91188000000E+02  0.91188000000E+02 0.  0.
    9900012    2    3    3    0    0 -0.19266737109E+02 -0.27771829420E+02  0.14604736043E+02  0.54367082262E+02  0.39999995632E+02 0.  0.
        -12    1    3    3    0    0  0.19266737109E+02  0.27771829420E+02 -0.14604736043E+02  0.36820917738E+02  0.00000000000E+00 0.  1.
         11    1    4    4    0    0  0.56308520979E+01 -0.15528720492E+02  0.74987813554E-01  0.16518271063E+02  0.51100000000E-03 0. -1.
        -11    1    4    4    0    0  0.21782148155E+01  0.26384256056E+01  0.38702426803E+01  0.51657224203E+01  0.51100000000E-03 0.  1.
        -12    1    4    4    0    0 -0.27075804023E+02 -0.14881534534E+02  0.10659505549E+02  0.32683088779E+02  0.00000000000E+00 0.  1.
</event>
<event>
 8    1  0.1261983E-006  0.9118800E+02  0.7816164E-02  0.1184000E+00
        -11   -1    0    0    0    0  0.00000000000E+00  0.00000000000E+00  0.45593999997E+02  0.45594000000E+02  0.51100000000E-03 0. -1.
         11   -1    0    0    0    0 -0.00000000000E+00 -0.00000000000E+00 -0.45593999997E+02  0.45594000000E+02  0.51100000000E-03 0.  1.
         23    2    1    2    0    0 -0.35527136788E-14  0.00000000000E+00 -0.35527136788E-14  0.91188000000E+02  0.91188000000E+02 0.  0.
    9900012    2    3    3    0    0  0.25808193539E+02 -0.17433667362E+02  0.19641387440E+02  0.54367085943E+02  0.40000004024E+02 0.  0.
        -12    1    3    3    0    0 -0.25808193539E+02  0.17433667362E+02 -0.19641387440E+02  0.36820914057E+02  0.00000000000E+00 0.  1.
         11    1    4    4    0    0  0.17961596627E+02 -0.73148025435E+01  0.24156723247E+01  0.19543816482E+02  0.51100000000E-03 0. -1.
        -11    1    4    4    0    0  0.44502245876E+00 -0.13776093226E+02 -0.19738927686E+01  0.13923901841E+02  0.51100000000E-03 0.  1.
        -12    1    4    4    0    0  0.74015744530E+01  0.36572284077E+01  0.19199607884E+02  0.20899367620E+02  0.00000000000E+00 0.  1.
</event>
<event>
 8    1  0.1261983E-006  0.9118800E+02  0.7816164E-02  0.1184000E+00
        -11   -1    0    0    0    0  0.00000000000E+00  0.00000000000E+00  0.45593999997E+02  0.45594000000E+02  0.51100000000E-03 0.  1.
         11   -1    0    0    0    0 -0.00000000000E+00 -0.00000000000E+00 -0.45593999997E+02  0.45594000000E+02  0.51100000000E-03 0. -1.
         23    2    1    2    0    0 -0.88817841970E-15  0.00000000000E+00 -0.15543122345E-14  0.91188000000E+02  0.91188000000E+02 0.  0.
    9900012    2    3    3    0    0  0.52645850608E+01  0.36438708911E+02 -0.53245326261E+00  0.54367097384E+02  0.40000030107E+02 0.  0.
        -12    1    3    3    0    0 -0.52645850608E+01 -0.36438708911E+02  0.53245326261E+00  0.36820902616E+02  0.00000000000E+00 0.  1.
         11    1    4    4    0    0  0.75035654036E+01  0.37627359063E+01 -0.11335902232E+00  0.83949107080E+01  0.51100000000E-03 0. -1.
        -11    1    4    4    0    0 -0.68413905027E+00 -0.57042663547E+01  0.44311370416E+01  0.72554584023E+01  0.51100000000E-03 0.  1.
        -12    1    4    4    0    0 -0.15548412926E+01  0.38380239359E+02 -0.48502312819E+01  0.38716728274E+02  0.00000000000E+00 0.  1.
</event>
<event>
 8    1  0.1261983E-006  0.9118800E+02  0.7816164E-02  0.1184000E+00
        -11   -1    0    0    0    0  0.00000000000E+00  0.00000000000E+00  0.45593999997E+02  0.45594000000E+02  0.51100000000E-03 0. -1.
         11   -1    0    0    0    0 -0.00000000000E+00 -0.00000000000E+00 -0.45593999997E+02  0.45594000000E+02  0.51100000000E-03 0.  1.
         23    2    1    2    0    0  0.00000000000E+00  0.00000000000E+00  0.35527136788E-14  0.91188000000E+02  0.91188000000E+02 0.  0.
    9900012    2    3    3    0    0 -0.11528158264E+02 -0.14886333280E+02  0.31642998317E+02  0.54367072608E+02  0.39999973626E+02 0.  0.
        -12    1    3    3    0    0  0.11528158264E+02  0.14886333280E+02 -0.31642998317E+02  0.36820927392E+02  0.00000000000E+00 0.  1.
         11    1    4    4    0    0 -0.44741597196E+01 -0.12543312394E+01  0.14574857172E+02  0.15297644064E+02  0.51100000000E-03 0. -1.
        -11    1    4    4    0    0  0.22181400967E+01  0.89521032946E+01 -0.10081735375E+00  0.92233650739E+01  0.51100000000E-03 0.  1.
         12    1    4    4    0    0 -0.92721386414E+01 -0.22584105335E+02  0.17168958499E+02  0.29846063471E+02  0.00000000000E+00 0. -1.
</event>
<event>
 8    1  0.1261983E-006  0.9118800E+02  0.7816164E-02  0.1184000E+00
        -11   -1    0    0    0    0  0.00000000000E+00  0.00000000000E+00  0.45593999997E+02  0.45594000000E+02  0.51100000000E-03 0.  1.
         11   -1    0    0    0    0 -0.00000000000E+00 -0.00000000000E+00 -0.45593999997E+02  0.45594000000E+02  0.51100000000E-03 0. -1.
         23    2    1    2    0    0  0.00000000000E+00  0.00000000000E+00 -0.35527136788E-14  0.91188000000E+02  0.91188000000E+02 0.  0.
    9900012    2    3    3    0    0 -0.23305767984E+02 -0.21445779451E+02 -0.18780309121E+02  0.54367078118E+02  0.39999986185E+02 0.  0.
        -12    1    3    3    0    0  0.23305767984E+02  0.21445779451E+02  0.18780309121E+02  0.36820921882E+02  0.00000000000E+00 0.  1.
         11    1    4    4    0    0 -0.46608489100E+01  0.38397956242E+01  0.52039260155E+01  0.79717243576E+01  0.51100000000E-03 0. -1.
        -11    1    4    4    0    0 -0.12371252697E+02 -0.14981065576E+02  0.13268988857E+00  0.19429303280E+02  0.51100000000E-03 0.  1.
         12    1    4    4    0    0 -0.62736663767E+01 -0.10304509499E+02 -0.24116925025E+02  0.26966050480E+02  0.00000000000E+00 0. -1.
</event>
<event>
 8    1  0.1261983E-006  0.9118800E+02  0.7816164E-02  0.1184000E+00
        -11   -1    0    0    0    0  0.00000000000E+00  0.00000000000E+00  0.45593999997E+02  0.45594000000E+02  0.51100000000E-03 0.  1.
         11   -1    0    0    0    0 -0.00000000000E+00 -0.00000000000E+00 -0.45593999997E+02  0.45594000000E+02  0.51100000000E-03 0. -1.
         23    2    1    2    0    0  0.35527136788E-14  0.11102230246E-15  0.00000000000E+00  0.91188000000E+02  0.91188000000E+02 0.  0.
    9900012    2    3    3    0    0  0.24822274127E+02 -0.52633845274E+00  0.27191157831E+02  0.54367063167E+02  0.39999952103E+02 0.  0.
         12    1    3    3    0    0 -0.24822274127E+02  0.52633845274E+00 -0.27191157831E+02  0.36820936833E+02  0.00000000000E+00 0. -1.
         11    1    4    4    0    0 -0.55253853917E+01  0.32318379303E+01  0.91162780182E+01  0.11139173457E+02  0.51100000000E-03 0. -1.
        -11    1    4    4    0    0  0.48337167750E+01  0.88135433571E+01  0.86574134989E+01  0.13266279551E+02  0.51100000000E-03 0.  1.
        -12    1    4    4    0    0  0.25513942744E+02 -0.12571719740E+02  0.94174663143E+01  0.29961610160E+02  0.00000000000E+00 0.  1.
</event>
<event>
 8    1  0.1261983E-006  0.9118800E+02  0.7816164E-02  0.1184000E+00
        -11   -1    0    0    0    0  0.00000000000E+00  0.00000000000E+00  0.45593999997E+02  0.45594000000E+02  0.51100000000E-03 0. -1.
         11   -1    0    0    0    0 -0.00000000000E+00 -0.00000000000E+00 -0.45593999997E+02  0.45594000000E+02  0.51100000000E-03 0.  1.
         23    2    1    2    0    0  0.00000000000E+00  0.17763568394E-14 -0.17763568394E-14  0.91188000000E+02  0.91188000000E+02 0.  0.
    9900012    2    3    3    0    0  0.32287462668E+02  0.10556821234E+02 -0.14207761821E+02  0.54366984044E+02  0.39999771724E+02 0.  0.
        -12    1    3    3    0    0 -0.32287462668E+02 -0.10556821234E+02  0.14207761821E+02  0.36821015956E+02  0.00000000000E+00 0.  1.
         11    1    4    4    0    0  0.78158376474E+01  0.32449427169E+01 -0.31484388200E+01  0.90293764253E+01  0.51100000000E-03 0. -1.
        -11    1    4    4    0    0 -0.63129062520E+01  0.11054199283E+02 -0.11497646605E+01  0.12781630028E+02  0.51100000000E-03 0.  1.
        -12    1    4    4    0    0  0.30784531273E+02 -0.37423207661E+01 -0.99095583400E+01  0.32555977591E+02  0.00000000000E+00 0.  1.
</event>
<event>
 8    1  0.1261983E-006  0.9118800E+02  0.7816164E-02  0.1184000E+00
        -11   -1    0    0    0    0  0.00000000000E+00  0.00000000000E+00  0.45593999997E+02  0.45594000000E+02  0.51100000000E-03 0. -1.
         11   -1    0    0    0    0 -0.00000000000E+00 -0.00000000000E+00 -0.45593999997E+02  0.45594000000E+02  0.51100000000E-03 0.  1.
         23    2    1    2    0    0  0.71054273576E-14  0.00000000000E+00  0.00000000000E+00  0.91188000000E+02  0.91188000000E+02 0.  0.
    9900012    2    3    3    0    0 -0.33941513204E+02  0.89607697964E+01  0.11110630126E+02  0.54367247486E+02  0.40000372292E+02 0.  0.
        -12    1    3    3    0    0  0.33941513204E+02 -0.89607697964E+01 -0.11110630126E+02  0.36820752514E+02  0.00000000000E+00 0.  1.
         11    1    4    4    0    0 -0.27371289135E+02  0.38152763678E+01  0.20192427941E+02  0.34226860053E+02  0.51100000000E-03 0. -1.
        -11    1    4    4    0    0 -0.13942388379E+00 -0.50328761736E+01  0.40658045587E-01  0.50349711952E+01  0.51100000000E-03 0.  1.
         12    1    4    4    0    0 -0.64308001845E+01  0.10178369602E+02 -0.91224558605E+01  0.15105416237E+02  0.00000000000E+00 0. -1.
</event>
<event>
 8    1  0.1261983E-006  0.9118800E+02  0.7816164E-02  0.1184000E+00
        -11   -1    0    0    0    0  0.00000000000E+00  0.00000000000E+00  0.45593999997E+02  0.45594000000E+02  0.51100000000E-03 0.  1.
         11   -1    0    0    0    0 -0.00000000000E+00 -0.00000000000E+00 -0.45593999997E+02  0.45594000000E+02  0.51100000000E-03 0. -1.
         23    2    1    2    0    0  0.00000000000E+00  0.17763568394E-14 -0.35527136788E-14  0.91188000000E+02  0.91188000000E+02 0.  0.
    9900012    2    3    3    0    0 -0.30435845034E+02  0.14448034076E+02 -0.14855766114E+02  0.54367080152E+02  0.39999990823E+02 0.  0.
         12    1    3    3    0    0  0.30435845034E+02 -0.14448034076E+02  0.14855766114E+02  0.36820919848E+02  0.00000000000E+00 0. -1.
         11    1    4    4    0    0 -0.24285928861E+02  0.10274193115E+02 -0.21536906569E+02  0.34047081073E+02  0.51100000000E-03 0. -1.
        -11    1    4    4    0    0  0.28640826642E+01 -0.34896040133E+01 -0.26651099587E+01  0.52424342656E+01  0.51100000000E-03 0.  1.
        -12    1    4    4    0    0 -0.90139988371E+01  0.76634449745E+01  0.93462504130E+01  0.15077564813E+02  0.00000000000E+00 0.  1.
</event>
<event>
 8    1  0.1261983E-006  0.9118800E+02  0.7816164E-02  0.1184000E+00
        -11   -1    0    0    0    0  0.00000000000E+00  0.00000000000E+00  0.45593999997E+02  0.45594000000E+02  0.51100000000E-03 0.  1.
         11   -1    0    0    0    0 -0.00000000000E+00 -0.00000000000E+00 -0.45593999997E+02  0.45594000000E+02  0.51100000000E-03 0. -1.
         23    2    1    2    0    0  0.35527136788E-14 -0.26645352591E-14  0.35527136788E-14  0.91188000000E+02  0.91188000000E+02 0.  0.
    9900012    2    3    3    0    0  0.30876081064E+02 -0.65723390373E+01  0.18953939643E+02  0.54367084065E+02  0.39999999744E+02 0.  0.
         12    1    3    3    0    0 -0.30876081064E+02  0.65723390373E+01 -0.18953939643E+02  0.36820915935E+02  0.00000000000E+00 0. -1.
         11    1    4    4    0    0  0.10428548696E+02  0.94160130032E+00  0.44384099735E+01  0.11372806349E+02  0.51100000000E-03 0. -1.
        -11    1    4    4    0    0  0.93430081219E+01  0.80495082056E+01  0.19648762706E+02  0.23198281386E+02  0.51100000000E-03 0.  1.
         12    1    4    4    0    0  0.11104524246E+02 -0.15563448543E+02 -0.51332330370E+01  0.19795996330E+02  0.00000000000E+00 0. -1.
</event>
<event>
 8    1  0.1261983E-006  0.9118800E+02  0.7816164E-02  0.1184000E+00
        -11   -1    0    0    0    0  0.00000000000E+00  0.00000000000E+00  0.45593999997E+02  0.45594000000E+02  0.51100000000E-03 0.  1.
         11   -1    0    0    0    0 -0.00000000000E+00 -0.00000000000E+00 -0.45593999997E+02  0.45594000000E+02  0.51100000000E-03 0. -1.
         23    2    1    2    0    0  0.00000000000E+00 -0.35527136788E-14  0.00000000000E+00  0.91188000000E+02  0.91188000000E+02 0.  0.
    9900012    2    3    3    0    0 -0.20478423687E+02  0.27848429901E+02 -0.12683836982E+02  0.54367073813E+02  0.39999976372E+02 0.  0.
        -12    1    3    3    0    0  0.20478423687E+02 -0.27848429901E+02  0.12683836982E+02  0.36820926187E+02  0.00000000000E+00 0.  1.
         11    1    4    4    0    0 -0.20872817239E+02  0.19758005503E+02 -0.21445399217E+02  0.35860262531E+02  0.51100000000E-03 0. -1.
        -11    1    4    4    0    0  0.12786553364E+01  0.65767693900E+01 -0.24689174259E+01  0.71403367285E+01  0.51100000000E-03 0.  1.
         12    1    4    4    0    0 -0.88426178498E+00  0.15136550078E+01  0.11230479661E+02  0.11366474554E+02  0.00000000000E+00 0. -1.
</event>
<event>
 8    1  0.1261983E-006  0.9118800E+02  0.7816164E-02  0.1184000E+00
        -11   -1    0    0    0    0  0.00000000000E+00  0.00000000000E+00  0.45593999997E+02  0.45594000000E+02  0.51100000000E-03 0.  1.
         11   -1    0    0    0    0 -0.00000000000E+00 -0.00000000000E+00 -0.45593999997E+02  0.45594000000E+02  0.51100000000E-03 0. -1.
         23    2    1    2    0    0  0.00000000000E+00  0.17763568394E-14  0.00000000000E+00  0.91188000000E+02  0.91188000000E+02 0.  0.
    9900012    2    3    3    0    0  0.33709565808E+02  0.11261217117E+02  0.96244126178E+01  0.54367093491E+02  0.40000021231E+02 0.  0.
         12    1    3    3    0    0 -0.33709565808E+02 -0.11261217117E+02 -0.96244126178E+01  0.36820906509E+02  0.00000000000E+00 0. -1.
         11    1    4    4    0    0  0.23103686112E+01  0.11308560081E+02  0.16949257198E+01  0.11665937925E+02  0.51100000000E-03 0. -1.
        -11    1    4    4    0    0  0.30459734061E+02 -0.97848871762E+01  0.77437312446E+01  0.32916633940E+02  0.51100000000E-03 0.  1.
        -12    1    4    4    0    0  0.93946313579E+00  0.97375442126E+01  0.18575565352E+00  0.97845216255E+01  0.00000000000E+00 0.  1.
</event>
<event>
 8    1  0.1261983E-006  0.9118800E+02  0.7816164E-02  0.1184000E+00
        -11   -1    0    0    0    0  0.00000000000E+00  0.00000000000E+00  0.45593999997E+02  0.45594000000E+02  0.51100000000E-03 0.  1.
         11   -1    0    0    0    0 -0.00000000000E+00 -0.00000000000E+00 -0.45593999997E+02  0.45594000000E+02  0.51100000000E-03 0. -1.
         23    2    1    2    0    0  0.00000000000E+00  0.17763568394E-14  0.00000000000E+00  0.91188000000E+02  0.91188000000E+02 0.  0.
    9900012    2    3    3    0    0 -0.24729814716E+02 -0.11169326067E+02 -0.24888995382E+02  0.54367086488E+02  0.40000005268E+02 0.  0.
        -12    1    3    3    0    0  0.24729814716E+02  0.11169326067E+02  0.24888995382E+02  0.36820913512E+02  0.00000000000E+00 0.  1.
         11    1    4    4    0    0 -0.25069240430E+01  0.96115620831E+01 -0.16408112050E+02  0.19180535320E+02  0.51100000000E-03 0. -1.
        -11    1    4    4    0    0 -0.24243079990E+02 -0.21044455493E+02 -0.77813579127E+01  0.33032492574E+02  0.51100000000E-03 0.  1.
        -12    1    4    4    0    0  0.20201893166E+01  0.26356734264E+00 -0.69952541873E+00  0.21540585949E+01  0.00000000000E+00 0.  1.
</event>
<event>
 8    1  0.1261983E-006  0.9118800E+02  0.7816164E-02  0.1184000E+00
        -11   -1    0    0    0    0  0.00000000000E+00  0.00000000000E+00  0.45593999997E+02  0.45594000000E+02  0.51100000000E-03 0. -1.
         11   -1    0    0    0    0 -0.00000000000E+00 -0.00000000000E+00 -0.45593999997E+02  0.45594000000E+02  0.51100000000E-03 0.  1.
         23    2    1    2    0    0  0.88817841970E-15  0.00000000000E+00  0.00000000000E+00  0.91188000000E+02  0.91188000000E+02 0.  0.
    9900012    2    3    3    0    0 -0.15915686954E+01 -0.30729608626E+02  0.20222242405E+02  0.54367068112E+02  0.39999963375E+02 0.  0.
        -12    1    3    3    0    0  0.15915686954E+01  0.30729608626E+02 -0.20222242405E+02  0.36820931888E+02  0.00000000000E+00 0.  1.
         11    1    4    4    0    0 -0.24607540015E+01 -0.17191174975E+02  0.28930617714E+02  0.33742739202E+02  0.51100000000E-03 0. -1.
        -11    1    4    4    0    0 -0.55380281799E+01 -0.77973668142E+01 -0.70034358260E+01  0.11853978192E+02  0.51100000000E-03 0.  1.
         12    1    4    4    0    0  0.64072134859E+01 -0.57410668367E+01 -0.17049394826E+01  0.87703507180E+01  0.00000000000E+00 0. -1.
</event>
<event>
 8    1  0.1261983E-006  0.9118800E+02  0.7816164E-02  0.1184000E+00
        -11   -1    0    0    0    0  0.00000000000E+00  0.00000000000E+00  0.45593999997E+02  0.45594000000E+02  0.51100000000E-03 0.  1.
         11   -1    0    0    0    0 -0.00000000000E+00 -0.00000000000E+00 -0.45593999997E+02  0.45594000000E+02  0.51100000000E-03 0. -1.
         23    2    1    2    0    0 -0.35527136788E-14  0.00000000000E+00 -0.17763568394E-14  0.91188000000E+02  0.91188000000E+02 0.  0.
    9900012    2    3    3    0    0  0.24708618912E+02  0.24841631998E+02  0.11320630770E+02  0.54367092761E+02  0.40000019567E+02 0.  0.
         12    1    3    3    0    0 -0.24708618912E+02 -0.24841631998E+02 -0.11320630770E+02  0.36820907239E+02  0.00000000000E+00 0. -1.
         11    1    4    4    0    0  0.12623704748E+02  0.93853866486E+01 -0.54282685324E+01  0.16640598055E+02  0.51100000000E-03 0. -1.
        -11    1    4    4    0    0 -0.89637371365E+01  0.37927824248E+01  0.44646443498E+01  0.10708259962E+02  0.51100000000E-03 0.  1.
        -12    1    4    4    0    0  0.21048651300E+02  0.11663462925E+02  0.12284254952E+02  0.27018234744E+02  0.00000000000E+00 0.  1.
</event>
<event>
 8    1  0.1261983E-006  0.9118800E+02  0.7816164E-02  0.1184000E+00
        -11   -1    0    0    0    0  0.00000000000E+00  0.00000000000E+00  0.45593999997E+02  0.45594000000E+02  0.51100000000E-03 0. -1.
         11   -1    0    0    0    0 -0.00000000000E+00 -0.00000000000E+00 -0.45593999997E+02  0.45594000000E+02  0.51100000000E-03 0.  1.
         23    2    1    2    0    0  0.71054273576E-14 -0.22204460493E-15 -0.17763568394E-14  0.91188000000E+02  0.91188000000E+02 0.  0.
    9900012    2    3    3    0    0 -0.35099883246E+02  0.14693492475E+01  0.11028146773E+02  0.54367071001E+02  0.39999969960E+02 0.  0.
        -12    1    3    3    0    0  0.35099883246E+02 -0.14693492475E+01 -0.11028146773E+02  0.36820928999E+02  0.00000000000E+00 0.  1.
         11    1    4    4    0    0 -0.12761220558E+02  0.19274409548E+01  0.21056209673E+02  0.24696715264E+02  0.51100000000E-03 0. -1.
        -11    1    4    4    0    0 -0.18212333654E+02 -0.65904935275E+01 -0.32446190561E+01  0.19638005376E+02  0.51100000000E-03 0.  1.
         12    1    4    4    0    0 -0.41263290340E+01  0.61324018202E+01 -0.67834438440E+01  0.10032350361E+02  0.00000000000E+00 0. -1.
</event>
<event>
 8    1  0.1261983E-006  0.9118800E+02  0.7816164E-02  0.1184000E+00
        -11   -1    0    0    0    0  0.00000000000E+00  0.00000000000E+00  0.45593999997E+02  0.45594000000E+02  0.51100000000E-03 0. -1.
         11   -1    0    0    0    0 -0.00000000000E+00 -0.00000000000E+00 -0.45593999997E+02  0.45594000000E+02  0.51100000000E-03 0.  1.
         23    2    1    2    0    0  0.00000000000E+00 -0.35527136788E-14  0.00000000000E+00  0.91188000000E+02  0.91188000000E+02 0.  0.
    9900012    2    3    3    0    0  0.45533124576E+01 -0.16058849610E+02 -0.32820124091E+02  0.54367084062E+02  0.39999999736E+02 0.  0.
         12    1    3    3    0    0 -0.45533124576E+01  0.16058849610E+02  0.32820124091E+02  0.36820915938E+02  0.00000000000E+00 0. -1.
         11    1    4    4    0    0  0.22155378497E+01  0.65820710650E+01 -0.12771293087E+02  0.14537475532E+02  0.51100000000E-03 0. -1.
        -11    1    4    4    0    0  0.77146945451E+01 -0.16886640056E+02 -0.24533822168E+02  0.30766598036E+02  0.51100000000E-03 0.  1.
         12    1    4    4    0    0 -0.53769199372E+01 -0.57542806195E+01  0.44849911642E+01  0.90630104933E+01  0.00000000000E+00 0. -1.
</event>
<event>
 8    1  0.1261983E-006  0.9118800E+02  0.7816164E-02  0.1184000E+00
        -11   -1    0    0    0    0  0.00000000000E+00  0.00000000000E+00  0.45593999997E+02  0.45594000000E+02  0.51100000000E-03 0. -1.
         11   -1    0    0    0    0 -0.00000000000E+00 -0.00000000000E+00 -0.45593999997E+02  0.45594000000E+02  0.51100000000E-03 0.  1.
         23    2    1    2    0    0  0.71054273576E-14 -0.88817841970E-15  0.17763568394E-14  0.91188000000E+02  0.91188000000E+02 0.  0.
    9900012    2    3    3    0    0 -0.35006577344E+02  0.68049192947E+01 -0.91658438306E+01  0.54367080986E+02  0.39999992723E+02 0.  0.
         12    1    3    3    0    0  0.35006577344E+02 -0.68049192947E+01  0.91658438306E+01  0.36820919014E+02  0.00000000000E+00 0. -1.
         11    1    4    4    0    0  0.19389444837E+01 -0.16909230665E+01  0.77241635007E+01  0.81413407111E+01  0.51100000000E-03 0. -1.
        -11    1    4    4    0    0 -0.10000234347E+02  0.55979704995E+01  0.38605119424E+01  0.12093201124E+02  0.51100000000E-03 0.  1.
         12    1    4    4    0    0 -0.26945287480E+02  0.28978718617E+01 -0.20750519274E+02  0.34132539150E+02  0.00000000000E+00 0. -1.
</event>
<event>
 8    1  0.1261983E-006  0.9118800E+02  0.7816164E-02  0.1184000E+00
        -11   -1    0    0    0    0  0.00000000000E+00  0.00000000000E+00  0.45593999997E+02  0.45594000000E+02  0.51100000000E-03 0.  1.
         11   -1    0    0    0    0 -0.00000000000E+00 -0.00000000000E+00 -0.45593999997E+02  0.45594000000E+02  0.51100000000E-03 0. -1.
         23    2    1    2    0    0  0.00000000000E+00  0.35527136788E-14  0.17763568394E-14  0.91188000000E+02  0.91188000000E+02 0.  0.
    9900012    2    3    3    0    0  0.16394242150E+02  0.29112664790E+02  0.15474538277E+02  0.54367085267E+02  0.40000002484E+02 0.  0.
        -12    1    3    3    0    0 -0.16394242150E+02 -0.29112664790E+02 -0.15474538277E+02  0.36820914733E+02  0.00000000000E+00 0.  1.
         11    1    4    4    0    0  0.83050424065E+01  0.81269829661E+01 -0.39081956053E+01  0.12259509560E+02  0.51100000000E-03 0. -1.
        -11    1    4    4    0    0 -0.80027209029E+01  0.19326458552E+02  0.83317826216E+01  0.22516086337E+02  0.51100000000E-03 0.  1.
         12    1    4    4    0    0  0.16091920647E+02  0.16592232718E+01  0.11050951261E+02  0.19591489370E+02  0.00000000000E+00 0. -1.
</event>
<event>
 8    1  0.1261983E-006  0.9118800E+02  0.7816164E-02  0.1184000E+00
        -11   -1    0    0    0    0  0.00000000000E+00  0.00000000000E+00  0.45593999997E+02  0.45594000000E+02  0.51100000000E-03 0.  1.
         11   -1    0    0    0    0 -0.00000000000E+00 -0.00000000000E+00 -0.45593999997E+02  0.45594000000E+02  0.51100000000E-03 0. -1.
         23    2    1    2    0    0 -0.35527136788E-14  0.35527136788E-14  0.00000000000E+00  0.91188000000E+02  0.91188000000E+02 0.  0.
    9900012    2    3    3    0    0 -0.12382375881E+02  0.27071319791E+02 -0.21670334155E+02  0.54367041701E+02  0.39999903166E+02 0.  0.
        -12    1    3    3    0    0  0.12382375881E+02 -0.27071319791E+02  0.21670334155E+02  0.36820958299E+02  0.00000000000E+00 0.  1.
         11    1    4    4    0    0  0.22111374803E+01  0.67900306237E+01 -0.15053173149E+02  0.16661082406E+02  0.51100000000E-03 0.  1.
        -11    1    4    4    0    0  0.71654957939E+01  0.83300922916E+01  0.24838776761E+01  0.11265186023E+02  0.51100000000E-03 0. -1.
        -12    1    4    4    0    0 -0.21759009155E+02  0.11951196875E+02 -0.91010386820E+01  0.26440773272E+02  0.00000000000E+00 0.  1.
</event>
<event>
 8    1  0.1261983E-006  0.9118800E+02  0.7816164E-02  0.1184000E+00
        -11   -1    0    0    0    0  0.00000000000E+00  0.00000000000E+00  0.45593999997E+02  0.45594000000E+02  0.51100000000E-03 0.  1.
         11   -1    0    0    0    0 -0.00000000000E+00 -0.00000000000E+00 -0.45593999997E+02  0.45594000000E+02  0.51100000000E-03 0. -1.
         23    2    1    2    0    0  0.00000000000E+00 -0.35527136788E-14 -0.17763568394E-14  0.91188000000E+02  0.91188000000E+02 0.  0.
    9900012    2    3    3    0    0 -0.21335718953E+02 -0.27808470890E+02  0.11280693992E+02  0.54367109008E+02  0.40000056606E+02 0.  0.
        -12    1    3    3    0    0  0.21335718953E+02  0.27808470890E+02 -0.11280693992E+02  0.36820890992E+02  0.00000000000E+00 0.  1.
         11    1    4    4    0    0 -0.47947484519E+01 -0.10890413120E+02 -0.12537313622E+02  0.17285107572E+02  0.51100000000E-03 0. -1.
        -11    1    4    4    0    0 -0.17258189720E+02 -0.99351051867E+01  0.11752350571E+02  0.23122914429E+02  0.51100000000E-03 0.  1.
         12    1    4    4    0    0  0.71721921978E+00 -0.69829525835E+01  0.12065657043E+02  0.13959087007E+02  0.00000000000E+00 0. -1.
</event>
<event>
 8    1  0.1261983E-006  0.9118800E+02  0.7816164E-02  0.1184000E+00
        -11   -1    0    0    0    0  0.00000000000E+00  0.00000000000E+00  0.45593999997E+02  0.45594000000E+02  0.51100000000E-03 0.  1.
         11   -1    0    0    0    0 -0.00000000000E+00 -0.00000000000E+00 -0.45593999997E+02  0.45594000000E+02  0.51100000000E-03 0. -1.
         23    2    1    2    0    0  0.00000000000E+00  0.00000000000E+00  0.00000000000E+00  0.91188000000E+02  0.91188000000E+02 0.  0.
    9900012    2    3    3    0    0 -0.11653026793E+02 -0.18588028774E+02 -0.29571468061E+02  0.54367087865E+02  0.40000008406E+02 0.  0.
        -12    1    3    3    0    0  0.11653026793E+02  0.18588028774E+02  0.29571468061E+02  0.36820912135E+02  0.00000000000E+00 0.  1.
         11    1    4    4    0    0  0.62101271030E+01  0.12806098098E+01 -0.39226667291E+01  0.74560683104E+01  0.51100000000E-03 0. -1.
        -11    1    4    4    0    0 -0.18611524706E+02 -0.12217151624E+02 -0.23621565514E+01  0.22388109110E+02  0.51100000000E-03 0.  1.
         12    1    4    4    0    0  0.74837080954E+00 -0.76514869601E+01 -0.23286644780E+02  0.24522910445E+02  0.00000000000E+00 0. -1.
</event>
<event>
 8    1  0.1261983E-006  0.9118800E+02  0.7816164E-02  0.1184000E+00
        -11   -1    0    0    0    0  0.00000000000E+00  0.00000000000E+00  0.45593999997E+02  0.45594000000E+02  0.51100000000E-03 0.  1.
         11   -1    0    0    0    0 -0.00000000000E+00 -0.00000000000E+00 -0.45593999997E+02  0.45594000000E+02  0.51100000000E-03 0. -1.
         23    2    1    2    0    0  0.35527136788E-14  0.00000000000E+00  0.00000000000E+00  0.91188000000E+02  0.91188000000E+02 0.  0.
    9900012    2    3    3    0    0  0.30519266806E+02 -0.19204353508E+02  0.74528931980E+01  0.54367102984E+02  0.40000042872E+02 0.  0.
         12    1    3    3    0    0 -0.30519266806E+02  0.19204353508E+02 -0.74528931980E+01  0.36820897016E+02  0.00000000000E+00 0. -1.
         11    1    4    4    0    0  0.25577304043E+01 -0.60745839667E+01  0.92865868145E+01  0.11387855378E+02  0.51100000000E-03 0. -1.
        -11    1    4    4    0    0  0.13607602241E+02  0.89015339670E+01 -0.34957289191E+01  0.16632025333E+02  0.51100000000E-03 0.  1.
         12    1    4    4    0    0  0.14353934161E+02 -0.22031303508E+02  0.16620353026E+01  0.26347222273E+02  0.00000000000E+00 0. -1.
</event>
<event>
 8    1  0.1261983E-006  0.9118800E+02  0.7816164E-02  0.1184000E+00
        -11   -1    0    0    0    0  0.00000000000E+00  0.00000000000E+00  0.45593999997E+02  0.45594000000E+02  0.51100000000E-03 0. -1.
         11   -1    0    0    0    0 -0.00000000000E+00 -0.00000000000E+00 -0.45593999997E+02  0.45594000000E+02  0.51100000000E-03 0.  1.
         23    2    1    2    0    0 -0.35527136788E-14  0.00000000000E+00  0.17763568394E-14  0.91188000000E+02  0.91188000000E+02 0.  0.
    9900012    2    3    3    0    0  0.31707708446E+02  0.14416479970E+02 -0.11940116867E+02  0.54367081212E+02  0.39999993238E+02 0.  0.
         12    1    3    3    0    0 -0.31707708446E+02 -0.14416479970E+02  0.11940116867E+02  0.36820918788E+02  0.00000000000E+00 0. -1.
         11    1    4    4    0    0  0.72461323206E+01 -0.40336404473E+00  0.90744392289E+01  0.11619577606E+02  0.51100000000E-03 0. -1.
        -11    1    4    4    0    0  0.20055861558E+02 -0.10500144338E+01 -0.74846259212E+01  0.21432679221E+02  0.51100000000E-03 0.  1.
        -12    1    4    4    0    0  0.44057145676E+01  0.15869858449E+02 -0.13529930174E+02  0.21314824385E+02  0.00000000000E+00 0.  1.
</event>
<event>
 8    1  0.1261983E-006  0.9118800E+02  0.7816164E-02  0.1184000E+00
        -11   -1    0    0    0    0  0.00000000000E+00  0.00000000000E+00  0.45593999997E+02  0.45594000000E+02  0.51100000000E-03 0. -1.
         11   -1    0    0    0    0 -0.00000000000E+00 -0.00000000000E+00 -0.45593999997E+02  0.45594000000E+02  0.51100000000E-03 0.  1.
         23    2    1    2    0    0  0.00000000000E+00  0.00000000000E+00  0.00000000000E+00  0.91188000000E+02  0.91188000000E+02 0.  0.
    9900012    2    3    3    0    0  0.17720498905E+02 -0.20369555449E+02 -0.25036875766E+02  0.54367081777E+02  0.39999994528E+02 0.  0.
         12    1    3    3    0    0 -0.17720498905E+02  0.20369555449E+02  0.25036875766E+02  0.36820918223E+02  0.00000000000E+00 0. -1.
         11    1    4    4    0    0  0.65273768323E+01  0.17410674817E+01 -0.20671546727E+02  0.21747432231E+02  0.51100000000E-03 0. -1.
        -11    1    4    4    0    0 -0.43835094616E+01 -0.22248455309E+01 -0.54458734813E+01  0.73363908751E+01  0.51100000000E-03 0.  1.
         12    1    4    4    0    0  0.15576631534E+02 -0.19885777399E+02  0.10805444423E+01  0.25283258671E+02  0.00000000000E+00 0. -1.
</event>
<event>
 8    1  0.1261983E-006  0.9118800E+02  0.7816164E-02  0.1184000E+00
        -11   -1    0    0    0    0  0.00000000000E+00  0.00000000000E+00  0.45593999997E+02  0.45594000000E+02  0.51100000000E-03 0.  1.
         11   -1    0    0    0    0 -0.00000000000E+00 -0.00000000000E+00 -0.45593999997E+02  0.45594000000E+02  0.51100000000E-03 0. -1.
         23    2    1    2    0    0  0.00000000000E+00 -0.35527136788E-14  0.00000000000E+00  0.91188000000E+02  0.91188000000E+02 0.  0.
    9900012    2    3    3    0    0  0.89144588195E+01 -0.19607789941E+02 -0.29863811602E+02  0.54367078694E+02  0.39999987499E+02 0.  0.
        -12    1    3    3    0    0 -0.89144588195E+01  0.19607789941E+02  0.29863811602E+02  0.36820921306E+02  0.00000000000E+00 0.  1.
         11    1    4    4    0    0  0.70545069207E+01 -0.22799798616E+02 -0.35317644576E+02  0.42625495932E+02  0.51100000000E-03 0. -1.
        -11    1    4    4    0    0  0.55927982195E+01  0.35778435774E+00  0.21283333008E+01  0.59947647553E+01  0.51100000000E-03 0.  1.
         12    1    4    4    0    0 -0.37328463207E+01  0.28342243168E+01  0.33254996731E+01  0.57468180072E+01  0.00000000000E+00 0. -1.
</event>
<event>
 8    1  0.1261983E-006  0.9118800E+02  0.7816164E-02  0.1184000E+00
        -11   -1    0    0    0    0  0.00000000000E+00  0.00000000000E+00  0.45593999997E+02  0.45594000000E+02  0.51100000000E-03 0.  1.
         11   -1    0    0    0    0 -0.00000000000E+00 -0.00000000000E+00 -0.45593999997E+02  0.45594000000E+02  0.51100000000E-03 0. -1.
         23    2    1    2    0    0  0.00000000000E+00  0.88817841970E-15 -0.22204460493E-15  0.91188000000E+02  0.91188000000E+02 0.  0.
    9900012    2    3    3    0    0  0.36274083086E+02  0.60946861838E+01  0.16805429277E+01  0.54367102021E+02  0.40000040678E+02 0.  0.
         12    1    3    3    0    0 -0.36274083086E+02 -0.60946861838E+01 -0.16805429277E+01  0.36820897979E+02  0.00000000000E+00 0. -1.
         11    1    4    4    0    0  0.15873422347E+02  0.16483308619E+02 -0.23433745877E+01  0.23003399851E+02  0.51100000000E-03 0. -1.
        -11    1    4    4    0    0  0.79087982032E+01  0.63533595667E+01  0.23128205152E+01  0.10404970245E+02  0.51100000000E-03 0.  1.
        -12    1    4    4    0    0  0.12491862536E+02 -0.16741982001E+02  0.17110970002E+01  0.20958731925E+02  0.00000000000E+00 0.  1.
</event>
<event>
 8    1  0.1261983E-006  0.9118800E+02  0.7816164E-02  0.1184000E+00
        -11   -1    0    0    0    0  0.00000000000E+00  0.00000000000E+00  0.45593999997E+02  0.45594000000E+02  0.51100000000E-03 0.  1.
         11   -1    0    0    0    0 -0.00000000000E+00 -0.00000000000E+00 -0.45593999997E+02  0.45594000000E+02  0.51100000000E-03 0. -1.
         23    2    1    2    0    0  0.00000000000E+00  0.00000000000E+00  0.17763568394E-14  0.91188000000E+02  0.91188000000E+02 0.  0.
    9900012    2    3    3    0    0  0.33226404376E+02 -0.13466560845E+02  0.83926723123E+01  0.54367093475E+02  0.40000021195E+02 0.  0.
        -12    1    3    3    0    0 -0.33226404376E+02  0.13466560845E+02 -0.83926723123E+01  0.36820906525E+02  0.00000000000E+00 0.  1.
         11    1    4    4    0    0  0.23906730783E+02 -0.11755318554E+02 -0.84662048316E+01  0.27953459814E+02  0.51100000000E-03 0. -1.
        -11    1    4    4    0    0  0.10047635607E+02  0.64144114250E+01  0.12018290782E+02  0.16927461971E+02  0.51100000000E-03 0.  1.
         12    1    4    4    0    0 -0.72796201305E+00 -0.81256537161E+01  0.48405863624E+01  0.94861716903E+01  0.00000000000E+00 0. -1.
</event>
<event>
 8    1  0.1261983E-006  0.9118800E+02  0.7816164E-02  0.1184000E+00
        -11   -1    0    0    0    0  0.00000000000E+00  0.00000000000E+00  0.45593999997E+02  0.45594000000E+02  0.51100000000E-03 0. -1.
         11   -1    0    0    0    0 -0.00000000000E+00 -0.00000000000E+00 -0.45593999997E+02  0.45594000000E+02  0.51100000000E-03 0.  1.
         23    2    1    2    0    0  0.35527136788E-14 -0.88817841970E-15  0.00000000000E+00  0.91188000000E+02  0.91188000000E+02 0.  0.
    9900012    2    3    3    0    0  0.28028279679E+02 -0.72589293208E+01  0.22748739238E+02  0.54367059578E+02  0.39999943920E+02 0.  0.
         12    1    3    3    0    0 -0.28028279679E+02  0.72589293208E+01 -0.22748739238E+02  0.36820940422E+02  0.00000000000E+00 0. -1.
         11    1    4    4    0    0  0.72461852996E+01 -0.74661018981E+01  0.23915420160E+02  0.26080590496E+02  0.51100000000E-03 0. -1.
        -11    1    4    4    0    0  0.12322751360E+02 -0.75075164083E+01  0.50138618939E+01  0.15275857261E+02  0.51100000000E-03 0.  1.
        -12    1    4    4    0    0  0.84593430188E+01  0.77146889856E+01 -0.61805428157E+01  0.13010611821E+02  0.00000000000E+00 0.  1.
</event>
<event>
 8    1  0.1261983E-006  0.9118800E+02  0.7816164E-02  0.1184000E+00
        -11   -1    0    0    0    0  0.00000000000E+00  0.00000000000E+00  0.45593999997E+02  0.45594000000E+02  0.51100000000E-03 0.  1.
         11   -1    0    0    0    0 -0.00000000000E+00 -0.00000000000E+00 -0.45593999997E+02  0.45594000000E+02  0.51100000000E-03 0. -1.
         23    2    1    2    0    0 -0.17763568394E-14  0.00000000000E+00  0.00000000000E+00  0.91188000000E+02  0.91188000000E+02 0.  0.
    9900012    2    3    3    0    0 -0.97017233545E+01  0.28896701622E+02 -0.20655207385E+02  0.54367076699E+02  0.39999982950E+02 0.  0.
        -12    1    3    3    0    0  0.97017233545E+01 -0.28896701622E+02  0.20655207385E+02  0.36820923301E+02  0.00000000000E+00 0.  1.
         11    1    4    4    0    0 -0.75429662875E+00  0.22888573777E+02 -0.24752358169E+02  0.33721432475E+02  0.51100000000E-03 0. -1.
        -11    1    4    4    0    0  0.41601345176E+01  0.24873419289E+01  0.51007321792E+01  0.70364094609E+01  0.51100000000E-03 0.  1.
        -12    1    4    4    0    0 -0.13107561243E+02  0.35207859156E+01 -0.10035813951E+01  0.13609234763E+02  0.00000000000E+00 0.  1.
</event>
<event>
 8    1  0.1261983E-006  0.9118800E+02  0.7816164E-02  0.1184000E+00
        -11   -1    0    0    0    0  0.00000000000E+00  0.00000000000E+00  0.45593999997E+02  0.45594000000E+02  0.51100000000E-03 0. -1.
         11   -1    0    0    0    0 -0.00000000000E+00 -0.00000000000E+00 -0.45593999997E+02  0.45594000000E+02  0.51100000000E-03 0.  1.
         23    2    1    2    0    0  0.00000000000E+00  0.35527136788E-14  0.00000000000E+00  0.91188000000E+02  0.91188000000E+02 0.  0.
    9900012    2    3    3    0    0  0.17858358427E+02  0.27596790836E+02  0.16591875756E+02  0.54366889598E+02  0.39999556414E+02 0.  0.
        -12    1    3    3    0    0 -0.17858358427E+02 -0.27596790836E+02 -0.16591875756E+02  0.36821110402E+02  0.00000000000E+00 0.  1.
         11    1    4    4    0    0  0.89932739003E+00  0.21193619886E+02  0.56614050969E+01  0.21955177557E+02  0.51100000000E-03 0. -1.
        -11    1    4    4    0    0  0.32523519259E+01  0.68450386769E+01 -0.66725311773E+01  0.10097277857E+02  0.51100000000E-03 0.  1.
        -12    1    4    4    0    0  0.13706679111E+02 -0.44186772680E+00  0.17603001837E+02  0.22314434185E+02  0.00000000000E+00 0.  1.
</event>
<event>
 8    1  0.1261983E-006  0.9118800E+02  0.7816164E-02  0.1184000E+00
        -11   -1    0    0    0    0  0.00000000000E+00  0.00000000000E+00  0.45593999997E+02  0.45594000000E+02  0.51100000000E-03 0.  1.
         11   -1    0    0    0    0 -0.00000000000E+00 -0.00000000000E+00 -0.45593999997E+02  0.45594000000E+02  0.51100000000E-03 0. -1.
         23    2    1    2    0    0  0.00000000000E+00  0.00000000000E+00 -0.71054273576E-14  0.91188000000E+02  0.91188000000E+02 0.  0.
    9900012    2    3    3    0    0  0.24088480587E+02 -0.59258844909E+01  0.27210627650E+02  0.54366956274E+02  0.39999708416E+02 0.  0.
         12    1    3    3    0    0 -0.24088480587E+02  0.59258844909E+01 -0.27210627650E+02  0.36821043726E+02  0.00000000000E+00 0. -1.
         11    1    4    4    0    0 -0.14905932403E+00  0.66803112398E+01 -0.19559074786E+01  0.69623524235E+01  0.51100000000E-03 0. -1.
        -11    1    4    4    0    0 -0.38541151471E+01 -0.27712515482E+01 -0.11872288287E+01  0.48932148188E+01  0.51100000000E-03 0.  1.
        -12    1    4    4    0    0  0.28091655058E+02 -0.98349441824E+01  0.30353763957E+02  0.42511389031E+02  0.00000000000E+00 0.  1.
</event>
<event>
 8    1  0.1261983E-006  0.9118800E+02  0.7816164E-02  0.1184000E+00
        -11   -1    0    0    0    0  0.00000000000E+00  0.00000000000E+00  0.45593999997E+02  0.45594000000E+02  0.51100000000E-03 0. -1.
         11   -1    0    0    0    0 -0.00000000000E+00 -0.00000000000E+00 -0.45593999997E+02  0.45594000000E+02  0.51100000000E-03 0.  1.
         23    2    1    2    0    0  0.35527136788E-14  0.00000000000E+00  0.00000000000E+00  0.91188000000E+02  0.91188000000E+02 0.  0.
    9900012    2    3    3    0    0 -0.17322580824E+02  0.12835712940E+02  0.29848827192E+02  0.54367084506E+02  0.40000000749E+02 0.  0.
         12    1    3    3    0    0  0.17322580824E+02 -0.12835712940E+02 -0.29848827192E+02  0.36820915494E+02  0.00000000000E+00 0. -1.
         11    1    4    4    0    0 -0.61332371209E+01  0.99914305756E+01  0.13216966778E+02  0.17667300122E+02  0.51100000000E-03 0. -1.
        -11    1    4    4    0    0  0.65172491977E+00  0.12760086882E+02 -0.15196719510E+01  0.12866777596E+02  0.51100000000E-03 0.  1.
        -12    1    4    4    0    0 -0.11841068623E+02 -0.99158045178E+01  0.18151532366E+02  0.23833006788E+02  0.00000000000E+00 0.  1.
</event>
<event>
 8    1  0.1261983E-006  0.9118800E+02  0.7816164E-02  0.1184000E+00
        -11   -1    0    0    0    0  0.00000000000E+00  0.00000000000E+00  0.45593999997E+02  0.45594000000E+02  0.51100000000E-03 0. -1.
         11   -1    0    0    0    0 -0.00000000000E+00 -0.00000000000E+00 -0.45593999997E+02  0.45594000000E+02  0.51100000000E-03 0.  1.
         23    2    1    2    0    0  0.35527136788E-14  0.00000000000E+00  0.35527136788E-14  0.91188000000E+02  0.91188000000E+02 0.  0.
    9900012    2    3    3    0    0 -0.18846130438E+02  0.10997097131E+02 -0.29659147564E+02  0.54367111743E+02  0.40000062841E+02 0.  0.
         12    1    3    3    0    0  0.18846130438E+02 -0.10997097131E+02  0.29659147564E+02  0.36820888257E+02  0.00000000000E+00 0. -1.
         11    1    4    4    0    0 -0.46321059412E+01  0.33609730709E+01 -0.13016323141E+01  0.58691389808E+01  0.51100000000E-03 0.  1.
        -11    1    4    4    0    0 -0.75975918051E+01  0.12529690200E+02  0.39357962701E+01  0.15172574940E+02  0.51100000000E-03 0. -1.
        -12    1    4    4    0    0 -0.66164326918E+01 -0.48935661402E+01 -0.32293311520E+02  0.33325397823E+02  0.00000000000E+00 0.  1.
</event>
<event>
 8    1  0.1261983E-006  0.9118800E+02  0.7816164E-02  0.1184000E+00
        -11   -1    0    0    0    0  0.00000000000E+00  0.00000000000E+00  0.45593999997E+02  0.45594000000E+02  0.51100000000E-03 0.  1.
         11   -1    0    0    0    0 -0.00000000000E+00 -0.00000000000E+00 -0.45593999997E+02  0.45594000000E+02  0.51100000000E-03 0. -1.
         23    2    1    2    0    0  0.00000000000E+00  0.13322676296E-14  0.00000000000E+00  0.91188000000E+02  0.91188000000E+02 0.  0.
    9900012    2    3    3    0    0 -0.35909089048E+02 -0.34323149302E+01  0.73848460488E+01  0.54367090000E+02  0.40000013273E+02 0.  0.
        -12    1    3    3    0    0  0.35909089048E+02  0.34323149302E+01 -0.73848460488E+01  0.36820910000E+02  0.00000000000E+00 0.  1.
         11    1    4    4    0    0 -0.29388651911E+02  0.30292220454E+01  0.10773002479E+02  0.31447203851E+02  0.51100000000E-03 0. -1.
        -11    1    4    4    0    0  0.50027936595E+01  0.44901199296E+01 -0.32469170340E+00  0.67301223128E+01  0.51100000000E-03 0.  1.
         12    1    4    4    0    0 -0.11523230797E+02 -0.10951656905E+02 -0.30634647264E+01  0.16189763837E+02  0.00000000000E+00 0. -1.
</event>
<event>
 8    1  0.1261983E-006  0.9118800E+02  0.7816164E-02  0.1184000E+00
        -11   -1    0    0    0    0  0.00000000000E+00  0.00000000000E+00  0.45593999997E+02  0.45594000000E+02  0.51100000000E-03 0.  1.
         11   -1    0    0    0    0 -0.00000000000E+00 -0.00000000000E+00 -0.45593999997E+02  0.45594000000E+02  0.51100000000E-03 0. -1.
         23    2    1    2    0    0  0.00000000000E+00  0.00000000000E+00  0.55511151231E-16  0.91188000000E+02  0.91188000000E+02 0.  0.
    9900012    2    3    3    0    0 -0.32036829652E+02  0.18143916936E+02  0.46811857069E+00  0.54367091389E+02  0.40000016440E+02 0.  0.
        -12    1    3    3    0    0  0.32036829652E+02 -0.18143916936E+02 -0.46811857069E+00  0.36820908611E+02  0.00000000000E+00 0.  1.
         11    1    4    4    0    0 -0.31131926330E+02  0.18492928637E+02 -0.11399636997E+02  0.37962309868E+02  0.51100000000E-03 0. -1.
        -11    1    4    4    0    0  0.48310971579E+01 -0.21598016454E+01  0.50837215319E+01  0.73381515228E+01  0.51100000000E-03 0.  1.
         12    1    4    4    0    0 -0.57360004800E+01  0.18107899449E+01  0.67840340362E+01  0.90666299988E+01  0.00000000000E+00 0. -1.
</event>
<event>
 8    1  0.1261983E-006  0.9118800E+02  0.7816164E-02  0.1184000E+00
        -11   -1    0    0    0    0  0.00000000000E+00  0.00000000000E+00  0.45593999997E+02  0.45594000000E+02  0.51100000000E-03 0.  1.
         11   -1    0    0    0    0 -0.00000000000E+00 -0.00000000000E+00 -0.45593999997E+02  0.45594000000E+02  0.51100000000E-03 0. -1.
         23    2    1    2    0    0 -0.71054273576E-14  0.35527136788E-14  0.88817841970E-15  0.91188000000E+02  0.91188000000E+02 0.  0.
    9900012    2    3    3    0    0  0.34094908373E+02 -0.12496294227E+02 -0.60959068935E+01  0.54367078947E+02  0.39999988075E+02 0.  0.
        -12    1    3    3    0    0 -0.34094908373E+02  0.12496294227E+02  0.60959068935E+01  0.36820921053E+02  0.00000000000E+00 0.  1.
         11    1    4    4    0    0  0.30160436043E+02  0.50971630924E+01 -0.67455006771E+01  0.31323070628E+02  0.51100000000E-03 0. -1.
        -11    1    4    4    0    0  0.22099046562E+01 -0.21904376724E+01  0.59077868963E+01  0.66770983263E+01  0.51100000000E-03 0.  1.
        -12    1    4    4    0    0  0.17245676735E+01 -0.15403019647E+02 -0.52581931127E+01  0.16366909993E+02  0.00000000000E+00 0.  1.
</event>
<event>
 8    1  0.1261983E-006  0.9118800E+02  0.7816164E-02  0.1184000E+00
        -11   -1    0    0    0    0  0.00000000000E+00  0.00000000000E+00  0.45593999997E+02  0.45594000000E+02  0.51100000000E-03 0.  1.
         11   -1    0    0    0    0 -0.00000000000E+00 -0.00000000000E+00 -0.45593999997E+02  0.45594000000E+02  0.51100000000E-03 0. -1.
         23    2    1    2    0    0  0.88817841970E-15 -0.35527136788E-14  0.00000000000E+00  0.91188000000E+02  0.91188000000E+02 0.  0.
    9900012    2    3    3    0    0 -0.59682150074E+01 -0.29602318002E+02  0.21068073397E+02  0.54367074725E+02  0.39999978450E+02 0.  0.
         12    1    3    3    0    0  0.59682150074E+01  0.29602318002E+02 -0.21068073397E+02  0.36820925275E+02  0.00000000000E+00 0. -1.
         11    1    4    4    0    0  0.10279636596E+02  0.44211151425E+00  0.52525888102E+01  0.11552319274E+02  0.51100000000E-03 0. -1.
        -11    1    4    4    0    0 -0.35102969431E+01 -0.13916893931E+02  0.16976885127E+02  0.22230986263E+02  0.51100000000E-03 0.  1.
         12    1    4    4    0    0 -0.12737554660E+02 -0.16127535585E+02 -0.11614005410E+01  0.20583769188E+02  0.00000000000E+00 0. -1.
</event>
<event>
 8    1  0.1261983E-006  0.9118800E+02  0.7816164E-02  0.1184000E+00
        -11   -1    0    0    0    0  0.00000000000E+00  0.00000000000E+00  0.45593999997E+02  0.45594000000E+02  0.51100000000E-03 0.  1.
         11   -1    0    0    0    0 -0.00000000000E+00 -0.00000000000E+00 -0.45593999997E+02  0.45594000000E+02  0.51100000000E-03 0. -1.
         23    2    1    2    0    0 -0.88817841970E-15  0.88817841970E-15  0.00000000000E+00  0.91188000000E+02  0.91188000000E+02 0.  0.
    9900012    2    3    3    0    0 -0.65253858271E+01 -0.73239340590E+01  0.35490266360E+02  0.54367086424E+02  0.40000005120E+02 0.  0.
         12    1    3    3    0    0  0.65253858271E+01  0.73239340590E+01 -0.35490266360E+02  0.36820913576E+02  0.00000000000E+00 0. -1.
         11    1    4    4    0    0 -0.46686986792E+01 -0.91686709164E+01  0.99163108688E+01  0.14289663930E+02  0.51100000000E-03 0. -1.
        -11    1    4    4    0    0  0.13142369016E+00 -0.56862993608E+00 -0.71653813427E+01  0.71891099754E+01  0.51100000000E-03 0.  1.
        -12    1    4    4    0    0 -0.19881108381E+01  0.24133667934E+01  0.32739336834E+02  0.32888312518E+02  0.00000000000E+00 0.  1.
</event>
<event>
 8    1  0.1261983E-006  0.9118800E+02  0.7816164E-02  0.1184000E+00
        -11   -1    0    0    0    0  0.00000000000E+00  0.00000000000E+00  0.45593999997E+02  0.45594000000E+02  0.51100000000E-03 0. -1.
         11   -1    0    0    0    0 -0.00000000000E+00 -0.00000000000E+00 -0.45593999997E+02  0.45594000000E+02  0.51100000000E-03 0.  1.
         23    2    1    2    0    0  0.44408920985E-15  0.00000000000E+00  0.44408920985E-15  0.91188000000E+02  0.91188000000E+02 0.  0.
    9900012    2    3    3    0    0 -0.26534723803E+01 -0.36661848995E+02 -0.21558532236E+01  0.54367084876E+02  0.40000001592E+02 0.  0.
         12    1    3    3    0    0  0.26534723803E+01  0.36661848995E+02  0.21558532236E+01  0.36820915124E+02  0.00000000000E+00 0. -1.
         11    1    4    4    0    0  0.14773675242E+01 -0.79772533112E+01 -0.82776489830E+01  0.11590455476E+02  0.51100000000E-03 0. -1.
        -11    1    4    4    0    0 -0.75978953964E+01 -0.49615529186E+01 -0.10292055799E+02  0.13721203834E+02  0.51100000000E-03 0.  1.
         12    1    4    4    0    0  0.34670554919E+01 -0.23723042766E+02  0.16413851559E+02  0.29055425566E+02  0.00000000000E+00 0. -1.
</event>
<event>
 8    1  0.1261983E-006  0.9118800E+02  0.7816164E-02  0.1184000E+00
        -11   -1    0    0    0    0  0.00000000000E+00  0.00000000000E+00  0.45593999997E+02  0.45594000000E+02  0.51100000000E-03 0.  1.
         11   -1    0    0    0    0 -0.00000000000E+00 -0.00000000000E+00 -0.45593999997E+02  0.45594000000E+02  0.51100000000E-03 0. -1.
         23    2    1    2    0    0  0.00000000000E+00  0.00000000000E+00  0.00000000000E+00  0.91188000000E+02  0.91188000000E+02 0.  0.
    9900012    2    3    3    0    0  0.16623815717E+02  0.86955327435E+01  0.31683056838E+02  0.54367087066E+02  0.40000006584E+02 0.  0.
         12    1    3    3    0    0 -0.16623815717E+02 -0.86955327435E+01 -0.31683056838E+02  0.36820912934E+02  0.00000000000E+00 0. -1.
         11    1    4    4    0    0  0.25054118783E+02 -0.20009089389E+01  0.15195376043E+02  0.29370256348E+02  0.51100000000E-03 0. -1.
        -11    1    4    4    0    0 -0.10529470968E+02  0.39723037005E+01  0.12807034060E+02  0.17049019832E+02  0.51100000000E-03 0.  1.
         12    1    4    4    0    0  0.20991679020E+01  0.67241379820E+01  0.36806467352E+01  0.79478108855E+01  0.00000000000E+00 0. -1.
</event>
<event>
 8    1  0.1261983E-006  0.9118800E+02  0.7816164E-02  0.1184000E+00
        -11   -1    0    0    0    0  0.00000000000E+00  0.00000000000E+00  0.45593999997E+02  0.45594000000E+02  0.51100000000E-03 0.  1.
         11   -1    0    0    0    0 -0.00000000000E+00 -0.00000000000E+00 -0.45593999997E+02  0.45594000000E+02  0.51100000000E-03 0. -1.
         23    2    1    2    0    0  0.00000000000E+00  0.35527136788E-14 -0.17763568394E-14  0.91188000000E+02  0.91188000000E+02 0.  0.
    9900012    2    3    3    0    0 -0.15234641223E+02  0.29851032205E+02 -0.15251241764E+02  0.54367098432E+02  0.40000032496E+02 0.  0.
        -12    1    3    3    0    0  0.15234641223E+02 -0.29851032205E+02  0.15251241764E+02  0.36820901568E+02  0.00000000000E+00 0.  1.
         11    1    4    4    0    0 -0.13547409087E+02  0.72272358680E+01 -0.16168417062E+02  0.22297599463E+02  0.51100000000E-03 0. -1.
        -11    1    4    4    0    0 -0.10519479595E+02  0.47447098095E+01  0.32575277764E+01  0.11990963664E+02  0.51100000000E-03 0.  1.
        -12    1    4    4    0    0  0.88322474595E+01  0.17879086528E+02 -0.23403524778E+01  0.20078535305E+02  0.00000000000E+00 0.  1.
</event>
<event>
 8    1  0.1261983E-006  0.9118800E+02  0.7816164E-02  0.1184000E+00
        -11   -1    0    0    0    0  0.00000000000E+00  0.00000000000E+00  0.45593999997E+02  0.45594000000E+02  0.51100000000E-03 0. -1.
         11   -1    0    0    0    0 -0.00000000000E+00 -0.00000000000E+00 -0.45593999997E+02  0.45594000000E+02  0.51100000000E-03 0.  1.
         23    2    1    2    0    0  0.00000000000E+00  0.17763568394E-14  0.00000000000E+00  0.91188000000E+02  0.91188000000E+02 0.  0.
    9900012    2    3    3    0    0 -0.14210930690E+02 -0.66892911467E+01  0.33302889671E+02  0.54367087089E+02  0.40000006637E+02 0.  0.
        -12    1    3    3    0    0  0.14210930690E+02  0.66892911467E+01 -0.33302889671E+02  0.36820912911E+02  0.00000000000E+00 0.  1.
         11    1    4    4    0    0  0.27982671514E+01  0.53427381367E+00  0.13766242604E+02  0.14057922437E+02  0.51100000000E-03 0. -1.
        -11    1    4    4    0    0 -0.20854867646E+02  0.54114612009E+01  0.87412406744E+01  0.23251208692E+02  0.51100000000E-03 0.  1.
        -12    1    4    4    0    0  0.38456698038E+01 -0.12635026161E+02  0.10795406393E+02  0.17057955960E+02  0.00000000000E+00 0.  1.
</event>
<event>
 8    1  0.1261983E-006  0.9118800E+02  0.7816164E-02  0.1184000E+00
        -11   -1    0    0    0    0  0.00000000000E+00  0.00000000000E+00  0.45593999997E+02  0.45594000000E+02  0.51100000000E-03 0. -1.
         11   -1    0    0    0    0 -0.00000000000E+00 -0.00000000000E+00 -0.45593999997E+02  0.45594000000E+02  0.51100000000E-03 0.  1.
         23    2    1    2    0    0  0.00000000000E+00  0.00000000000E+00  0.17763568394E-14  0.91188000000E+02  0.91188000000E+02 0.  0.
    9900012    2    3    3    0    0 -0.33310155963E+02  0.22196292537E+01  0.15533417638E+02  0.54367077852E+02  0.39999985579E+02 0.  0.
        -12    1    3    3    0    0  0.33310155963E+02 -0.22196292537E+01 -0.15533417638E+02  0.36820922148E+02  0.00000000000E+00 0.  1.
         11    1    4    4    0    0 -0.14254503438E+02 -0.17264783512E+01  0.15619026833E+02  0.21216163537E+02  0.51100000000E-03 0. -1.
        -11    1    4    4    0    0 -0.22507232040E+02 -0.54342691264E+01  0.88823709899E-01  0.23154150059E+02  0.51100000000E-03 0.  1.
        -12    1    4    4    0    0  0.34515795139E+01  0.93803767314E+01 -0.17443290429E+00  0.99967642566E+01  0.00000000000E+00 0.  1.
</event>
<event>
 8    1  0.1261983E-006  0.9118800E+02  0.7816164E-02  0.1184000E+00
        -11   -1    0    0    0    0  0.00000000000E+00  0.00000000000E+00  0.45593999997E+02  0.45594000000E+02  0.51100000000E-03 0.  1.
         11   -1    0    0    0    0 -0.00000000000E+00 -0.00000000000E+00 -0.45593999997E+02  0.45594000000E+02  0.51100000000E-03 0. -1.
         23    2    1    2    0    0  0.88817841970E-15 -0.71054273576E-14 -0.22204460493E-15  0.91188000000E+02  0.91188000000E+02 0.  0.
    9900012    2    3    3    0    0 -0.36484383416E+01  0.36596715015E+02 -0.17753679899E+01  0.54367046947E+02  0.39999915126E+02 0.  0.
         12    1    3    3    0    0  0.36484383416E+01 -0.36596715015E+02  0.17753679899E+01  0.36820953053E+02  0.00000000000E+00 0. -1.
         11    1    4    4    0    0  0.14526740130E+02  0.14256830710E+02  0.50408284121E+01  0.20968866255E+02  0.51100000000E-03 0. -1.
        -11    1    4    4    0    0  0.17062118702E-01 -0.15997288565E+01  0.15090750422E+01  0.21992569824E+01  0.51100000000E-03 0.  1.
        -12    1    4    4    0    0 -0.18192240591E+02  0.23939613161E+02 -0.83252714442E+01  0.31198923710E+02  0.00000000000E+00 0.  1.
</event>
<event>
 8    1  0.1261983E-006  0.9118800E+02  0.7816164E-02  0.1184000E+00
        -11   -1    0    0    0    0  0.00000000000E+00  0.00000000000E+00  0.45593999997E+02  0.45594000000E+02  0.51100000000E-03 0.  1.
         11   -1    0    0    0    0 -0.00000000000E+00 -0.00000000000E+00 -0.45593999997E+02  0.45594000000E+02  0.51100000000E-03 0. -1.
         23    2    1    2    0    0  0.00000000000E+00  0.35527136788E-14 -0.71054273576E-14  0.91188000000E+02  0.91188000000E+02 0.  0.
    9900012    2    3    3    0    0  0.97483307365E+01 -0.15174388915E+02  0.32101223517E+02  0.54367074124E+02  0.39999977080E+02 0.  0.
         12    1    3    3    0    0 -0.97483307365E+01  0.15174388915E+02 -0.32101223517E+02  0.36820925876E+02  0.00000000000E+00 0. -1.
         11    1    4    4    0    0 -0.81955694339E+01 -0.66874580425E+01  0.64612549494E+01  0.12395050189E+02  0.51100000000E-03 0. -1.
        -11    1    4    4    0    0 -0.42834518460E+01 -0.57564965574E+01  0.16107115970E+02  0.17633048445E+02  0.51100000000E-03 0.  1.
         12    1    4    4    0    0  0.22227352016E+02 -0.27304343150E+01  0.95328525981E+01  0.24338975489E+02  0.00000000000E+00 0. -1.
</event>
<event>
 8    1  0.1261983E-006  0.9118800E+02  0.7816164E-02  0.1184000E+00
        -11   -1    0    0    0    0  0.00000000000E+00  0.00000000000E+00  0.45593999997E+02  0.45594000000E+02  0.51100000000E-03 0.  1.
         11   -1    0    0    0    0 -0.00000000000E+00 -0.00000000000E+00 -0.45593999997E+02  0.45594000000E+02  0.51100000000E-03 0. -1.
         23    2    1    2    0    0 -0.44408920985E-15  0.00000000000E+00 -0.35527136788E-14  0.91188000000E+02  0.91188000000E+02 0.  0.
    9900012    2    3    3    0    0  0.38929141176E+01  0.23982430722E+02 -0.27667095698E+02  0.54367082738E+02  0.39999996717E+02 0.  0.
        -12    1    3    3    0    0 -0.38929141176E+01 -0.23982430722E+02  0.27667095698E+02  0.36820917262E+02  0.00000000000E+00 0.  1.
         11    1    4    4    0    0  0.66287333603E+01  0.59844627498E+01 -0.19867587673E+02  0.21782445698E+02  0.51100000000E-03 0. -1.
        -11    1    4    4    0    0  0.11367976048E+02  0.56134514441E+01 -0.14060093507E+01  0.12756119281E+02  0.51100000000E-03 0.  1.
         12    1    4    4    0    0 -0.14103795291E+02  0.12384516528E+02 -0.63934986748E+01  0.19828517759E+02  0.00000000000E+00 0. -1.
</event>
<event>
 8    1  0.1261983E-006  0.9118800E+02  0.7816164E-02  0.1184000E+00
        -11   -1    0    0    0    0  0.00000000000E+00  0.00000000000E+00  0.45593999997E+02  0.45594000000E+02  0.51100000000E-03 0.  1.
         11   -1    0    0    0    0 -0.00000000000E+00 -0.00000000000E+00 -0.45593999997E+02  0.45594000000E+02  0.51100000000E-03 0. -1.
         23    2    1    2    0    0 -0.88817841970E-15  0.00000000000E+00 -0.71054273576E-14  0.91188000000E+02  0.91188000000E+02 0.  0.
    9900012    2    3    3    0    0 -0.42511947616E+01 -0.74612009929E+01  0.35805546908E+02  0.54367090634E+02  0.40000014718E+02 0.  0.
         12    1    3    3    0    0  0.42511947616E+01  0.74612009929E+01 -0.35805546908E+02  0.36820909366E+02  0.00000000000E+00 0. -1.
         11    1    4    4    0    0 -0.11314872988E-01 -0.57749742406E+01 -0.68470922373E+01  0.89572946738E+01  0.51100000000E-03 0. -1.
        -11    1    4    4    0    0  0.11895023293E+01 -0.75101472060E+01  0.19802664489E+02  0.21212325378E+02  0.51100000000E-03 0.  1.
         12    1    4    4    0    0 -0.54293822180E+01  0.58239204537E+01  0.22849974657E+02  0.24197470582E+02  0.00000000000E+00 0. -1.
</event>
<event>
 8    1  0.1261983E-006  0.9118800E+02  0.7816164E-02  0.1184000E+00
        -11   -1    0    0    0    0  0.00000000000E+00  0.00000000000E+00  0.45593999997E+02  0.45594000000E+02  0.51100000000E-03 0. -1.
         11   -1    0    0    0    0 -0.00000000000E+00 -0.00000000000E+00 -0.45593999997E+02  0.45594000000E+02  0.51100000000E-03 0.  1.
         23    2    1    2    0    0  0.00000000000E+00  0.00000000000E+00  0.00000000000E+00  0.91188000000E+02  0.91188000000E+02 0.  0.
    9900012    2    3    3    0    0  0.32539755771E+02  0.14674902695E+02  0.90328322991E+01  0.54367074779E+02  0.39999978574E+02 0.  0.
        -12    1    3    3    0    0 -0.32539755771E+02 -0.14674902695E+02 -0.90328322991E+01  0.36820925221E+02  0.00000000000E+00 0.  1.
         11    1    4    4    0    0  0.24475262116E+02 -0.17997030432E+01  0.64739894100E+01  0.25380896868E+02  0.51100000000E-03 0. -1.
        -11    1    4    4    0    0  0.10863278764E+02 -0.76047286846E+00 -0.16786866852E+01  0.11018490538E+02  0.51100000000E-03 0.  1.
        -12    1    4    4    0    0 -0.27987851080E+01  0.17235078607E+02  0.42375295743E+01  0.17967687374E+02  0.00000000000E+00 0.  1.
</event>
<event>
 8    1  0.1261983E-006  0.9118800E+02  0.7816164E-02  0.1184000E+00
        -11   -1    0    0    0    0  0.00000000000E+00  0.00000000000E+00  0.45593999997E+02  0.45594000000E+02  0.51100000000E-03 0. -1.
         11   -1    0    0    0    0 -0.00000000000E+00 -0.00000000000E+00 -0.45593999997E+02  0.45594000000E+02  0.51100000000E-03 0.  1.
         23    2    1    2    0    0  0.00000000000E+00  0.44408920985E-15  0.00000000000E+00  0.91188000000E+02  0.91188000000E+02 0.  0.
    9900012    2    3    3    0    0  0.13520309327E+02 -0.10506357978E+01  0.34232703832E+02  0.54367073728E+02  0.39999976178E+02 0.  0.
        -12    1    3    3    0    0 -0.13520309327E+02  0.10506357978E+01 -0.34232703832E+02  0.36820926272E+02  0.00000000000E+00 0.  1.
         11    1    4    4    0    0  0.17496014502E+01  0.36273566116E+01 -0.95540293992E+00  0.41390356680E+01  0.51100000000E-03 0. -1.
        -11    1    4    4    0    0 -0.38629679619E+01  0.12210419296E+02  0.11753985019E+02  0.17383124718E+02  0.51100000000E-03 0.  1.
         12    1    4    4    0    0  0.15633675838E+02 -0.16888411705E+02  0.23434121753E+02  0.32844913342E+02  0.00000000000E+00 0. -1.
</event>
<event>
 8    1  0.1261983E-006  0.9118800E+02  0.7816164E-02  0.1184000E+00
        -11   -1    0    0    0    0  0.00000000000E+00  0.00000000000E+00  0.45593999997E+02  0.45594000000E+02  0.51100000000E-03 0.  1.
         11   -1    0    0    0    0 -0.00000000000E+00 -0.00000000000E+00 -0.45593999997E+02  0.45594000000E+02  0.51100000000E-03 0. -1.
         23    2    1    2    0    0  0.17763568394E-14 -0.44408920985E-15  0.00000000000E+00  0.91188000000E+02  0.91188000000E+02 0.  0.
    9900012    2    3    3    0    0 -0.91849583628E+01  0.37147803821E+01 -0.35462882326E+02  0.54367094575E+02  0.40000023704E+02 0.  0.
        -12    1    3    3    0    0  0.91849583628E+01 -0.37147803821E+01  0.35462882326E+02  0.36820905425E+02  0.00000000000E+00 0.  1.
         11    1    4    4    0    0 -0.85573149858E+01 -0.95769439236E+01 -0.20161684431E+02  0.23904790609E+02  0.51100000000E-03 0.  1.
        -11    1    4    4    0    0  0.34013056469E+01  0.23239244119E+01 -0.18004101715E+02  0.18469357964E+02  0.51100000000E-03 0. -1.
        -12    1    4    4    0    0 -0.40289490239E+01  0.10967799894E+02  0.27029038208E+01  0.11992946002E+02  0.00000000000E+00 0.  1.
</event>
<event>
 8    1  0.1261983E-006  0.9118800E+02  0.7816164E-02  0.1184000E+00
        -11   -1    0    0    0    0  0.00000000000E+00  0.00000000000E+00  0.45593999997E+02  0.45594000000E+02  0.51100000000E-03 0.  1.
         11   -1    0    0    0    0 -0.00000000000E+00 -0.00000000000E+00 -0.45593999997E+02  0.45594000000E+02  0.51100000000E-03 0. -1.
         23    2    1    2    0    0  0.00000000000E+00 -0.35527136788E-14  0.00000000000E+00  0.91188000000E+02  0.91188000000E+02 0.  0.
    9900012    2    3    3    0    0  0.12535388395E+02  0.18567994100E+02 -0.29221048424E+02  0.54367135832E+02  0.40000117755E+02 0.  0.
        -12    1    3    3    0    0 -0.12535388395E+02 -0.18567994100E+02  0.29221048424E+02  0.36820864168E+02  0.00000000000E+00 0.  1.
         11    1    4    4    0    0  0.13918169957E+02  0.10240479251E+02 -0.18058743315E+02  0.24994020898E+02  0.51100000000E-03 0. -1.
        -11    1    4    4    0    0  0.85756947723E+01  0.11792647326E+02 -0.82103141353E+00  0.14604217358E+02  0.51100000000E-03 0.  1.
         12    1    4    4    0    0 -0.99584763339E+01 -0.34651324774E+01 -0.10341273695E+02  0.14768897576E+02  0.00000000000E+00 0. -1.
</event>
<event>
 8    1  0.1261983E-006  0.9118800E+02  0.7816164E-02  0.1184000E+00
        -11   -1    0    0    0    0  0.00000000000E+00  0.00000000000E+00  0.45593999997E+02  0.45594000000E+02  0.51100000000E-03 0.  1.
         11   -1    0    0    0    0 -0.00000000000E+00 -0.00000000000E+00 -0.45593999997E+02  0.45594000000E+02  0.51100000000E-03 0. -1.
         23    2    1    2    0    0 -0.13322676296E-14  0.00000000000E+00  0.00000000000E+00  0.91188000000E+02  0.91188000000E+02 0.  0.
    9900012    2    3    3    0    0 -0.15851688504E+01 -0.33602702477E+02 -0.14970817496E+02  0.54367085419E+02  0.40000002831E+02 0.  0.
        -12    1    3    3    0    0  0.15851688504E+01  0.33602702477E+02  0.14970817496E+02  0.36820914581E+02  0.00000000000E+00 0.  1.
         11    1    4    4    0    0 -0.10158004566E+02 -0.91207752923E+01 -0.99857051384E+01  0.16914133323E+02  0.51100000000E-03 0. -1.
        -11    1    4    4    0    0 -0.69219143272E+00 -0.22890023752E+02  0.53135720024E+01  0.23508857140E+02  0.51100000000E-03 0.  1.
         12    1    4    4    0    0  0.92650271484E+01 -0.15919034330E+01 -0.10298684360E+02  0.13944094957E+02  0.00000000000E+00 0. -1.
</event>
<event>
 8    1  0.1261983E-006  0.9118800E+02  0.7816164E-02  0.1184000E+00
        -11   -1    0    0    0    0  0.00000000000E+00  0.00000000000E+00  0.45593999997E+02  0.45594000000E+02  0.51100000000E-03 0.  1.
         11   -1    0    0    0    0 -0.00000000000E+00 -0.00000000000E+00 -0.45593999997E+02  0.45594000000E+02  0.51100000000E-03 0. -1.
         23    2    1    2    0    0 -0.17763568394E-14 -0.17763568394E-14  0.00000000000E+00  0.91188000000E+02  0.91188000000E+02 0.  0.
    9900012    2    3    3    0    0  0.14158993132E+02  0.40217574413E+01  0.33750975469E+02  0.54367082514E+02  0.39999996207E+02 0.  0.
         12    1    3    3    0    0 -0.14158993132E+02 -0.40217574413E+01 -0.33750975469E+02  0.36820917486E+02  0.00000000000E+00 0. -1.
         11    1    4    4    0    0  0.72541845886E+01 -0.10587247087E+02  0.15613486230E+02  0.20211233199E+02  0.51100000000E-03 0. -1.
        -11    1    4    4    0    0  0.74122781990E+01  0.65797089279E+01  0.22797201309E+02  0.24858536269E+02  0.51100000000E-03 0.  1.
         12    1    4    4    0    0 -0.50746965576E+00  0.80292956003E+01 -0.46597120699E+01  0.92973130453E+01  0.00000000000E+00 0. -1.
</event>
<event>
 8    1  0.1261983E-006  0.9118800E+02  0.7816164E-02  0.1184000E+00
        -11   -1    0    0    0    0  0.00000000000E+00  0.00000000000E+00  0.45593999997E+02  0.45594000000E+02  0.51100000000E-03 0.  1.
         11   -1    0    0    0    0 -0.00000000000E+00 -0.00000000000E+00 -0.45593999997E+02  0.45594000000E+02  0.51100000000E-03 0. -1.
         23    2    1    2    0    0  0.35527136788E-14 -0.17763568394E-14  0.00000000000E+00  0.91188000000E+02  0.91188000000E+02 0.  0.
    9900012    2    3    3    0    0 -0.29070026297E+02  0.10867740288E+02 -0.19814280090E+02  0.54367083344E+02  0.39999998100E+02 0.  0.
        -12    1    3    3    0    0  0.29070026297E+02 -0.10867740288E+02  0.19814280090E+02  0.36820916656E+02  0.00000000000E+00 0.  1.
         11    1    4    4    0    0 -0.15216539501E+01 -0.97514200948E+01 -0.38354857333E+01  0.10588511495E+02  0.51100000000E-03 0.  1.
        -11    1    4    4    0    0 -0.22879951661E+02  0.17866234972E+02 -0.23646827981E+01  0.29125354334E+02  0.51100000000E-03 0. -1.
        -12    1    4    4    0    0 -0.46684206868E+01  0.27529254101E+01 -0.13614111559E+02  0.14653217515E+02  0.00000000000E+00 0.  1.
</event>
<event>
 8    1  0.1261983E-006  0.9118800E+02  0.7816164E-02  0.1184000E+00
        -11   -1    0    0    0    0  0.00000000000E+00  0.00000000000E+00  0.45593999997E+02  0.45594000000E+02  0.51100000000E-03 0.  1.
         11   -1    0    0    0    0 -0.00000000000E+00 -0.00000000000E+00 -0.45593999997E+02  0.45594000000E+02  0.51100000000E-03 0. -1.
         23    2    1    2    0    0  0.00000000000E+00  0.17763568394E-14  0.35527136788E-14  0.91188000000E+02  0.91188000000E+02 0.  0.
    9900012    2    3    3    0    0 -0.19792438805E+02  0.12361291214E+02  0.28482267184E+02  0.54367058971E+02  0.39999942535E+02 0.  0.
         12    1    3    3    0    0  0.19792438805E+02 -0.12361291214E+02 -0.28482267184E+02  0.36820941029E+02  0.00000000000E+00 0. -1.
         11    1    4    4    0    0  0.11008906660E+02  0.61114958046E+01  0.96185676463E+01  0.15844975564E+02  0.51100000000E-03 0. -1.
        -11    1    4    4    0    0 -0.19579990635E+01  0.33493472603E+01  0.51643271577E+01  0.64592695141E+01  0.51100000000E-03 0.  1.
        -12    1    4    4    0    0 -0.28843346401E+02  0.29004481492E+01  0.13699372380E+02  0.32062813892E+02  0.00000000000E+00 0.  1.
</event>
<event>
 8    1  0.1261983E-006  0.9118800E+02  0.7816164E-02  0.1184000E+00
        -11   -1    0    0    0    0  0.00000000000E+00  0.00000000000E+00  0.45593999997E+02  0.45594000000E+02  0.51100000000E-03 0. -1.
         11   -1    0    0    0    0 -0.00000000000E+00 -0.00000000000E+00 -0.45593999997E+02  0.45594000000E+02  0.51100000000E-03 0.  1.
         23    2    1    2    0    0  0.35527136788E-14  0.00000000000E+00  0.88817841970E-15  0.91188000000E+02  0.91188000000E+02 0.  0.
    9900012    2    3    3    0    0 -0.17129788208E+02 -0.31767632438E+02 -0.72914661928E+01  0.54367114704E+02  0.40000069590E+02 0.  0.
        -12    1    3    3    0    0  0.17129788208E+02  0.31767632438E+02  0.72914661928E+01  0.36820885296E+02  0.00000000000E+00 0.  1.
         11    1    4    4    0    0 -0.41498668894E+01  0.44160600045E+01 -0.48506589038E+01  0.77622080123E+01  0.51100000000E-03 0.  1.
        -11    1    4    4    0    0  0.32055379582E+01 -0.19037467481E+02 -0.10132845668E+02  0.21803100773E+02  0.51100000000E-03 0. -1.
         12    1    4    4    0    0 -0.16185459277E+02 -0.17146224961E+02  0.76920383792E+01  0.24801805919E+02  0.00000000000E+00 0. -1.
</event>
<event>
 8    1  0.1261983E-006  0.9118800E+02  0.7816164E-02  0.1184000E+00
        -11   -1    0    0    0    0  0.00000000000E+00  0.00000000000E+00  0.45593999997E+02  0.45594000000E+02  0.51100000000E-03 0. -1.
         11   -1    0    0    0    0 -0.00000000000E+00 -0.00000000000E+00 -0.45593999997E+02  0.45594000000E+02  0.51100000000E-03 0.  1.
         23    2    1    2    0    0  0.00000000000E+00  0.00000000000E+00  0.00000000000E+00  0.91188000000E+02  0.91188000000E+02 0.  0.
    9900012    2    3    3    0    0 -0.18253801606E+02 -0.16507078832E+02 -0.27387831067E+02  0.54367106268E+02  0.40000050360E+02 0.  0.
         12    1    3    3    0    0  0.18253801606E+02  0.16507078832E+02  0.27387831067E+02  0.36820893732E+02  0.00000000000E+00 0. -1.
         11    1    4    4    0    0 -0.26835229836E+01 -0.53018776529E+01 -0.14195454938E+00  0.59440183046E+01  0.51100000000E-03 0. -1.
        -11    1    4    4    0    0 -0.12636380875E+02 -0.13470446866E+02  0.23297555183E+01  0.18616090390E+02  0.51100000000E-03 0.  1.
        -12    1    4    4    0    0 -0.29338977470E+01  0.22652456865E+01 -0.29575632036E+02  0.29806997573E+02  0.00000000000E+00 0.  1.
</event>
<event>
 8    1  0.1261983E-006  0.9118800E+02  0.7816164E-02  0.1184000E+00
        -11   -1    0    0    0    0  0.00000000000E+00  0.00000000000E+00  0.45593999997E+02  0.45594000000E+02  0.51100000000E-03 0.  1.
         11   -1    0    0    0    0 -0.00000000000E+00 -0.00000000000E+00 -0.45593999997E+02  0.45594000000E+02  0.51100000000E-03 0. -1.
         23    2    1    2    0    0 -0.35527136788E-14  0.00000000000E+00  0.00000000000E+00  0.91188000000E+02  0.91188000000E+02 0.  0.
    9900012    2    3    3    0    0 -0.80253798304E+01  0.87349725379E+01  0.34857909378E+02  0.54367077784E+02  0.39999985424E+02 0.  0.
         12    1    3    3    0    0  0.80253798304E+01 -0.87349725379E+01 -0.34857909378E+02  0.36820922216E+02  0.00000000000E+00 0. -1.
         11    1    4    4    0    0 -0.42640176301E+01 -0.22465409145E+01  0.30521632742E+01  0.57047781152E+01  0.51100000000E-03 0. -1.
        -11    1    4    4    0    0  0.98043477442E+01  0.76766799197E+01 -0.15058299931E+01  0.12542893347E+02  0.51100000000E-03 0.  1.
        -12    1    4    4    0    0 -0.13565709945E+02  0.33048335327E+01  0.33311576097E+02  0.36119406322E+02  0.00000000000E+00 0.  1.
</event>
<event>
 8    1  0.1261983E-006  0.9118800E+02  0.7816164E-02  0.1184000E+00
        -11   -1    0    0    0    0  0.00000000000E+00  0.00000000000E+00  0.45593999997E+02  0.45594000000E+02  0.51100000000E-03 0.  1.
         11   -1    0    0    0    0 -0.00000000000E+00 -0.00000000000E+00 -0.45593999997E+02  0.45594000000E+02  0.51100000000E-03 0. -1.
         23    2    1    2    0    0  0.17763568394E-14  0.35527136788E-14 -0.35527136788E-14  0.91188000000E+02  0.91188000000E+02 0.  0.
    9900012    2    3    3    0    0 -0.90890493368E+01 -0.31486642526E+02  0.16785695850E+02  0.54367094789E+02  0.40000024190E+02 0.  0.
         12    1    3    3    0    0  0.90890493368E+01  0.31486642526E+02 -0.16785695850E+02  0.36820905211E+02  0.00000000000E+00 0. -1.
         11    1    4    4    0    0 -0.15834479668E+02 -0.23794015924E+02 -0.22796743648E+01  0.28671987298E+02  0.51100000000E-03 0. -1.
        -11    1    4    4    0    0 -0.77415664897E+00 -0.77726633446E+01  0.38183350329E+01  0.86944405611E+01  0.51100000000E-03 0.  1.
        -12    1    4    4    0    0  0.75195869799E+01  0.80036742628E-01  0.15247035182E+02  0.17000666930E+02  0.00000000000E+00 0.  1.
</event>
<event>
 8    1  0.1261983E-006  0.9118800E+02  0.7816164E-02  0.1184000E+00
        -11   -1    0    0    0    0  0.00000000000E+00  0.00000000000E+00  0.45593999997E+02  0.45594000000E+02  0.51100000000E-03 0.  1.
         11   -1    0    0    0    0 -0.00000000000E+00 -0.00000000000E+00 -0.45593999997E+02  0.45594000000E+02  0.51100000000E-03 0. -1.
         23    2    1    2    0    0  0.71054273576E-14  0.30531133177E-15  0.22204460493E-15  0.91188000000E+02  0.91188000000E+02 0.  0.
    9900012    2    3    3    0    0  0.36816704341E+02  0.18323521117E+00 -0.52055336060E+00  0.54367159848E+02  0.40000172505E+02 0.  0.
         12    1    3    3    0    0 -0.36816704341E+02 -0.18323521117E+00  0.52055336060E+00  0.36820840152E+02  0.00000000000E+00 0. -1.
         11    1    4    4    0    0  0.78452392102E+01 -0.67716525305E+01 -0.13700351353E+02  0.17178553016E+02  0.51100000000E-03 0. -1.
        -11    1    4    4    0    0 -0.64936853414E+00  0.18453933374E+01  0.59635495106E+01  0.62762312808E+01  0.51100000000E-03 0.  1.
         12    1    4    4    0    0  0.29620833665E+02  0.51094944042E+01  0.72162484819E+01  0.30912375551E+02  0.00000000000E+00 0. -1.
</event>
<event>
 8    1  0.1261983E-006  0.9118800E+02  0.7816164E-02  0.1184000E+00
        -11   -1    0    0    0    0  0.00000000000E+00  0.00000000000E+00  0.45593999997E+02  0.45594000000E+02  0.51100000000E-03 0.  1.
         11   -1    0    0    0    0 -0.00000000000E+00 -0.00000000000E+00 -0.45593999997E+02  0.45594000000E+02  0.51100000000E-03 0. -1.
         23    2    1    2    0    0  0.17763568394E-14  0.00000000000E+00  0.00000000000E+00  0.91188000000E+02  0.91188000000E+02 0.  0.
    9900012    2    3    3    0    0 -0.15463142367E+02  0.17000993312E+02  0.28768710599E+02  0.54367064991E+02  0.39999956259E+02 0.  0.
         12    1    3    3    0    0  0.15463142367E+02 -0.17000993312E+02 -0.28768710599E+02  0.36820935009E+02  0.00000000000E+00 0. -1.
         11    1    4    4    0    0 -0.19709769956E+01 -0.57736266790E+01  0.17826322292E+01  0.63558865055E+01  0.51100000000E-03 0. -1.
        -11    1    4    4    0    0 -0.61164193659E+01 -0.40271931983E+01  0.16936969309E+02  0.18452365717E+02  0.51100000000E-03 0.  1.
        -12    1    4    4    0    0 -0.73757460060E+01  0.26801813189E+02  0.10049109061E+02  0.29558812768E+02  0.00000000000E+00 0.  1.
</event>
<event>
 8    1  0.1261983E-006  0.9118800E+02  0.7816164E-02  0.1184000E+00
        -11   -1    0    0    0    0  0.00000000000E+00  0.00000000000E+00  0.45593999997E+02  0.45594000000E+02  0.51100000000E-03 0.  1.
         11   -1    0    0    0    0 -0.00000000000E+00 -0.00000000000E+00 -0.45593999997E+02  0.45594000000E+02  0.51100000000E-03 0. -1.
         23    2    1    2    0    0  0.00000000000E+00  0.00000000000E+00  0.00000000000E+00  0.91188000000E+02  0.91188000000E+02 0.  0.
    9900012    2    3    3    0    0  0.52877524962E+01 -0.21364205029E+02  0.29519317354E+02  0.54367086377E+02  0.40000005014E+02 0.  0.
         12    1    3    3    0    0 -0.52877524962E+01  0.21364205029E+02 -0.29519317354E+02  0.36820913623E+02  0.00000000000E+00 0. -1.
         11    1    4    4    0    0  0.11327639216E+02 -0.16217863363E+01  0.25273242627E+01  0.11718915023E+02  0.51100000000E-03 0. -1.
        -11    1    4    4    0    0  0.78206867330E+01 -0.17060220732E+02  0.13484465901E+02  0.23109415684E+02  0.51100000000E-03 0.  1.
         12    1    4    4    0    0 -0.13860573452E+02 -0.26821979611E+01  0.13507527190E+02  0.19538755670E+02  0.00000000000E+00 0. -1.
</event>
<event>
 8    1  0.1261983E-006  0.9118800E+02  0.7816164E-02  0.1184000E+00
        -11   -1    0    0    0    0  0.00000000000E+00  0.00000000000E+00  0.45593999997E+02  0.45594000000E+02  0.51100000000E-03 0. -1.
         11   -1    0    0    0    0 -0.00000000000E+00 -0.00000000000E+00 -0.45593999997E+02  0.45594000000E+02  0.51100000000E-03 0.  1.
         23    2    1    2    0    0  0.35527136788E-14  0.00000000000E+00  0.35527136788E-14  0.91188000000E+02  0.91188000000E+02 0.  0.
    9900012    2    3    3    0    0 -0.18638975667E+02  0.13266115084E+02  0.28851012588E+02  0.54367052827E+02  0.39999928530E+02 0.  0.
        -12    1    3    3    0    0  0.18638975667E+02 -0.13266115084E+02 -0.28851012588E+02  0.36820947173E+02  0.00000000000E+00 0.  1.
         11    1    4    4    0    0 -0.56107954730E+01  0.17857936504E+02  0.15817690313E+02  0.24506861266E+02  0.51100000000E-03 0. -1.
        -11    1    4    4    0    0  0.30583234630E+01 -0.60487236627E+01 -0.27147431468E+01  0.73013855512E+01  0.51100000000E-03 0.  1.
        -12    1    4    4    0    0 -0.16086503657E+02  0.14569022430E+01  0.15748065422E+02  0.22558806010E+02  0.00000000000E+00 0.  1.
</event>
<event>
 8    1  0.1261983E-006  0.9118800E+02  0.7816164E-02  0.1184000E+00
        -11   -1    0    0    0    0  0.00000000000E+00  0.00000000000E+00  0.45593999997E+02  0.45594000000E+02  0.51100000000E-03 0. -1.
         11   -1    0    0    0    0 -0.00000000000E+00 -0.00000000000E+00 -0.45593999997E+02  0.45594000000E+02  0.51100000000E-03 0.  1.
         23    2    1    2    0    0  0.00000000000E+00 -0.17763568394E-14  0.71054273576E-14  0.91188000000E+02  0.91188000000E+02 0.  0.
    9900012    2    3    3    0    0  0.12231455419E+02  0.13334312281E+02  0.32068164216E+02  0.54367088253E+02  0.40000009290E+02 0.  0.
        -12    1    3    3    0    0 -0.12231455419E+02 -0.13334312281E+02 -0.32068164216E+02  0.36820911747E+02  0.00000000000E+00 0.  1.
         11    1    4    4    0    0  0.50729416443E+01  0.21820266876E+02  0.66027790317E+01  0.23354988218E+02  0.51100000000E-03 0. -1.
        -11    1    4    4    0    0  0.84581510056E+01 -0.52234534208E+01  0.68601949376E+01  0.12078371534E+02  0.51100000000E-03 0.  1.
         12    1    4    4    0    0 -0.12996372305E+01 -0.32625011735E+01  0.18605190247E+02  0.18933728501E+02  0.00000000000E+00 0. -1.
</event>
<event>
 8    1  0.1261983E-006  0.9118800E+02  0.7816164E-02  0.1184000E+00
        -11   -1    0    0    0    0  0.00000000000E+00  0.00000000000E+00  0.45593999997E+02  0.45594000000E+02  0.51100000000E-03 0. -1.
         11   -1    0    0    0    0 -0.00000000000E+00 -0.00000000000E+00 -0.45593999997E+02  0.45594000000E+02  0.51100000000E-03 0.  1.
         23    2    1    2    0    0  0.00000000000E+00  0.00000000000E+00  0.00000000000E+00  0.91188000000E+02  0.91188000000E+02 0.  0.
    9900012    2    3    3    0    0 -0.21900024608E+02  0.81178289696E+01  0.28465243750E+02  0.54367077595E+02  0.39999984993E+02 0.  0.
        -12    1    3    3    0    0  0.21900024608E+02 -0.81178289696E+01 -0.28465243750E+02  0.36820922405E+02  0.00000000000E+00 0.  1.
         11    1    4    4    0    0 -0.14565741200E+02 -0.81757221366E+01  0.25290846530E+02  0.30308912346E+02  0.51100000000E-03 0. -1.
        -11    1    4    4    0    0  0.11368368286E+01 -0.10880547795E+01 -0.33090547001E+01  0.36641649045E+01  0.51100000000E-03 0.  1.
        -12    1    4    4    0    0 -0.84711202372E+01  0.17381605886E+02  0.64834519200E+01  0.20394000344E+02  0.00000000000E+00 0.  1.
</event>
<event>
 8    1  0.1261983E-006  0.9118800E+02  0.7816164E-02  0.1184000E+00
        -11   -1    0    0    0    0  0.00000000000E+00  0.00000000000E+00  0.45593999997E+02  0.45594000000E+02  0.51100000000E-03 0. -1.
         11   -1    0    0    0    0 -0.00000000000E+00 -0.00000000000E+00 -0.45593999997E+02  0.45594000000E+02  0.51100000000E-03 0.  1.
         23    2    1    2    0    0  0.00000000000E+00  0.17763568394E-14  0.00000000000E+00  0.91188000000E+02  0.91188000000E+02 0.  0.
    9900012    2    3    3    0    0 -0.34914355324E+02 -0.10984322081E+02 -0.40139156094E+01  0.54367094827E+02  0.40000024276E+02 0.  0.
        -12    1    3    3    0    0  0.34914355324E+02  0.10984322081E+02  0.40139156094E+01  0.36820905173E+02  0.00000000000E+00 0.  1.
         11    1    4    4    0    0 -0.17265332195E+02 -0.74913344423E+00  0.62567591158E+01  0.18379334363E+02  0.51100000000E-03 0. -1.
        -11    1    4    4    0    0 -0.20653310690E+02 -0.10871151552E+02 -0.16810111986E+02  0.28763189040E+02  0.51100000000E-03 0.  1.
        -12    1    4    4    0    0  0.30042875609E+01  0.63596291519E+00  0.65394372605E+01  0.72245714241E+01  0.00000000000E+00 0.  1.
</event>
<event>
 8    1  0.1261983E-006  0.9118800E+02  0.7816164E-02  0.1184000E+00
        -11   -1    0    0    0    0  0.00000000000E+00  0.00000000000E+00  0.45593999997E+02  0.45594000000E+02  0.51100000000E-03 0. -1.
         11   -1    0    0    0    0 -0.00000000000E+00 -0.00000000000E+00 -0.45593999997E+02  0.45594000000E+02  0.51100000000E-03 0.  1.
         23    2    1    2    0    0  0.00000000000E+00  0.17763568394E-14  0.00000000000E+00  0.91188000000E+02  0.91188000000E+02 0.  0.
    9900012    2    3    3    0    0 -0.26262441556E+02 -0.12668551719E+02  0.22484882828E+02  0.54367109260E+02  0.40000057179E+02 0.  0.
        -12    1    3    3    0    0  0.26262441556E+02  0.12668551719E+02 -0.22484882828E+02  0.36820890740E+02  0.00000000000E+00 0.  1.
         11    1    4    4    0    0 -0.76815717112E+01 -0.12402491216E+00  0.93959814300E+01  0.12136984528E+02  0.51100000000E-03 0. -1.
        -11    1    4    4    0    0 -0.10802378279E+02 -0.16695789032E+02  0.22026823355E+02  0.29675270770E+02  0.51100000000E-03 0.  1.
         12    1    4    4    0    0 -0.77784915657E+01  0.41512622252E+01 -0.89379219569E+01  0.12554853962E+02  0.00000000000E+00 0. -1.
</event>
<event>
 8    1  0.1261983E-006  0.9118800E+02  0.7816164E-02  0.1184000E+00
        -11   -1    0    0    0    0  0.00000000000E+00  0.00000000000E+00  0.45593999997E+02  0.45594000000E+02  0.51100000000E-03 0.  1.
         11   -1    0    0    0    0 -0.00000000000E+00 -0.00000000000E+00 -0.45593999997E+02  0.45594000000E+02  0.51100000000E-03 0. -1.
         23    2    1    2    0    0  0.35527136788E-14  0.71054273576E-14  0.00000000000E+00  0.91188000000E+02  0.91188000000E+02 0.  0.
    9900012    2    3    3    0    0  0.66160611626E+01  0.34482021498E+02  0.11090475622E+02  0.54367072236E+02  0.39999972776E+02 0.  0.
         12    1    3    3    0    0 -0.66160611626E+01 -0.34482021498E+02 -0.11090475622E+02  0.36820927764E+02  0.00000000000E+00 0. -1.
         11    1    4    4    0    0 -0.11011561595E+02  0.59936986674E+01 -0.43650156191E+00  0.12544697938E+02  0.51100000000E-03 0. -1.
        -11    1    4    4    0    0  0.62448943550E+01  0.27802678690E+02  0.58731371194E+01  0.29094353193E+02  0.51100000000E-03 0.  1.
         12    1    4    4    0    0  0.11382728403E+02  0.68564414047E+00  0.56538400642E+01  0.12728021105E+02  0.00000000000E+00 0. -1.
</event>
<event>
 8    1  0.1261983E-006  0.9118800E+02  0.7816164E-02  0.1184000E+00
        -11   -1    0    0    0    0  0.00000000000E+00  0.00000000000E+00  0.45593999997E+02  0.45594000000E+02  0.51100000000E-03 0. -1.
         11   -1    0    0    0    0 -0.00000000000E+00 -0.00000000000E+00 -0.45593999997E+02  0.45594000000E+02  0.51100000000E-03 0.  1.
         23    2    1    2    0    0  0.00000000000E+00  0.00000000000E+00 -0.13322676296E-14  0.91188000000E+02  0.91188000000E+02 0.  0.
    9900012    2    3    3    0    0 -0.34548577792E+02 -0.12719692611E+02 -0.62062288440E+00  0.54367082299E+02  0.39999995717E+02 0.  0.
        -12    1    3    3    0    0  0.34548577792E+02  0.12719692611E+02  0.62062288440E+00  0.36820917701E+02  0.00000000000E+00 0.  1.
         11    1    4    4    0    0 -0.13854799910E+02 -0.10256481276E+02  0.17902495590E+02  0.24852570035E+02  0.51100000000E-03 0. -1.
        -11    1    4    4    0    0 -0.21451235150E+02 -0.11754299275E+01 -0.17256741692E+02  0.27555984088E+02  0.51100000000E-03 0.  1.
        -12    1    4    4    0    0  0.75745726706E+00 -0.12877814069E+01 -0.12663767826E+01  0.19585281767E+01  0.00000000000E+00 0.  1.
</event>
<event>
 8    1  0.1261983E-006  0.9118800E+02  0.7816164E-02  0.1184000E+00
        -11   -1    0    0    0    0  0.00000000000E+00  0.00000000000E+00  0.45593999997E+02  0.45594000000E+02  0.51100000000E-03 0.  1.
         11   -1    0    0    0    0 -0.00000000000E+00 -0.00000000000E+00 -0.45593999997E+02  0.45594000000E+02  0.51100000000E-03 0. -1.
         23    2    1    2    0    0  0.00000000000E+00  0.00000000000E+00  0.00000000000E+00  0.91188000000E+02  0.91188000000E+02 0.  0.
    9900012    2    3    3    0    0 -0.22931327553E+02 -0.17143619013E+02 -0.23152273636E+02  0.54367119637E+02  0.40000080837E+02 0.  0.
        -12    1    3    3    0    0  0.22931327553E+02  0.17143619013E+02  0.23152273636E+02  0.36820880363E+02  0.00000000000E+00 0.  1.
         11    1    4    4    0    0 -0.10995710313E+02 -0.10469678385E+02 -0.91235607277E+01  0.17713248471E+02  0.51100000000E-03 0. -1.
        -11    1    4    4    0    0 -0.17085223756E+02  0.35006144450E+01  0.13683614903E+01  0.17493758478E+02  0.51100000000E-03 0.  1.
         12    1    4    4    0    0  0.51496065160E+01 -0.10174555073E+02 -0.15397074398E+02  0.19160112688E+02  0.00000000000E+00 0. -1.
</event>
<event>
 8    1  0.1261983E-006  0.9118800E+02  0.7816164E-02  0.1184000E+00
        -11   -1    0    0    0    0  0.00000000000E+00  0.00000000000E+00  0.45593999997E+02  0.45594000000E+02  0.51100000000E-03 0.  1.
         11   -1    0    0    0    0 -0.00000000000E+00 -0.00000000000E+00 -0.45593999997E+02  0.45594000000E+02  0.51100000000E-03 0. -1.
         23    2    1    2    0    0  0.00000000000E+00 -0.35527136788E-14  0.17763568394E-14  0.91188000000E+02  0.91188000000E+02 0.  0.
    9900012    2    3    3    0    0 -0.20871033899E+02 -0.28658605304E+02  0.99430164038E+01  0.54367091684E+02  0.40000017112E+02 0.  0.
         12    1    3    3    0    0  0.20871033899E+02  0.28658605304E+02 -0.99430164038E+01  0.36820908316E+02  0.00000000000E+00 0. -1.
         11    1    4    4    0    0 -0.21190754484E+01  0.52258415164E+00 -0.21429074607E+01  0.30586970425E+01  0.51100000000E-03 0. -1.
        -11    1    4    4    0    0 -0.18898144305E+02 -0.10505205803E+02  0.21414625671E+02  0.30431651287E+02  0.51100000000E-03 0.  1.
        -12    1    4    4    0    0  0.14618585493E+00 -0.18675983653E+02 -0.93287018066E+01  0.20876743355E+02  0.00000000000E+00 0.  1.
</event>
<event>
 8    1  0.1261983E-006  0.9118800E+02  0.7816164E-02  0.1184000E+00
        -11   -1    0    0    0    0  0.00000000000E+00  0.00000000000E+00  0.45593999997E+02  0.45594000000E+02  0.51100000000E-03 0.  1.
         11   -1    0    0    0    0 -0.00000000000E+00 -0.00000000000E+00 -0.45593999997E+02  0.45594000000E+02  0.51100000000E-03 0. -1.
         23    2    1    2    0    0  0.00000000000E+00  0.17763568394E-14  0.13322676296E-14  0.91188000000E+02  0.91188000000E+02 0.  0.
    9900012    2    3    3    0    0 -0.33674100322E+02  0.14762891103E+02  0.19730153073E+01  0.54367071499E+02  0.39999971097E+02 0.  0.
        -12    1    3    3    0    0  0.33674100322E+02 -0.14762891103E+02 -0.19730153073E+01  0.36820928501E+02  0.00000000000E+00 0.  1.
         11    1    4    4    0    0 -0.66787117848E+01  0.41187024280E+01  0.14595524587E+01  0.79811775094E+01  0.51100000000E-03 0. -1.
        -11    1    4    4    0    0 -0.37405234943E+01 -0.54323285220E+01  0.13689351274E+02  0.15195395610E+02  0.51100000000E-03 0.  1.
        -12    1    4    4    0    0 -0.23254865043E+02  0.16076517197E+02 -0.13175888426E+02  0.31190498380E+02  0.00000000000E+00 0.  1.
</event>
<event>
 8    1  0.1261983E-006  0.9118800E+02  0.7816164E-02  0.1184000E+00
        -11   -1    0    0    0    0  0.00000000000E+00  0.00000000000E+00  0.45593999997E+02  0.45594000000E+02  0.51100000000E-03 0. -1.
         11   -1    0    0    0    0 -0.00000000000E+00 -0.00000000000E+00 -0.45593999997E+02  0.45594000000E+02  0.51100000000E-03 0.  1.
         23    2    1    2    0    0  0.00000000000E+00 -0.17763568394E-14  0.00000000000E+00  0.91188000000E+02  0.91188000000E+02 0.  0.
    9900012    2    3    3    0    0  0.22276396511E+02  0.11719703475E+02  0.26873526134E+02  0.54367140451E+02  0.40000128285E+02 0.  0.
        -12    1    3    3    0    0 -0.22276396511E+02 -0.11719703475E+02 -0.26873526134E+02  0.36820859549E+02  0.00000000000E+00 0.  1.
         11    1    4    4    0    0  0.62560283825E+01  0.18110880557E+02  0.26329209957E+02  0.32563310380E+02  0.51100000000E-03 0. -1.
        -11    1    4    4    0    0  0.12068928815E+02  0.18539249884E+01 -0.18564951206E+01  0.12350815965E+02  0.51100000000E-03 0.  1.
         12    1    4    4    0    0  0.39514393132E+01 -0.82451020701E+01  0.24008112975E+01  0.94530141055E+01  0.00000000000E+00 0. -1.
</event>
<event>
 8    1  0.1261983E-006  0.9118800E+02  0.7816164E-02  0.1184000E+00
        -11   -1    0    0    0    0  0.00000000000E+00  0.00000000000E+00  0.45593999997E+02  0.45594000000E+02  0.51100000000E-03 0.  1.
         11   -1    0    0    0    0 -0.00000000000E+00 -0.00000000000E+00 -0.45593999997E+02  0.45594000000E+02  0.51100000000E-03 0. -1.
         23    2    1    2    0    0  0.00000000000E+00  0.35527136788E-14  0.00000000000E+00  0.91188000000E+02  0.91188000000E+02 0.  0.
    9900012    2    3    3    0    0 -0.27831482085E+02 -0.20965178870E+02 -0.11901671183E+02  0.54367083431E+02  0.39999998297E+02 0.  0.
        -12    1    3    3    0    0  0.27831482085E+02  0.20965178870E+02  0.11901671183E+02  0.36820916569E+02  0.00000000000E+00 0.  1.
         11    1    4    4    0    0 -0.24085990743E+01  0.24064301779E+01 -0.13231976536E+02  0.13662995975E+02  0.51100000000E-03 0. -1.
        -11    1    4    4    0    0 -0.88487151780E+01 -0.34589990621E+01 -0.87386111251E+01  0.12908437530E+02  0.51100000000E-03 0.  1.
        -12    1    4    4    0    0 -0.16574167832E+02 -0.19912609985E+02  0.10068916478E+02  0.27795649926E+02  0.00000000000E+00 0.  1.
</event>
<event>
 8    1  0.1261983E-006  0.9118800E+02  0.7816164E-02  0.1184000E+00
        -11   -1    0    0    0    0  0.00000000000E+00  0.00000000000E+00  0.45593999997E+02  0.45594000000E+02  0.51100000000E-03 0.  1.
         11   -1    0    0    0    0 -0.00000000000E+00 -0.00000000000E+00 -0.45593999997E+02  0.45594000000E+02  0.51100000000E-03 0. -1.
         23    2    1    2    0    0  0.35527136788E-14 -0.17763568394E-14  0.17763568394E-14  0.91188000000E+02  0.91188000000E+02 0.  0.
    9900012    2    3    3    0    0  0.29764970286E+02 -0.15823470036E+02  0.14813656011E+02  0.54367081156E+02  0.39999993111E+02 0.  0.
        -12    1    3    3    0    0 -0.29764970286E+02  0.15823470036E+02 -0.14813656011E+02  0.36820918844E+02  0.00000000000E+00 0.  1.
         11    1    4    4    0    0  0.11718913070E+02  0.37746765029E+01 -0.20817762168E+01  0.12486588754E+02  0.51100000000E-03 0. -1.
        -11    1    4    4    0    0  0.21924283478E+02 -0.23945548112E+02  0.14902295422E+02  0.35723128216E+02  0.51100000000E-03 0.  1.
        -12    1    4    4    0    0 -0.38782262619E+01  0.43474015739E+01  0.19931368064E+01  0.61573641854E+01  0.00000000000E+00 0.  1.
</event>
<event>
 8    1  0.1261983E-006  0.9118800E+02  0.7816164E-02  0.1184000E+00
        -11   -1    0    0    0    0  0.00000000000E+00  0.00000000000E+00  0.45593999997E+02  0.45594000000E+02  0.51100000000E-03 0.  1.
         11   -1    0    0    0    0 -0.00000000000E+00 -0.00000000000E+00 -0.45593999997E+02  0.45594000000E+02  0.51100000000E-03 0. -1.
         23    2    1    2    0    0  0.00000000000E+00 -0.35527136788E-14  0.00000000000E+00  0.91188000000E+02  0.91188000000E+02 0.  0.
    9900012    2    3    3    0    0  0.12577913659E+02  0.14035518087E+02 -0.31631938679E+02  0.54367092562E+02  0.40000019113E+02 0.  0.
        -12    1    3    3    0    0 -0.12577913659E+02 -0.14035518087E+02  0.31631938679E+02  0.36820907438E+02  0.00000000000E+00 0.  1.
         11    1    4    4    0    0  0.30409548801E+01  0.20155924303E+02 -0.34366347834E+02  0.39956908724E+02  0.51100000000E-03 0. -1.
        -11    1    4    4    0    0  0.39323771431E+01 -0.69739063161E+01 -0.23656580186E+00  0.80096768313E+01  0.51100000000E-03 0.  1.
        -12    1    4    4    0    0  0.56045816362E+01  0.85350009989E+00  0.29709749568E+01  0.64005070058E+01  0.00000000000E+00 0.  1.
</event>
<event>
 8    1  0.1261983E-006  0.9118800E+02  0.7816164E-02  0.1184000E+00
        -11   -1    0    0    0    0  0.00000000000E+00  0.00000000000E+00  0.45593999997E+02  0.45594000000E+02  0.51100000000E-03 0.  1.
         11   -1    0    0    0    0 -0.00000000000E+00 -0.00000000000E+00 -0.45593999997E+02  0.45594000000E+02  0.51100000000E-03 0. -1.
         23    2    1    2    0    0  0.00000000000E+00  0.00000000000E+00  0.17763568394E-14  0.91188000000E+02  0.91188000000E+02 0.  0.
    9900012    2    3    3    0    0  0.29964783461E+02 -0.16606367447E+02  0.13495196501E+02  0.54367081811E+02  0.39999994605E+02 0.  0.
         12    1    3    3    0    0 -0.29964783461E+02  0.16606367447E+02 -0.13495196501E+02  0.36820918189E+02  0.00000000000E+00 0. -1.
         11    1    4    4    0    0 -0.11141011665E+01  0.49056540719E+01 -0.16491441563E+00  0.50332753062E+01  0.51100000000E-03 0. -1.
        -11    1    4    4    0    0  0.10539469871E+02 -0.20005308674E+02 -0.30450354560E+01  0.22815894493E+02  0.51100000000E-03 0.  1.
        -12    1    4    4    0    0  0.20539414757E+02 -0.15067128443E+01  0.16705146373E+02  0.26517912012E+02  0.00000000000E+00 0.  1.
</event>
<event>
 8    1  0.1261983E-006  0.9118800E+02  0.7816164E-02  0.1184000E+00
        -11   -1    0    0    0    0  0.00000000000E+00  0.00000000000E+00  0.45593999997E+02  0.45594000000E+02  0.51100000000E-03 0.  1.
         11   -1    0    0    0    0 -0.00000000000E+00 -0.00000000000E+00 -0.45593999997E+02  0.45594000000E+02  0.51100000000E-03 0. -1.
         23    2    1    2    0    0 -0.35527136788E-14  0.00000000000E+00 -0.44408920985E-15  0.91188000000E+02  0.91188000000E+02 0.  0.
    9900012    2    3    3    0    0 -0.16270739389E+02  0.32853784413E+02  0.34164180379E+01  0.54367081723E+02  0.39999994404E+02 0.  0.
         12    1    3    3    0    0  0.16270739389E+02 -0.32853784413E+02 -0.34164180379E+01  0.36820918277E+02  0.00000000000E+00 0. -1.
         11    1    4    4    0    0  0.49053222277E+01  0.28459443627E+01  0.24177261229E+01  0.61649805628E+01  0.51100000000E-03 0. -1.
        -11    1    4    4    0    0 -0.17587544855E+02  0.31800779590E+02  0.10551622308E+02  0.37841089442E+02  0.51100000000E-03 0.  1.
         12    1    4    4    0    0 -0.35885167620E+01 -0.17929395392E+01 -0.95529303932E+01  0.10361011719E+02  0.00000000000E+00 0. -1.
</event>
<event>
 8    1  0.1261983E-006  0.9118800E+02  0.7816164E-02  0.1184000E+00
        -11   -1    0    0    0    0  0.00000000000E+00  0.00000000000E+00  0.45593999997E+02  0.45594000000E+02  0.51100000000E-03 0.  1.
         11   -1    0    0    0    0 -0.00000000000E+00 -0.00000000000E+00 -0.45593999997E+02  0.45594000000E+02  0.51100000000E-03 0. -1.
         23    2    1    2    0    0  0.00000000000E+00  0.17763568394E-14  0.00000000000E+00  0.91188000000E+02  0.91188000000E+02 0.  0.
    9900012    2    3    3    0    0 -0.32007854419E+02  0.17449836491E+01  0.18117231453E+02  0.54367057753E+02  0.39999939759E+02 0.  0.
         12    1    3    3    0    0  0.32007854419E+02 -0.17449836491E+01 -0.18117231453E+02  0.36820942247E+02  0.00000000000E+00 0. -1.
         11    1    4    4    0    0 -0.24880867397E+01 -0.31773834874E+01 -0.24196006299E+01  0.47054020997E+01  0.51100000000E-03 0. -1.
        -11    1    4    4    0    0 -0.14040087223E+02 -0.13917580050E+02  0.39195370630E+01  0.20154053060E+02  0.51100000000E-03 0.  1.
        -12    1    4    4    0    0 -0.15479680456E+02  0.18839947187E+02  0.16617295020E+02  0.29507602594E+02  0.00000000000E+00 0.  1.
</event>
<event>
 8    1  0.1261983E-006  0.9118800E+02  0.7816164E-02  0.1184000E+00
        -11   -1    0    0    0    0  0.00000000000E+00  0.00000000000E+00  0.45593999997E+02  0.45594000000E+02  0.51100000000E-03 0.  1.
         11   -1    0    0    0    0 -0.00000000000E+00 -0.00000000000E+00 -0.45593999997E+02  0.45594000000E+02  0.51100000000E-03 0. -1.
         23    2    1    2    0    0  0.00000000000E+00  0.00000000000E+00  0.35527136788E-14  0.91188000000E+02  0.91188000000E+02 0.  0.
    9900012    2    3    3    0    0  0.97147336116E+01  0.22293624518E+02 -0.27647739332E+02  0.54367092442E+02  0.40000018839E+02 0.  0.
        -12    1    3    3    0    0 -0.97147336116E+01 -0.22293624518E+02  0.27647739332E+02  0.36820907558E+02  0.00000000000E+00 0.  1.
         11    1    4    4    0    0  0.45234758597E+01  0.88877782856E+01  0.13096882316E+01  0.10058315974E+02  0.51100000000E-03 0. -1.
        -11    1    4    4    0    0 -0.11439773494E+02  0.86071992873E+01 -0.59170244407E+01  0.15490754522E+02  0.51100000000E-03 0.  1.
         12    1    4    4    0    0  0.16631031246E+02  0.47986469448E+01 -0.23040403122E+02  0.28818021946E+02  0.00000000000E+00 0. -1.
</event>
<event>
 8    1  0.1261983E-006  0.9118800E+02  0.7816164E-02  0.1184000E+00
        -11   -1    0    0    0    0  0.00000000000E+00  0.00000000000E+00  0.45593999997E+02  0.45594000000E+02  0.51100000000E-03 0. -1.
         11   -1    0    0    0    0 -0.00000000000E+00 -0.00000000000E+00 -0.45593999997E+02  0.45594000000E+02  0.51100000000E-03 0.  1.
         23    2    1    2    0    0 -0.35527136788E-14  0.00000000000E+00  0.00000000000E+00  0.91188000000E+02  0.91188000000E+02 0.  0.
    9900012    2    3    3    0    0  0.27310434130E+02  0.24335862780E+02 -0.42054881410E+01  0.54367079858E+02  0.39999990152E+02 0.  0.
         12    1    3    3    0    0 -0.27310434130E+02 -0.24335862780E+02  0.42054881410E+01  0.36820920142E+02  0.00000000000E+00 0. -1.
         11    1    4    4    0    0  0.95973924417E+00  0.16420169352E+00 -0.29816074573E+01  0.31365657818E+01  0.51100000000E-03 0. -1.
        -11    1    4    4    0    0 -0.38029883079E+01  0.20437671033E+02  0.53836711197E+00  0.20795455194E+02  0.51100000000E-03 0.  1.
         12    1    4    4    0    0  0.30153683194E+02  0.37339900539E+01 -0.17622477957E+01  0.30435058882E+02  0.00000000000E+00 0. -1.
</event>
<event>
 8    1  0.1261983E-006  0.9118800E+02  0.7816164E-02  0.1184000E+00
        -11   -1    0    0    0    0  0.00000000000E+00  0.00000000000E+00  0.45593999997E+02  0.45594000000E+02  0.51100000000E-03 0. -1.
         11   -1    0    0    0    0 -0.00000000000E+00 -0.00000000000E+00 -0.45593999997E+02  0.45594000000E+02  0.51100000000E-03 0.  1.
         23    2    1    2    0    0  0.00000000000E+00  0.00000000000E+00  0.00000000000E+00  0.91188000000E+02  0.91188000000E+02 0.  0.
    9900012    2    3    3    0    0  0.34485222348E+02 -0.78731395539E+01 -0.10225660088E+02  0.54367068302E+02  0.39999963809E+02 0.  0.
         12    1    3    3    0    0 -0.34485222348E+02  0.78731395539E+01  0.10225660088E+02  0.36820931698E+02  0.00000000000E+00 0. -1.
         11    1    4    4    0    0  0.14090772576E+02 -0.12266981411E+02  0.10982903684E+02  0.21671476146E+02  0.51100000000E-03 0. -1.
        -11    1    4    4    0    0  0.15266678089E+02 -0.29688470351E+01 -0.10700900949E+02  0.18878421384E+02  0.51100000000E-03 0.  1.
         12    1    4    4    0    0  0.51277716832E+01  0.73626888919E+01 -0.10507662823E+02  0.13817170773E+02  0.00000000000E+00 0. -1.
</event>
<event>
 8    1  0.1261983E-006  0.9118800E+02  0.7816164E-02  0.1184000E+00
        -11   -1    0    0    0    0  0.00000000000E+00  0.00000000000E+00  0.45593999997E+02  0.45594000000E+02  0.51100000000E-03 0.  1.
         11   -1    0    0    0    0 -0.00000000000E+00 -0.00000000000E+00 -0.45593999997E+02  0.45594000000E+02  0.51100000000E-03 0. -1.
         23    2    1    2    0    0  0.17763568394E-14  0.00000000000E+00  0.11102230246E-15  0.91188000000E+02  0.91188000000E+02 0.  0.
    9900012    2    3    3    0    0 -0.13440218990E+02 -0.34276578050E+02 -0.50677534134E+00  0.54367080531E+02  0.39999991686E+02 0.  0.
         12    1    3    3    0    0  0.13440218990E+02  0.34276578050E+02  0.50677534134E+00  0.36820919469E+02  0.00000000000E+00 0. -1.
         11    1    4    4    0    0  0.18568991285E+01  0.91021585573E+00  0.31543448043E+01  0.37717978051E+01  0.51100000000E-03 0. -1.
        -11    1    4    4    0    0  0.17307819493E+01 -0.23187205369E+02  0.10390644923E+02  0.25467775740E+02  0.51100000000E-03 0.  1.
         12    1    4    4    0    0 -0.17027900067E+02 -0.11999588537E+02 -0.14051765069E+02  0.25127506986E+02  0.00000000000E+00 0. -1.
</event>
<event>
 8    1  0.1261983E-006  0.9118800E+02  0.7816164E-02  0.1184000E+00
        -11   -1    0    0    0    0  0.00000000000E+00  0.00000000000E+00  0.45593999997E+02  0.45594000000E+02  0.51100000000E-03 0.  1.
         11   -1    0    0    0    0 -0.00000000000E+00 -0.00000000000E+00 -0.45593999997E+02  0.45594000000E+02  0.51100000000E-03 0. -1.
         23    2    1    2    0    0  0.00000000000E+00  0.00000000000E+00  0.00000000000E+00  0.91188000000E+02  0.91188000000E+02 0.  0.
    9900012    2    3    3    0    0  0.12984492455E+02 -0.61446563340E+01  0.33903195038E+02  0.54367075520E+02  0.39999980264E+02 0.  0.
         12    1    3    3    0    0 -0.12984492455E+02  0.61446563340E+01 -0.33903195038E+02  0.36820924480E+02  0.00000000000E+00 0. -1.
         11    1    4    4    0    0  0.10355593657E+01 -0.19724939990E+01  0.28801070587E+02  0.28887104095E+02  0.51100000000E-03 0. -1.
        -11    1    4    4    0    0  0.49883954824E+01 -0.11334671861E+02  0.83978665935E+01  0.14962721653E+02  0.51100000000E-03 0.  1.
         12    1    4    4    0    0  0.69605376073E+01  0.71625095264E+01 -0.32957421426E+01  0.10517249772E+02  0.00000000000E+00 0. -1.
</event>
<event>
 8    1  0.1261983E-006  0.9118800E+02  0.7816164E-02  0.1184000E+00
        -11   -1    0    0    0    0  0.00000000000E+00  0.00000000000E+00  0.45593999997E+02  0.45594000000E+02  0.51100000000E-03 0.  1.
         11   -1    0    0    0    0 -0.00000000000E+00 -0.00000000000E+00 -0.45593999997E+02  0.45594000000E+02  0.51100000000E-03 0. -1.
         23    2    1    2    0    0 -0.35527136788E-14 -0.35527136788E-14 -0.88817841970E-15  0.91188000000E+02  0.91188000000E+02 0.  0.
    9900012    2    3    3    0    0  0.28162660184E+02  0.23012557661E+02  0.57504616972E+01  0.54367067795E+02  0.39999962652E+02 0.  0.
        -12    1    3    3    0    0 -0.28162660184E+02 -0.23012557661E+02 -0.57504616972E+01  0.36820932205E+02  0.00000000000E+00 0.  1.
         11    1    4    4    0    0  0.99919815188E+01 -0.37407374723E+01  0.18268864850E+01  0.10824524285E+02  0.51100000000E-03 0. -1.
        -11    1    4    4    0    0  0.13270599103E+02 -0.17984230387E+01  0.56209546788E+01  0.14523713635E+02  0.51100000000E-03 0.  1.
         12    1    4    4    0    0  0.49000795617E+01  0.28551718172E+02 -0.16973794667E+01  0.29018829875E+02  0.00000000000E+00 0. -1.
</event>
<event>
 8    1  0.1261983E-006  0.9118800E+02  0.7816164E-02  0.1184000E+00
        -11   -1    0    0    0    0  0.00000000000E+00  0.00000000000E+00  0.45593999997E+02  0.45594000000E+02  0.51100000000E-03 0.  1.
         11   -1    0    0    0    0 -0.00000000000E+00 -0.00000000000E+00 -0.45593999997E+02  0.45594000000E+02  0.51100000000E-03 0. -1.
         23    2    1    2    0    0  0.00000000000E+00 -0.44408920985E-15 -0.35527136788E-14  0.91188000000E+02  0.91188000000E+02 0.  0.
    9900012    2    3    3    0    0 -0.21968594302E+02  0.22073364668E+01  0.29466783253E+02  0.54367044211E+02  0.39999908889E+02 0.  0.
         12    1    3    3    0    0  0.21968594302E+02 -0.22073364668E+01 -0.29466783253E+02  0.36820955789E+02  0.00000000000E+00 0. -1.
         11    1    4    4    0    0  0.21474805472E+01  0.12231031165E+02  0.19243783100E+01  0.12566345061E+02  0.51100000000E-03 0. -1.
        -11    1    4    4    0    0 -0.12584845378E+01 -0.69004347244E+01  0.18163536330E+01  0.72456140871E+01  0.51100000000E-03 0.  1.
         12    1    4    4    0    0 -0.22857590312E+02 -0.31232599736E+01  0.25726051310E+02  0.34555085063E+02  0.00000000000E+00 0. -1.
</event>
<event>
 8    1  0.1261983E-006  0.9118800E+02  0.7816164E-02  0.1184000E+00
        -11   -1    0    0    0    0  0.00000000000E+00  0.00000000000E+00  0.45593999997E+02  0.45594000000E+02  0.51100000000E-03 0.  1.
         11   -1    0    0    0    0 -0.00000000000E+00 -0.00000000000E+00 -0.45593999997E+02  0.45594000000E+02  0.51100000000E-03 0. -1.
         23    2    1    2    0    0 -0.35527136788E-14  0.00000000000E+00  0.00000000000E+00  0.91188000000E+02  0.91188000000E+02 0.  0.
    9900012    2    3    3    0    0 -0.30360384698E+02 -0.12081512144E+02  0.16972440185E+02  0.54367087185E+02  0.40000006855E+02 0.  0.
         12    1    3    3    0    0  0.30360384698E+02  0.12081512144E+02 -0.16972440185E+02  0.36820912815E+02  0.00000000000E+00 0. -1.
         11    1    4    4    0    0 -0.43429681982E+01  0.23356397996E+01  0.11291677339E+01  0.50588146908E+01  0.51100000000E-03 0. -1.
        -11    1    4    4    0    0 -0.63885022895E+01 -0.98846070055E+01  0.24654917813E+02  0.27320018114E+02  0.51100000000E-03 0.  1.
        -12    1    4    4    0    0 -0.19628914211E+02 -0.45325449378E+01 -0.88116453614E+01  0.21988254380E+02  0.00000000000E+00 0.  1.
</event>
<event>
 8    1  0.1261983E-006  0.9118800E+02  0.7816164E-02  0.1184000E+00
        -11   -1    0    0    0    0  0.00000000000E+00  0.00000000000E+00  0.45593999997E+02  0.45594000000E+02  0.51100000000E-03 0. -1.
         11   -1    0    0    0    0 -0.00000000000E+00 -0.00000000000E+00 -0.45593999997E+02  0.45594000000E+02  0.51100000000E-03 0.  1.
         23    2    1    2    0    0 -0.35527136788E-14  0.88817841970E-15  0.35527136788E-14  0.91188000000E+02  0.91188000000E+02 0.  0.
    9900012    2    3    3    0    0 -0.24123388746E+02  0.46213277913E+01 -0.27431465937E+02  0.54367083681E+02  0.39999998867E+02 0.  0.
         12    1    3    3    0    0  0.24123388746E+02 -0.46213277913E+01  0.27431465937E+02  0.36820916319E+02  0.00000000000E+00 0. -1.
         11    1    4    4    0    0 -0.12742281380E+02  0.21038173792E+01 -0.55901132472E+01  0.14072709359E+02  0.51100000000E-03 0. -1.
        -11    1    4    4    0    0 -0.15522204514E+01 -0.11223938678E+02 -0.20403400239E+02  0.23338486013E+02  0.51100000000E-03 0.  1.
        -12    1    4    4    0    0 -0.98288869144E+01  0.13741449091E+02 -0.14379524505E+01  0.16955888309E+02  0.00000000000E+00 0.  1.
</event>
<event>
 8    1  0.1261983E-006  0.9118800E+02  0.7816164E-02  0.1184000E+00
        -11   -1    0    0    0    0  0.00000000000E+00  0.00000000000E+00  0.45593999997E+02  0.45594000000E+02  0.51100000000E-03 0.  1.
         11   -1    0    0    0    0 -0.00000000000E+00 -0.00000000000E+00 -0.45593999997E+02  0.45594000000E+02  0.51100000000E-03 0. -1.
         23    2    1    2    0    0  0.00000000000E+00 -0.88817841970E-15  0.00000000000E+00  0.91188000000E+02  0.91188000000E+02 0.  0.
    9900012    2    3    3    0    0 -0.29105645740E+02  0.36568686326E+01 -0.22254639905E+02  0.54367077966E+02  0.39999985840E+02 0.  0.
        -12    1    3    3    0    0  0.29105645740E+02 -0.36568686326E+01  0.22254639905E+02  0.36820922034E+02  0.00000000000E+00 0.  1.
         11    1    4    4    0    0 -0.13334335145E+02 -0.55008164562E+01 -0.20677042280E+02  0.25211179131E+02  0.51100000000E-03 0. -1.
        -11    1    4    4    0    0 -0.58420066127E+01  0.15408982514E+02  0.26364585399E+01  0.16688819529E+02  0.51100000000E-03 0.  1.
        -12    1    4    4    0    0 -0.99293039822E+01 -0.62512974253E+01 -0.42140561643E+01  0.12467079306E+02  0.00000000000E+00 0.  1.
</event>
<event>
 8    1  0.1261983E-006  0.9118800E+02  0.7816164E-02  0.1184000E+00
        -11   -1    0    0    0    0  0.00000000000E+00  0.00000000000E+00  0.45593999997E+02  0.45594000000E+02  0.51100000000E-03 0.  1.
         11   -1    0    0    0    0 -0.00000000000E+00 -0.00000000000E+00 -0.45593999997E+02  0.45594000000E+02  0.51100000000E-03 0. -1.
         23    2    1    2    0    0 -0.17763568394E-14  0.00000000000E+00 -0.35527136788E-14  0.91188000000E+02  0.91188000000E+02 0.  0.
    9900012    2    3    3    0    0  0.15958689659E+02 -0.18078097125E+02  0.27825896678E+02  0.54367110586E+02  0.40000060203E+02 0.  0.
         12    1    3    3    0    0 -0.15958689659E+02  0.18078097125E+02 -0.27825896678E+02  0.36820889414E+02  0.00000000000E+00 0. -1.
         11    1    4    4    0    0 -0.73145115236E+00  0.61114301982E+01  0.75240021818E+01  0.97208646194E+01  0.51100000000E-03 0. -1.
        -11    1    4    4    0    0  0.23124614162E+02 -0.13507623626E+02  0.10424113901E+02  0.28737881394E+02  0.51100000000E-03 0.  1.
         12    1    4    4    0    0 -0.64344733499E+01 -0.10681903697E+02  0.98777805946E+01  0.15908364572E+02  0.00000000000E+00 0. -1.
</event>
<event>
 8    1  0.1261983E-006  0.9118800E+02  0.7816164E-02  0.1184000E+00
        -11   -1    0    0    0    0  0.00000000000E+00  0.00000000000E+00  0.45593999997E+02  0.45594000000E+02  0.51100000000E-03 0. -1.
         11   -1    0    0    0    0 -0.00000000000E+00 -0.00000000000E+00 -0.45593999997E+02  0.45594000000E+02  0.51100000000E-03 0.  1.
         23    2    1    2    0    0  0.00000000000E+00  0.00000000000E+00 -0.17763568394E-14  0.91188000000E+02  0.91188000000E+02 0.  0.
    9900012    2    3    3    0    0 -0.32975378270E+02  0.63452524607E+01  0.15104382458E+02  0.54367079720E+02  0.39999989837E+02 0.  0.
        -12    1    3    3    0    0  0.32975378270E+02 -0.63452524607E+01 -0.15104382458E+02  0.36820920280E+02  0.00000000000E+00 0.  1.
         11    1    4    4    0    0  0.43838079306E+01 -0.29062349385E+01  0.15791530105E+01  0.54916024967E+01  0.51100000000E-03 0. -1.
        -11    1    4    4    0    0 -0.14155481012E+01  0.10339646422E+02  0.63201104809E+01  0.12200650036E+02  0.51100000000E-03 0.  1.
        -12    1    4    4    0    0 -0.35943638099E+02 -0.10881590224E+01  0.72051189666E+01  0.36674827187E+02  0.00000000000E+00 0.  1.
</event>
<event>
 8    1  0.1261983E-006  0.9118800E+02  0.7816164E-02  0.1184000E+00
        -11   -1    0    0    0    0  0.00000000000E+00  0.00000000000E+00  0.45593999997E+02  0.45594000000E+02  0.51100000000E-03 0.  1.
         11   -1    0    0    0    0 -0.00000000000E+00 -0.00000000000E+00 -0.45593999997E+02  0.45594000000E+02  0.51100000000E-03 0. -1.
         23    2    1    2    0    0  0.35527136788E-14 -0.71054273576E-14 -0.35527136788E-14  0.91188000000E+02  0.91188000000E+02 0.  0.
    9900012    2    3    3    0    0 -0.88963276333E+01  0.24816414552E+02  0.25705650545E+02  0.54367088190E+02  0.40000009147E+02 0.  0.
         12    1    3    3    0    0  0.88963276333E+01 -0.24816414552E+02 -0.25705650545E+02  0.36820911810E+02  0.00000000000E+00 0. -1.
         11    1    4    4    0    0 -0.21774435020E+01 -0.63834992933E-01  0.78644403720E+01  0.81605611166E+01  0.51100000000E-03 0. -1.
        -11    1    4    4    0    0 -0.18911900179E+02  0.23687150194E+02  0.13815660810E+02  0.33310862141E+02  0.51100000000E-03 0.  1.
         12    1    4    4    0    0  0.12193016047E+02  0.11930993510E+01  0.40255493631E+01  0.12895664933E+02  0.00000000000E+00 0. -1.
</event>
<event>
 8    1  0.1261983E-006  0.9118800E+02  0.7816164E-02  0.1184000E+00
        -11   -1    0    0    0    0  0.00000000000E+00  0.00000000000E+00  0.45593999997E+02  0.45594000000E+02  0.51100000000E-03 0.  1.
         11   -1    0    0    0    0 -0.00000000000E+00 -0.00000000000E+00 -0.45593999997E+02  0.45594000000E+02  0.51100000000E-03 0. -1.
         23    2    1    2    0    0  0.00000000000E+00  0.35527136788E-14  0.00000000000E+00  0.91188000000E+02  0.91188000000E+02 0.  0.
    9900012    2    3    3    0    0 -0.25462127334E+02 -0.18571777067E+02 -0.19040737369E+02  0.54367075088E+02  0.39999979279E+02 0.  0.
        -12    1    3    3    0    0  0.25462127334E+02  0.18571777067E+02  0.19040737369E+02  0.36820924912E+02  0.00000000000E+00 0.  1.
         11    1    4    4    0    0 -0.19493402410E+01 -0.62271501513E+01  0.11205299723E+02  0.12966729292E+02  0.51100000000E-03 0.  1.
        -11    1    4    4    0    0 -0.13782261345E+02 -0.24659977466E+01 -0.18673621291E+02  0.23339580225E+02  0.51100000000E-03 0. -1.
        -12    1    4    4    0    0 -0.97305257473E+01 -0.98786291694E+01 -0.11572415800E+02  0.18060765572E+02  0.00000000000E+00 0.  1.
</event>
<event>
 8    1  0.1261983E-006  0.9118800E+02  0.7816164E-02  0.1184000E+00
        -11   -1    0    0    0    0  0.00000000000E+00  0.00000000000E+00  0.45593999997E+02  0.45594000000E+02  0.51100000000E-03 0.  1.
         11   -1    0    0    0    0 -0.00000000000E+00 -0.00000000000E+00 -0.45593999997E+02  0.45594000000E+02  0.51100000000E-03 0. -1.
         23    2    1    2    0    0 -0.17763568394E-14  0.00000000000E+00 -0.71054273576E-14  0.91188000000E+02  0.91188000000E+02 0.  0.
    9900012    2    3    3    0    0 -0.13205262623E+02 -0.76163603784E+00 -0.34363062536E+02  0.54367094019E+02  0.40000022435E+02 0.  0.
        -12    1    3    3    0    0  0.13205262623E+02  0.76163603784E+00  0.34363062536E+02  0.36820905981E+02  0.00000000000E+00 0.  1.
         11    1    4    4    0    0 -0.11626156893E+02 -0.23762214506E+01 -0.89913193359E+00  0.11900520618E+02  0.51100000000E-03 0. -1.
        -11    1    4    4    0    0  0.67851933075E+00  0.11222281882E+02 -0.49339865896E+01  0.12277793900E+02  0.51100000000E-03 0.  1.
         12    1    4    4    0    0 -0.22576250603E+01 -0.96076964694E+01 -0.28529944013E+02  0.30188779501E+02  0.00000000000E+00 0. -1.
</event>
<event>
 8    1  0.1261983E-006  0.9118800E+02  0.7816164E-02  0.1184000E+00
        -11   -1    0    0    0    0  0.00000000000E+00  0.00000000000E+00  0.45593999997E+02  0.45594000000E+02  0.51100000000E-03 0.  1.
         11   -1    0    0    0    0 -0.00000000000E+00 -0.00000000000E+00 -0.45593999997E+02  0.45594000000E+02  0.51100000000E-03 0. -1.
         23    2    1    2    0    0  0.71054273576E-14  0.00000000000E+00 -0.35527136788E-14  0.91188000000E+02  0.91188000000E+02 0.  0.
    9900012    2    3    3    0    0 -0.24833202360E+02 -0.18380467800E+02  0.20031231444E+02  0.54367085167E+02  0.40000002255E+02 0.  0.
         12    1    3    3    0    0  0.24833202360E+02  0.18380467800E+02 -0.20031231444E+02  0.36820914833E+02  0.00000000000E+00 0. -1.
         11    1    4    4    0    0 -0.15959685332E+02 -0.46535360852E+01  0.88324084667E+00  0.16647734640E+02  0.51100000000E-03 0. -1.
        -11    1    4    4    0    0  0.66619142679E+01 -0.13894974198E+02  0.37798839711E+01  0.15866282891E+02  0.51100000000E-03 0.  1.
        -12    1    4    4    0    0 -0.15535431296E+02  0.16804248304E+00  0.15368106626E+02  0.21853067635E+02  0.00000000000E+00 0.  1.
</event>
<event>
 8    1  0.1261983E-006  0.9118800E+02  0.7816164E-02  0.1184000E+00
        -11   -1    0    0    0    0  0.00000000000E+00  0.00000000000E+00  0.45593999997E+02  0.45594000000E+02  0.51100000000E-03 0.  1.
         11   -1    0    0    0    0 -0.00000000000E+00 -0.00000000000E+00 -0.45593999997E+02  0.45594000000E+02  0.51100000000E-03 0. -1.
         23    2    1    2    0    0  0.88817841970E-15 -0.71054273576E-14 -0.17763568394E-14  0.91188000000E+02  0.91188000000E+02 0.  0.
    9900012    2    3    3    0    0  0.77104469483E+01 -0.32890140340E+02 -0.14648133396E+02  0.54367080190E+02  0.39999990908E+02 0.  0.
         12    1    3    3    0    0 -0.77104469483E+01  0.32890140340E+02  0.14648133396E+02  0.36820919810E+02  0.00000000000E+00 0. -1.
         11    1    4    4    0    0 -0.31702968280E+01 -0.13508853345E+02 -0.14818299738E+02  0.20300785898E+02  0.51100000000E-03 0. -1.
        -11    1    4    4    0    0 -0.76514403587E+01 -0.99582127620E+01  0.34388752227E+01  0.13020614580E+02  0.51100000000E-03 0.  1.
         12    1    4    4    0    0  0.18532184135E+02 -0.94230742329E+01 -0.32687088802E+01  0.21045679712E+02  0.00000000000E+00 0. -1.
</event>
<event>
 8    1  0.1261983E-006  0.9118800E+02  0.7816164E-02  0.1184000E+00
        -11   -1    0    0    0    0  0.00000000000E+00  0.00000000000E+00  0.45593999997E+02  0.45594000000E+02  0.51100000000E-03 0.  1.
         11   -1    0    0    0    0 -0.00000000000E+00 -0.00000000000E+00 -0.45593999997E+02  0.45594000000E+02  0.51100000000E-03 0. -1.
         23    2    1    2    0    0  0.44408920985E-15 -0.35527136788E-14  0.00000000000E+00  0.91188000000E+02  0.91188000000E+02 0.  0.
    9900012    2    3    3    0    0 -0.10765444910E+01 -0.17765561935E+02  0.32233557968E+02  0.54367130942E+02  0.40000106608E+02 0.  0.
         12    1    3    3    0    0  0.10765444910E+01  0.17765561935E+02 -0.32233557968E+02  0.36820869058E+02  0.00000000000E+00 0. -1.
         11    1    4    4    0    0 -0.49111430191E+01 -0.97307362780E+01  0.57526550962E+01  0.12324755380E+02  0.51100000000E-03 0. -1.
        -11    1    4    4    0    0  0.69449336294E+01  0.86487236997E+01  0.61890604383E+00  0.11109256037E+02  0.51100000000E-03 0.  1.
        -12    1    4    4    0    0 -0.31103351014E+01 -0.16683549356E+02  0.25861996828E+02  0.30933119524E+02  0.00000000000E+00 0.  1.
</event>
<event>
 8    1  0.1261983E-006  0.9118800E+02  0.7816164E-02  0.1184000E+00
        -11   -1    0    0    0    0  0.00000000000E+00  0.00000000000E+00  0.45593999997E+02  0.45594000000E+02  0.51100000000E-03 0.  1.
         11   -1    0    0    0    0 -0.00000000000E+00 -0.00000000000E+00 -0.45593999997E+02  0.45594000000E+02  0.51100000000E-03 0. -1.
         23    2    1    2    0    0  0.00000000000E+00  0.00000000000E+00  0.44408920985E-15  0.91188000000E+02  0.91188000000E+02 0.  0.
    9900012    2    3    3    0    0  0.77258535773E+01 -0.35811036647E+02 -0.36968171503E+01  0.54367005767E+02  0.39999821247E+02 0.  0.
        -12    1    3    3    0    0 -0.77258535773E+01  0.35811036647E+02  0.36968171503E+01  0.36820994233E+02  0.00000000000E+00 0.  1.
         11    1    4    4    0    0  0.12383556819E+02 -0.38229791225E+01 -0.46437566601E+01  0.13767066682E+02  0.51100000000E-03 0. -1.
        -11    1    4    4    0    0  0.13411769221E+01 -0.34112971477E+02  0.17568806194E+01  0.34184502458E+02  0.51100000000E-03 0.  1.
        -12    1    4    4    0    0 -0.59988801634E+01  0.21249139522E+01 -0.80994110966E+00  0.64154366274E+01  0.00000000000E+00 0.  1.
</event>
<event>
 8    1  0.1261983E-006  0.9118800E+02  0.7816164E-02  0.1184000E+00
        -11   -1    0    0    0    0  0.00000000000E+00  0.00000000000E+00  0.45593999997E+02  0.45594000000E+02  0.51100000000E-03 0. -1.
         11   -1    0    0    0    0 -0.00000000000E+00 -0.00000000000E+00 -0.45593999997E+02  0.45594000000E+02  0.51100000000E-03 0.  1.
         23    2    1    2    0    0  0.00000000000E+00  0.00000000000E+00  0.17763568394E-14  0.91188000000E+02  0.91188000000E+02 0.  0.
    9900012    2    3    3    0    0  0.20095255952E+02  0.27401897095E+02  0.14180912691E+02  0.54367060836E+02  0.39999946788E+02 0.  0.
        -12    1    3    3    0    0 -0.20095255952E+02 -0.27401897095E+02 -0.14180912691E+02  0.36820939164E+02  0.00000000000E+00 0.  1.
         11    1    4    4    0    0  0.44779261146E+01  0.18380305088E+02  0.24299410056E+02  0.30795271824E+02  0.51100000000E-03 0. -1.
        -11    1    4    4    0    0  0.59173781733E+00  0.10505745350E+01 -0.59345049841E+01  0.60557584302E+01  0.51100000000E-03 0.  1.
         12    1    4    4    0    0  0.15025592020E+02  0.79710174722E+01 -0.41839923809E+01  0.17516030581E+02  0.00000000000E+00 0. -1.
</event>
<event>
 8    1  0.1261983E-006  0.9118800E+02  0.7816164E-02  0.1184000E+00
        -11   -1    0    0    0    0  0.00000000000E+00  0.00000000000E+00  0.45593999997E+02  0.45594000000E+02  0.51100000000E-03 0.  1.
         11   -1    0    0    0    0 -0.00000000000E+00 -0.00000000000E+00 -0.45593999997E+02  0.45594000000E+02  0.51100000000E-03 0. -1.
         23    2    1    2    0    0  0.35527136788E-14  0.17763568394E-14  0.35527136788E-14  0.91188000000E+02  0.91188000000E+02 0.  0.
    9900012    2    3    3    0    0  0.30189090129E+02  0.23874270492E+01  0.20945145835E+02  0.54367080609E+02  0.39999991865E+02 0.  0.
         12    1    3    3    0    0 -0.30189090129E+02 -0.23874270492E+01 -0.20945145835E+02  0.36820919391E+02  0.00000000000E+00 0. -1.
         11    1    4    4    0    0  0.10499736465E+01 -0.12206246085E+02  0.17560052352E+02  0.21411453174E+02  0.51100000000E-03 0. -1.
        -11    1    4    4    0    0  0.79233451869E+01  0.30331871569E+01 -0.43148458012E+00  0.84950457612E+01  0.51100000000E-03 0.  1.
         12    1    4    4    0    0  0.21215771296E+02  0.11560485977E+02  0.38165780626E+01  0.24460581674E+02  0.00000000000E+00 0. -1.
</event>
<event>
 8    1  0.1261983E-006  0.9118800E+02  0.7816164E-02  0.1184000E+00
        -11   -1    0    0    0    0  0.00000000000E+00  0.00000000000E+00  0.45593999997E+02  0.45594000000E+02  0.51100000000E-03 0.  1.
         11   -1    0    0    0    0 -0.00000000000E+00 -0.00000000000E+00 -0.45593999997E+02  0.45594000000E+02  0.51100000000E-03 0. -1.
         23    2    1    2    0    0  0.35527136788E-14  0.00000000000E+00  0.00000000000E+00  0.91188000000E+02  0.91188000000E+02 0.  0.
    9900012    2    3    3    0    0 -0.23464101449E+02 -0.15859229824E+02 -0.23530853785E+02  0.54367077860E+02  0.39999985596E+02 0.  0.
        -12    1    3    3    0    0  0.23464101449E+02  0.15859229824E+02  0.23530853785E+02  0.36820922140E+02  0.00000000000E+00 0.  1.
         11    1    4    4    0    0 -0.18851114574E+01 -0.18821254195E+02 -0.17318032293E+02  0.25645808575E+02  0.51100000000E-03 0. -1.
        -11    1    4    4    0    0 -0.23087782731E+02  0.35056602311E+01 -0.93842302232E+01  0.25167422240E+02  0.51100000000E-03 0.  1.
        -12    1    4    4    0    0  0.15087927387E+01 -0.54363585940E+00  0.31714087313E+01  0.35538470446E+01  0.00000000000E+00 0.  1.
</event>
<event>
 8    1  0.1261983E-006  0.9118800E+02  0.7816164E-02  0.1184000E+00
        -11   -1    0    0    0    0  0.00000000000E+00  0.00000000000E+00  0.45593999997E+02  0.45594000000E+02  0.51100000000E-03 0. -1.
         11   -1    0    0    0    0 -0.00000000000E+00 -0.00000000000E+00 -0.45593999997E+02  0.45594000000E+02  0.51100000000E-03 0.  1.
         23    2    1    2    0    0  0.11102230246E-15  0.00000000000E+00  0.00000000000E+00  0.91188000000E+02  0.91188000000E+02 0.  0.
    9900012    2    3    3    0    0 -0.75573991411E+00  0.33070507654E+02  0.16172510369E+02  0.54367085957E+02  0.40000004057E+02 0.  0.
        -12    1    3    3    0    0  0.75573991411E+00 -0.33070507654E+02 -0.16172510369E+02  0.36820914043E+02  0.00000000000E+00 0.  1.
         11    1    4    4    0    0 -0.30342893659E+01 -0.42667568816E+00  0.17169819116E+02  0.17441090930E+02  0.51100000000E-03 0. -1.
        -11    1    4    4    0    0 -0.37213509450E+01  0.25973085749E+02 -0.46224625683E+01  0.26642387217E+02  0.51100000000E-03 0.  1.
         12    1    4    4    0    0  0.59999003968E+01  0.75240975927E+01  0.36251538214E+01  0.10283607810E+02  0.00000000000E+00 0. -1.
</event>
<event>
 8    1  0.1261983E-006  0.9118800E+02  0.7816164E-02  0.1184000E+00
        -11   -1    0    0    0    0  0.00000000000E+00  0.00000000000E+00  0.45593999997E+02  0.45594000000E+02  0.51100000000E-03 0. -1.
         11   -1    0    0    0    0 -0.00000000000E+00 -0.00000000000E+00 -0.45593999997E+02  0.45594000000E+02  0.51100000000E-03 0.  1.
         23    2    1    2    0    0  0.00000000000E+00  0.00000000000E+00  0.00000000000E+00  0.91188000000E+02  0.91188000000E+02 0.  0.
    9900012    2    3    3    0    0  0.34914899403E+02 -0.99575964948E+01  0.61300546816E+01  0.54367061681E+02  0.39999948715E+02 0.  0.
        -12    1    3    3    0    0 -0.34914899403E+02  0.99575964948E+01 -0.61300546816E+01  0.36820938319E+02  0.00000000000E+00 0.  1.
         11    1    4    4    0    0  0.26055297144E+01  0.11513914352E+01  0.55401053378E+01  0.62295469133E+01  0.51100000000E-03 0. -1.
        -11    1    4    4    0    0  0.49862545221E+01  0.24440079526E+01 -0.13457560645E+02  0.14558222687E+02  0.51100000000E-03 0.  1.
         12    1    4    4    0    0  0.27323115166E+02 -0.13552995883E+02  0.14047509988E+02  0.33579292081E+02  0.00000000000E+00 0. -1.
</event>
<event>
 8    1  0.1261983E-006  0.9118800E+02  0.7816164E-02  0.1184000E+00
        -11   -1    0    0    0    0  0.00000000000E+00  0.00000000000E+00  0.45593999997E+02  0.45594000000E+02  0.51100000000E-03 0.  1.
         11   -1    0    0    0    0 -0.00000000000E+00 -0.00000000000E+00 -0.45593999997E+02  0.45594000000E+02  0.51100000000E-03 0. -1.
         23    2    1    2    0    0  0.00000000000E+00 -0.35527136788E-14  0.00000000000E+00  0.91188000000E+02  0.91188000000E+02 0.  0.
    9900012    2    3    3    0    0  0.25880253036E+02  0.16563615103E+02 -0.20288896353E+02  0.54367079890E+02  0.39999990226E+02 0.  0.
        -12    1    3    3    0    0 -0.25880253036E+02 -0.16563615103E+02  0.20288896353E+02  0.36820920110E+02  0.00000000000E+00 0.  1.
         11    1    4    4    0    0  0.19779874043E+02  0.11687319621E+02 -0.10145350045E+02  0.25115035037E+02  0.51100000000E-03 0. -1.
        -11    1    4    4    0    0  0.61803291134E+01 -0.25346740290E+01  0.75428895861E+01  0.10075525989E+02  0.51100000000E-03 0.  1.
        -12    1    4    4    0    0 -0.79950120598E-01  0.74109695107E+01 -0.17686435895E+02  0.19176518865E+02  0.00000000000E+00 0.  1.
</event>
<event>
 8    1  0.1261983E-006  0.9118800E+02  0.7816164E-02  0.1184000E+00
        -11   -1    0    0    0    0  0.00000000000E+00  0.00000000000E+00  0.45593999997E+02  0.45594000000E+02  0.51100000000E-03 0. -1.
         11   -1    0    0    0    0 -0.00000000000E+00 -0.00000000000E+00 -0.45593999997E+02  0.45594000000E+02  0.51100000000E-03 0.  1.
         23    2    1    2    0    0 -0.88817841970E-15  0.00000000000E+00  0.00000000000E+00  0.91188000000E+02  0.91188000000E+02 0.  0.
    9900012    2    3    3    0    0  0.59430002142E+01 -0.13801045854E+02  0.33615388621E+02  0.54367048487E+02  0.39999918636E+02 0.  0.
        -12    1    3    3    0    0 -0.59430002142E+01  0.13801045854E+02 -0.33615388621E+02  0.36820951513E+02  0.00000000000E+00 0.  1.
         11    1    4    4    0    0 -0.67860338127E+01 -0.88048841780E+01 -0.12327296081E+01  0.11184626183E+02  0.51100000000E-03 0. -1.
        -11    1    4    4    0    0 -0.46203362784E+01 -0.31554914172E+01  0.19155128778E+01  0.59138670306E+01  0.51100000000E-03 0.  1.
         12    1    4    4    0    0  0.17349370305E+02 -0.18406702590E+01  0.32932605351E+02  0.37268555274E+02  0.00000000000E+00 0. -1.
</event>
<event>
 8    1  0.1261983E-006  0.9118800E+02  0.7816164E-02  0.1184000E+00
        -11   -1    0    0    0    0  0.00000000000E+00  0.00000000000E+00  0.45593999997E+02  0.45594000000E+02  0.51100000000E-03 0.  1.
         11   -1    0    0    0    0 -0.00000000000E+00 -0.00000000000E+00 -0.45593999997E+02  0.45594000000E+02  0.51100000000E-03 0. -1.
         23    2    1    2    0    0  0.72164496601E-15  0.00000000000E+00 -0.44408920985E-15  0.91188000000E+02  0.91188000000E+02 0.  0.
    9900012    2    3    3    0    0  0.31190503006E+00 -0.36792255874E+02  0.14187409952E+01  0.54367079275E+02  0.39999988824E+02 0.  0.
        -12    1    3    3    0    0 -0.31190503006E+00  0.36792255874E+02 -0.14187409952E+01  0.36820920725E+02  0.00000000000E+00 0.  1.
         11    1    4    4    0    0  0.10829854357E+02 -0.10753364178E+02 -0.27491177866E+01  0.15507360685E+02  0.51100000000E-03 0. -1.
        -11    1    4    4    0    0 -0.16657727678E+02 -0.72733623541E+01 -0.17160565698E+01  0.18257232587E+02  0.51100000000E-03 0.  1.
        -12    1    4    4    0    0  0.61397783516E+01 -0.18765529341E+02  0.58839153515E+01  0.20602486003E+02  0.00000000000E+00 0.  1.
</event>
<event>
 8    1  0.1261983E-006  0.9118800E+02  0.7816164E-02  0.1184000E+00
        -11   -1    0    0    0    0  0.00000000000E+00  0.00000000000E+00  0.45593999997E+02  0.45594000000E+02  0.51100000000E-03 0. -1.
         11   -1    0    0    0    0 -0.00000000000E+00 -0.00000000000E+00 -0.45593999997E+02  0.45594000000E+02  0.51100000000E-03 0.  1.
         23    2    1    2    0    0  0.00000000000E+00 -0.44408920985E-15  0.00000000000E+00  0.91188000000E+02  0.91188000000E+02 0.  0.
    9900012    2    3    3    0    0 -0.27485570803E+02 -0.31502136079E+01 -0.24298130672E+02  0.54367087433E+02  0.40000007421E+02 0.  0.
         12    1    3    3    0    0  0.27485570803E+02  0.31502136079E+01  0.24298130672E+02  0.36820912567E+02  0.00000000000E+00 0. -1.
         11    1    4    4    0    0  0.69667406063E+01 -0.47324750977E+00 -0.77014887840E+00  0.70251382504E+01  0.51100000000E-03 0. -1.
        -11    1    4    4    0    0 -0.19184681251E+02  0.65459472674E+01 -0.35838779276E+01  0.20585082015E+02  0.51100000000E-03 0.  1.
        -12    1    4    4    0    0 -0.15267630158E+02 -0.92229133656E+01 -0.19944103866E+02  0.26756867167E+02  0.00000000000E+00 0.  1.
</event>
<event>
 8    1  0.1261983E-006  0.9118800E+02  0.7816164E-02  0.1184000E+00
        -11   -1    0    0    0    0  0.00000000000E+00  0.00000000000E+00  0.45593999997E+02  0.45594000000E+02  0.51100000000E-03 0. -1.
         11   -1    0    0    0    0 -0.00000000000E+00 -0.00000000000E+00 -0.45593999997E+02  0.45594000000E+02  0.51100000000E-03 0.  1.
         23    2    1    2    0    0  0.00000000000E+00  0.00000000000E+00  0.00000000000E+00  0.91188000000E+02  0.91188000000E+02 0.  0.
    9900012    2    3    3    0    0 -0.30527589515E+02  0.19630273695E+02  0.62046998914E+01  0.54367086545E+02  0.40000005396E+02 0.  0.
        -12    1    3    3    0    0  0.30527589515E+02 -0.19630273695E+02 -0.62046998914E+01  0.36820913455E+02  0.00000000000E+00 0.  1.
         11    1    4    4    0    0 -0.97339294721E+01 -0.43698301710E+01  0.13708996726E+02  0.17371856267E+02  0.51100000000E-03 0. -1.
        -11    1    4    4    0    0 -0.21528514644E+02  0.21138791011E+02 -0.13887525610E+01  0.30203543866E+02  0.51100000000E-03 0.  1.
        -12    1    4    4    0    0  0.73485460080E+00  0.28613128555E+01 -0.61155442733E+01  0.67916864107E+01  0.00000000000E+00 0.  1.
</event>
<event>
 8    1  0.1261983E-006  0.9118800E+02  0.7816164E-02  0.1184000E+00
        -11   -1    0    0    0    0  0.00000000000E+00  0.00000000000E+00  0.45593999997E+02  0.45594000000E+02  0.51100000000E-03 0.  1.
         11   -1    0    0    0    0 -0.00000000000E+00 -0.00000000000E+00 -0.45593999997E+02  0.45594000000E+02  0.51100000000E-03 0. -1.
         23    2    1    2    0    0  0.00000000000E+00 -0.22204460493E-15 -0.71054273576E-14  0.91188000000E+02  0.91188000000E+02 0.  0.
    9900012    2    3    3    0    0  0.16839564002E+02  0.15172182248E+01  0.32709405028E+02  0.54367108591E+02  0.40000055654E+02 0.  0.
         12    1    3    3    0    0 -0.16839564002E+02 -0.15172182248E+01 -0.32709405028E+02  0.36820891409E+02  0.00000000000E+00 0. -1.
         11    1    4    4    0    0  0.95360559630E+01  0.12711435811E+01  0.55735437355E+01  0.11118298402E+02  0.51100000000E-03 0.  1.
        -11    1    4    4    0    0 -0.21791083419E+01  0.12896232578E+02  0.15473260794E+01  0.13170252318E+02  0.51100000000E-03 0. -1.
         12    1    4    4    0    0  0.94826163812E+01 -0.12650157934E+02  0.25588535213E+02  0.30078557870E+02  0.00000000000E+00 0. -1.
</event>
<event>
 8    1  0.1261983E-006  0.9118800E+02  0.7816164E-02  0.1184000E+00
        -11   -1    0    0    0    0  0.00000000000E+00  0.00000000000E+00  0.45593999997E+02  0.45594000000E+02  0.51100000000E-03 0. -1.
         11   -1    0    0    0    0 -0.00000000000E+00 -0.00000000000E+00 -0.45593999997E+02  0.45594000000E+02  0.51100000000E-03 0.  1.
         23    2    1    2    0    0  0.17763568394E-14  0.71054273576E-14 -0.35527136788E-14  0.91188000000E+02  0.91188000000E+02 0.  0.
    9900012    2    3    3    0    0 -0.15928205265E+02 -0.19653792305E+02  0.26754450710E+02  0.54367083285E+02  0.39999997966E+02 0.  0.
        -12    1    3    3    0    0  0.15928205265E+02  0.19653792305E+02 -0.26754450710E+02  0.36820916715E+02  0.00000000000E+00 0.  1.
         11    1    4    4    0    0 -0.79283903759E+01 -0.48945707425E+01  0.89323972817E+01  0.12907514020E+02  0.51100000000E-03 0. -1.
        -11    1    4    4    0    0  0.34150684370E+01  0.86265950312E+01 -0.10164473882E+01  0.93334880841E+01  0.51100000000E-03 0.  1.
        -12    1    4    4    0    0 -0.11414883326E+02 -0.23385816593E+02  0.18838500816E+02  0.32126081182E+02  0.00000000000E+00 0.  1.
</event>
<event>
 8    1  0.1261983E-006  0.9118800E+02  0.7816164E-02  0.1184000E+00
        -11   -1    0    0    0    0  0.00000000000E+00  0.00000000000E+00  0.45593999997E+02  0.45594000000E+02  0.51100000000E-03 0.  1.
         11   -1    0    0    0    0 -0.00000000000E+00 -0.00000000000E+00 -0.45593999997E+02  0.45594000000E+02  0.51100000000E-03 0. -1.
         23    2    1    2    0    0 -0.35527136788E-14  0.35527136788E-14  0.00000000000E+00  0.91188000000E+02  0.91188000000E+02 0.  0.
    9900012    2    3    3    0    0  0.28916560703E+02 -0.21290378494E+02  0.81444757331E+01  0.54367079530E+02  0.39999989405E+02 0.  0.
         12    1    3    3    0    0 -0.28916560703E+02  0.21290378494E+02 -0.81444757331E+01  0.36820920470E+02  0.00000000000E+00 0. -1.
         11    1    4    4    0    0  0.11695675857E+02  0.30313412719E+01  0.16760163751E+02  0.20661097572E+02  0.51100000000E-03 0. -1.
        -11    1    4    4    0    0  0.17243200684E+02 -0.13875686649E+02 -0.55184972453E+01  0.22810446333E+02  0.51100000000E-03 0.  1.
         12    1    4    4    0    0 -0.22315838779E-01 -0.10446033116E+02 -0.30971907723E+01  0.10895535625E+02  0.00000000000E+00 0. -1.
</event>
<event>
 8    1  0.1261983E-006  0.9118800E+02  0.7816164E-02  0.1184000E+00
        -11   -1    0    0    0    0  0.00000000000E+00  0.00000000000E+00  0.45593999997E+02  0.45594000000E+02  0.51100000000E-03 0.  1.
         11   -1    0    0    0    0 -0.00000000000E+00 -0.00000000000E+00 -0.45593999997E+02  0.45594000000E+02  0.51100000000E-03 0. -1.
         23    2    1    2    0    0  0.00000000000E+00  0.17763568394E-14  0.00000000000E+00  0.91188000000E+02  0.91188000000E+02 0.  0.
    9900012    2    3    3    0    0  0.71780054203E+01  0.13348684384E+02 -0.33557000591E+02  0.54367035519E+02  0.39999889073E+02 0.  0.
        -12    1    3    3    0    0 -0.71780054203E+01 -0.13348684384E+02  0.33557000591E+02  0.36820964481E+02  0.00000000000E+00 0.  1.
         11    1    4    4    0    0  0.62441170676E+01  0.18163817056E+02 -0.99638435980E+01  0.21637731571E+02  0.51100000000E-03 0. -1.
        -11    1    4    4    0    0  0.37828413803E+01 -0.11372168180E+02 -0.22505649952E+02  0.25497850460E+02  0.51100000000E-03 0.  1.
        -12    1    4    4    0    0 -0.28489530277E+01  0.65570355076E+01 -0.10875070412E+01  0.72314534892E+01  0.00000000000E+00 0.  1.
</event>
<event>
 8    1  0.1261983E-006  0.9118800E+02  0.7816164E-02  0.1184000E+00
        -11   -1    0    0    0    0  0.00000000000E+00  0.00000000000E+00  0.45593999997E+02  0.45594000000E+02  0.51100000000E-03 0.  1.
         11   -1    0    0    0    0 -0.00000000000E+00 -0.00000000000E+00 -0.45593999997E+02  0.45594000000E+02  0.51100000000E-03 0. -1.
         23    2    1    2    0    0  0.17763568394E-14  0.00000000000E+00  0.00000000000E+00  0.91188000000E+02  0.91188000000E+02 0.  0.
    9900012    2    3    3    0    0  0.34186594696E+01  0.10396962466E+02  0.35156659370E+02  0.54367153199E+02  0.40000157346E+02 0.  0.
         12    1    3    3    0    0 -0.34186594696E+01 -0.10396962466E+02 -0.35156659370E+02  0.36820846801E+02  0.00000000000E+00 0. -1.
         11    1    4    4    0    0 -0.34798980148E+01  0.27792976736E+00 -0.22029978058E+01  0.41279698088E+01  0.51100000000E-03 0. -1.
        -11    1    4    4    0    0 -0.64446775580E+01  0.14645492165E+02  0.84877607932E+01  0.18112603157E+02  0.51100000000E-03 0.  1.
        -12    1    4    4    0    0  0.13343235042E+02 -0.45264594661E+01  0.28871896383E+02  0.32126580232E+02  0.00000000000E+00 0.  1.
</event>
<event>
 8    1  0.1261983E-006  0.9118800E+02  0.7816164E-02  0.1184000E+00
        -11   -1    0    0    0    0  0.00000000000E+00  0.00000000000E+00  0.45593999997E+02  0.45594000000E+02  0.51100000000E-03 0.  1.
         11   -1    0    0    0    0 -0.00000000000E+00 -0.00000000000E+00 -0.45593999997E+02  0.45594000000E+02  0.51100000000E-03 0. -1.
         23    2    1    2    0    0  0.00000000000E+00  0.00000000000E+00  0.00000000000E+00  0.91188000000E+02  0.91188000000E+02 0.  0.
    9900012    2    3    3    0    0 -0.12941762372E+02  0.22594564996E+02 -0.26034083082E+02  0.54367121920E+02  0.40000086042E+02 0.  0.
        -12    1    3    3    0    0  0.12941762372E+02 -0.22594564996E+02  0.26034083082E+02  0.36820878080E+02  0.00000000000E+00 0.  1.
         11    1    4    4    0    0 -0.11677445368E+02  0.30415262018E+02 -0.24101169195E+02  0.40525513578E+02  0.51100000000E-03 0. -1.
        -11    1    4    4    0    0 -0.29998256310E+01 -0.50250195653E+01  0.39781268143E+01  0.70763881083E+01  0.51100000000E-03 0.  1.
         12    1    4    4    0    0  0.17355086279E+01 -0.27956774566E+01 -0.59110407017E+01  0.67652202341E+01  0.00000000000E+00 0. -1.
</event>
<event>
 8    1  0.1261983E-006  0.9118800E+02  0.7816164E-02  0.1184000E+00
        -11   -1    0    0    0    0  0.00000000000E+00  0.00000000000E+00  0.45593999997E+02  0.45594000000E+02  0.51100000000E-03 0. -1.
         11   -1    0    0    0    0 -0.00000000000E+00 -0.00000000000E+00 -0.45593999997E+02  0.45594000000E+02  0.51100000000E-03 0.  1.
         23    2    1    2    0    0  0.00000000000E+00  0.00000000000E+00  0.00000000000E+00  0.91188000000E+02  0.91188000000E+02 0.  0.
    9900012    2    3    3    0    0  0.25078244969E+02 -0.58412570641E+01  0.26320036835E+02  0.54367041378E+02  0.39999902430E+02 0.  0.
        -12    1    3    3    0    0 -0.25078244969E+02  0.58412570641E+01 -0.26320036835E+02  0.36820958622E+02  0.00000000000E+00 0.  1.
         11    1    4    4    0    0  0.16567741304E+02 -0.55570652180E+01  0.10503041124E+02  0.20388352039E+02  0.51100000000E-03 0. -1.
        -11    1    4    4    0    0  0.15034152241E+02  0.45927783222E+00 -0.18278404873E+01  0.15151820711E+02  0.51100000000E-03 0.  1.
        -12    1    4    4    0    0 -0.65236485757E+01 -0.74346967833E+00  0.17644836198E+02  0.18826868629E+02  0.00000000000E+00 0.  1.
</event>
<event>
 8    1  0.1261983E-006  0.9118800E+02  0.7816164E-02  0.1184000E+00
        -11   -1    0    0    0    0  0.00000000000E+00  0.00000000000E+00  0.45593999997E+02  0.45594000000E+02  0.51100000000E-03 0. -1.
         11   -1    0    0    0    0 -0.00000000000E+00 -0.00000000000E+00 -0.45593999997E+02  0.45594000000E+02  0.51100000000E-03 0.  1.
         23    2    1    2    0    0  0.00000000000E+00  0.88817841970E-15  0.00000000000E+00  0.91188000000E+02  0.91188000000E+02 0.  0.
    9900012    2    3    3    0    0  0.34049035619E+02  0.57944796209E+01 -0.12761926843E+02  0.54367087499E+02  0.40000007570E+02 0.  0.
        -12    1    3    3    0    0 -0.34049035619E+02 -0.57944796209E+01  0.12761926843E+02  0.36820912501E+02  0.00000000000E+00 0.  1.
         11    1    4    4    0    0  0.29302246536E+02  0.17552627592E+02 -0.12182990702E+02  0.36264881774E+02  0.51100000000E-03 0. -1.
        -11    1    4    4    0    0 -0.14975336405E+01 -0.11320927532E+01 -0.47364490771E+01  0.50949181669E+01  0.51100000000E-03 0.  1.
        -12    1    4    4    0    0  0.62443227244E+01 -0.10626055218E+02  0.41575129359E+01  0.13007287557E+02  0.00000000000E+00 0.  1.
</event>
<event>
 8    1  0.1261983E-006  0.9118800E+02  0.7816164E-02  0.1184000E+00
        -11   -1    0    0    0    0  0.00000000000E+00  0.00000000000E+00  0.45593999997E+02  0.45594000000E+02  0.51100000000E-03 0. -1.
         11   -1    0    0    0    0 -0.00000000000E+00 -0.00000000000E+00 -0.45593999997E+02  0.45594000000E+02  0.51100000000E-03 0.  1.
         23    2    1    2    0    0  0.35527136788E-14  0.00000000000E+00  0.00000000000E+00  0.91188000000E+02  0.91188000000E+02 0.  0.
    9900012    2    3    3    0    0  0.29240921011E+02 -0.92035483446E+01  0.20397135931E+02  0.54367083147E+02  0.39999997650E+02 0.  0.
        -12    1    3    3    0    0 -0.29240921011E+02  0.92035483446E+01 -0.20397135931E+02  0.36820916853E+02  0.00000000000E+00 0.  1.
         11    1    4    4    0    0  0.83594634438E+01  0.59818696488E+01  0.14645592760E+01  0.10383078912E+02  0.51100000000E-03 0. -1.
        -11    1    4    4    0    0  0.15131537638E+02  0.68255851579E+01  0.51287095649E+01  0.17373995111E+02  0.51100000000E-03 0.  1.
         12    1    4    4    0    0  0.57499199290E+01 -0.22011003151E+02  0.13803867091E+02  0.26610009124E+02  0.00000000000E+00 0. -1.
</event>
<event>
 8    1  0.1261983E-006  0.9118800E+02  0.7816164E-02  0.1184000E+00
        -11   -1    0    0    0    0  0.00000000000E+00  0.00000000000E+00  0.45593999997E+02  0.45594000000E+02  0.51100000000E-03 0. -1.
         11   -1    0    0    0    0 -0.00000000000E+00 -0.00000000000E+00 -0.45593999997E+02  0.45594000000E+02  0.51100000000E-03 0.  1.
         23    2    1    2    0    0  0.00000000000E+00 -0.44408920985E-15  0.00000000000E+00  0.91188000000E+02  0.91188000000E+02 0.  0.
    9900012    2    3    3    0    0  0.25715146814E+02 -0.24878172877E+01  0.26235886284E+02  0.54367085568E+02  0.40000003169E+02 0.  0.
        -12    1    3    3    0    0 -0.25715146814E+02  0.24878172877E+01 -0.26235886284E+02  0.36820914432E+02  0.00000000000E+00 0.  1.
         11    1    4    4    0    0  0.24957888211E+02  0.12497400606E+01  0.23176411346E+02  0.34082313262E+02  0.51100000000E-03 0. -1.
        -11    1    4    4    0    0  0.81187556910E+01 -0.11214850057E+01  0.76601308151E+01  0.11218267556E+02  0.51100000000E-03 0.  1.
         12    1    4    4    0    0 -0.73614970877E+01 -0.26160723427E+01 -0.46006558773E+01  0.90665047496E+01  0.00000000000E+00 0. -1.
</event>
<event>
 8    1  0.1261983E-006  0.9118800E+02  0.7816164E-02  0.1184000E+00
        -11   -1    0    0    0    0  0.00000000000E+00  0.00000000000E+00  0.45593999997E+02  0.45594000000E+02  0.51100000000E-03 0.  1.
         11   -1    0    0    0    0 -0.00000000000E+00 -0.00000000000E+00 -0.45593999997E+02  0.45594000000E+02  0.51100000000E-03 0. -1.
         23    2    1    2    0    0 -0.35527136788E-14  0.71054273576E-14 -0.35527136788E-14  0.91188000000E+02  0.91188000000E+02 0.  0.
    9900012    2    3    3    0    0  0.87416152595E+01 -0.31974148448E+02  0.16031730997E+02  0.54367103690E+02  0.40000044482E+02 0.  0.
         12    1    3    3    0    0 -0.87416152595E+01  0.31974148448E+02 -0.16031730997E+02  0.36820896310E+02  0.00000000000E+00 0. -1.
         11    1    4    4    0    0  0.39217051985E+00 -0.14264572176E+02 -0.10068766311E+02  0.17464589099E+02  0.51100000000E-03 0. -1.
        -11    1    4    4    0    0 -0.48591617076E+00 -0.27825377562E+01 -0.22873660737E+01  0.36346491861E+01  0.51100000000E-03 0.  1.
        -12    1    4    4    0    0  0.88353609105E+01 -0.14927038515E+02  0.28387863382E+02  0.33267865405E+02  0.00000000000E+00 0.  1.
</event>
<event>
 8    1  0.1261983E-006  0.9118800E+02  0.7816164E-02  0.1184000E+00
        -11   -1    0    0    0    0  0.00000000000E+00  0.00000000000E+00  0.45593999997E+02  0.45594000000E+02  0.51100000000E-03 0. -1.
         11   -1    0    0    0    0 -0.00000000000E+00 -0.00000000000E+00 -0.45593999997E+02  0.45594000000E+02  0.51100000000E-03 0.  1.
         23    2    1    2    0    0  0.00000000000E+00  0.35527136788E-14  0.00000000000E+00  0.91188000000E+02  0.91188000000E+02 0.  0.
    9900012    2    3    3    0    0  0.22227309373E+02  0.26171115505E+02 -0.13296621454E+02  0.54367072380E+02  0.39999973104E+02 0.  0.
         12    1    3    3    0    0 -0.22227309373E+02 -0.26171115505E+02  0.13296621454E+02  0.36820927620E+02  0.00000000000E+00 0. -1.
         11    1    4    4    0    0  0.47318284099E-01  0.12186253848E+01 -0.45942511227E+01  0.47533599157E+01  0.51100000000E-03 0. -1.
        -11    1    4    4    0    0  0.26377993530E+02  0.62377929854E+01 -0.12839724360E+02  0.29992784564E+02  0.51100000000E-03 0.  1.
        -12    1    4    4    0    0 -0.41980024405E+01  0.18714697134E+02  0.41373540280E+01  0.19620927900E+02  0.00000000000E+00 0.  1.
</event>
<event>
 8    1  0.1261983E-006  0.9118800E+02  0.7816164E-02  0.1184000E+00
        -11   -1    0    0    0    0  0.00000000000E+00  0.00000000000E+00  0.45593999997E+02  0.45594000000E+02  0.51100000000E-03 0.  1.
         11   -1    0    0    0    0 -0.00000000000E+00 -0.00000000000E+00 -0.45593999997E+02  0.45594000000E+02  0.51100000000E-03 0. -1.
         23    2    1    2    0    0  0.00000000000E+00  0.00000000000E+00  0.00000000000E+00  0.91188000000E+02  0.91188000000E+02 0.  0.
    9900012    2    3    3    0    0  0.10045000943E+02 -0.23103295450E+02 -0.26853585554E+02  0.54367090700E+02  0.40000014868E+02 0.  0.
        -12    1    3    3    0    0 -0.10045000943E+02  0.23103295450E+02  0.26853585554E+02  0.36820909300E+02  0.00000000000E+00 0.  1.
         11    1    4    4    0    0  0.11592511367E+02 -0.60022437379E+01 -0.10780619232E+01  0.13098681897E+02  0.51100000000E-03 0.  1.
        -11    1    4    4    0    0 -0.47356944321E+01  0.67000383841E+01 -0.61081565860E+01  0.10228728819E+02  0.51100000000E-03 0. -1.
         12    1    4    4    0    0  0.31881840088E+01 -0.23801090096E+02 -0.19667367045E+02  0.31039679984E+02  0.00000000000E+00 0. -1.
</event>
<event>
 8    1  0.1261983E-006  0.9118800E+02  0.7816164E-02  0.1184000E+00
        -11   -1    0    0    0    0  0.00000000000E+00  0.00000000000E+00  0.45593999997E+02  0.45594000000E+02  0.51100000000E-03 0. -1.
         11   -1    0    0    0    0 -0.00000000000E+00 -0.00000000000E+00 -0.45593999997E+02  0.45594000000E+02  0.51100000000E-03 0.  1.
         23    2    1    2    0    0 -0.26645352591E-14  0.83266726847E-15  0.00000000000E+00  0.91188000000E+02  0.91188000000E+02 0.  0.
    9900012    2    3    3    0    0 -0.59323869113E+01 -0.35087688059E+00  0.36338195443E+02  0.54367071480E+02  0.39999971053E+02 0.  0.
        -12    1    3    3    0    0  0.59323869113E+01  0.35087688059E+00 -0.36338195443E+02  0.36820928520E+02  0.00000000000E+00 0.  1.
         11    1    4    4    0    0  0.17633755269E+01 -0.73552670863E+01  0.80971922292E+01  0.11080341575E+02  0.51100000000E-03 0. -1.
        -11    1    4    4    0    0  0.59694969618E+01 -0.74589775896E+01  0.10762790265E+01  0.96140323207E+01  0.51100000000E-03 0.  1.
         12    1    4    4    0    0 -0.13665259400E+02  0.14463367795E+02  0.27164724187E+02  0.33672697584E+02  0.00000000000E+00 0. -1.
</event>
<event>
 8    1  0.1261983E-006  0.9118800E+02  0.7816164E-02  0.1184000E+00
        -11   -1    0    0    0    0  0.00000000000E+00  0.00000000000E+00  0.45593999997E+02  0.45594000000E+02  0.51100000000E-03 0. -1.
         11   -1    0    0    0    0 -0.00000000000E+00 -0.00000000000E+00 -0.45593999997E+02  0.45594000000E+02  0.51100000000E-03 0.  1.
         23    2    1    2    0    0 -0.88817841970E-15 -0.71054273576E-14  0.35527136788E-14  0.91188000000E+02  0.91188000000E+02 0.  0.
    9900012    2    3    3    0    0 -0.40541726776E+01  0.32612101590E+02 -0.16607068879E+02  0.54367079004E+02  0.39999988206E+02 0.  0.
         12    1    3    3    0    0  0.40541726776E+01 -0.32612101590E+02  0.16607068879E+02  0.36820920996E+02  0.00000000000E+00 0. -1.
         11    1    4    4    0    0  0.21611112986E+01  0.20237607780E+02 -0.17030466088E+02  0.26538047142E+02  0.51100000000E-03 0.  1.
        -11    1    4    4    0    0 -0.66249518926E+01  0.80598302436E+01  0.11742900986E+02  0.15708169052E+02  0.51100000000E-03 0. -1.
        -12    1    4    4    0    0  0.40966791635E+00  0.43146635670E+01 -0.11319503777E+02  0.12120862810E+02  0.00000000000E+00 0.  1.
</event>
<event>
 8    1  0.1261983E-006  0.9118800E+02  0.7816164E-02  0.1184000E+00
        -11   -1    0    0    0    0  0.00000000000E+00  0.00000000000E+00  0.45593999997E+02  0.45594000000E+02  0.51100000000E-03 0.  1.
         11   -1    0    0    0    0 -0.00000000000E+00 -0.00000000000E+00 -0.45593999997E+02  0.45594000000E+02  0.51100000000E-03 0. -1.
         23    2    1    2    0    0  0.00000000000E+00  0.00000000000E+00  0.17763568394E-14  0.91188000000E+02  0.91188000000E+02 0.  0.
    9900012    2    3    3    0    0 -0.16283023299E+02 -0.29400775679E+02 -0.15041198755E+02  0.54367080426E+02  0.39999991447E+02 0.  0.
         12    1    3    3    0    0  0.16283023299E+02  0.29400775679E+02  0.15041198755E+02  0.36820919574E+02  0.00000000000E+00 0. -1.
         11    1    4    4    0    0 -0.60110039380E+01 -0.25339356725E+02 -0.17124696165E+02  0.31168419700E+02  0.51100000000E-03 0. -1.
        -11    1    4    4    0    0 -0.66285084453E+01 -0.42525295046E+01 -0.87471196735E+01  0.11770014199E+02  0.51100000000E-03 0.  1.
        -12    1    4    4    0    0 -0.36435109160E+01  0.19111055091E+00  0.10830617084E+02  0.11428646527E+02  0.00000000000E+00 0.  1.
</event>
<event>
 8    1  0.1261983E-006  0.9118800E+02  0.7816164E-02  0.1184000E+00
        -11   -1    0    0    0    0  0.00000000000E+00  0.00000000000E+00  0.45593999997E+02  0.45594000000E+02  0.51100000000E-03 0.  1.
         11   -1    0    0    0    0 -0.00000000000E+00 -0.00000000000E+00 -0.45593999997E+02  0.45594000000E+02  0.51100000000E-03 0. -1.
         23    2    1    2    0    0  0.71054273576E-14  0.13322676296E-14 -0.88817841970E-15  0.91188000000E+02  0.91188000000E+02 0.  0.
    9900012    2    3    3    0    0 -0.36651742773E+02 -0.29801191870E+01  0.18825924688E+01  0.54367142961E+02  0.40000134008E+02 0.  0.
         12    1    3    3    0    0  0.36651742773E+02  0.29801191870E+01 -0.18825924688E+01  0.36820857039E+02  0.00000000000E+00 0. -1.
         11    1    4    4    0    0 -0.30953717287E+02 -0.11698488555E+02 -0.52987382843E+01  0.33512145202E+02  0.51100000000E-03 0.  1.
        -11    1    4    4    0    0 -0.80208674571E+01  0.30953999675E+01  0.10778401265E+02  0.13787303936E+02  0.51100000000E-03 0. -1.
        -12    1    4    4    0    0  0.23228419712E+01  0.56229694004E+01 -0.35970705123E+01  0.70676938227E+01  0.00000000000E+00 0.  1.
</event>
<event>
 8    1  0.1261983E-006  0.9118800E+02  0.7816164E-02  0.1184000E+00
        -11   -1    0    0    0    0  0.00000000000E+00  0.00000000000E+00  0.45593999997E+02  0.45594000000E+02  0.51100000000E-03 0. -1.
         11   -1    0    0    0    0 -0.00000000000E+00 -0.00000000000E+00 -0.45593999997E+02  0.45594000000E+02  0.51100000000E-03 0.  1.
         23    2    1    2    0    0  0.00000000000E+00  0.15543122345E-14  0.00000000000E+00  0.91188000000E+02  0.91188000000E+02 0.  0.
    9900012    2    3    3    0    0  0.17485743442E+02  0.19171875841E+01 -0.32347381060E+02  0.54367083480E+02  0.39999998409E+02 0.  0.
         12    1    3    3    0    0 -0.17485743442E+02 -0.19171875841E+01  0.32347381060E+02  0.36820916520E+02  0.00000000000E+00 0. -1.
         11    1    4    4    0    0 -0.22423730488E+01 -0.13155006432E+02 -0.16745207100E+02  0.21412248649E+02  0.51100000000E-03 0.  1.
        -11    1    4    4    0    0  0.56909919645E+01 -0.27635485694E+01 -0.36263672196E+01  0.72921279273E+01  0.51100000000E-03 0. -1.
        -12    1    4    4    0    0  0.14037124526E+02  0.17835742586E+02 -0.11975806740E+02  0.25662706904E+02  0.00000000000E+00 0.  1.
</event>
<event>
 8    1  0.1261983E-006  0.9118800E+02  0.7816164E-02  0.1184000E+00
        -11   -1    0    0    0    0  0.00000000000E+00  0.00000000000E+00  0.45593999997E+02  0.45594000000E+02  0.51100000000E-03 0. -1.
         11   -1    0    0    0    0 -0.00000000000E+00 -0.00000000000E+00 -0.45593999997E+02  0.45594000000E+02  0.51100000000E-03 0.  1.
         23    2    1    2    0    0 -0.35527136788E-14 -0.35527136788E-14  0.35527136788E-14  0.91188000000E+02  0.91188000000E+02 0.  0.
    9900012    2    3    3    0    0 -0.19289283872E+02  0.20057121420E+02 -0.24112556892E+02  0.54367082143E+02  0.39999995361E+02 0.  0.
         12    1    3    3    0    0  0.19289283872E+02 -0.20057121420E+02  0.24112556892E+02  0.36820917857E+02  0.00000000000E+00 0. -1.
         11    1    4    4    0    0 -0.37006728658E+01 -0.65590245985E+01  0.36882302925E+01  0.83856321345E+01  0.51100000000E-03 0. -1.
        -11    1    4    4    0    0 -0.39386167221E+01  0.22004449289E+02 -0.24200247294E+02  0.32944809297E+02  0.51100000000E-03 0.  1.
        -12    1    4    4    0    0 -0.11649994284E+02  0.46116967292E+01 -0.36005398902E+01  0.13036640712E+02  0.00000000000E+00 0.  1.
</event>
<event>
 8    1  0.1261983E-006  0.9118800E+02  0.7816164E-02  0.1184000E+00
        -11   -1    0    0    0    0  0.00000000000E+00  0.00000000000E+00  0.45593999997E+02  0.45594000000E+02  0.51100000000E-03 0.  1.
         11   -1    0    0    0    0 -0.00000000000E+00 -0.00000000000E+00 -0.45593999997E+02  0.45594000000E+02  0.51100000000E-03 0. -1.
         23    2    1    2    0    0 -0.35527136788E-14  0.00000000000E+00  0.00000000000E+00  0.91188000000E+02  0.91188000000E+02 0.  0.
    9900012    2    3    3    0    0  0.17078320937E+02 -0.21665994370E+02  0.24386378244E+02  0.54367084722E+02  0.40000001241E+02 0.  0.
         12    1    3    3    0    0 -0.17078320937E+02  0.21665994370E+02 -0.24386378244E+02  0.36820915278E+02  0.00000000000E+00 0. -1.
         11    1    4    4    0    0  0.77422590425E+01 -0.92468500340E+01 -0.32635301038E+01  0.12493896095E+02  0.51100000000E-03 0. -1.
        -11    1    4    4    0    0  0.16937339738E+02 -0.57397289034E+01  0.26095781405E+02  0.31635546031E+02  0.51100000000E-03 0.  1.
         12    1    4    4    0    0 -0.76012778433E+01 -0.66794154321E+01  0.15541269427E+01  0.10237642596E+02  0.00000000000E+00 0. -1.
</event>
<event>
 8    1  0.1261983E-006  0.9118800E+02  0.7816164E-02  0.1184000E+00
        -11   -1    0    0    0    0  0.00000000000E+00  0.00000000000E+00  0.45593999997E+02  0.45594000000E+02  0.51100000000E-03 0.  1.
         11   -1    0    0    0    0 -0.00000000000E+00 -0.00000000000E+00 -0.45593999997E+02  0.45594000000E+02  0.51100000000E-03 0. -1.
         23    2    1    2    0    0  0.17763568394E-14 -0.17763568394E-14  0.00000000000E+00  0.91188000000E+02  0.91188000000E+02 0.  0.
    9900012    2    3    3    0    0  0.86138598393E+01 -0.13657286453E+02  0.33091688272E+02  0.54367083563E+02  0.39999998598E+02 0.  0.
         12    1    3    3    0    0 -0.86138598393E+01  0.13657286453E+02 -0.33091688272E+02  0.36820916437E+02  0.00000000000E+00 0. -1.
         11    1    4    4    0    0 -0.18289024322E+01 -0.14191813458E+02  0.38496844677E+01  0.14817979757E+02  0.51100000000E-03 0. -1.
        -11    1    4    4    0    0  0.55986123006E+01 -0.11686003403E+02  0.10615526906E+02  0.16751016297E+02  0.51100000000E-03 0.  1.
         12    1    4    4    0    0  0.48441499709E+01  0.12220530408E+02  0.18626476899E+02  0.22798087509E+02  0.00000000000E+00 0. -1.
</event>
<event>
 8    1  0.1261983E-006  0.9118800E+02  0.7816164E-02  0.1184000E+00
        -11   -1    0    0    0    0  0.00000000000E+00  0.00000000000E+00  0.45593999997E+02  0.45594000000E+02  0.51100000000E-03 0. -1.
         11   -1    0    0    0    0 -0.00000000000E+00 -0.00000000000E+00 -0.45593999997E+02  0.45594000000E+02  0.51100000000E-03 0.  1.
         23    2    1    2    0    0  0.00000000000E+00 -0.35527136788E-14  0.35527136788E-14  0.91188000000E+02  0.91188000000E+02 0.  0.
    9900012    2    3    3    0    0 -0.41655026784E+01 -0.23203178569E+02  0.28284982310E+02  0.54367093812E+02  0.40000021963E+02 0.  0.
        -12    1    3    3    0    0  0.41655026784E+01  0.23203178569E+02 -0.28284982310E+02  0.36820906188E+02  0.00000000000E+00 0.  1.
         11    1    4    4    0    0 -0.21795169167E+01  0.53796538496E+01  0.45480703822E+00  0.58221833735E+01  0.51100000000E-03 0. -1.
        -11    1    4    4    0    0  0.58677289339E+01  0.10302875632E+01  0.13430988391E+02  0.14692963783E+02  0.51100000000E-03 0.  1.
         12    1    4    4    0    0 -0.78537146956E+01 -0.29613119981E+02  0.14399186881E+02  0.33851946656E+02  0.00000000000E+00 0. -1.
</event>
<event>
 8    1  0.1261983E-006  0.9118800E+02  0.7816164E-02  0.1184000E+00
        -11   -1    0    0    0    0  0.00000000000E+00  0.00000000000E+00  0.45593999997E+02  0.45594000000E+02  0.51100000000E-03 0.  1.
         11   -1    0    0    0    0 -0.00000000000E+00 -0.00000000000E+00 -0.45593999997E+02  0.45594000000E+02  0.51100000000E-03 0. -1.
         23    2    1    2    0    0  0.00000000000E+00 -0.53290705182E-14 -0.17763568394E-14  0.91188000000E+02  0.91188000000E+02 0.  0.
    9900012    2    3    3    0    0  0.30650258623E+02  0.14989952076E+02  0.13843490748E+02  0.54367092176E+02  0.40000018233E+02 0.  0.
        -12    1    3    3    0    0 -0.30650258623E+02 -0.14989952076E+02 -0.13843490748E+02  0.36820907824E+02  0.00000000000E+00 0.  1.
         11    1    4    4    0    0  0.23912130380E+02  0.48284415357E+01  0.12761461650E+01  0.24428106277E+02  0.51100000000E-03 0. -1.
        -11    1    4    4    0    0  0.15825021637E+02  0.44423900584E+01  0.76199285723E+01  0.18117103823E+02  0.51100000000E-03 0.  1.
        -12    1    4    4    0    0 -0.90868933934E+01  0.57191204822E+01  0.49474160107E+01  0.11821882076E+02  0.00000000000E+00 0.  1.
</event>
<event>
 8    1  0.1261983E-006  0.9118800E+02  0.7816164E-02  0.1184000E+00
        -11   -1    0    0    0    0  0.00000000000E+00  0.00000000000E+00  0.45593999997E+02  0.45594000000E+02  0.51100000000E-03 0.  1.
         11   -1    0    0    0    0 -0.00000000000E+00 -0.00000000000E+00 -0.45593999997E+02  0.45594000000E+02  0.51100000000E-03 0. -1.
         23    2    1    2    0    0 -0.44408920985E-15  0.00000000000E+00  0.00000000000E+00  0.91188000000E+02  0.91188000000E+02 0.  0.
    9900012    2    3    3    0    0 -0.39523487988E+01  0.11892161052E+02  0.34622780557E+02  0.54367061812E+02  0.39999949013E+02 0.  0.
         12    1    3    3    0    0  0.39523487988E+01 -0.11892161052E+02 -0.34622780557E+02  0.36820938188E+02  0.00000000000E+00 0. -1.
         11    1    4    4    0    0 -0.28620533591E+01  0.91374434410E+01  0.80306154577E+01  0.12496999918E+02  0.51100000000E-03 0. -1.
        -11    1    4    4    0    0 -0.48924273594E+00  0.11856373228E+02  0.29898943187E+02  0.32167681740E+02  0.51100000000E-03 0.  1.
         12    1    4    4    0    0 -0.60105270379E+00 -0.91016556166E+01 -0.33067780876E+01  0.97023801531E+01  0.00000000000E+00 0. -1.
</event>
<event>
 8    1  0.1261983E-006  0.9118800E+02  0.7816164E-02  0.1184000E+00
        -11   -1    0    0    0    0  0.00000000000E+00  0.00000000000E+00  0.45593999997E+02  0.45594000000E+02  0.51100000000E-03 0.  1.
         11   -1    0    0    0    0 -0.00000000000E+00 -0.00000000000E+00 -0.45593999997E+02  0.45594000000E+02  0.51100000000E-03 0. -1.
         23    2    1    2    0    0  0.17763568394E-14  0.00000000000E+00  0.00000000000E+00  0.91188000000E+02  0.91188000000E+02 0.  0.
    9900012    2    3    3    0    0 -0.12919178934E+02 -0.79412710683E+01 -0.33553111714E+02  0.54367078281E+02  0.39999986558E+02 0.  0.
        -12    1    3    3    0    0  0.12919178934E+02  0.79412710683E+01  0.33553111714E+02  0.36820921719E+02  0.00000000000E+00 0.  1.
         11    1    4    4    0    0  0.11380895086E+01 -0.14339112689E+02 -0.36806782980E+01  0.14847652792E+02  0.51100000000E-03 0. -1.
        -11    1    4    4    0    0  0.13445113839E+01 -0.66028931810E+00  0.25385477137E+01  0.29475273707E+01  0.51100000000E-03 0.  1.
         12    1    4    4    0    0 -0.15401779827E+02  0.70581309388E+01 -0.32410981130E+02  0.36571898118E+02  0.00000000000E+00 0. -1.
</event>
<event>
 8    1  0.1261983E-006  0.9118800E+02  0.7816164E-02  0.1184000E+00
        -11   -1    0    0    0    0  0.00000000000E+00  0.00000000000E+00  0.45593999997E+02  0.45594000000E+02  0.51100000000E-03 0.  1.
         11   -1    0    0    0    0 -0.00000000000E+00 -0.00000000000E+00 -0.45593999997E+02  0.45594000000E+02  0.51100000000E-03 0. -1.
         23    2    1    2    0    0  0.00000000000E+00  0.88817841970E-15  0.00000000000E+00  0.91188000000E+02  0.91188000000E+02 0.  0.
    9900012    2    3    3    0    0  0.16789746836E+02 -0.23436074938E+01 -0.32686246576E+02  0.54367098189E+02  0.40000031942E+02 0.  0.
        -12    1    3    3    0    0 -0.16789746836E+02  0.23436074938E+01  0.32686246576E+02  0.36820901811E+02  0.00000000000E+00 0.  1.
         11    1    4    4    0    0  0.51159362850E+01  0.83943551185E+01 -0.17328103333E+02  0.19922378556E+02  0.51100000000E-03 0. -1.
        -11    1    4    4    0    0  0.11230603545E+02  0.58857911791E+01 -0.14433026175E+01  0.12761352455E+02  0.51100000000E-03 0.  1.
        -12    1    4    4    0    0  0.44320700668E+00 -0.16623753791E+02 -0.13914840626E+02  0.21683367179E+02  0.00000000000E+00 0.  1.
</event>
<event>
 8    1  0.1261983E-006  0.9118800E+02  0.7816164E-02  0.1184000E+00
        -11   -1    0    0    0    0  0.00000000000E+00  0.00000000000E+00  0.45593999997E+02  0.45594000000E+02  0.51100000000E-03 0. -1.
         11   -1    0    0    0    0 -0.00000000000E+00 -0.00000000000E+00 -0.45593999997E+02  0.45594000000E+02  0.51100000000E-03 0.  1.
         23    2    1    2    0    0  0.00000000000E+00  0.00000000000E+00  0.00000000000E+00  0.91188000000E+02  0.91188000000E+02 0.  0.
    9900012    2    3    3    0    0 -0.29272392804E+02 -0.19241493217E+02  0.11343318619E+02  0.54367096711E+02  0.40000028572E+02 0.  0.
        -12    1    3    3    0    0  0.29272392804E+02  0.19241493217E+02 -0.11343318619E+02  0.36820903289E+02  0.00000000000E+00 0.  1.
         11    1    4    4    0    0 -0.50853035597E+01 -0.20414512175E+02 -0.32688417405E+01  0.21290794871E+02  0.51100000000E-03 0. -1.
        -11    1    4    4    0    0  0.91109586202E+00  0.26409238890E+01  0.57962082912E+01  0.64343302272E+01  0.51100000000E-03 0.  1.
         12    1    4    4    0    0 -0.25098185107E+02 -0.14679049311E+01  0.88159520686E+01  0.26641971613E+02  0.00000000000E+00 0. -1.
</event>
<event>
 8    1  0.1261983E-006  0.9118800E+02  0.7816164E-02  0.1184000E+00
        -11   -1    0    0    0    0  0.00000000000E+00  0.00000000000E+00  0.45593999997E+02  0.45594000000E+02  0.51100000000E-03 0.  1.
         11   -1    0    0    0    0 -0.00000000000E+00 -0.00000000000E+00 -0.45593999997E+02  0.45594000000E+02  0.51100000000E-03 0. -1.
         23    2    1    2    0    0  0.00000000000E+00  0.00000000000E+00  0.00000000000E+00  0.91188000000E+02  0.91188000000E+02 0.  0.
    9900012    2    3    3    0    0  0.19782725166E+02  0.21597149221E+02 -0.22315616550E+02  0.54367084592E+02  0.40000000945E+02 0.  0.
        -12    1    3    3    0    0 -0.19782725166E+02 -0.21597149221E+02  0.22315616550E+02  0.36820915408E+02  0.00000000000E+00 0.  1.
         11    1    4    4    0    0 -0.60898506369E+01  0.59310269345E+01 -0.35879750040E+01  0.92269673332E+01  0.51100000000E-03 0. -1.
        -11    1    4    4    0    0  0.18078487154E+02 -0.50977366821E+01 -0.10236933362E+02  0.21391900850E+02  0.51100000000E-03 0.  1.
         12    1    4    4    0    0  0.77940886488E+01  0.20763858969E+02 -0.84907081838E+01  0.23748216409E+02  0.00000000000E+00 0. -1.
</event>
<event>
 8    1  0.1261983E-006  0.9118800E+02  0.7816164E-02  0.1184000E+00
        -11   -1    0    0    0    0  0.00000000000E+00  0.00000000000E+00  0.45593999997E+02  0.45594000000E+02  0.51100000000E-03 0.  1.
         11   -1    0    0    0    0 -0.00000000000E+00 -0.00000000000E+00 -0.45593999997E+02  0.45594000000E+02  0.51100000000E-03 0. -1.
         23    2    1    2    0    0  0.00000000000E+00  0.17763568394E-14  0.00000000000E+00  0.91188000000E+02  0.91188000000E+02 0.  0.
    9900012    2    3    3    0    0 -0.33887669050E+02 -0.11545192928E+02  0.86089770259E+01  0.54367080961E+02  0.39999992668E+02 0.  0.
        -12    1    3    3    0    0  0.33887669050E+02  0.11545192928E+02 -0.86089770259E+01  0.36820919039E+02  0.00000000000E+00 0.  1.
         11    1    4    4    0    0 -0.11110146973E+01 -0.94370874632E+01  0.26292460656E+01  0.98593056845E+01  0.51100000000E-03 0. -1.
        -11    1    4    4    0    0 -0.48346572169E+01 -0.12142541755E+02  0.69503139623E+01  0.14802773224E+02  0.51100000000E-03 0.  1.
         12    1    4    4    0    0 -0.27941997136E+02  0.10034436290E+02 -0.97058300209E+00  0.29705002053E+02  0.00000000000E+00 0. -1.
</event>
<event>
 8    1  0.1261983E-006  0.9118800E+02  0.7816164E-02  0.1184000E+00
        -11   -1    0    0    0    0  0.00000000000E+00  0.00000000000E+00  0.45593999997E+02  0.45594000000E+02  0.51100000000E-03 0.  1.
         11   -1    0    0    0    0 -0.00000000000E+00 -0.00000000000E+00 -0.45593999997E+02  0.45594000000E+02  0.51100000000E-03 0. -1.
         23    2    1    2    0    0  0.00000000000E+00  0.00000000000E+00 -0.35527136788E-14  0.91188000000E+02  0.91188000000E+02 0.  0.
    9900012    2    3    3    0    0 -0.21804514701E+02  0.92695150274E+01  0.28185447703E+02  0.54367078877E+02  0.39999987915E+02 0.  0.
         12    1    3    3    0    0  0.21804514701E+02 -0.92695150274E+01 -0.28185447703E+02  0.36820921123E+02  0.00000000000E+00 0. -1.
         11    1    4    4    0    0 -0.62594589175E+01  0.12199744526E+02  0.29539529864E+02  0.32566830016E+02  0.51100000000E-03 0. -1.
        -11    1    4    4    0    0 -0.14189394073E+00 -0.39396229734E+01  0.38501240472E+01  0.55103737172E+01  0.51100000000E-03 0.  1.
         12    1    4    4    0    0 -0.15403161843E+02  0.10093934752E+01 -0.52042062086E+01  0.16289875144E+02  0.00000000000E+00 0. -1.
</event>
<event>
 8    1  0.1261983E-006  0.9118800E+02  0.7816164E-02  0.1184000E+00
        -11   -1    0    0    0    0  0.00000000000E+00  0.00000000000E+00  0.45593999997E+02  0.45594000000E+02  0.51100000000E-03 0.  1.
         11   -1    0    0    0    0 -0.00000000000E+00 -0.00000000000E+00 -0.45593999997E+02  0.45594000000E+02  0.51100000000E-03 0. -1.
         23    2    1    2    0    0  0.35527136788E-14  0.00000000000E+00 -0.35527136788E-14  0.91188000000E+02  0.91188000000E+02 0.  0.
    9900012    2    3    3    0    0 -0.20275514971E+02 -0.10034948582E+02  0.29051397328E+02  0.54367076775E+02  0.39999983125E+02 0.  0.
         12    1    3    3    0    0  0.20275514971E+02  0.10034948582E+02 -0.29051397328E+02  0.36820923225E+02  0.00000000000E+00 0. -1.
         11    1    4    4    0    0  0.22061749845E+01 -0.56194167394E+01  0.43556648932E+01  0.74442507666E+01  0.51100000000E-03 0. -1.
        -11    1    4    4    0    0  0.72899307884E+01 -0.50155038282E+01  0.10738047056E+01  0.89135529592E+01  0.51100000000E-03 0.  1.
        -12    1    4    4    0    0 -0.29771620744E+02  0.59997198522E+00  0.23621927729E+02  0.38009273050E+02  0.00000000000E+00 0.  1.
</event>
<event>
 8    1  0.1261983E-006  0.9118800E+02  0.7816164E-02  0.1184000E+00
        -11   -1    0    0    0    0  0.00000000000E+00  0.00000000000E+00  0.45593999997E+02  0.45594000000E+02  0.51100000000E-03 0.  1.
         11   -1    0    0    0    0 -0.00000000000E+00 -0.00000000000E+00 -0.45593999997E+02  0.45594000000E+02  0.51100000000E-03 0. -1.
         23    2    1    2    0    0  0.00000000000E+00 -0.71054273576E-14  0.00000000000E+00  0.91188000000E+02  0.91188000000E+02 0.  0.
    9900012    2    3    3    0    0  0.36893069343E+01 -0.33987977989E+02  0.13674289505E+02  0.54367084383E+02  0.40000000468E+02 0.  0.
         12    1    3    3    0    0 -0.36893069343E+01  0.33987977989E+02 -0.13674289505E+02  0.36820915617E+02  0.00000000000E+00 0. -1.
         11    1    4    4    0    0 -0.16221549083E+01  0.27592071124E+01  0.78113967529E+01  0.84417136843E+01  0.51100000000E-03 0. -1.
        -11    1    4    4    0    0 -0.11436588681E+01 -0.72358821245E+01  0.12966095869E+02  0.14892467495E+02  0.51100000000E-03 0.  1.
         12    1    4    4    0    0  0.64551207107E+01 -0.29511302977E+02 -0.71032031175E+01  0.31032903204E+02  0.00000000000E+00 0. -1.
</event>
<event>
 8    1  0.1261983E-006  0.9118800E+02  0.7816164E-02  0.1184000E+00
        -11   -1    0    0    0    0  0.00000000000E+00  0.00000000000E+00  0.45593999997E+02  0.45594000000E+02  0.51100000000E-03 0.  1.
         11   -1    0    0    0    0 -0.00000000000E+00 -0.00000000000E+00 -0.45593999997E+02  0.45594000000E+02  0.51100000000E-03 0. -1.
         23    2    1    2    0    0  0.00000000000E+00  0.00000000000E+00 -0.35527136788E-14  0.91188000000E+02  0.91188000000E+02 0.  0.
    9900012    2    3    3    0    0 -0.22452996899E+01 -0.22846483503E+02  0.28788483198E+02  0.54367082793E+02  0.39999996842E+02 0.  0.
         12    1    3    3    0    0  0.22452996899E+01  0.22846483503E+02 -0.28788483198E+02  0.36820917207E+02  0.00000000000E+00 0. -1.
         11    1    4    4    0    0 -0.20915808411E+01  0.24381601031E+01  0.33293262755E+01  0.46264185730E+01  0.51100000000E-03 0. -1.
        -11    1    4    4    0    0  0.14806319177E+01  0.64281809343E+01  0.14868748917E+02  0.16266329507E+02  0.51100000000E-03 0.  1.
         12    1    4    4    0    0 -0.16343507665E+01 -0.31712824540E+02  0.10590408005E+02  0.33474334713E+02  0.00000000000E+00 0. -1.
</event>
<event>
 8    1  0.1261983E-006  0.9118800E+02  0.7816164E-02  0.1184000E+00
        -11   -1    0    0    0    0  0.00000000000E+00  0.00000000000E+00  0.45593999997E+02  0.45594000000E+02  0.51100000000E-03 0. -1.
         11   -1    0    0    0    0 -0.00000000000E+00 -0.00000000000E+00 -0.45593999997E+02  0.45594000000E+02  0.51100000000E-03 0.  1.
         23    2    1    2    0    0  0.88817841970E-15  0.71054273576E-14  0.00000000000E+00  0.91188000000E+02  0.91188000000E+02 0.  0.
    9900012    2    3    3    0    0 -0.40433416059E+01  0.36229000921E+02  0.51856266203E+01  0.54367084171E+02  0.39999999984E+02 0.  0.
         12    1    3    3    0    0  0.40433416059E+01 -0.36229000921E+02 -0.51856266203E+01  0.36820915829E+02  0.00000000000E+00 0. -1.
         11    1    4    4    0    0  0.68282496649E+01  0.61373901258E+01  0.11317307940E+02  0.14573057686E+02  0.51100000000E-03 0. -1.
        -11    1    4    4    0    0 -0.59406909326E+01  0.21140598657E+02  0.70970094147E+01  0.23077787225E+02  0.51100000000E-03 0.  1.
         12    1    4    4    0    0 -0.49309003382E+01  0.89510121382E+01 -0.13228690735E+02  0.16716239260E+02  0.00000000000E+00 0. -1.
</event>
<event>
 8    1  0.1261983E-006  0.9118800E+02  0.7816164E-02  0.1184000E+00
        -11   -1    0    0    0    0  0.00000000000E+00  0.00000000000E+00  0.45593999997E+02  0.45594000000E+02  0.51100000000E-03 0.  1.
         11   -1    0    0    0    0 -0.00000000000E+00 -0.00000000000E+00 -0.45593999997E+02  0.45594000000E+02  0.51100000000E-03 0. -1.
         23    2    1    2    0    0  0.17763568394E-14  0.35527136788E-14  0.00000000000E+00  0.91188000000E+02  0.91188000000E+02 0.  0.
    9900012    2    3    3    0    0 -0.15795639558E+02  0.25522832658E+02  0.21327486380E+02  0.54367097088E+02  0.40000029432E+02 0.  0.
         12    1    3    3    0    0  0.15795639558E+02 -0.25522832658E+02 -0.21327486380E+02  0.36820902912E+02  0.00000000000E+00 0. -1.
         11    1    4    4    0    0  0.44492461897E+01  0.83548323467E+01  0.41987216606E+01  0.10355108838E+02  0.51100000000E-03 0. -1.
        -11    1    4    4    0    0 -0.68027141755E+01  0.17403819766E+01  0.21902269062E+02  0.23000331300E+02  0.51100000000E-03 0.  1.
         12    1    4    4    0    0 -0.13442171572E+02  0.15427618335E+02 -0.47735043433E+01  0.21011656950E+02  0.00000000000E+00 0. -1.
</event>
<event>
 8    1  0.1261983E-006  0.9118800E+02  0.7816164E-02  0.1184000E+00
        -11   -1    0    0    0    0  0.00000000000E+00  0.00000000000E+00  0.45593999997E+02  0.45594000000E+02  0.51100000000E-03 0.  1.
         11   -1    0    0    0    0 -0.00000000000E+00 -0.00000000000E+00 -0.45593999997E+02  0.45594000000E+02  0.51100000000E-03 0. -1.
         23    2    1    2    0    0  0.35527136788E-14  0.00000000000E+00  0.17763568394E-14  0.91188000000E+02  0.91188000000E+02 0.  0.
    9900012    2    3    3    0    0  0.26698216582E+02 -0.25326828183E+02 -0.12394930919E+01  0.54367091027E+02  0.40000015615E+02 0.  0.
        -12    1    3    3    0    0 -0.26698216582E+02  0.25326828183E+02  0.12394930919E+01  0.36820908973E+02  0.00000000000E+00 0.  1.
         11    1    4    4    0    0  0.49669668913E+01 -0.12535632977E+02 -0.54655317484E+00  0.13494872170E+02  0.51100000000E-03 0. -1.
        -11    1    4    4    0    0  0.46269548814E+01 -0.38353895559E+01  0.14892563551E+02  0.16059494821E+02  0.51100000000E-03 0.  1.
        -12    1    4    4    0    0  0.17104294809E+02 -0.89558056494E+01 -0.15585503468E+02  0.24812724037E+02  0.00000000000E+00 0.  1.
</event>
<event>
 8    1  0.1261983E-006  0.9118800E+02  0.7816164E-02  0.1184000E+00
        -11   -1    0    0    0    0  0.00000000000E+00  0.00000000000E+00  0.45593999997E+02  0.45594000000E+02  0.51100000000E-03 0.  1.
         11   -1    0    0    0    0 -0.00000000000E+00 -0.00000000000E+00 -0.45593999997E+02  0.45594000000E+02  0.51100000000E-03 0. -1.
         23    2    1    2    0    0 -0.35527136788E-14 -0.35527136788E-14 -0.88817841970E-15  0.91188000000E+02  0.91188000000E+02 0.  0.
    9900012    2    3    3    0    0  0.17987225298E+02  0.31619171769E+02  0.56979682730E+01  0.54367093714E+02  0.40000021739E+02 0.  0.
         12    1    3    3    0    0 -0.17987225298E+02 -0.31619171769E+02 -0.56979682730E+01  0.36820906286E+02  0.00000000000E+00 0. -1.
         11    1    4    4    0    0 -0.88575363430E+01  0.89799555330E+01  0.36616832890E+01  0.13134057873E+02  0.51100000000E-03 0. -1.
        -11    1    4    4    0    0 -0.34273439726E+01  0.16616919062E+01  0.22077917450E+01  0.44025278362E+01  0.51100000000E-03 0.  1.
         12    1    4    4    0    0  0.30272105614E+02  0.20977524330E+02 -0.17150676107E+00  0.36830508005E+02  0.00000000000E+00 0. -1.
</event>
<event>
 8    1  0.1261983E-006  0.9118800E+02  0.7816164E-02  0.1184000E+00
        -11   -1    0    0    0    0  0.00000000000E+00  0.00000000000E+00  0.45593999997E+02  0.45594000000E+02  0.51100000000E-03 0.  1.
         11   -1    0    0    0    0 -0.00000000000E+00 -0.00000000000E+00 -0.45593999997E+02  0.45594000000E+02  0.51100000000E-03 0. -1.
         23    2    1    2    0    0  0.88817841970E-15  0.00000000000E+00  0.00000000000E+00  0.91188000000E+02  0.91188000000E+02 0.  0.
    9900012    2    3    3    0    0  0.58443265793E+01 -0.32117531259E+02  0.17032407439E+02  0.54366880103E+02  0.39999534768E+02 0.  0.
        -12    1    3    3    0    0 -0.58443265793E+01  0.32117531259E+02 -0.17032407439E+02  0.36821119897E+02  0.00000000000E+00 0.  1.
         11    1    4    4    0    0  0.81380607496E+01 -0.63221638657E+01  0.15153490224E+02  0.18325557425E+02  0.51100000000E-03 0. -1.
        -11    1    4    4    0    0 -0.41398181679E+00 -0.22461595405E+01  0.10611777359E+02  0.10854788465E+02  0.51100000000E-03 0.  1.
         12    1    4    4    0    0 -0.18797523536E+01 -0.23549207852E+02 -0.87328601442E+01  0.25186534213E+02  0.00000000000E+00 0. -1.
</event>
<event>
 8    1  0.1261983E-006  0.9118800E+02  0.7816164E-02  0.1184000E+00
        -11   -1    0    0    0    0  0.00000000000E+00  0.00000000000E+00  0.45593999997E+02  0.45594000000E+02  0.51100000000E-03 0. -1.
         11   -1    0    0    0    0 -0.00000000000E+00 -0.00000000000E+00 -0.45593999997E+02  0.45594000000E+02  0.51100000000E-03 0.  1.
         23    2    1    2    0    0 -0.35527136788E-14  0.00000000000E+00  0.71054273576E-14  0.91188000000E+02  0.91188000000E+02 0.  0.
    9900012    2    3    3    0    0  0.24347590539E+02  0.26007116777E+01  0.27499287856E+02  0.54367086122E+02  0.40000004432E+02 0.  0.
        -12    1    3    3    0    0 -0.24347590539E+02 -0.26007116777E+01 -0.27499287856E+02  0.36820913878E+02  0.00000000000E+00 0.  1.
         11    1    4    4    0    0  0.10380830299E+02 -0.67864469994E-01  0.10698725076E+02  0.14907345900E+02  0.51100000000E-03 0. -1.
        -11    1    4    4    0    0 -0.54248324717E+01 -0.43404288207E+01 -0.56662533732E+01  0.89651858455E+01  0.51100000000E-03 0.  1.
        -12    1    4    4    0    0  0.19391592711E+02  0.70090049684E+01  0.22466816153E+02  0.30494554376E+02  0.00000000000E+00 0.  1.
</event>
<event>
 8    1  0.1261983E-006  0.9118800E+02  0.7816164E-02  0.1184000E+00
        -11   -1    0    0    0    0  0.00000000000E+00  0.00000000000E+00  0.45593999997E+02  0.45594000000E+02  0.51100000000E-03 0.  1.
         11   -1    0    0    0    0 -0.00000000000E+00 -0.00000000000E+00 -0.45593999997E+02  0.45594000000E+02  0.51100000000E-03 0. -1.
         23    2    1    2    0    0  0.00000000000E+00 -0.35527136788E-14  0.00000000000E+00  0.91188000000E+02  0.91188000000E+02 0.  0.
    9900012    2    3    3    0    0 -0.26503816344E+02 -0.15289668905E+02 -0.20483012368E+02  0.54367081330E+02  0.39999993507E+02 0.  0.
        -12    1    3    3    0    0  0.26503816344E+02  0.15289668905E+02  0.20483012368E+02  0.36820918670E+02  0.00000000000E+00 0.  1.
         11    1    4    4    0    0 -0.91373057962E+01 -0.15853351935E+02 -0.96423829883E+01  0.20683197885E+02  0.51100000000E-03 0. -1.
        -11    1    4    4    0    0 -0.16290731650E+02  0.11455086577E+02 -0.10974504916E+02  0.22738661011E+02  0.51100000000E-03 0.  1.
        -12    1    4    4    0    0 -0.10757788983E+01 -0.10891403547E+02  0.13387553558E+00  0.10945222433E+02  0.00000000000E+00 0.  1.
</event>
<event>
 8    1  0.1261983E-006  0.9118800E+02  0.7816164E-02  0.1184000E+00
        -11   -1    0    0    0    0  0.00000000000E+00  0.00000000000E+00  0.45593999997E+02  0.45594000000E+02  0.51100000000E-03 0.  1.
         11   -1    0    0    0    0 -0.00000000000E+00 -0.00000000000E+00 -0.45593999997E+02  0.45594000000E+02  0.51100000000E-03 0. -1.
         23    2    1    2    0    0 -0.35527136788E-14 -0.35527136788E-14 -0.13322676296E-14  0.91188000000E+02  0.91188000000E+02 0.  0.
    9900012    2    3    3    0    0 -0.29519355951E+02 -0.21663025394E+02  0.38861520989E+01  0.54367065423E+02  0.39999957245E+02 0.  0.
        -12    1    3    3    0    0  0.29519355951E+02  0.21663025394E+02 -0.38861520989E+01  0.36820934577E+02  0.00000000000E+00 0.  1.
         11    1    4    4    0    0 -0.17576570924E+02 -0.20616993180E+02 -0.12485959956E+02  0.29831115459E+02  0.51100000000E-03 0. -1.
        -11    1    4    4    0    0 -0.79843560238E+01 -0.72516002512E+01  0.82843623782E+01  0.13600231895E+02  0.51100000000E-03 0.  1.
         12    1    4    4    0    0 -0.39584290031E+01  0.62055680379E+01  0.80877496770E+01  0.10935718069E+02  0.00000000000E+00 0. -1.
</event>
<event>
 8    1  0.1261983E-006  0.9118800E+02  0.7816164E-02  0.1184000E+00
        -11   -1    0    0    0    0  0.00000000000E+00  0.00000000000E+00  0.45593999997E+02  0.45594000000E+02  0.51100000000E-03 0. -1.
         11   -1    0    0    0    0 -0.00000000000E+00 -0.00000000000E+00 -0.45593999997E+02  0.45594000000E+02  0.51100000000E-03 0.  1.
         23    2    1    2    0    0 -0.35527136788E-14  0.00000000000E+00  0.00000000000E+00  0.91188000000E+02  0.91188000000E+02 0.  0.
    9900012    2    3    3    0    0  0.21703726621E+02 -0.29540665957E+02  0.34755480217E+01  0.54367053129E+02  0.39999929218E+02 0.  0.
        -12    1    3    3    0    0 -0.21703726621E+02  0.29540665957E+02 -0.34755480217E+01  0.36820946871E+02  0.00000000000E+00 0.  1.
         11    1    4    4    0    0 -0.29019048674E+01 -0.41074596016E+01 -0.39202960696E+01  0.63765976643E+01  0.51100000000E-03 0. -1.
        -11    1    4    4    0    0  0.89413237375E+01 -0.21126647968E+01 -0.11059363905E+02  0.14377765924E+02  0.51100000000E-03 0.  1.
         12    1    4    4    0    0  0.15664307751E+02 -0.23320541559E+02  0.18455207997E+02  0.33612689540E+02  0.00000000000E+00 0. -1.
</event>
<event>
 8    1  0.1261983E-006  0.9118800E+02  0.7816164E-02  0.1184000E+00
        -11   -1    0    0    0    0  0.00000000000E+00  0.00000000000E+00  0.45593999997E+02  0.45594000000E+02  0.51100000000E-03 0.  1.
         11   -1    0    0    0    0 -0.00000000000E+00 -0.00000000000E+00 -0.45593999997E+02  0.45594000000E+02  0.51100000000E-03 0. -1.
         23    2    1    2    0    0 -0.26645352591E-14 -0.17763568394E-14  0.00000000000E+00  0.91188000000E+02  0.91188000000E+02 0.  0.
    9900012    2    3    3    0    0 -0.53268918831E+01  0.12152540518E+02  0.34347100289E+02  0.54367036997E+02  0.39999892442E+02 0.  0.
         12    1    3    3    0    0  0.53268918831E+01 -0.12152540518E+02 -0.34347100289E+02  0.36820963003E+02  0.00000000000E+00 0. -1.
         11    1    4    4    0    0  0.77255132569E+01  0.27303531865E+01  0.15249786093E+02  0.17311682753E+02  0.51100000000E-03 0. -1.
        -11    1    4    4    0    0  0.60634515821E+01 -0.49558729994E+01  0.49817957590E+01  0.92814013770E+01  0.51100000000E-03 0.  1.
        -12    1    4    4    0    0 -0.19115856722E+02  0.14378060331E+02  0.14115518437E+02  0.27773952867E+02  0.00000000000E+00 0.  1.
</event>
<event>
 8    1  0.1261983E-006  0.9118800E+02  0.7816164E-02  0.1184000E+00
        -11   -1    0    0    0    0  0.00000000000E+00  0.00000000000E+00  0.45593999997E+02  0.45594000000E+02  0.51100000000E-03 0.  1.
         11   -1    0    0    0    0 -0.00000000000E+00 -0.00000000000E+00 -0.45593999997E+02  0.45594000000E+02  0.51100000000E-03 0. -1.
         23    2    1    2    0    0  0.17763568394E-14  0.17763568394E-14  0.00000000000E+00  0.91188000000E+02  0.91188000000E+02 0.  0.
    9900012    2    3    3    0    0  0.13490559870E+02  0.11125308575E+02 -0.32403904572E+02  0.54367072146E+02  0.39999972572E+02 0.  0.
        -12    1    3    3    0    0 -0.13490559870E+02 -0.11125308575E+02  0.32403904572E+02  0.36820927854E+02  0.00000000000E+00 0.  1.
         11    1    4    4    0    0 -0.54600503768E+01 -0.11341220283E+02 -0.10042866507E+02  0.16102626977E+02  0.51100000000E-03 0.  1.
        -11    1    4    4    0    0  0.14749939737E+02  0.14300045568E+02 -0.20239559199E+02  0.28839066946E+02  0.51100000000E-03 0. -1.
         12    1    4    4    0    0  0.42006705097E+01  0.81664832902E+01 -0.21214788663E+01  0.94253782227E+01  0.00000000000E+00 0. -1.
</event>
<event>
 8    1  0.1261983E-006  0.9118800E+02  0.7816164E-02  0.1184000E+00
        -11   -1    0    0    0    0  0.00000000000E+00  0.00000000000E+00  0.45593999997E+02  0.45594000000E+02  0.51100000000E-03 0.  1.
         11   -1    0    0    0    0 -0.00000000000E+00 -0.00000000000E+00 -0.45593999997E+02  0.45594000000E+02  0.51100000000E-03 0. -1.
         23    2    1    2    0    0  0.35527136788E-14  0.17763568394E-14  0.00000000000E+00  0.91188000000E+02  0.91188000000E+02 0.  0.
    9900012    2    3    3    0    0  0.21543954848E+02  0.12227940965E+02 -0.27241806201E+02  0.54367074756E+02  0.39999978521E+02 0.  0.
        -12    1    3    3    0    0 -0.21543954848E+02 -0.12227940965E+02  0.27241806201E+02  0.36820925244E+02  0.00000000000E+00 0.  1.
         11    1    4    4    0    0  0.14517366811E+02  0.48069521806E+01 -0.15000753623E+02  0.21421562452E+02  0.51100000000E-03 0. -1.
        -11    1    4    4    0    0  0.21426729281E+01 -0.10924934659E+02 -0.17960346745E+01  0.11277011368E+02  0.51100000000E-03 0.  1.
        -12    1    4    4    0    0  0.48839151090E+01  0.18345923444E+02 -0.10445017903E+02  0.21668500935E+02  0.00000000000E+00 0.  1.
</event>
<event>
 8    1  0.1261983E-006  0.9118800E+02  0.7816164E-02  0.1184000E+00
        -11   -1    0    0    0    0  0.00000000000E+00  0.00000000000E+00  0.45593999997E+02  0.45594000000E+02  0.51100000000E-03 0.  1.
         11   -1    0    0    0    0 -0.00000000000E+00 -0.00000000000E+00 -0.45593999997E+02  0.45594000000E+02  0.51100000000E-03 0. -1.
         23    2    1    2    0    0 -0.17763568394E-14 -0.66613381478E-15  0.00000000000E+00  0.91188000000E+02  0.91188000000E+02 0.  0.
    9900012    2    3    3    0    0  0.95725639412E+01  0.11355545008E+01 -0.35536692237E+02  0.54367082581E+02  0.39999996361E+02 0.  0.
        -12    1    3    3    0    0 -0.95725639412E+01 -0.11355545008E+01  0.35536692237E+02  0.36820917419E+02  0.00000000000E+00 0.  1.
         11    1    4    4    0    0  0.11671429129E+01 -0.71460665217E+01  0.31690914191E+01  0.79038996702E+01  0.51100000000E-03 0. -1.
        -11    1    4    4    0    0 -0.78282715098E+01  0.14002484940E+01 -0.10026906386E+02  0.12797710053E+02  0.51100000000E-03 0.  1.
         12    1    4    4    0    0  0.16233692538E+02  0.68813725285E+01 -0.28678877270E+02  0.33665472858E+02  0.00000000000E+00 0. -1.
</event>
<event>
 8    1  0.1261983E-006  0.9118800E+02  0.7816164E-02  0.1184000E+00
        -11   -1    0    0    0    0  0.00000000000E+00  0.00000000000E+00  0.45593999997E+02  0.45594000000E+02  0.51100000000E-03 0.  1.
         11   -1    0    0    0    0 -0.00000000000E+00 -0.00000000000E+00 -0.45593999997E+02  0.45594000000E+02  0.51100000000E-03 0. -1.
         23    2    1    2    0    0  0.00000000000E+00  0.00000000000E+00 -0.35527136788E-14  0.91188000000E+02  0.91188000000E+02 0.  0.
    9900012    2    3    3    0    0  0.74014019544E+01 -0.23048290198E+02 -0.27744814616E+02  0.54367093303E+02  0.40000020802E+02 0.  0.
        -12    1    3    3    0    0 -0.74014019544E+01  0.23048290198E+02  0.27744814616E+02  0.36820906697E+02  0.00000000000E+00 0.  1.
         11    1    4    4    0    0  0.46464671225E+01 -0.15395921790E+02 -0.64626152495E+01  0.17331747189E+02  0.51100000000E-03 0. -1.
        -11    1    4    4    0    0  0.58616545502E+01 -0.13007452796E+02  0.61433658201E+00  0.14280414280E+02  0.51100000000E-03 0.  1.
         12    1    4    4    0    0 -0.31067197183E+01  0.53550843884E+01 -0.21896535949E+02  0.22754931834E+02  0.00000000000E+00 0. -1.
</event>
<event>
 8    1  0.1261983E-006  0.9118800E+02  0.7816164E-02  0.1184000E+00
        -11   -1    0    0    0    0  0.00000000000E+00  0.00000000000E+00  0.45593999997E+02  0.45594000000E+02  0.51100000000E-03 0.  1.
         11   -1    0    0    0    0 -0.00000000000E+00 -0.00000000000E+00 -0.45593999997E+02  0.45594000000E+02  0.51100000000E-03 0. -1.
         23    2    1    2    0    0 -0.22204460493E-15  0.00000000000E+00  0.17763568394E-14  0.91188000000E+02  0.91188000000E+02 0.  0.
    9900012    2    3    3    0    0 -0.15730237630E+01  0.34824451890E+02 -0.11856073238E+02  0.54367036870E+02  0.39999892152E+02 0.  0.
        -12    1    3    3    0    0  0.15730237630E+01 -0.34824451890E+02  0.11856073238E+02  0.36820963130E+02  0.00000000000E+00 0.  1.
         11    1    4    4    0    0  0.83193529128E+00  0.15153372343E+02 -0.29118858003E+01  0.15453021998E+02  0.51100000000E-03 0. -1.
        -11    1    4    4    0    0 -0.12524237008E+02  0.13561660763E+02 -0.16603898247E+02  0.24828705011E+02  0.51100000000E-03 0.  1.
         12    1    4    4    0    0  0.10119277954E+02  0.61094187841E+01  0.76597108095E+01  0.14085309861E+02  0.00000000000E+00 0. -1.
</event>
<event>
 8    1  0.1261983E-006  0.9118800E+02  0.7816164E-02  0.1184000E+00
        -11   -1    0    0    0    0  0.00000000000E+00  0.00000000000E+00  0.45593999997E+02  0.45594000000E+02  0.51100000000E-03 0.  1.
         11   -1    0    0    0    0 -0.00000000000E+00 -0.00000000000E+00 -0.45593999997E+02  0.45594000000E+02  0.51100000000E-03 0. -1.
         23    2    1    2    0    0  0.00000000000E+00  0.17763568394E-14  0.00000000000E+00  0.91188000000E+02  0.91188000000E+02 0.  0.
    9900012    2    3    3    0    0  0.28550768085E+02 -0.14634063468E+02 -0.18068702877E+02  0.54367079377E+02  0.39999989056E+02 0.  0.
        -12    1    3    3    0    0 -0.28550768085E+02  0.14634063468E+02  0.18068702877E+02  0.36820920623E+02  0.00000000000E+00 0.  1.
         11    1    4    4    0    0  0.78231553264E+01 -0.34889038212E+01 -0.17195939393E+02  0.19211312839E+02  0.51100000000E-03 0. -1.
        -11    1    4    4    0    0 -0.73309521956E+00 -0.13528461985E+02 -0.78974953841E-01  0.13548540497E+02  0.51100000000E-03 0.  1.
        -12    1    4    4    0    0  0.21460707979E+02  0.23833023381E+01 -0.79378853089E+00  0.21607226042E+02  0.00000000000E+00 0.  1.
</event>
<event>
 8    1  0.1261983E-006  0.9118800E+02  0.7816164E-02  0.1184000E+00
        -11   -1    0    0    0    0  0.00000000000E+00  0.00000000000E+00  0.45593999997E+02  0.45594000000E+02  0.51100000000E-03 0. -1.
         11   -1    0    0    0    0 -0.00000000000E+00 -0.00000000000E+00 -0.45593999997E+02  0.45594000000E+02  0.51100000000E-03 0.  1.
         23    2    1    2    0    0  0.00000000000E+00 -0.44408920985E-15 -0.35527136788E-14  0.91188000000E+02  0.91188000000E+02 0.  0.
    9900012    2    3    3    0    0 -0.23087237587E+02  0.31661319675E+01  0.28508415247E+02  0.54367154397E+02  0.40000160078E+02 0.  0.
        -12    1    3    3    0    0  0.23087237587E+02 -0.31661319675E+01 -0.28508415247E+02  0.36820845603E+02  0.00000000000E+00 0.  1.
         11    1    4    4    0    0 -0.21910436769E+02  0.13384508223E+01  0.92233411018E+01  0.23810264831E+02  0.51100000000E-03 0. -1.
        -11    1    4    4    0    0 -0.62530204955E+01  0.11288966852E+02  0.11607791922E+02  0.17357473072E+02  0.51100000000E-03 0.  1.
         12    1    4    4    0    0  0.50762196771E+01 -0.94612857064E+01  0.76772822235E+01  0.13199416493E+02  0.00000000000E+00 0. -1.
</event>
<event>
 8    1  0.1261983E-006  0.9118800E+02  0.7816164E-02  0.1184000E+00
        -11   -1    0    0    0    0  0.00000000000E+00  0.00000000000E+00  0.45593999997E+02  0.45594000000E+02  0.51100000000E-03 0.  1.
         11   -1    0    0    0    0 -0.00000000000E+00 -0.00000000000E+00 -0.45593999997E+02  0.45594000000E+02  0.51100000000E-03 0. -1.
         23    2    1    2    0    0 -0.17763568394E-14 -0.17763568394E-14 -0.71054273576E-14  0.91188000000E+02  0.91188000000E+02 0.  0.
    9900012    2    3    3    0    0 -0.33359265967E+01 -0.12273892559E+02 -0.34554364241E+02  0.54367069364E+02  0.39999966229E+02 0.  0.
        -12    1    3    3    0    0  0.33359265967E+01  0.12273892559E+02  0.34554364241E+02  0.36820930636E+02  0.00000000000E+00 0.  1.
         11    1    4    4    0    0  0.38032369012E+01 -0.65263374279E+00 -0.97757414660E+01  0.10509788923E+02  0.51100000000E-03 0. -1.
        -11    1    4    4    0    0 -0.16321618546E+02 -0.17513020685E+02 -0.22195183046E+02  0.32645478648E+02  0.51100000000E-03 0.  1.
        -12    1    4    4    0    0  0.91824550476E+01  0.58917618686E+01 -0.25834397287E+01  0.11211801793E+02  0.00000000000E+00 0.  1.
</event>
<event>
 8    1  0.1261983E-006  0.9118800E+02  0.7816164E-02  0.1184000E+00
        -11   -1    0    0    0    0  0.00000000000E+00  0.00000000000E+00  0.45593999997E+02  0.45594000000E+02  0.51100000000E-03 0. -1.
         11   -1    0    0    0    0 -0.00000000000E+00 -0.00000000000E+00 -0.45593999997E+02  0.45594000000E+02  0.51100000000E-03 0.  1.
         23    2    1    2    0    0  0.00000000000E+00  0.00000000000E+00  0.00000000000E+00  0.91188000000E+02  0.91188000000E+02 0.  0.
    9900012    2    3    3    0    0 -0.12166889221E+02  0.82674650133E+01  0.33754942416E+02  0.54367077842E+02  0.39999985557E+02 0.  0.
        -12    1    3    3    0    0  0.12166889221E+02 -0.82674650133E+01 -0.33754942416E+02  0.36820922158E+02  0.00000000000E+00 0.  1.
         11    1    4    4    0    0 -0.97104879521E+01  0.14054521830E+01  0.23304544781E+02  0.25285780190E+02  0.51100000000E-03 0. -1.
        -11    1    4    4    0    0 -0.13151363044E+02 -0.16153619518E+01  0.32150658182E+01  0.13634676110E+02  0.51100000000E-03 0.  1.
        -12    1    4    4    0    0  0.10694961775E+02  0.84773747821E+01  0.72353318162E+01  0.15446621542E+02  0.00000000000E+00 0.  1.
</event>
<event>
 8    1  0.1261983E-006  0.9118800E+02  0.7816164E-02  0.1184000E+00
        -11   -1    0    0    0    0  0.00000000000E+00  0.00000000000E+00  0.45593999997E+02  0.45594000000E+02  0.51100000000E-03 0. -1.
         11   -1    0    0    0    0 -0.00000000000E+00 -0.00000000000E+00 -0.45593999997E+02  0.45594000000E+02  0.51100000000E-03 0.  1.
         23    2    1    2    0    0  0.35527136788E-14  0.26645352591E-14 -0.71054273576E-14  0.91188000000E+02  0.91188000000E+02 0.  0.
    9900012    2    3    3    0    0 -0.15809768794E+02 -0.70786197547E+01  0.32491920933E+02  0.54367074253E+02  0.39999977375E+02 0.  0.
         12    1    3    3    0    0  0.15809768794E+02  0.70786197547E+01 -0.32491920933E+02  0.36820925747E+02  0.00000000000E+00 0. -1.
         11    1    4    4    0    0 -0.40350842396E+01 -0.15425658197E+02  0.25869192947E+02  0.30388286882E+02  0.51100000000E-03 0. -1.
        -11    1    4    4    0    0  0.35752041550E+01  0.16166237104E+01 -0.27349719317E+01  0.47828473422E+01  0.51100000000E-03 0.  1.
        -12    1    4    4    0    0 -0.15349888709E+02  0.67304147322E+01  0.93576999178E+01  0.19195940029E+02  0.00000000000E+00 0.  1.
</event>
<event>
 8    1  0.1261983E-006  0.9118800E+02  0.7816164E-02  0.1184000E+00
        -11   -1    0    0    0    0  0.00000000000E+00  0.00000000000E+00  0.45593999997E+02  0.45594000000E+02  0.51100000000E-03 0. -1.
         11   -1    0    0    0    0 -0.00000000000E+00 -0.00000000000E+00 -0.45593999997E+02  0.45594000000E+02  0.51100000000E-03 0.  1.
         23    2    1    2    0    0  0.00000000000E+00  0.00000000000E+00 -0.35527136788E-14  0.91188000000E+02  0.91188000000E+02 0.  0.
    9900012    2    3    3    0    0  0.93547167302E+01 -0.17505571884E+02  0.31013295301E+02  0.54367078535E+02  0.39999987136E+02 0.  0.
        -12    1    3    3    0    0 -0.93547167302E+01  0.17505571884E+02 -0.31013295301E+02  0.36820921465E+02  0.00000000000E+00 0.  1.
         11    1    4    4    0    0  0.57024660128E+01 -0.67923020294E+01  0.16510265044E+02  0.18741460391E+02  0.51100000000E-03 0. -1.
        -11    1    4    4    0    0  0.21048260567E+01 -0.21443054759E+02  0.79965670599E+01  0.22982166459E+02  0.51100000000E-03 0.  1.
        -12    1    4    4    0    0  0.15474246607E+01  0.10729784904E+02  0.65064631970E+01  0.12643451685E+02  0.00000000000E+00 0.  1.
</event>
<event>
 8    1  0.1261983E-006  0.9118800E+02  0.7816164E-02  0.1184000E+00
        -11   -1    0    0    0    0  0.00000000000E+00  0.00000000000E+00  0.45593999997E+02  0.45594000000E+02  0.51100000000E-03 0.  1.
         11   -1    0    0    0    0 -0.00000000000E+00 -0.00000000000E+00 -0.45593999997E+02  0.45594000000E+02  0.51100000000E-03 0. -1.
         23    2    1    2    0    0  0.00000000000E+00  0.00000000000E+00 -0.17763568394E-14  0.91188000000E+02  0.91188000000E+02 0.  0.
    9900012    2    3    3    0    0 -0.56802556918E+01  0.33237247287E+02 -0.14791863279E+02  0.54367093830E+02  0.40000022004E+02 0.  0.
        -12    1    3    3    0    0  0.56802556918E+01 -0.33237247287E+02  0.14791863279E+02  0.36820906170E+02  0.00000000000E+00 0.  1.
         11    1    4    4    0    0 -0.62564657240E+01  0.26428831419E+02 -0.42297031884E+01  0.27486667366E+02  0.51100000000E-03 0. -1.
        -11    1    4    4    0    0  0.21018541089E+01  0.87552575211E+01  0.55516074588E+01  0.10577933191E+02  0.51100000000E-03 0.  1.
        -12    1    4    4    0    0 -0.15256440768E+01 -0.19468416537E+01 -0.16113767550E+02  0.16302493273E+02  0.00000000000E+00 0.  1.
</event>
<event>
 8    1  0.1261983E-006  0.9118800E+02  0.7816164E-02  0.1184000E+00
        -11   -1    0    0    0    0  0.00000000000E+00  0.00000000000E+00  0.45593999997E+02  0.45594000000E+02  0.51100000000E-03 0.  1.
         11   -1    0    0    0    0 -0.00000000000E+00 -0.00000000000E+00 -0.45593999997E+02  0.45594000000E+02  0.51100000000E-03 0. -1.
         23    2    1    2    0    0  0.71054273576E-14  0.88817841970E-15  0.17763568394E-14  0.91188000000E+02  0.91188000000E+02 0.  0.
    9900012    2    3    3    0    0  0.33448299907E+02  0.48346726668E+01  0.14615631743E+02  0.54367088582E+02  0.40000010039E+02 0.  0.
         12    1    3    3    0    0 -0.33448299907E+02 -0.48346726668E+01 -0.14615631743E+02  0.36820911418E+02  0.00000000000E+00 0. -1.
         11    1    4    4    0    0  0.48375202543E+01  0.61483925050E+01  0.60511277030E+01  0.98904236181E+01  0.51100000000E-03 0. -1.
        -11    1    4    4    0    0  0.14376043631E+02  0.12655113462E+02  0.14095190976E+02  0.23780179480E+02  0.51100000000E-03 0.  1.
         12    1    4    4    0    0  0.14234736022E+02 -0.13968833300E+02 -0.55306869359E+01  0.20696485483E+02  0.00000000000E+00 0. -1.
</event>
<event>
 8    1  0.1261983E-006  0.9118800E+02  0.7816164E-02  0.1184000E+00
        -11   -1    0    0    0    0  0.00000000000E+00  0.00000000000E+00  0.45593999997E+02  0.45594000000E+02  0.51100000000E-03 0.  1.
         11   -1    0    0    0    0 -0.00000000000E+00 -0.00000000000E+00 -0.45593999997E+02  0.45594000000E+02  0.51100000000E-03 0. -1.
         23    2    1    2    0    0  0.17763568394E-14  0.00000000000E+00  0.00000000000E+00  0.91188000000E+02  0.91188000000E+02 0.  0.
    9900012    2    3    3    0    0  0.94766491064E+01  0.21301007986E+02  0.28499821133E+02  0.54367087136E+02  0.40000006744E+02 0.  0.
         12    1    3    3    0    0 -0.94766491064E+01 -0.21301007986E+02 -0.28499821133E+02  0.36820912864E+02  0.00000000000E+00 0. -1.
         11    1    4    4    0    0 -0.55736465902E+01 -0.10199223825E+01  0.47785571620E+01  0.74121782756E+01  0.51100000000E-03 0. -1.
        -11    1    4    4    0    0  0.17177300826E+02  0.24411015873E+01  0.20243889382E+02  0.26661464667E+02  0.51100000000E-03 0.  1.
        -12    1    4    4    0    0 -0.21270051298E+01  0.19879828781E+02  0.34773745897E+01  0.20293444193E+02  0.00000000000E+00 0.  1.
</event>
<event>
 8    1  0.1261983E-006  0.9118800E+02  0.7816164E-02  0.1184000E+00
        -11   -1    0    0    0    0  0.00000000000E+00  0.00000000000E+00  0.45593999997E+02  0.45594000000E+02  0.51100000000E-03 0.  1.
         11   -1    0    0    0    0 -0.00000000000E+00 -0.00000000000E+00 -0.45593999997E+02  0.45594000000E+02  0.51100000000E-03 0. -1.
         23    2    1    2    0    0 -0.35527136788E-14  0.00000000000E+00  0.00000000000E+00  0.91188000000E+02  0.91188000000E+02 0.  0.
    9900012    2    3    3    0    0  0.23475507850E+02  0.28227662576E+02 -0.28072815164E+01  0.54367065291E+02  0.39999956944E+02 0.  0.
        -12    1    3    3    0    0 -0.23475507850E+02 -0.28227662576E+02  0.28072815164E+01  0.36820934709E+02  0.00000000000E+00 0.  1.
         11    1    4    4    0    0  0.25285470895E+02  0.20683824628E+02  0.60125208563E+01  0.33216352102E+02  0.51100000000E-03 0. -1.
        -11    1    4    4    0    0 -0.82452987594E+01 -0.10268763063E+01 -0.53622274863E+01  0.98890298035E+01  0.51100000000E-03 0.  1.
        -12    1    4    4    0    0  0.64353357147E+01  0.85707142540E+01 -0.34575748864E+01  0.11261683386E+02  0.00000000000E+00 0.  1.
</event>
<event>
 8    1  0.1261983E-006  0.9118800E+02  0.7816164E-02  0.1184000E+00
        -11   -1    0    0    0    0  0.00000000000E+00  0.00000000000E+00  0.45593999997E+02  0.45594000000E+02  0.51100000000E-03 0.  1.
         11   -1    0    0    0    0 -0.00000000000E+00 -0.00000000000E+00 -0.45593999997E+02  0.45594000000E+02  0.51100000000E-03 0. -1.
         23    2    1    2    0    0 -0.66613381478E-15  0.00000000000E+00  0.00000000000E+00  0.91188000000E+02  0.91188000000E+02 0.  0.
    9900012    2    3    3    0    0  0.11435149449E+01 -0.31724877521E+02 -0.18654937406E+02  0.54367052568E+02  0.39999927939E+02 0.  0.
        -12    1    3    3    0    0 -0.11435149449E+01  0.31724877521E+02  0.18654937406E+02  0.36820947432E+02  0.00000000000E+00 0.  1.
         11    1    4    4    0    0  0.24506828930E+01  0.49729174270E+01 -0.45089264141E+01  0.71460598966E+01  0.51100000000E-03 0. -1.
        -11    1    4    4    0    0  0.33564351983E+01 -0.37977411342E+01  0.63917785771E+01  0.81574094297E+01  0.51100000000E-03 0.  1.
         12    1    4    4    0    0 -0.46636031464E+01 -0.32900053814E+02 -0.20537789569E+02  0.39063583241E+02  0.00000000000E+00 0. -1.
</event>
<event>
 8    1  0.1261983E-006  0.9118800E+02  0.7816164E-02  0.1184000E+00
        -11   -1    0    0    0    0  0.00000000000E+00  0.00000000000E+00  0.45593999997E+02  0.45594000000E+02  0.51100000000E-03 0.  1.
         11   -1    0    0    0    0 -0.00000000000E+00 -0.00000000000E+00 -0.45593999997E+02  0.45594000000E+02  0.51100000000E-03 0. -1.
         23    2    1    2    0    0  0.00000000000E+00  0.00000000000E+00  0.71054273576E-14  0.91188000000E+02  0.91188000000E+02 0.  0.
    9900012    2    3    3    0    0 -0.16924524254E+02  0.16629437613E+02 -0.28156667912E+02  0.54367140906E+02  0.40000129323E+02 0.  0.
        -12    1    3    3    0    0  0.16924524254E+02 -0.16629437613E+02  0.28156667912E+02  0.36820859094E+02  0.00000000000E+00 0.  1.
         11    1    4    4    0    0 -0.67882075193E+01  0.12717775343E+02 -0.27576774513E+02  0.31117520206E+02  0.51100000000E-03 0. -1.
        -11    1    4    4    0    0 -0.64518667767E+01  0.56932454382E+01 -0.98723155139E+01  0.13095886468E+02  0.51100000000E-03 0.  1.
        -12    1    4    4    0    0 -0.36844499577E+01 -0.17815831686E+01  0.92924221150E+01  0.10153734231E+02  0.00000000000E+00 0.  1.
</event>
<event>
 8    1  0.1261983E-006  0.9118800E+02  0.7816164E-02  0.1184000E+00
        -11   -1    0    0    0    0  0.00000000000E+00  0.00000000000E+00  0.45593999997E+02  0.45594000000E+02  0.51100000000E-03 0.  1.
         11   -1    0    0    0    0 -0.00000000000E+00 -0.00000000000E+00 -0.45593999997E+02  0.45594000000E+02  0.51100000000E-03 0. -1.
         23    2    1    2    0    0  0.17763568394E-14  0.35527136788E-14  0.00000000000E+00  0.91188000000E+02  0.91188000000E+02 0.  0.
    9900012    2    3    3    0    0 -0.94399373601E+01  0.19323936095E+02  0.29887317843E+02  0.54367099802E+02  0.40000035618E+02 0.  0.
         12    1    3    3    0    0  0.94399373601E+01 -0.19323936095E+02 -0.29887317843E+02  0.36820900198E+02  0.00000000000E+00 0. -1.
         11    1    4    4    0    0  0.26221436632E+01  0.56085574548E+01  0.22226287517E+01  0.65781177356E+01  0.51100000000E-03 0. -1.
        -11    1    4    4    0    0  0.79119948212E+01 -0.61553177237E+01  0.33383441575E+01  0.10565611213E+02  0.51100000000E-03 0.  1.
         12    1    4    4    0    0 -0.19974075844E+02  0.19870696364E+02  0.24326344934E+02  0.37223370853E+02  0.00000000000E+00 0. -1.
</event>
<event>
 8    1  0.1261983E-006  0.9118800E+02  0.7816164E-02  0.1184000E+00
        -11   -1    0    0    0    0  0.00000000000E+00  0.00000000000E+00  0.45593999997E+02  0.45594000000E+02  0.51100000000E-03 0. -1.
         11   -1    0    0    0    0 -0.00000000000E+00 -0.00000000000E+00 -0.45593999997E+02  0.45594000000E+02  0.51100000000E-03 0.  1.
         23    2    1    2    0    0 -0.17763568394E-14 -0.35527136788E-14  0.71054273576E-14  0.91188000000E+02  0.91188000000E+02 0.  0.
    9900012    2    3    3    0    0  0.45867487455E+01  0.17028669420E+02 -0.32322838057E+02  0.54367086020E+02  0.40000004199E+02 0.  0.
         12    1    3    3    0    0 -0.45867487455E+01 -0.17028669420E+02  0.32322838057E+02  0.36820913980E+02  0.00000000000E+00 0. -1.
         11    1    4    4    0    0 -0.37998643856E+01  0.31020437907E+01  0.72555139826E+00  0.49586359134E+01  0.51100000000E-03 0. -1.
        -11    1    4    4    0    0  0.53316176015E+00  0.23892409424E+02 -0.19481095781E+02  0.30832524753E+02  0.51100000000E-03 0.  1.
         12    1    4    4    0    0  0.78534513710E+01 -0.99657837951E+01 -0.13567293675E+02  0.18575925354E+02  0.00000000000E+00 0. -1.
</event>
<event>
 8    1  0.1261983E-006  0.9118800E+02  0.7816164E-02  0.1184000E+00
        -11   -1    0    0    0    0  0.00000000000E+00  0.00000000000E+00  0.45593999997E+02  0.45594000000E+02  0.51100000000E-03 0. -1.
         11   -1    0    0    0    0 -0.00000000000E+00 -0.00000000000E+00 -0.45593999997E+02  0.45594000000E+02  0.51100000000E-03 0.  1.
         23    2    1    2    0    0  0.26645352591E-14  0.00000000000E+00  0.00000000000E+00  0.91188000000E+02  0.91188000000E+02 0.  0.
    9900012    2    3    3    0    0  0.59933896762E+01 -0.35077777130E+02  0.94556352821E+01  0.54367079224E+02  0.39999988708E+02 0.  0.
        -12    1    3    3    0    0 -0.59933896762E+01  0.35077777130E+02 -0.94556352821E+01  0.36820920776E+02  0.00000000000E+00 0.  1.
         11    1    4    4    0    0 -0.64890361283E+01 -0.36064225918E+01  0.46988217967E+01  0.87859433372E+01  0.51100000000E-03 0. -1.
        -11    1    4    4    0    0  0.13984298605E+02 -0.84040021223E+01  0.13184449052E+02  0.20976595439E+02  0.51100000000E-03 0.  1.
         12    1    4    4    0    0 -0.15018728009E+01 -0.23067352416E+02 -0.84276355670E+01  0.24604540448E+02  0.00000000000E+00 0. -1.
</event>
<event>
 8    1  0.1261983E-006  0.9118800E+02  0.7816164E-02  0.1184000E+00
        -11   -1    0    0    0    0  0.00000000000E+00  0.00000000000E+00  0.45593999997E+02  0.45594000000E+02  0.51100000000E-03 0. -1.
         11   -1    0    0    0    0 -0.00000000000E+00 -0.00000000000E+00 -0.45593999997E+02  0.45594000000E+02  0.51100000000E-03 0.  1.
         23    2    1    2    0    0  0.00000000000E+00 -0.88817841970E-15  0.00000000000E+00  0.91188000000E+02  0.91188000000E+02 0.  0.
    9900012    2    3    3    0    0  0.25733881321E+02 -0.52131941626E+01  0.25814147515E+02  0.54367078594E+02  0.39999987271E+02 0.  0.
        -12    1    3    3    0    0 -0.25733881321E+02  0.52131941626E+01 -0.25814147515E+02  0.36820921406E+02  0.00000000000E+00 0.  1.
         11    1    4    4    0    0  0.13524640925E+02  0.69201670296E+01  0.15732218799E+02  0.21870238509E+02  0.51100000000E-03 0. -1.
        -11    1    4    4    0    0  0.40473604271E+00 -0.17073965708E+02  0.98132422295E+01  0.19697305389E+02  0.51100000000E-03 0.  1.
        -12    1    4    4    0    0  0.11804504354E+02  0.49406045155E+01  0.26868648727E+00  0.12799534696E+02  0.00000000000E+00 0.  1.
</event>
<event>
 8    1  0.1261983E-006  0.9118800E+02  0.7816164E-02  0.1184000E+00
        -11   -1    0    0    0    0  0.00000000000E+00  0.00000000000E+00  0.45593999997E+02  0.45594000000E+02  0.51100000000E-03 0.  1.
         11   -1    0    0    0    0 -0.00000000000E+00 -0.00000000000E+00 -0.45593999997E+02  0.45594000000E+02  0.51100000000E-03 0. -1.
         23    2    1    2    0    0 -0.35527136788E-14  0.00000000000E+00  0.35527136788E-14  0.91188000000E+02  0.91188000000E+02 0.  0.
    9900012    2    3    3    0    0  0.19477769209E+02  0.52163119578E+01 -0.30808868473E+02  0.54367085014E+02  0.40000001906E+02 0.  0.
        -12    1    3    3    0    0 -0.19477769209E+02 -0.52163119578E+01  0.30808868473E+02  0.36820914986E+02  0.00000000000E+00 0.  1.
         11    1    4    4    0    0  0.14899741640E+02  0.97644670053E+01 -0.34774693239E+02  0.39072066838E+02  0.51100000000E-03 0. -1.
        -11    1    4    4    0    0  0.63135376197E+01 -0.72628390433E+01 -0.67311268753E+00  0.96468994602E+01  0.51100000000E-03 0.  1.
         12    1    4    4    0    0 -0.17355100503E+01  0.27146839958E+01  0.46389374536E+01  0.56481187160E+01  0.00000000000E+00 0. -1.
</event>
<event>
 8    1  0.1261983E-006  0.9118800E+02  0.7816164E-02  0.1184000E+00
        -11   -1    0    0    0    0  0.00000000000E+00  0.00000000000E+00  0.45593999997E+02  0.45594000000E+02  0.51100000000E-03 0. -1.
         11   -1    0    0    0    0 -0.00000000000E+00 -0.00000000000E+00 -0.45593999997E+02  0.45594000000E+02  0.51100000000E-03 0.  1.
         23    2    1    2    0    0  0.17763568394E-14  0.00000000000E+00  0.35527136788E-14  0.91188000000E+02  0.91188000000E+02 0.  0.
    9900012    2    3    3    0    0  0.10657308583E+02  0.19018758649E+02  0.29673034683E+02  0.54367076680E+02  0.39999982908E+02 0.  0.
        -12    1    3    3    0    0 -0.10657308583E+02 -0.19018758649E+02 -0.29673034683E+02  0.36820923320E+02  0.00000000000E+00 0.  1.
         11    1    4    4    0    0  0.71984187412E+00 -0.38416172034E+01  0.12485040470E+02  0.13082523872E+02  0.51100000000E-03 0. -1.
        -11    1    4    4    0    0 -0.93364333104E+01  0.44081242317E+01  0.17934978191E+01  0.10479369298E+02  0.51100000000E-03 0.  1.
        -12    1    4    4    0    0  0.19273900020E+02  0.18452251621E+02  0.15394496394E+02  0.30805183510E+02  0.00000000000E+00 0.  1.
</event>
<event>
 8    1  0.1261983E-006  0.9118800E+02  0.7816164E-02  0.1184000E+00
        -11   -1    0    0    0    0  0.00000000000E+00  0.00000000000E+00  0.45593999997E+02  0.45594000000E+02  0.51100000000E-03 0. -1.
         11   -1    0    0    0    0 -0.00000000000E+00 -0.00000000000E+00 -0.45593999997E+02  0.45594000000E+02  0.51100000000E-03 0.  1.
         23    2    1    2    0    0 -0.35527136788E-14  0.88817841970E-15  0.35527136788E-14  0.91188000000E+02  0.91188000000E+02 0.  0.
    9900012    2    3    3    0    0  0.19161083386E+02 -0.54732539292E+01  0.30962480309E+02  0.54367098165E+02  0.40000031886E+02 0.  0.
        -12    1    3    3    0    0 -0.19161083386E+02  0.54732539292E+01 -0.30962480309E+02  0.36820901835E+02  0.00000000000E+00 0.  1.
         11    1    4    4    0    0 -0.79878908543E+01  0.22210621774E+01  0.56394348172E+01  0.10027100419E+02  0.51100000000E-03 0. -1.
        -11    1    4    4    0    0 -0.16157024544E+01 -0.52442545363E+01 -0.62582806506E+00  0.55230753291E+01  0.51100000000E-03 0.  1.
         12    1    4    4    0    0  0.28764676695E+02 -0.24500615702E+01  0.25948873556E+02  0.38816922417E+02  0.00000000000E+00 0. -1.
</event>
<event>
 8    1  0.1261983E-006  0.9118800E+02  0.7816164E-02  0.1184000E+00
        -11   -1    0    0    0    0  0.00000000000E+00  0.00000000000E+00  0.45593999997E+02  0.45594000000E+02  0.51100000000E-03 0.  1.
         11   -1    0    0    0    0 -0.00000000000E+00 -0.00000000000E+00 -0.45593999997E+02  0.45594000000E+02  0.51100000000E-03 0. -1.
         23    2    1    2    0    0  0.00000000000E+00  0.00000000000E+00  0.88817841970E-15  0.91188000000E+02  0.91188000000E+02 0.  0.
    9900012    2    3    3    0    0 -0.20212712724E+02 -0.30511048936E+02 -0.40380719949E+01  0.54367029232E+02  0.39999874741E+02 0.  0.
        -12    1    3    3    0    0  0.20212712724E+02  0.30511048936E+02  0.40380719949E+01  0.36820970768E+02  0.00000000000E+00 0.  1.
         11    1    4    4    0    0 -0.11763273113E+01 -0.61718388582E+01  0.54014746743E+01  0.82856061790E+01  0.51100000000E-03 0. -1.
        -11    1    4    4    0    0  0.26146396572E+01  0.63040012860E+01  0.15226462871E+01  0.69925120470E+01  0.51100000000E-03 0.  1.
         12    1    4    4    0    0 -0.21651025069E+02 -0.30643211364E+02 -0.10962192956E+02  0.39088911006E+02  0.00000000000E+00 0. -1.
</event>
<event>
 8    1  0.1261983E-006  0.9118800E+02  0.7816164E-02  0.1184000E+00
        -11   -1    0    0    0    0  0.00000000000E+00  0.00000000000E+00  0.45593999997E+02  0.45594000000E+02  0.51100000000E-03 0. -1.
         11   -1    0    0    0    0 -0.00000000000E+00 -0.00000000000E+00 -0.45593999997E+02  0.45594000000E+02  0.51100000000E-03 0.  1.
         23    2    1    2    0    0  0.00000000000E+00  0.00000000000E+00  0.00000000000E+00  0.91188000000E+02  0.91188000000E+02 0.  0.
    9900012    2    3    3    0    0  0.29729776961E+02 -0.55289980541E+01  0.21008338901E+02  0.54367085277E+02  0.40000002507E+02 0.  0.
        -12    1    3    3    0    0 -0.29729776961E+02  0.55289980541E+01 -0.21008338901E+02  0.36820914723E+02  0.00000000000E+00 0.  1.
         11    1    4    4    0    0  0.74754282421E+01 -0.72981148454E+01 -0.12035338748E+01  0.10516320732E+02  0.51100000000E-03 0. -1.
        -11    1    4    4    0    0  0.84969131471E+01  0.91473159099E+01  0.25045356782E+02  0.27984653259E+02  0.51100000000E-03 0.  1.
        -12    1    4    4    0    0  0.13757435571E+02 -0.73781991186E+01 -0.28334840061E+01  0.15866111286E+02  0.00000000000E+00 0.  1.
</event>
<event>
 8    1  0.1261983E-006  0.9118800E+02  0.7816164E-02  0.1184000E+00
        -11   -1    0    0    0    0  0.00000000000E+00  0.00000000000E+00  0.45593999997E+02  0.45594000000E+02  0.51100000000E-03 0. -1.
         11   -1    0    0    0    0 -0.00000000000E+00 -0.00000000000E+00 -0.45593999997E+02  0.45594000000E+02  0.51100000000E-03 0.  1.
         23    2    1    2    0    0  0.00000000000E+00 -0.13322676296E-14  0.00000000000E+00  0.91188000000E+02  0.91188000000E+02 0.  0.
    9900012    2    3    3    0    0  0.31723871796E+02  0.20051957948E+01  0.18583731565E+02  0.54367082972E+02  0.39999997251E+02 0.  0.
        -12    1    3    3    0    0 -0.31723871796E+02 -0.20051957948E+01 -0.18583731565E+02  0.36820917028E+02  0.00000000000E+00 0.  1.
         11    1    4    4    0    0  0.16350878104E+02  0.16923020067E+02  0.16339342889E+02  0.28648105509E+02  0.51100000000E-03 0. -1.
        -11    1    4    4    0    0  0.57524838130E+01 -0.76854339429E+01 -0.58245640848E+01  0.11228646933E+02  0.51100000000E-03 0.  1.
         12    1    4    4    0    0  0.96205098797E+01 -0.72323903289E+01  0.80689527602E+01  0.14490330530E+02  0.00000000000E+00 0. -1.
</event>
<event>
 8    1  0.1261983E-006  0.9118800E+02  0.7816164E-02  0.1184000E+00
        -11   -1    0    0    0    0  0.00000000000E+00  0.00000000000E+00  0.45593999997E+02  0.45594000000E+02  0.51100000000E-03 0.  1.
         11   -1    0    0    0    0 -0.00000000000E+00 -0.00000000000E+00 -0.45593999997E+02  0.45594000000E+02  0.51100000000E-03 0. -1.
         23    2    1    2    0    0  0.88817841970E-15  0.00000000000E+00  0.71054273576E-14  0.91188000000E+02  0.91188000000E+02 0.  0.
    9900012    2    3    3    0    0 -0.65436374597E+01  0.32086118382E+02  0.16835732199E+02  0.54367081180E+02  0.39999993167E+02 0.  0.
        -12    1    3    3    0    0  0.65436374597E+01 -0.32086118382E+02 -0.16835732199E+02  0.36820918820E+02  0.00000000000E+00 0.  1.
         11    1    4    4    0    0  0.20698377463E+01  0.20001240279E+01  0.35594351736E+01  0.45775870761E+01  0.51100000000E-03 0. -1.
        -11    1    4    4    0    0 -0.96085105548E+01  0.16205855713E+02 -0.10993611911E+02  0.21813132228E+02  0.51100000000E-03 0.  1.
        -12    1    4    4    0    0  0.99503534887E+00  0.13880138641E+02  0.24269908936E+02  0.27976361876E+02  0.00000000000E+00 0.  1.
</event>
<event>
 8    1  0.1261983E-006  0.9118800E+02  0.7816164E-02  0.1184000E+00
        -11   -1    0    0    0    0  0.00000000000E+00  0.00000000000E+00  0.45593999997E+02  0.45594000000E+02  0.51100000000E-03 0.  1.
         11   -1    0    0    0    0 -0.00000000000E+00 -0.00000000000E+00 -0.45593999997E+02  0.45594000000E+02  0.51100000000E-03 0. -1.
         23    2    1    2    0    0  0.88817841970E-15 -0.71054273576E-14 -0.66613381478E-15  0.91188000000E+02  0.91188000000E+02 0.  0.
    9900012    2    3    3    0    0 -0.20939183623E+01 -0.36708520313E+02  0.19705607436E+01  0.54367040380E+02  0.39999900154E+02 0.  0.
         12    1    3    3    0    0  0.20939183623E+01  0.36708520313E+02 -0.19705607436E+01  0.36820959620E+02  0.00000000000E+00 0. -1.
         11    1    4    4    0    0 -0.56503762300E+01  0.28315566872E+00  0.46274618912E+01  0.73089214313E+01  0.51100000000E-03 0.  1.
        -11    1    4    4    0    0  0.70531101157E+01 -0.37531085337E+02  0.51051153214E+01  0.38527794273E+02  0.51100000000E-03 0. -1.
         12    1    4    4    0    0 -0.34966522481E+01  0.53940935472E+00 -0.77620164690E+01  0.85303246750E+01  0.00000000000E+00 0. -1.
</event>
<event>
 8    1  0.1261983E-006  0.9118800E+02  0.7816164E-02  0.1184000E+00
        -11   -1    0    0    0    0  0.00000000000E+00  0.00000000000E+00  0.45593999997E+02  0.45594000000E+02  0.51100000000E-03 0.  1.
         11   -1    0    0    0    0 -0.00000000000E+00 -0.00000000000E+00 -0.45593999997E+02  0.45594000000E+02  0.51100000000E-03 0. -1.
         23    2    1    2    0    0 -0.35527136788E-14  0.00000000000E+00 -0.35527136788E-14  0.91188000000E+02  0.91188000000E+02 0.  0.
    9900012    2    3    3    0    0 -0.23611955280E+02  0.17221927018E+02 -0.22397833319E+02  0.54367052976E+02  0.39999928870E+02 0.  0.
        -12    1    3    3    0    0  0.23611955280E+02 -0.17221927018E+02  0.22397833319E+02  0.36820947024E+02  0.00000000000E+00 0.  1.
         11    1    4    4    0    0  0.31839980814E+01 -0.50908621706E+01  0.51198544752E+01  0.78909841928E+01  0.51100000000E-03 0. -1.
        -11    1    4    4    0    0 -0.21795144280E+02  0.12743533272E+02 -0.13041224354E+02  0.28416535456E+02  0.51100000000E-03 0.  1.
         12    1    4    4    0    0 -0.50008090810E+01  0.95692559164E+01 -0.14476463440E+02  0.18059533327E+02  0.00000000000E+00 0. -1.
</event>
<event>
 8    1  0.1261983E-006  0.9118800E+02  0.7816164E-02  0.1184000E+00
        -11   -1    0    0    0    0  0.00000000000E+00  0.00000000000E+00  0.45593999997E+02  0.45594000000E+02  0.51100000000E-03 0.  1.
         11   -1    0    0    0    0 -0.00000000000E+00 -0.00000000000E+00 -0.45593999997E+02  0.45594000000E+02  0.51100000000E-03 0. -1.
         23    2    1    2    0    0  0.00000000000E+00  0.00000000000E+00  0.00000000000E+00  0.91188000000E+02  0.91188000000E+02 0.  0.
    9900012    2    3    3    0    0  0.32188620006E+01 -0.10260058133E+02 -0.35215797527E+02  0.54367051330E+02  0.39999925117E+02 0.  0.
        -12    1    3    3    0    0 -0.32188620006E+01  0.10260058133E+02  0.35215797527E+02  0.36820948670E+02  0.00000000000E+00 0.  1.
         11    1    4    4    0    0 -0.19263108878E+01  0.30025783754E+01  0.28195770134E+01  0.45471051597E+01  0.51100000000E-03 0. -1.
        -11    1    4    4    0    0  0.26496026335E+01  0.53209618109E+01 -0.27858865857E+02  0.28485951551E+02  0.51100000000E-03 0.  1.
         12    1    4    4    0    0  0.24955702549E+01 -0.18583598319E+02 -0.10176508684E+02  0.21333994619E+02  0.00000000000E+00 0. -1.
</event>
<event>
 8    1  0.1261983E-006  0.9118800E+02  0.7816164E-02  0.1184000E+00
        -11   -1    0    0    0    0  0.00000000000E+00  0.00000000000E+00  0.45593999997E+02  0.45594000000E+02  0.51100000000E-03 0.  1.
         11   -1    0    0    0    0 -0.00000000000E+00 -0.00000000000E+00 -0.45593999997E+02  0.45594000000E+02  0.51100000000E-03 0. -1.
         23    2    1    2    0    0  0.44408920985E-15 -0.17763568394E-14  0.00000000000E+00  0.91188000000E+02  0.91188000000E+02 0.  0.
    9900012    2    3    3    0    0 -0.33894098372E+01  0.43608961007E+01  0.36404302886E+02  0.54367098565E+02  0.40000032799E+02 0.  0.
         12    1    3    3    0    0  0.33894098372E+01 -0.43608961007E+01 -0.36404302886E+02  0.36820901435E+02  0.00000000000E+00 0. -1.
         11    1    4    4    0    0 -0.13147143980E+01  0.89738263279E+01 -0.17662171229E+01  0.92399976244E+01  0.51100000000E-03 0. -1.
        -11    1    4    4    0    0  0.23888968499E+01  0.89025835807E+01  0.10230438862E+02  0.13770428538E+02  0.51100000000E-03 0.  1.
         12    1    4    4    0    0 -0.44635922891E+01 -0.13515513808E+02  0.27940081148E+02  0.31356672402E+02  0.00000000000E+00 0. -1.
</event>
<event>
 8    1  0.1261983E-006  0.9118800E+02  0.7816164E-02  0.1184000E+00
        -11   -1    0    0    0    0  0.00000000000E+00  0.00000000000E+00  0.45593999997E+02  0.45594000000E+02  0.51100000000E-03 0.  1.
         11   -1    0    0    0    0 -0.00000000000E+00 -0.00000000000E+00 -0.45593999997E+02  0.45594000000E+02  0.51100000000E-03 0. -1.
         23    2    1    2    0    0  0.35527136788E-14  0.35527136788E-14  0.17763568394E-14  0.91188000000E+02  0.91188000000E+02 0.  0.
    9900012    2    3    3    0    0 -0.24308341168E+02 -0.25641094689E+02  0.10364275573E+02  0.54367090243E+02  0.40000013826E+02 0.  0.
         12    1    3    3    0    0  0.24308341168E+02  0.25641094689E+02 -0.10364275573E+02  0.36820909757E+02  0.00000000000E+00 0. -1.
         11    1    4    4    0    0 -0.93374675456E+01 -0.23532031114E+02 -0.68294960086E+01  0.26221876449E+02  0.51100000000E-03 0. -1.
        -11    1    4    4    0    0 -0.21572549208E+01  0.54896835126E+01  0.99812304163E+01  0.11593762752E+02  0.51100000000E-03 0.  1.
        -12    1    4    4    0    0 -0.12813618702E+02 -0.75987470878E+01  0.72125411648E+01  0.16551451042E+02  0.00000000000E+00 0.  1.
</event>
<event>
 8    1  0.1261983E-006  0.9118800E+02  0.7816164E-02  0.1184000E+00
        -11   -1    0    0    0    0  0.00000000000E+00  0.00000000000E+00  0.45593999997E+02  0.45594000000E+02  0.51100000000E-03 0.  1.
         11   -1    0    0    0    0 -0.00000000000E+00 -0.00000000000E+00 -0.45593999997E+02  0.45594000000E+02  0.51100000000E-03 0. -1.
         23    2    1    2    0    0  0.00000000000E+00  0.00000000000E+00 -0.17763568394E-14  0.91188000000E+02  0.91188000000E+02 0.  0.
    9900012    2    3    3    0    0 -0.65103302147E+01  0.35936886712E+02 -0.46834148799E+01  0.54367101029E+02  0.40000038417E+02 0.  0.
         12    1    3    3    0    0  0.65103302147E+01 -0.35936886712E+02  0.46834148799E+01  0.36820898971E+02  0.00000000000E+00 0. -1.
         11    1    4    4    0    0  0.12337940927E+02  0.29057502748E+01 -0.42150654332E+01  0.13357954478E+02  0.51100000000E-03 0. -1.
        -11    1    4    4    0    0  0.12613476330E+01  0.84039134756E+01  0.30313356359E+01  0.90225138158E+01  0.51100000000E-03 0.  1.
        -12    1    4    4    0    0 -0.20109618775E+02  0.24627222962E+02 -0.34996850825E+01  0.31986632735E+02  0.00000000000E+00 0.  1.
</event>
<event>
 8    1  0.1261983E-006  0.9118800E+02  0.7816164E-02  0.1184000E+00
        -11   -1    0    0    0    0  0.00000000000E+00  0.00000000000E+00  0.45593999997E+02  0.45594000000E+02  0.51100000000E-03 0.  1.
         11   -1    0    0    0    0 -0.00000000000E+00 -0.00000000000E+00 -0.45593999997E+02  0.45594000000E+02  0.51100000000E-03 0. -1.
         23    2    1    2    0    0  0.00000000000E+00  0.71054273576E-14  0.00000000000E+00  0.91188000000E+02  0.91188000000E+02 0.  0.
    9900012    2    3    3    0    0 -0.61653475168E+01  0.32802116495E+02  0.15549622302E+02  0.54367066955E+02  0.39999960737E+02 0.  0.
         12    1    3    3    0    0  0.61653475168E+01 -0.32802116495E+02 -0.15549622302E+02  0.36820933045E+02  0.00000000000E+00 0. -1.
         11    1    4    4    0    0  0.74388205881E+01  0.12687945262E+02  0.14018619133E+02  0.20318506081E+02  0.51100000000E-03 0. -1.
        -11    1    4    4    0    0  0.23054687421E+01  0.14090279282E+02  0.73634994833E+01  0.16064628264E+02  0.51100000000E-03 0.  1.
         12    1    4    4    0    0 -0.15909636847E+02  0.60238919517E+01 -0.58324963144E+01  0.17983932610E+02  0.00000000000E+00 0. -1.
</event>
<event>
 8    1  0.1261983E-006  0.9118800E+02  0.7816164E-02  0.1184000E+00
        -11   -1    0    0    0    0  0.00000000000E+00  0.00000000000E+00  0.45593999997E+02  0.45594000000E+02  0.51100000000E-03 0. -1.
         11   -1    0    0    0    0 -0.00000000000E+00 -0.00000000000E+00 -0.45593999997E+02  0.45594000000E+02  0.51100000000E-03 0.  1.
         23    2    1    2    0    0 -0.71054273576E-14  0.00000000000E+00 -0.88817841970E-15  0.91188000000E+02  0.91188000000E+02 0.  0.
    9900012    2    3    3    0    0  0.32236417906E+02 -0.17762195768E+02  0.10467503530E+01  0.54367110220E+02  0.40000059368E+02 0.  0.
        -12    1    3    3    0    0 -0.32236417906E+02  0.17762195768E+02 -0.10467503530E+01  0.36820889780E+02  0.00000000000E+00 0.  1.
         11    1    4    4    0    0  0.29258964710E+02 -0.59174169107E+01  0.77814129287E+01  0.30848877228E+02  0.51100000000E-03 0. -1.
        -11    1    4    4    0    0 -0.34130370125E+01 -0.14994013822E+02 -0.40209648414E+01  0.15894572365E+02  0.51100000000E-03 0.  1.
        -12    1    4    4    0    0  0.63904902085E+01  0.31492349650E+01 -0.27136977343E+01  0.76236606275E+01  0.00000000000E+00 0.  1.
</event>
<event>
 8    1  0.1261983E-006  0.9118800E+02  0.7816164E-02  0.1184000E+00
        -11   -1    0    0    0    0  0.00000000000E+00  0.00000000000E+00  0.45593999997E+02  0.45594000000E+02  0.51100000000E-03 0. -1.
         11   -1    0    0    0    0 -0.00000000000E+00 -0.00000000000E+00 -0.45593999997E+02  0.45594000000E+02  0.51100000000E-03 0.  1.
         23    2    1    2    0    0  0.00000000000E+00  0.71054273576E-14  0.17763568394E-14  0.91188000000E+02  0.91188000000E+02 0.  0.
    9900012    2    3    3    0    0  0.25579090575E+01  0.33700200463E+02  0.14612774068E+02  0.54367087790E+02  0.40000008235E+02 0.  0.
        -12    1    3    3    0    0 -0.25579090575E+01 -0.33700200463E+02 -0.14612774068E+02  0.36820912210E+02  0.00000000000E+00 0.  1.
         11    1    4    4    0    0 -0.48021227719E+01  0.11795178427E+02  0.16013676103E+02  0.20460313777E+02  0.51100000000E-03 0. -1.
        -11    1    4    4    0    0  0.10875087972E+02  0.25898625456E+02 -0.32449190282E+01  0.28276064766E+02  0.51100000000E-03 0.  1.
         12    1    4    4    0    0 -0.35150561424E+01 -0.39936034198E+01  0.18440169929E+01  0.56307092474E+01  0.00000000000E+00 0. -1.
</event>
<event>
 8    1  0.1261983E-006  0.9118800E+02  0.7816164E-02  0.1184000E+00
        -11   -1    0    0    0    0  0.00000000000E+00  0.00000000000E+00  0.45593999997E+02  0.45594000000E+02  0.51100000000E-03 0.  1.
         11   -1    0    0    0    0 -0.00000000000E+00 -0.00000000000E+00 -0.45593999997E+02  0.45594000000E+02  0.51100000000E-03 0. -1.
         23    2    1    2    0    0  0.00000000000E+00 -0.35527136788E-14 -0.17763568394E-14  0.91188000000E+02  0.91188000000E+02 0.  0.
    9900012    2    3    3    0    0 -0.29184339919E+02 -0.17320041911E+02 -0.14285345236E+02  0.54367073385E+02  0.39999975395E+02 0.  0.
         12    1    3    3    0    0  0.29184339919E+02  0.17320041911E+02  0.14285345236E+02  0.36820926615E+02  0.00000000000E+00 0. -1.
         11    1    4    4    0    0 -0.12484064909E+01  0.44319225992E+01  0.19809804989E+01  0.50124585474E+01  0.51100000000E-03 0. -1.
        -11    1    4    4    0    0 -0.17396344356E+02  0.37522560850E+01 -0.11916746290E+02  0.21417774513E+02  0.51100000000E-03 0.  1.
        -12    1    4    4    0    0 -0.10539589072E+02 -0.25504220595E+02 -0.43495794445E+01  0.27936840324E+02  0.00000000000E+00 0.  1.
</event>
<event>
 8    1  0.1261983E-006  0.9118800E+02  0.7816164E-02  0.1184000E+00
        -11   -1    0    0    0    0  0.00000000000E+00  0.00000000000E+00  0.45593999997E+02  0.45594000000E+02  0.51100000000E-03 0.  1.
         11   -1    0    0    0    0 -0.00000000000E+00 -0.00000000000E+00 -0.45593999997E+02  0.45594000000E+02  0.51100000000E-03 0. -1.
         23    2    1    2    0    0 -0.17763568394E-14  0.00000000000E+00  0.00000000000E+00  0.91188000000E+02  0.91188000000E+02 0.  0.
    9900012    2    3    3    0    0  0.75371562439E+01  0.30630977073E+02 -0.18992480029E+02  0.54367085042E+02  0.40000001971E+02 0.  0.
        -12    1    3    3    0    0 -0.75371562439E+01 -0.30630977073E+02  0.18992480029E+02  0.36820914958E+02  0.00000000000E+00 0.  1.
         11    1    4    4    0    0 -0.81657790572E+01  0.26418760206E+02 -0.19722115940E+02  0.33964580019E+02  0.51100000000E-03 0. -1.
        -11    1    4    4    0    0  0.10423517451E+02 -0.16895192572E+01 -0.38684004279E+01  0.11245830939E+02  0.51100000000E-03 0.  1.
         12    1    4    4    0    0  0.52794178498E+01  0.59017361243E+01  0.45980363395E+01  0.91566740847E+01  0.00000000000E+00 0. -1.
</event>
<event>
 8    1  0.1261983E-006  0.9118800E+02  0.7816164E-02  0.1184000E+00
        -11   -1    0    0    0    0  0.00000000000E+00  0.00000000000E+00  0.45593999997E+02  0.45594000000E+02  0.51100000000E-03 0.  1.
         11   -1    0    0    0    0 -0.00000000000E+00 -0.00000000000E+00 -0.45593999997E+02  0.45594000000E+02  0.51100000000E-03 0. -1.
         23    2    1    2    0    0  0.00000000000E+00  0.00000000000E+00  0.00000000000E+00  0.91188000000E+02  0.91188000000E+02 0.  0.
    9900012    2    3    3    0    0 -0.27878990274E+02 -0.15894255951E+02 -0.18053097824E+02  0.54367084586E+02  0.40000000930E+02 0.  0.
        -12    1    3    3    0    0  0.27878990274E+02  0.15894255951E+02  0.18053097824E+02  0.36820915414E+02  0.00000000000E+00 0.  1.
         11    1    4    4    0    0 -0.79155393159E+01 -0.71999841559E+01 -0.19744831232E+02  0.22457824809E+02  0.51100000000E-03 0. -1.
        -11    1    4    4    0    0 -0.17367466899E+02 -0.38958139124E+01 -0.89708829660E+01  0.19931959612E+02  0.51100000000E-03 0.  1.
        -12    1    4    4    0    0 -0.25959840593E+01 -0.47984578829E+01  0.10662616374E+02  0.11977300165E+02  0.00000000000E+00 0.  1.
</event>
<event>
 8    1  0.1261983E-006  0.9118800E+02  0.7816164E-02  0.1184000E+00
        -11   -1    0    0    0    0  0.00000000000E+00  0.00000000000E+00  0.45593999997E+02  0.45594000000E+02  0.51100000000E-03 0.  1.
         11   -1    0    0    0    0 -0.00000000000E+00 -0.00000000000E+00 -0.45593999997E+02  0.45594000000E+02  0.51100000000E-03 0. -1.
         23    2    1    2    0    0  0.17763568394E-14  0.00000000000E+00  0.00000000000E+00  0.91188000000E+02  0.91188000000E+02 0.  0.
    9900012    2    3    3    0    0 -0.96893471522E+01 -0.32668191575E+02 -0.13952998640E+02  0.54367077142E+02  0.39999983961E+02 0.  0.
        -12    1    3    3    0    0  0.96893471522E+01  0.32668191575E+02  0.13952998640E+02  0.36820922858E+02  0.00000000000E+00 0.  1.
         11    1    4    4    0    0 -0.34273428672E+01 -0.18828870566E+02 -0.24706103710E+01  0.19297071327E+02  0.51100000000E-03 0. -1.
        -11    1    4    4    0    0 -0.10918855846E+02 -0.21532923824E+02 -0.82643484681E+01  0.25518379205E+02  0.51100000000E-03 0.  1.
        -12    1    4    4    0    0  0.46568515613E+01  0.76936028150E+01 -0.32180398010E+01  0.95516266101E+01  0.00000000000E+00 0.  1.
</event>
<event>
 8    1  0.1261983E-006  0.9118800E+02  0.7816164E-02  0.1184000E+00
        -11   -1    0    0    0    0  0.00000000000E+00  0.00000000000E+00  0.45593999997E+02  0.45594000000E+02  0.51100000000E-03 0.  1.
         11   -1    0    0    0    0 -0.00000000000E+00 -0.00000000000E+00 -0.45593999997E+02  0.45594000000E+02  0.51100000000E-03 0. -1.
         23    2    1    2    0    0  0.00000000000E+00 -0.71054273576E-14  0.17763568394E-14  0.91188000000E+02  0.91188000000E+02 0.  0.
    9900012    2    3    3    0    0  0.22110995911E+01 -0.34475347640E+02  0.12741392171E+02  0.54367059887E+02  0.39999944625E+02 0.  0.
        -12    1    3    3    0    0 -0.22110995911E+01  0.34475347640E+02 -0.12741392171E+02  0.36820940113E+02  0.00000000000E+00 0.  1.
         11    1    4    4    0    0  0.28201112765E+01 -0.24210473217E+02 -0.43395265974E+01  0.24757454077E+02  0.51100000000E-03 0. -1.
        -11    1    4    4    0    0  0.39718162711E+01  0.59743978850E+01  0.65873256925E+01  0.97396927374E+01  0.51100000000E-03 0.  1.
        -12    1    4    4    0    0 -0.45808279565E+01 -0.16239272308E+02  0.10493593076E+02  0.19869913073E+02  0.00000000000E+00 0.  1.
</event>
<event>
 8    1  0.1261983E-006  0.9118800E+02  0.7816164E-02  0.1184000E+00
        -11   -1    0    0    0    0  0.00000000000E+00  0.00000000000E+00  0.45593999997E+02  0.45594000000E+02  0.51100000000E-03 0.  1.
         11   -1    0    0    0    0 -0.00000000000E+00 -0.00000000000E+00 -0.45593999997E+02  0.45594000000E+02  0.51100000000E-03 0. -1.
         23    2    1    2    0    0  0.00000000000E+00 -0.22204460493E-15  0.71054273576E-14  0.91188000000E+02  0.91188000000E+02 0.  0.
    9900012    2    3    3    0    0 -0.94947755242E+01 -0.11028060295E+01 -0.35558590381E+02  0.54367078049E+02  0.39999986029E+02 0.  0.
        -12    1    3    3    0    0  0.94947755242E+01  0.11028060295E+01  0.35558590381E+02  0.36820921951E+02  0.00000000000E+00 0.  1.
         11    1    4    4    0    0  0.30846003978E+01 -0.46215421901E+01 -0.14633608612E+02  0.15652984159E+02  0.51100000000E-03 0. -1.
        -11    1    4    4    0    0 -0.11414666711E+02 -0.11647174575E+02 -0.59236192319E+01  0.17350520360E+02  0.51100000000E-03 0.  1.
        -12    1    4    4    0    0 -0.11647092110E+01  0.15165910735E+02 -0.15001362538E+02  0.21363573530E+02  0.00000000000E+00 0.  1.
</event>
<event>
 8    1  0.1261983E-006  0.9118800E+02  0.7816164E-02  0.1184000E+00
        -11   -1    0    0    0    0  0.00000000000E+00  0.00000000000E+00  0.45593999997E+02  0.45594000000E+02  0.51100000000E-03 0.  1.
         11   -1    0    0    0    0 -0.00000000000E+00 -0.00000000000E+00 -0.45593999997E+02  0.45594000000E+02  0.51100000000E-03 0. -1.
         23    2    1    2    0    0 -0.13322676296E-14  0.00000000000E+00  0.00000000000E+00  0.91188000000E+02  0.91188000000E+02 0.  0.
    9900012    2    3    3    0    0 -0.32420640092E+01 -0.11721803519E+02  0.34754417900E+02  0.54367065461E+02  0.39999957330E+02 0.  0.
         12    1    3    3    0    0  0.32420640092E+01  0.11721803519E+02 -0.34754417900E+02  0.36820934539E+02  0.00000000000E+00 0. -1.
         11    1    4    4    0    0  0.77521162370E+01 -0.18779055975E+00  0.11088125497E+02  0.13530598610E+02  0.51100000000E-03 0.  1.
        -11    1    4    4    0    0  0.84568941326E+01  0.28761575180E+01  0.47654669111E+01  0.10124278521E+02  0.51100000000E-03 0. -1.
         12    1    4    4    0    0 -0.19451074379E+02 -0.14410170477E+02  0.18900825492E+02  0.30712188329E+02  0.00000000000E+00 0. -1.
</event>
<event>
 8    1  0.1261983E-006  0.9118800E+02  0.7816164E-02  0.1184000E+00
        -11   -1    0    0    0    0  0.00000000000E+00  0.00000000000E+00  0.45593999997E+02  0.45594000000E+02  0.51100000000E-03 0.  1.
         11   -1    0    0    0    0 -0.00000000000E+00 -0.00000000000E+00 -0.45593999997E+02  0.45594000000E+02  0.51100000000E-03 0. -1.
         23    2    1    2    0    0  0.00000000000E+00  0.35527136788E-14  0.00000000000E+00  0.91188000000E+02  0.91188000000E+02 0.  0.
    9900012    2    3    3    0    0  0.11457996273E+02 -0.29208812482E+02 -0.19270155738E+02  0.54367091438E+02  0.40000016550E+02 0.  0.
         12    1    3    3    0    0 -0.11457996273E+02  0.29208812482E+02  0.19270155738E+02  0.36820908562E+02  0.00000000000E+00 0. -1.
         11    1    4    4    0    0 -0.12423542266E+02 -0.73699307784E+01 -0.80218960841E+01  0.16523047514E+02  0.51100000000E-03 0. -1.
        -11    1    4    4    0    0  0.25396806120E+02 -0.22646377445E+02 -0.11839374741E+02  0.36028141321E+02  0.51100000000E-03 0.  1.
        -12    1    4    4    0    0 -0.15152675810E+01  0.80749574143E+00  0.59111508801E+00  0.18159026024E+01  0.00000000000E+00 0.  1.
</event>
<event>
 8    1  0.1261983E-006  0.9118800E+02  0.7816164E-02  0.1184000E+00
        -11   -1    0    0    0    0  0.00000000000E+00  0.00000000000E+00  0.45593999997E+02  0.45594000000E+02  0.51100000000E-03 0. -1.
         11   -1    0    0    0    0 -0.00000000000E+00 -0.00000000000E+00 -0.45593999997E+02  0.45594000000E+02  0.51100000000E-03 0.  1.
         23    2    1    2    0    0 -0.88817841970E-15  0.00000000000E+00  0.00000000000E+00  0.91188000000E+02  0.91188000000E+02 0.  0.
    9900012    2    3    3    0    0 -0.70360593487E+01 -0.17730316638E+02 -0.31494607304E+02  0.54367074584E+02  0.39999978129E+02 0.  0.
         12    1    3    3    0    0  0.70360593487E+01  0.17730316638E+02  0.31494607304E+02  0.36820925416E+02  0.00000000000E+00 0. -1.
         11    1    4    4    0    0  0.78270426518E+01 -0.25360291694E+01 -0.18811661195E+01  0.84399541973E+01  0.51100000000E-03 0. -1.
        -11    1    4    4    0    0  0.79381421849E+01 -0.20996209018E+01 -0.10932823358E+02  0.13672934437E+02  0.51100000000E-03 0.  1.
        -12    1    4    4    0    0 -0.22801244185E+02 -0.13094666567E+02 -0.18680617827E+02  0.32254185950E+02  0.00000000000E+00 0.  1.
</event>
<event>
 8    1  0.1261983E-006  0.9118800E+02  0.7816164E-02  0.1184000E+00
        -11   -1    0    0    0    0  0.00000000000E+00  0.00000000000E+00  0.45593999997E+02  0.45594000000E+02  0.51100000000E-03 0.  1.
         11   -1    0    0    0    0 -0.00000000000E+00 -0.00000000000E+00 -0.45593999997E+02  0.45594000000E+02  0.51100000000E-03 0. -1.
         23    2    1    2    0    0  0.00000000000E+00  0.00000000000E+00 -0.35527136788E-14  0.91188000000E+02  0.91188000000E+02 0.  0.
    9900012    2    3    3    0    0  0.28207133903E+02 -0.16858411949E+02 -0.16611159969E+02  0.54367094362E+02  0.40000023218E+02 0.  0.
        -12    1    3    3    0    0 -0.28207133903E+02  0.16858411949E+02  0.16611159969E+02  0.36820905638E+02  0.00000000000E+00 0.  1.
         11    1    4    4    0    0  0.19767848660E+02 -0.15632888093E+02 -0.16814201469E+02  0.30296409062E+02  0.51100000000E-03 0. -1.
        -11    1    4    4    0    0 -0.73589186549E+01  0.15221938771E+01  0.23928640638E+01  0.78864793576E+01  0.51100000000E-03 0.  1.
         12    1    4    4    0    0  0.15798203897E+02 -0.27477177332E+01 -0.21898225642E+01  0.16184205942E+02  0.00000000000E+00 0. -1.
</event>
<event>
 8    1  0.1261983E-006  0.9118800E+02  0.7816164E-02  0.1184000E+00
        -11   -1    0    0    0    0  0.00000000000E+00  0.00000000000E+00  0.45593999997E+02  0.45594000000E+02  0.51100000000E-03 0. -1.
         11   -1    0    0    0    0 -0.00000000000E+00 -0.00000000000E+00 -0.45593999997E+02  0.45594000000E+02  0.51100000000E-03 0.  1.
         23    2    1    2    0    0  0.00000000000E+00  0.00000000000E+00  0.00000000000E+00  0.91188000000E+02  0.91188000000E+02 0.  0.
    9900012    2    3    3    0    0  0.17392823989E+02  0.30221319519E+02  0.11829668172E+02  0.54367088430E+02  0.40000009695E+02 0.  0.
         12    1    3    3    0    0 -0.17392823989E+02 -0.30221319519E+02 -0.11829668172E+02  0.36820911570E+02  0.00000000000E+00 0. -1.
         11    1    4    4    0    0 -0.85919923939E+01  0.60813958913E+01 -0.27772379430E+01  0.10886632176E+02  0.51100000000E-03 0.  1.
        -11    1    4    4    0    0  0.85836130397E+01  0.15323286362E+02 -0.22393586554E+01  0.17705825177E+02  0.51100000000E-03 0. -1.
         12    1    4    4    0    0  0.17401203343E+02  0.88166372651E+01  0.16846264771E+02  0.25774631077E+02  0.00000000000E+00 0. -1.
</event>
<event>
 8    1  0.1261983E-006  0.9118800E+02  0.7816164E-02  0.1184000E+00
        -11   -1    0    0    0    0  0.00000000000E+00  0.00000000000E+00  0.45593999997E+02  0.45594000000E+02  0.51100000000E-03 0.  1.
         11   -1    0    0    0    0 -0.00000000000E+00 -0.00000000000E+00 -0.45593999997E+02  0.45594000000E+02  0.51100000000E-03 0. -1.
         23    2    1    2    0    0  0.00000000000E+00 -0.66613381478E-15 -0.11102230246E-15  0.91188000000E+02  0.91188000000E+02 0.  0.
    9900012    2    3    3    0    0 -0.36804451205E+02 -0.89855271069E+00  0.63610841987E+00  0.54367086657E+02  0.40000005651E+02 0.  0.
        -12    1    3    3    0    0  0.36804451205E+02  0.89855271069E+00 -0.63610841987E+00  0.36820913343E+02  0.00000000000E+00 0.  1.
         11    1    4    4    0    0 -0.63433245026E+01 -0.14277701881E+01 -0.11979923000E+02  0.13630658414E+02  0.51100000000E-03 0. -1.
        -11    1    4    4    0    0  0.92105706006E+00  0.63083232772E+01 -0.12633330489E+00  0.63764605419E+01  0.51100000000E-03 0.  1.
         12    1    4    4    0    0 -0.31382183763E+02 -0.57791057998E+01  0.12742364725E+02  0.34359967700E+02  0.00000000000E+00 0. -1.
</event>
<event>
 8    1  0.1261983E-006  0.9118800E+02  0.7816164E-02  0.1184000E+00
        -11   -1    0    0    0    0  0.00000000000E+00  0.00000000000E+00  0.45593999997E+02  0.45594000000E+02  0.51100000000E-03 0. -1.
         11   -1    0    0    0    0 -0.00000000000E+00 -0.00000000000E+00 -0.45593999997E+02  0.45594000000E+02  0.51100000000E-03 0.  1.
         23    2    1    2    0    0  0.00000000000E+00  0.00000000000E+00  0.00000000000E+00  0.91188000000E+02  0.91188000000E+02 0.  0.
    9900012    2    3    3    0    0 -0.30716454717E+01 -0.23500424162E+02  0.28179356834E+02  0.54367067186E+02  0.39999961265E+02 0.  0.
        -12    1    3    3    0    0  0.30716454717E+01  0.23500424162E+02 -0.28179356834E+02  0.36820932814E+02  0.00000000000E+00 0.  1.
         11    1    4    4    0    0  0.33211074034E+01 -0.14626524196E+02  0.91321313982E+01  0.17560204685E+02  0.51100000000E-03 0.  1.
        -11    1    4    4    0    0  0.14251230998E+01 -0.11267771186E+02  0.24482694059E+02  0.26988811608E+02  0.51100000000E-03 0. -1.
        -12    1    4    4    0    0 -0.78178759749E+01  0.23938712203E+01 -0.54354686239E+01  0.98180508931E+01  0.00000000000E+00 0.  1.
</event>
<event>
 8    1  0.1261983E-006  0.9118800E+02  0.7816164E-02  0.1184000E+00
        -11   -1    0    0    0    0  0.00000000000E+00  0.00000000000E+00  0.45593999997E+02  0.45594000000E+02  0.51100000000E-03 0.  1.
         11   -1    0    0    0    0 -0.00000000000E+00 -0.00000000000E+00 -0.45593999997E+02  0.45594000000E+02  0.51100000000E-03 0. -1.
         23    2    1    2    0    0  0.00000000000E+00 -0.71054273576E-14  0.00000000000E+00  0.91188000000E+02  0.91188000000E+02 0.  0.
    9900012    2    3    3    0    0 -0.21106719859E+02 -0.22021680606E+02  0.20623590444E+02  0.54367074933E+02  0.39999978926E+02 0.  0.
         12    1    3    3    0    0  0.21106719859E+02  0.22021680606E+02 -0.20623590444E+02  0.36820925067E+02  0.00000000000E+00 0. -1.
         11    1    4    4    0    0 -0.32799678213E+01 -0.81059384907E+01 -0.24892107655E+01  0.90917874051E+01  0.51100000000E-03 0. -1.
        -11    1    4    4    0    0 -0.17354530607E+02  0.42215613311E+01  0.28668950307E+01  0.18089234368E+02  0.51100000000E-03 0.  1.
        -12    1    4    4    0    0 -0.47222143121E+00 -0.18137303447E+02  0.20245906179E+02  0.27186053160E+02  0.00000000000E+00 0.  1.
</event>
<event>
 8    1  0.1261983E-006  0.9118800E+02  0.7816164E-02  0.1184000E+00
        -11   -1    0    0    0    0  0.00000000000E+00  0.00000000000E+00  0.45593999997E+02  0.45594000000E+02  0.51100000000E-03 0. -1.
         11   -1    0    0    0    0 -0.00000000000E+00 -0.00000000000E+00 -0.45593999997E+02  0.45594000000E+02  0.51100000000E-03 0.  1.
         23    2    1    2    0    0  0.00000000000E+00  0.71054273576E-14 -0.17763568394E-14  0.91188000000E+02  0.91188000000E+02 0.  0.
    9900012    2    3    3    0    0  0.11164380685E+02  0.32793800205E+02 -0.12478099603E+02  0.54367086137E+02  0.40000004467E+02 0.  0.
         12    1    3    3    0    0 -0.11164380685E+02 -0.32793800205E+02  0.12478099603E+02  0.36820913863E+02  0.00000000000E+00 0. -1.
         11    1    4    4    0    0  0.13924854109E+02 -0.43161814390E+01 -0.16264153375E+01  0.14668885822E+02  0.51100000000E-03 0. -1.
        -11    1    4    4    0    0  0.62845231486E+00  0.28463190167E+02 -0.10686058120E+02  0.30409537734E+02  0.51100000000E-03 0.  1.
         12    1    4    4    0    0 -0.33889257390E+01  0.86467914778E+01 -0.16562614627E+00  0.92886625811E+01  0.00000000000E+00 0. -1.
</event>
<event>
 8    1  0.1261983E-006  0.9118800E+02  0.7816164E-02  0.1184000E+00
        -11   -1    0    0    0    0  0.00000000000E+00  0.00000000000E+00  0.45593999997E+02  0.45594000000E+02  0.51100000000E-03 0. -1.
         11   -1    0    0    0    0 -0.00000000000E+00 -0.00000000000E+00 -0.45593999997E+02  0.45594000000E+02  0.51100000000E-03 0.  1.
         23    2    1    2    0    0 -0.66613381478E-15  0.35527136788E-14 -0.35527136788E-14  0.91188000000E+02  0.91188000000E+02 0.  0.
    9900012    2    3    3    0    0 -0.10284017962E+01  0.24200659486E+02 -0.27731757407E+02  0.54367083408E+02  0.39999998245E+02 0.  0.
         12    1    3    3    0    0  0.10284017962E+01 -0.24200659486E+02  0.27731757407E+02  0.36820916592E+02  0.00000000000E+00 0. -1.
         11    1    4    4    0    0 -0.10308997645E+01 -0.62060332868E+01  0.25432863053E+01  0.67857135935E+01  0.51100000000E-03 0. -1.
        -11    1    4    4    0    0 -0.55676826098E+01 -0.22256210165E+00 -0.43688432554E+01  0.70806366369E+01  0.51100000000E-03 0.  1.
        -12    1    4    4    0    0  0.55701805781E+01  0.30629254874E+02 -0.25906200457E+02  0.40500733178E+02  0.00000000000E+00 0.  1.
</event>
<event>
 8    1  0.1261983E-006  0.9118800E+02  0.7816164E-02  0.1184000E+00
        -11   -1    0    0    0    0  0.00000000000E+00  0.00000000000E+00  0.45593999997E+02  0.45594000000E+02  0.51100000000E-03 0. -1.
         11   -1    0    0    0    0 -0.00000000000E+00 -0.00000000000E+00 -0.45593999997E+02  0.45594000000E+02  0.51100000000E-03 0.  1.
         23    2    1    2    0    0 -0.77715611724E-15  0.00000000000E+00  0.00000000000E+00  0.91188000000E+02  0.91188000000E+02 0.  0.
    9900012    2    3    3    0    0 -0.59549388897E+00 -0.11756473840E+02 -0.34888545542E+02  0.54367083388E+02  0.39999998200E+02 0.  0.
         12    1    3    3    0    0  0.59549388897E+00  0.11756473840E+02  0.34888545542E+02  0.36820916612E+02  0.00000000000E+00 0. -1.
         11    1    4    4    0    0  0.87067245076E+01 -0.65881951081E+01  0.35607541047E+01  0.11484351810E+02  0.51100000000E-03 0. -1.
        -11    1    4    4    0    0 -0.12737768976E+01  0.51786928238E+01 -0.16311478094E+02  0.17161167933E+02  0.51100000000E-03 0.  1.
         12    1    4    4    0    0 -0.80284414990E+01 -0.10346971556E+02 -0.22137821552E+02  0.25721563645E+02  0.00000000000E+00 0. -1.
</event>
<event>
 8    1  0.1261983E-006  0.9118800E+02  0.7816164E-02  0.1184000E+00
        -11   -1    0    0    0    0  0.00000000000E+00  0.00000000000E+00  0.45593999997E+02  0.45594000000E+02  0.51100000000E-03 0. -1.
         11   -1    0    0    0    0 -0.00000000000E+00 -0.00000000000E+00 -0.45593999997E+02  0.45594000000E+02  0.51100000000E-03 0.  1.
         23    2    1    2    0    0 -0.35527136788E-14 -0.71054273576E-14 -0.17763568394E-14  0.91188000000E+02  0.91188000000E+02 0.  0.
    9900012    2    3    3    0    0  0.16676492175E+02  0.29567520532E+02  0.14263089040E+02  0.54367090578E+02  0.40000014592E+02 0.  0.
        -12    1    3    3    0    0 -0.16676492175E+02 -0.29567520532E+02 -0.14263089040E+02  0.36820909422E+02  0.00000000000E+00 0.  1.
         11    1    4    4    0    0  0.18310856790E+02  0.22995783691E+02  0.14951528139E+01  0.29433467790E+02  0.51100000000E-03 0. -1.
        -11    1    4    4    0    0  0.65968873284E+01  0.92330227555E+01  0.11560199815E+02  0.16198946004E+02  0.51100000000E-03 0.  1.
        -12    1    4    4    0    0 -0.82312519437E+01 -0.26612859144E+01  0.12077364105E+01  0.87346767837E+01  0.00000000000E+00 0.  1.
</event>
<event>
 8    1  0.1261983E-006  0.9118800E+02  0.7816164E-02  0.1184000E+00
        -11   -1    0    0    0    0  0.00000000000E+00  0.00000000000E+00  0.45593999997E+02  0.45594000000E+02  0.51100000000E-03 0. -1.
         11   -1    0    0    0    0 -0.00000000000E+00 -0.00000000000E+00 -0.45593999997E+02  0.45594000000E+02  0.51100000000E-03 0.  1.
         23    2    1    2    0    0  0.00000000000E+00  0.17763568394E-14  0.00000000000E+00  0.91188000000E+02  0.91188000000E+02 0.  0.
    9900012    2    3    3    0    0 -0.20457028879E+02 -0.13216596466E+02  0.27615431614E+02  0.54367075026E+02  0.39999979138E+02 0.  0.
        -12    1    3    3    0    0  0.20457028879E+02  0.13216596466E+02 -0.27615431614E+02  0.36820924974E+02  0.00000000000E+00 0.  1.
         11    1    4    4    0    0 -0.21431887806E+02 -0.22725608142E+01  0.20455357889E+02  0.29713835400E+02  0.51100000000E-03 0. -1.
        -11    1    4    4    0    0  0.12451976136E+01  0.12549737685E+01 -0.62660989241E+01  0.65107197946E+01  0.51100000000E-03 0.  1.
         12    1    4    4    0    0 -0.27033868686E+00 -0.12199009420E+02  0.13426172649E+02  0.18142519832E+02  0.00000000000E+00 0. -1.
</event>
<event>
 8    1  0.1261983E-006  0.9118800E+02  0.7816164E-02  0.1184000E+00
        -11   -1    0    0    0    0  0.00000000000E+00  0.00000000000E+00  0.45593999997E+02  0.45594000000E+02  0.51100000000E-03 0. -1.
         11   -1    0    0    0    0 -0.00000000000E+00 -0.00000000000E+00 -0.45593999997E+02  0.45594000000E+02  0.51100000000E-03 0.  1.
         23    2    1    2    0    0 -0.88817841970E-15 -0.88817841970E-15  0.00000000000E+00  0.91188000000E+02  0.91188000000E+02 0.  0.
    9900012    2    3    3    0    0 -0.73597875700E+01 -0.55701338588E+01  0.35645312968E+02  0.54367065726E+02  0.39999957935E+02 0.  0.
        -12    1    3    3    0    0  0.73597875700E+01  0.55701338588E+01 -0.35645312968E+02  0.36820934274E+02  0.00000000000E+00 0.  1.
         11    1    4    4    0    0 -0.53300617018E+01 -0.24156199577E+01 -0.74072254838E+01  0.94399029208E+01  0.51100000000E-03 0. -1.
        -11    1    4    4    0    0  0.48712122207E+00 -0.65169013298E+01  0.12673890078E+02  0.14259550484E+02  0.51100000000E-03 0.  1.
         12    1    4    4    0    0 -0.25168470903E+01  0.33623874287E+01  0.30378648373E+02  0.30667612321E+02  0.00000000000E+00 0. -1.
</event>
<event>
 8    1  0.1261983E-006  0.9118800E+02  0.7816164E-02  0.1184000E+00
        -11   -1    0    0    0    0  0.00000000000E+00  0.00000000000E+00  0.45593999997E+02  0.45594000000E+02  0.51100000000E-03 0.  1.
         11   -1    0    0    0    0 -0.00000000000E+00 -0.00000000000E+00 -0.45593999997E+02  0.45594000000E+02  0.51100000000E-03 0. -1.
         23    2    1    2    0    0 -0.66613381478E-15  0.00000000000E+00  0.00000000000E+00  0.91188000000E+02  0.91188000000E+02 0.  0.
    9900012    2    3    3    0    0 -0.11744267445E+01 -0.36185487008E+02 -0.67090211393E+01  0.54367085931E+02  0.40000003997E+02 0.  0.
        -12    1    3    3    0    0  0.11744267445E+01  0.36185487008E+02  0.67090211393E+01  0.36820914069E+02  0.00000000000E+00 0.  1.
         11    1    4    4    0    0  0.27654285571E+01 -0.17264500758E+02  0.96822896910E+01  0.19986428281E+02  0.51100000000E-03 0. -1.
        -11    1    4    4    0    0 -0.35905887454E+01 -0.24369778992E+02 -0.14598869935E+02  0.28633991327E+02  0.51100000000E-03 0.  1.
        -12    1    4    4    0    0 -0.34926655618E+00  0.54487927414E+01 -0.17924408950E+01  0.57466663231E+01  0.00000000000E+00 0.  1.
</event>
<event>
 8    1  0.1261983E-006  0.9118800E+02  0.7816164E-02  0.1184000E+00
        -11   -1    0    0    0    0  0.00000000000E+00  0.00000000000E+00  0.45593999997E+02  0.45594000000E+02  0.51100000000E-03 0. -1.
         11   -1    0    0    0    0 -0.00000000000E+00 -0.00000000000E+00 -0.45593999997E+02  0.45594000000E+02  0.51100000000E-03 0.  1.
         23    2    1    2    0    0  0.35527136788E-14  0.17763568394E-14  0.00000000000E+00  0.91188000000E+02  0.91188000000E+02 0.  0.
    9900012    2    3    3    0    0  0.29747135790E+02 -0.14126220067E+02 -0.16472336250E+02  0.54367081453E+02  0.39999993789E+02 0.  0.
         12    1    3    3    0    0 -0.29747135790E+02  0.14126220067E+02  0.16472336250E+02  0.36820918547E+02  0.00000000000E+00 0. -1.
         11    1    4    4    0    0  0.13477193601E+02  0.16966926773E+00 -0.58489150212E+01  0.14692628839E+02  0.51100000000E-03 0. -1.
        -11    1    4    4    0    0  0.22491298432E+02  0.10324701733E+00 -0.52732000337E+01  0.23101424284E+02  0.51100000000E-03 0.  1.
         12    1    4    4    0    0 -0.62213562428E+01 -0.14399136352E+02 -0.53502211946E+01  0.16573028330E+02  0.00000000000E+00 0. -1.
</event>
<event>
 8    1  0.1261983E-006  0.9118800E+02  0.7816164E-02  0.1184000E+00
        -11   -1    0    0    0    0  0.00000000000E+00  0.00000000000E+00  0.45593999997E+02  0.45594000000E+02  0.51100000000E-03 0. -1.
         11   -1    0    0    0    0 -0.00000000000E+00 -0.00000000000E+00 -0.45593999997E+02  0.45594000000E+02  0.51100000000E-03 0.  1.
         23    2    1    2    0    0  0.00000000000E+00 -0.17763568394E-14  0.88817841970E-15  0.91188000000E+02  0.91188000000E+02 0.  0.
    9900012    2    3    3    0    0  0.33549577634E+02  0.14554201953E+02  0.42874343714E+01  0.54367067809E+02  0.39999962684E+02 0.  0.
         12    1    3    3    0    0 -0.33549577634E+02 -0.14554201953E+02 -0.42874343714E+01  0.36820932191E+02  0.00000000000E+00 0. -1.
         11    1    4    4    0    0  0.28873231566E+02  0.44466457583E+01  0.15788946024E+02  0.33207333171E+02  0.51100000000E-03 0. -1.
        -11    1    4    4    0    0  0.77368946431E+01  0.48210164667E+01 -0.12156236280E+01  0.91967102573E+01  0.51100000000E-03 0.  1.
        -12    1    4    4    0    0 -0.30605485744E+01  0.52865397280E+01 -0.10285888024E+02  0.11963024380E+02  0.00000000000E+00 0.  1.
</event>
<event>
 8    1  0.1261983E-006  0.9118800E+02  0.7816164E-02  0.1184000E+00
        -11   -1    0    0    0    0  0.00000000000E+00  0.00000000000E+00  0.45593999997E+02  0.45594000000E+02  0.51100000000E-03 0. -1.
         11   -1    0    0    0    0 -0.00000000000E+00 -0.00000000000E+00 -0.45593999997E+02  0.45594000000E+02  0.51100000000E-03 0.  1.
         23    2    1    2    0    0  0.00000000000E+00 -0.35527136788E-14  0.35527136788E-14  0.91188000000E+02  0.91188000000E+02 0.  0.
    9900012    2    3    3    0    0  0.84083743363E+01 -0.19673468386E+02  0.29967211369E+02  0.54367083735E+02  0.39999998991E+02 0.  0.
        -12    1    3    3    0    0 -0.84083743363E+01  0.19673468386E+02 -0.29967211369E+02  0.36820916265E+02  0.00000000000E+00 0.  1.
         11    1    4    4    0    0  0.49103744902E+01 -0.12604876902E+02  0.31291772855E+02  0.34090610849E+02  0.51100000000E-03 0. -1.
        -11    1    4    4    0    0  0.33867411337E+01  0.60068170867E+01  0.10844368866E+01  0.69805351257E+01  0.51100000000E-03 0.  1.
         12    1    4    4    0    0  0.11125871245E+00 -0.13075408570E+02 -0.24089983724E+01  0.13295937761E+02  0.00000000000E+00 0. -1.
</event>
<event>
 8    1  0.1261983E-006  0.9118800E+02  0.7816164E-02  0.1184000E+00
        -11   -1    0    0    0    0  0.00000000000E+00  0.00000000000E+00  0.45593999997E+02  0.45594000000E+02  0.51100000000E-03 0. -1.
         11   -1    0    0    0    0 -0.00000000000E+00 -0.00000000000E+00 -0.45593999997E+02  0.45594000000E+02  0.51100000000E-03 0.  1.
         23    2    1    2    0    0 -0.26645352591E-14  0.00000000000E+00  0.00000000000E+00  0.91188000000E+02  0.91188000000E+02 0.  0.
    9900012    2    3    3    0    0  0.41296845633E+01  0.11775558532E+02  0.34641849508E+02  0.54367138920E+02  0.40000124796E+02 0.  0.
        -12    1    3    3    0    0 -0.41296845633E+01 -0.11775558532E+02 -0.34641849508E+02  0.36820861080E+02  0.00000000000E+00 0.  1.
         11    1    4    4    0    0  0.10508061689E+02  0.10493535181E+02  0.13547651562E+02  0.20101554770E+02  0.51100000000E-03 0. -1.
        -11    1    4    4    0    0 -0.13426362194E+02  0.19182822732E+01  0.17593007959E+01  0.13676335335E+02  0.51100000000E-03 0.  1.
        -12    1    4    4    0    0  0.70479850691E+01 -0.63625892244E+00  0.19334897150E+02  0.20589248815E+02  0.00000000000E+00 0.  1.
</event>
<event>
 8    1  0.1261983E-006  0.9118800E+02  0.7816164E-02  0.1184000E+00
        -11   -1    0    0    0    0  0.00000000000E+00  0.00000000000E+00  0.45593999997E+02  0.45594000000E+02  0.51100000000E-03 0.  1.
         11   -1    0    0    0    0 -0.00000000000E+00 -0.00000000000E+00 -0.45593999997E+02  0.45594000000E+02  0.51100000000E-03 0. -1.
         23    2    1    2    0    0  0.44408920985E-15  0.88817841970E-15  0.71054273576E-14  0.91188000000E+02  0.91188000000E+02 0.  0.
    9900012    2    3    3    0    0  0.33499752482E+01  0.43005504968E+01  0.36415165498E+02  0.54367063741E+02  0.39999953410E+02 0.  0.
         12    1    3    3    0    0 -0.33499752482E+01 -0.43005504968E+01 -0.36415165498E+02  0.36820936259E+02  0.00000000000E+00 0. -1.
         11    1    4    4    0    0  0.16454326465E+02  0.10501246203E+02  0.75641091194E+01  0.20934105624E+02  0.51100000000E-03 0. -1.
        -11    1    4    4    0    0 -0.33150493141E+01  0.19856125399E+01  0.44282962678E+01  0.58772457163E+01  0.51100000000E-03 0.  1.
        -12    1    4    4    0    0 -0.97893019032E+01 -0.81863082459E+01  0.24422760111E+02  0.27555712400E+02  0.00000000000E+00 0.  1.
</event>
<event>
 8    1  0.1261983E-006  0.9118800E+02  0.7816164E-02  0.1184000E+00
        -11   -1    0    0    0    0  0.00000000000E+00  0.00000000000E+00  0.45593999997E+02  0.45594000000E+02  0.51100000000E-03 0. -1.
         11   -1    0    0    0    0 -0.00000000000E+00 -0.00000000000E+00 -0.45593999997E+02  0.45594000000E+02  0.51100000000E-03 0.  1.
         23    2    1    2    0    0  0.35527136788E-14  0.72164496601E-15  0.00000000000E+00  0.91188000000E+02  0.91188000000E+02 0.  0.
    9900012    2    3    3    0    0  0.26060100872E+02 -0.35251836581E+00 -0.26010235232E+02  0.54367007842E+02  0.39999825978E+02 0.  0.
         12    1    3    3    0    0 -0.26060100872E+02  0.35251836581E+00  0.26010235232E+02  0.36820992158E+02  0.00000000000E+00 0. -1.
         11    1    4    4    0    0  0.13619943380E+01 -0.95937661535E+00  0.86721834769E+01  0.88307530022E+01  0.51100000000E-03 0. -1.
        -11    1    4    4    0    0  0.24335481068E+02  0.51728109733E+01 -0.28311337532E+02  0.37689593328E+02  0.51100000000E-03 0.  1.
        -12    1    4    4    0    0  0.36262546568E+00 -0.45659527237E+01 -0.63710811778E+01  0.78466615116E+01  0.00000000000E+00 0.  1.
</event>
<event>
 8    1  0.1261983E-006  0.9118800E+02  0.7816164E-02  0.1184000E+00
        -11   -1    0    0    0    0  0.00000000000E+00  0.00000000000E+00  0.45593999997E+02  0.45594000000E+02  0.51100000000E-03 0.  1.
         11   -1    0    0    0    0 -0.00000000000E+00 -0.00000000000E+00 -0.45593999997E+02  0.45594000000E+02  0.51100000000E-03 0. -1.
         23    2    1    2    0    0  0.00000000000E+00 -0.71054273576E-14 -0.44408920985E-15  0.91188000000E+02  0.91188000000E+02 0.  0.
    9900012    2    3    3    0    0 -0.11565143942E+02 -0.34828309840E+02 -0.30025505030E+01  0.54367095201E+02  0.40000025130E+02 0.  0.
         12    1    3    3    0    0  0.11565143942E+02  0.34828309840E+02  0.30025505030E+01  0.36820904799E+02  0.00000000000E+00 0. -1.
         11    1    4    4    0    0 -0.11306879046E+01 -0.51114150207E+01  0.10550361700E+02  0.11777739635E+02  0.51100000000E-03 0. -1.
        -11    1    4    4    0    0 -0.35068433978E+00  0.43297507690E+01  0.55824757098E+00  0.43796531643E+01  0.51100000000E-03 0.  1.
         12    1    4    4    0    0 -0.10083771697E+02 -0.34046645588E+02 -0.14111159774E+02  0.38209702402E+02  0.00000000000E+00 0. -1.
</event>
<event>
 8    1  0.1261983E-006  0.9118800E+02  0.7816164E-02  0.1184000E+00
        -11   -1    0    0    0    0  0.00000000000E+00  0.00000000000E+00  0.45593999997E+02  0.45594000000E+02  0.51100000000E-03 0. -1.
         11   -1    0    0    0    0 -0.00000000000E+00 -0.00000000000E+00 -0.45593999997E+02  0.45594000000E+02  0.51100000000E-03 0.  1.
         23    2    1    2    0    0  0.00000000000E+00  0.55511151231E-15  0.00000000000E+00  0.91188000000E+02  0.91188000000E+02 0.  0.
    9900012    2    3    3    0    0  0.14461512873E+02 -0.60125844301E+00 -0.33856789810E+02  0.54367094491E+02  0.40000023510E+02 0.  0.
         12    1    3    3    0    0 -0.14461512873E+02  0.60125844301E+00  0.33856789810E+02  0.36820905509E+02  0.00000000000E+00 0. -1.
         11    1    4    4    0    0  0.68212644215E+01  0.11184814197E+02 -0.19446370402E+00  0.13102195744E+02  0.51100000000E-03 0. -1.
        -11    1    4    4    0    0  0.76407746669E+01 -0.43302347429E+01 -0.23700824106E+01  0.90966840845E+01  0.51100000000E-03 0.  1.
        -12    1    4    4    0    0 -0.52621547373E-03 -0.74558378972E+01 -0.31292243695E+02  0.32168214662E+02  0.00000000000E+00 0.  1.
</event>
<event>
 8    1  0.1261983E-006  0.9118800E+02  0.7816164E-02  0.1184000E+00
        -11   -1    0    0    0    0  0.00000000000E+00  0.00000000000E+00  0.45593999997E+02  0.45594000000E+02  0.51100000000E-03 0. -1.
         11   -1    0    0    0    0 -0.00000000000E+00 -0.00000000000E+00 -0.45593999997E+02  0.45594000000E+02  0.51100000000E-03 0.  1.
         23    2    1    2    0    0 -0.29976021665E-14 -0.71054273576E-14  0.17763568394E-14  0.91188000000E+02  0.91188000000E+02 0.  0.
    9900012    2    3    3    0    0 -0.61112640019E+00  0.35070578274E+02 -0.11200908571E+02  0.54367091690E+02  0.40000017126E+02 0.  0.
        -12    1    3    3    0    0  0.61112640019E+00 -0.35070578274E+02  0.11200908571E+02  0.36820908310E+02  0.00000000000E+00 0.  1.
         11    1    4    4    0    0  0.42902818615E+01  0.90109728409E+00  0.12798714658E+01  0.45668989475E+01  0.51100000000E-03 0. -1.
        -11    1    4    4    0    0  0.13688619432E+02  0.88349642255E+01 -0.76823437951E+01  0.18012587301E+02  0.51100000000E-03 0.  1.
        -12    1    4    4    0    0 -0.18590027694E+02  0.25334516764E+02 -0.47984362422E+01  0.31787605442E+02  0.00000000000E+00 0.  1.
</event>
<event>
 8    1  0.1261983E-006  0.9118800E+02  0.7816164E-02  0.1184000E+00
        -11   -1    0    0    0    0  0.00000000000E+00  0.00000000000E+00  0.45593999997E+02  0.45594000000E+02  0.51100000000E-03 0.  1.
         11   -1    0    0    0    0 -0.00000000000E+00 -0.00000000000E+00 -0.45593999997E+02  0.45594000000E+02  0.51100000000E-03 0. -1.
         23    2    1    2    0    0  0.00000000000E+00  0.00000000000E+00  0.00000000000E+00  0.91188000000E+02  0.91188000000E+02 0.  0.
    9900012    2    3    3    0    0  0.58889703355E+01 -0.14457932747E+02  0.33347689562E+02  0.54367079452E+02  0.39999989226E+02 0.  0.
         12    1    3    3    0    0 -0.58889703355E+01  0.14457932747E+02 -0.33347689562E+02  0.36820920548E+02  0.00000000000E+00 0. -1.
         11    1    4    4    0    0  0.26467764613E+01  0.83523739549E+01  0.14792184851E+02  0.17192332863E+02  0.51100000000E-03 0. -1.
        -11    1    4    4    0    0  0.80876706277E+01 -0.24701562118E+02  0.18619516678E+02  0.31972863320E+02  0.51100000000E-03 0.  1.
         12    1    4    4    0    0 -0.48454767535E+01  0.18912554166E+01 -0.64011967781E-01  0.52018832697E+01  0.00000000000E+00 0. -1.
</event>
<event>
 8    1  0.1261983E-006  0.9118800E+02  0.7816164E-02  0.1184000E+00
        -11   -1    0    0    0    0  0.00000000000E+00  0.00000000000E+00  0.45593999997E+02  0.45594000000E+02  0.51100000000E-03 0.  1.
         11   -1    0    0    0    0 -0.00000000000E+00 -0.00000000000E+00 -0.45593999997E+02  0.45594000000E+02  0.51100000000E-03 0. -1.
         23    2    1    2    0    0  0.00000000000E+00  0.35527136788E-14  0.17763568394E-14  0.91188000000E+02  0.91188000000E+02 0.  0.
    9900012    2    3    3    0    0 -0.16397543510E+02  0.29041986544E+02  0.15603323372E+02  0.54367080459E+02  0.39999991523E+02 0.  0.
         12    1    3    3    0    0  0.16397543510E+02 -0.29041986544E+02 -0.15603323372E+02  0.36820919541E+02  0.00000000000E+00 0. -1.
         11    1    4    4    0    0 -0.11421850417E+02  0.17604803999E+02  0.61279912085E+01  0.21861840437E+02  0.51100000000E-03 0. -1.
        -11    1    4    4    0    0 -0.50619503330E+01 -0.25143483356E+00  0.17570489445E+02  0.18286843911E+02  0.51100000000E-03 0.  1.
        -12    1    4    4    0    0  0.86257240644E-01  0.11688617379E+02 -0.80951572815E+01  0.14218396110E+02  0.00000000000E+00 0.  1.
</event>
<event>
 8    1  0.1261983E-006  0.9118800E+02  0.7816164E-02  0.1184000E+00
        -11   -1    0    0    0    0  0.00000000000E+00  0.00000000000E+00  0.45593999997E+02  0.45594000000E+02  0.51100000000E-03 0.  1.
         11   -1    0    0    0    0 -0.00000000000E+00 -0.00000000000E+00 -0.45593999997E+02  0.45594000000E+02  0.51100000000E-03 0. -1.
         23    2    1    2    0    0  0.00000000000E+00 -0.35527136788E-14 -0.35527136788E-14  0.91188000000E+02  0.91188000000E+02 0.  0.
    9900012    2    3    3    0    0 -0.12584831228E+02  0.19592256171E+02 -0.28522594202E+02  0.54367179003E+02  0.40000216172E+02 0.  0.
        -12    1    3    3    0    0  0.12584831228E+02 -0.19592256171E+02  0.28522594202E+02  0.36820820997E+02  0.00000000000E+00 0.  1.
         11    1    4    4    0    0  0.15171214238E+01  0.88749919225E+01 -0.22868822691E+02  0.24577432547E+02  0.51100000000E-03 0. -1.
        -11    1    4    4    0    0 -0.13537779528E+02 -0.41407711329E+01 -0.92465210229E+00  0.14187051910E+02  0.51100000000E-03 0.  1.
        -12    1    4    4    0    0 -0.56417312313E+00  0.14858035381E+02 -0.47291194087E+01  0.15602694546E+02  0.00000000000E+00 0.  1.
</event>
<event>
 8    1  0.1261983E-006  0.9118800E+02  0.7816164E-02  0.1184000E+00
        -11   -1    0    0    0    0  0.00000000000E+00  0.00000000000E+00  0.45593999997E+02  0.45594000000E+02  0.51100000000E-03 0.  1.
         11   -1    0    0    0    0 -0.00000000000E+00 -0.00000000000E+00 -0.45593999997E+02  0.45594000000E+02  0.51100000000E-03 0. -1.
         23    2    1    2    0    0  0.00000000000E+00 -0.17763568394E-14  0.00000000000E+00  0.91188000000E+02  0.91188000000E+02 0.  0.
    9900012    2    3    3    0    0  0.29103703174E+02 -0.15729477186E+02 -0.16165939877E+02  0.54367087422E+02  0.40000007395E+02 0.  0.
        -12    1    3    3    0    0 -0.29103703174E+02  0.15729477186E+02  0.16165939877E+02  0.36820912578E+02  0.00000000000E+00 0.  1.
         11    1    4    4    0    0  0.28817647713E+02 -0.11149033147E+02 -0.26231426575E+02  0.40532030547E+02  0.51100000000E-03 0. -1.
        -11    1    4    4    0    0  0.21418545677E+01 -0.46072301208E+01  0.10723205668E+02  0.11865970269E+02  0.51100000000E-03 0.  1.
         12    1    4    4    0    0 -0.18557991065E+01  0.26786082077E-01 -0.65771896996E+00  0.19690866058E+01  0.00000000000E+00 0. -1.
</event>
<event>
 8    1  0.1261983E-006  0.9118800E+02  0.7816164E-02  0.1184000E+00
        -11   -1    0    0    0    0  0.00000000000E+00  0.00000000000E+00  0.45593999997E+02  0.45594000000E+02  0.51100000000E-03 0.  1.
         11   -1    0    0    0    0 -0.00000000000E+00 -0.00000000000E+00 -0.45593999997E+02  0.45594000000E+02  0.51100000000E-03 0. -1.
         23    2    1    2    0    0  0.00000000000E+00 -0.22204460493E-14  0.00000000000E+00  0.91188000000E+02  0.91188000000E+02 0.  0.
    9900012    2    3    3    0    0  0.30880095072E+02 -0.36681833753E+01  0.19716558181E+02  0.54367102300E+02  0.40000041312E+02 0.  0.
         12    1    3    3    0    0 -0.30880095072E+02  0.36681833753E+01 -0.19716558181E+02  0.36820897700E+02  0.00000000000E+00 0. -1.
         11    1    4    4    0    0  0.37557568929E+01 -0.56606289201E+01  0.87788773073E-01  0.67938307853E+01  0.51100000000E-03 0. -1.
        -11    1    4    4    0    0 -0.31170025615E+01 -0.10122644292E+02  0.66441594334E+01  0.12503139097E+02  0.51100000000E-03 0.  1.
        -12    1    4    4    0    0  0.30241340741E+02  0.12115089837E+02  0.12984609975E+02  0.35070132417E+02  0.00000000000E+00 0.  1.
</event>
<event>
 8    1  0.1261983E-006  0.9118800E+02  0.7816164E-02  0.1184000E+00
        -11   -1    0    0    0    0  0.00000000000E+00  0.00000000000E+00  0.45593999997E+02  0.45594000000E+02  0.51100000000E-03 0.  1.
         11   -1    0    0    0    0 -0.00000000000E+00 -0.00000000000E+00 -0.45593999997E+02  0.45594000000E+02  0.51100000000E-03 0. -1.
         23    2    1    2    0    0  0.00000000000E+00  0.00000000000E+00  0.00000000000E+00  0.91188000000E+02  0.91188000000E+02 0.  0.
    9900012    2    3    3    0    0 -0.43184020979E+01 -0.27700750720E+02 -0.23870473391E+02  0.54367086282E+02  0.40000004797E+02 0.  0.
        -12    1    3    3    0    0  0.43184020979E+01  0.27700750720E+02  0.23870473391E+02  0.36820913718E+02  0.00000000000E+00 0.  1.
         11    1    4    4    0    0 -0.54972579939E+01 -0.14833834913E+02 -0.96026576252E+01  0.18506040565E+02  0.51100000000E-03 0. -1.
        -11    1    4    4    0    0 -0.14462620201E+01 -0.22623412667E+02 -0.83909943285E+01  0.24172696593E+02  0.51100000000E-03 0.  1.
         12    1    4    4    0    0  0.26251179161E+01  0.97564968588E+01 -0.58768214369E+01  0.11688349123E+02  0.00000000000E+00 0. -1.
</event>
<event>
 8    1  0.1261983E-006  0.9118800E+02  0.7816164E-02  0.1184000E+00
        -11   -1    0    0    0    0  0.00000000000E+00  0.00000000000E+00  0.45593999997E+02  0.45594000000E+02  0.51100000000E-03 0.  1.
         11   -1    0    0    0    0 -0.00000000000E+00 -0.00000000000E+00 -0.45593999997E+02  0.45594000000E+02  0.51100000000E-03 0. -1.
         23    2    1    2    0    0 -0.44408920985E-15  0.71054273576E-14  0.00000000000E+00  0.91188000000E+02  0.91188000000E+02 0.  0.
    9900012    2    3    3    0    0  0.18887375506E+01  0.29143799797E+02  0.22424356369E+02  0.54367079931E+02  0.39999990320E+02 0.  0.
         12    1    3    3    0    0 -0.18887375506E+01 -0.29143799797E+02 -0.22424356369E+02  0.36820920069E+02  0.00000000000E+00 0. -1.
         11    1    4    4    0    0  0.58852190706E+01 -0.34855886752E+01  0.11683464977E+02  0.13538407811E+02  0.51100000000E-03 0.  1.
        -11    1    4    4    0    0 -0.79941161046E+01  0.18204252513E+01  0.94185130512E+00  0.82526919567E+01  0.51100000000E-03 0. -1.
         12    1    4    4    0    0  0.39976345847E+01  0.30808963221E+02  0.97990400870E+01  0.32575980164E+02  0.00000000000E+00 0. -1.
</event>
<event>
 8    1  0.1261983E-006  0.9118800E+02  0.7816164E-02  0.1184000E+00
        -11   -1    0    0    0    0  0.00000000000E+00  0.00000000000E+00  0.45593999997E+02  0.45594000000E+02  0.51100000000E-03 0.  1.
         11   -1    0    0    0    0 -0.00000000000E+00 -0.00000000000E+00 -0.45593999997E+02  0.45594000000E+02  0.51100000000E-03 0. -1.
         23    2    1    2    0    0  0.00000000000E+00  0.00000000000E+00  0.00000000000E+00  0.91188000000E+02  0.91188000000E+02 0.  0.
    9900012    2    3    3    0    0 -0.70008330235E+01  0.19047565157E+02 -0.30723903208E+02  0.54367087059E+02  0.40000006569E+02 0.  0.
        -12    1    3    3    0    0  0.70008330235E+01 -0.19047565157E+02  0.30723903208E+02  0.36820912941E+02  0.00000000000E+00 0.  1.
         11    1    4    4    0    0 -0.45607258540E+01 -0.68332578488E+01 -0.56881443842E+01  0.99924281303E+01  0.51100000000E-03 0. -1.
        -11    1    4    4    0    0  0.21989443464E+01 -0.49673432260E+01 -0.40934059007E+01  0.68018987858E+01  0.51100000000E-03 0.  1.
         12    1    4    4    0    0 -0.46390515160E+01  0.30848166232E+02 -0.20942352923E+02  0.37572760143E+02  0.00000000000E+00 0. -1.
</event>
<event>
 8    1  0.1261983E-006  0.9118800E+02  0.7816164E-02  0.1184000E+00
        -11   -1    0    0    0    0  0.00000000000E+00  0.00000000000E+00  0.45593999997E+02  0.45594000000E+02  0.51100000000E-03 0.  1.
         11   -1    0    0    0    0 -0.00000000000E+00 -0.00000000000E+00 -0.45593999997E+02  0.45594000000E+02  0.51100000000E-03 0. -1.
         23    2    1    2    0    0  0.00000000000E+00  0.00000000000E+00  0.00000000000E+00  0.91188000000E+02  0.91188000000E+02 0.  0.
    9900012    2    3    3    0    0  0.24740567677E+02 -0.26932599269E+02  0.42801247850E+01  0.54367081210E+02  0.39999993234E+02 0.  0.
         12    1    3    3    0    0 -0.24740567677E+02  0.26932599269E+02 -0.42801247850E+01  0.36820918790E+02  0.00000000000E+00 0. -1.
         11    1    4    4    0    0 -0.72456497325E+01 -0.13167248859E+02 -0.22159143367E+01  0.15191647678E+02  0.51100000000E-03 0. -1.
        -11    1    4    4    0    0  0.21921602122E+02 -0.17061713276E+02  0.67292429936E+01  0.28582186954E+02  0.51100000000E-03 0.  1.
         12    1    4    4    0    0  0.10064615287E+02  0.32963628658E+01 -0.23320387194E+00  0.10593246579E+02  0.00000000000E+00 0. -1.
</event>
<event>
 8    1  0.1261983E-006  0.9118800E+02  0.7816164E-02  0.1184000E+00
        -11   -1    0    0    0    0  0.00000000000E+00  0.00000000000E+00  0.45593999997E+02  0.45594000000E+02  0.51100000000E-03 0.  1.
         11   -1    0    0    0    0 -0.00000000000E+00 -0.00000000000E+00 -0.45593999997E+02  0.45594000000E+02  0.51100000000E-03 0. -1.
         23    2    1    2    0    0  0.00000000000E+00 -0.88817841970E-15  0.00000000000E+00  0.91188000000E+02  0.91188000000E+02 0.  0.
    9900012    2    3    3    0    0 -0.27678647044E+02  0.74545681831E+01  0.23110571803E+02  0.54367127957E+02  0.40000099803E+02 0.  0.
         12    1    3    3    0    0  0.27678647044E+02 -0.74545681831E+01 -0.23110571803E+02  0.36820872043E+02  0.00000000000E+00 0. -1.
         11    1    4    4    0    0 -0.23222049671E+02  0.24985558174E+01  0.59181825727E+01  0.24094216263E+02  0.51100000000E-03 0. -1.
        -11    1    4    4    0    0 -0.13752930823E+02  0.51321887209E+01  0.14403679284E+02  0.20565710405E+02  0.51100000000E-03 0.  1.
         12    1    4    4    0    0  0.92963334497E+01 -0.17617635526E+00  0.27887099462E+01  0.97072012897E+01  0.00000000000E+00 0. -1.
</event>
<event>
 8    1  0.1261983E-006  0.9118800E+02  0.7816164E-02  0.1184000E+00
        -11   -1    0    0    0    0  0.00000000000E+00  0.00000000000E+00  0.45593999997E+02  0.45594000000E+02  0.51100000000E-03 0. -1.
         11   -1    0    0    0    0 -0.00000000000E+00 -0.00000000000E+00 -0.45593999997E+02  0.45594000000E+02  0.51100000000E-03 0.  1.
         23    2    1    2    0    0  0.00000000000E+00 -0.17763568394E-14  0.35527136788E-14  0.91188000000E+02  0.91188000000E+02 0.  0.
    9900012    2    3    3    0    0  0.16925949668E+02  0.14767908179E+02 -0.29175406358E+02  0.54367038303E+02  0.39999895419E+02 0.  0.
         12    1    3    3    0    0 -0.16925949668E+02 -0.14767908179E+02  0.29175406358E+02  0.36820961697E+02  0.00000000000E+00 0. -1.
         11    1    4    4    0    0  0.15329412009E+02  0.86328984300E+01 -0.27897136976E+01  0.17812925381E+02  0.51100000000E-03 0. -1.
        -11    1    4    4    0    0  0.11806944576E+02  0.76093761148E+01 -0.10196267691E+02  0.17357143203E+02  0.51100000000E-03 0.  1.
        -12    1    4    4    0    0 -0.10210406917E+02 -0.14743663654E+01 -0.16189424969E+02  0.19196969719E+02  0.00000000000E+00 0.  1.
</event>
<event>
 8    1  0.1261983E-006  0.9118800E+02  0.7816164E-02  0.1184000E+00
        -11   -1    0    0    0    0  0.00000000000E+00  0.00000000000E+00  0.45593999997E+02  0.45594000000E+02  0.51100000000E-03 0.  1.
         11   -1    0    0    0    0 -0.00000000000E+00 -0.00000000000E+00 -0.45593999997E+02  0.45594000000E+02  0.51100000000E-03 0. -1.
         23    2    1    2    0    0 -0.55511151231E-16 -0.44408920985E-15  0.00000000000E+00  0.91188000000E+02  0.91188000000E+02 0.  0.
    9900012    2    3    3    0    0  0.43280603893E+00  0.39059014613E+01 -0.36610611439E+02  0.54367078539E+02  0.39999987146E+02 0.  0.
        -12    1    3    3    0    0 -0.43280603893E+00 -0.39059014613E+01  0.36610611439E+02  0.36820921461E+02  0.00000000000E+00 0.  1.
         11    1    4    4    0    0  0.64112257286E+01  0.33842131553E+01 -0.23021860320E+02  0.24136337064E+02  0.51100000000E-03 0. -1.
        -11    1    4    4    0    0 -0.12502538998E+02  0.74960708976E+01 -0.12545426090E+01  0.14631419539E+02  0.51100000000E-03 0.  1.
         12    1    4    4    0    0  0.65241193088E+01 -0.69743825916E+01 -0.12334208510E+02  0.15599321936E+02  0.00000000000E+00 0. -1.
</event>
<event>
 8    1  0.1261983E-006  0.9118800E+02  0.7816164E-02  0.1184000E+00
        -11   -1    0    0    0    0  0.00000000000E+00  0.00000000000E+00  0.45593999997E+02  0.45594000000E+02  0.51100000000E-03 0.  1.
         11   -1    0    0    0    0 -0.00000000000E+00 -0.00000000000E+00 -0.45593999997E+02  0.45594000000E+02  0.51100000000E-03 0. -1.
         23    2    1    2    0    0 -0.71054273576E-14  0.00000000000E+00  0.00000000000E+00  0.91188000000E+02  0.91188000000E+02 0.  0.
    9900012    2    3    3    0    0  0.33858703666E+02 -0.10076229185E+02 -0.10384454467E+02  0.54367094211E+02  0.40000022874E+02 0.  0.
        -12    1    3    3    0    0 -0.33858703666E+02  0.10076229185E+02  0.10384454467E+02  0.36820905789E+02  0.00000000000E+00 0.  1.
         11    1    4    4    0    0  0.25245666753E+01  0.58576442530E+01  0.19487895603E+01  0.66695737573E+01  0.51100000000E-03 0. -1.
        -11    1    4    4    0    0  0.20962330165E+02 -0.24764786505E+02 -0.90872876815E+01  0.33694105334E+02  0.51100000000E-03 0.  1.
        -12    1    4    4    0    0  0.10371806825E+02  0.88309130670E+01 -0.32459563455E+01  0.14003415120E+02  0.00000000000E+00 0.  1.
</event>
<event>
 8    1  0.1261983E-006  0.9118800E+02  0.7816164E-02  0.1184000E+00
        -11   -1    0    0    0    0  0.00000000000E+00  0.00000000000E+00  0.45593999997E+02  0.45594000000E+02  0.51100000000E-03 0.  1.
         11   -1    0    0    0    0 -0.00000000000E+00 -0.00000000000E+00 -0.45593999997E+02  0.45594000000E+02  0.51100000000E-03 0. -1.
         23    2    1    2    0    0  0.00000000000E+00  0.00000000000E+00  0.00000000000E+00  0.91188000000E+02  0.91188000000E+02 0.  0.
    9900012    2    3    3    0    0  0.24161759177E+02  0.20220685503E+02 -0.19055521598E+02  0.54367087028E+02  0.40000006497E+02 0.  0.
        -12    1    3    3    0    0 -0.24161759177E+02 -0.20220685503E+02  0.19055521598E+02  0.36820912972E+02  0.00000000000E+00 0.  1.
         11    1    4    4    0    0  0.14095960933E+02  0.13435181809E+02  0.95494767692E+01  0.21688539178E+02  0.51100000000E-03 0. -1.
        -11    1    4    4    0    0  0.26173750522E+01 -0.26726706832E+01 -0.60963124396E+01  0.71525412524E+01  0.51100000000E-03 0.  1.
         12    1    4    4    0    0  0.74484231919E+01  0.94581743774E+01 -0.22508685928E+02  0.25526006597E+02  0.00000000000E+00 0. -1.
</event>
<event>
 8    1  0.1261983E-006  0.9118800E+02  0.7816164E-02  0.1184000E+00
        -11   -1    0    0    0    0  0.00000000000E+00  0.00000000000E+00  0.45593999997E+02  0.45594000000E+02  0.51100000000E-03 0. -1.
         11   -1    0    0    0    0 -0.00000000000E+00 -0.00000000000E+00 -0.45593999997E+02  0.45594000000E+02  0.51100000000E-03 0.  1.
         23    2    1    2    0    0  0.00000000000E+00  0.00000000000E+00 -0.88817841970E-15  0.91188000000E+02  0.91188000000E+02 0.  0.
    9900012    2    3    3    0    0 -0.33021325536E+02 -0.15627175167E+02 -0.46004227945E+01  0.54367076142E+02  0.39999981681E+02 0.  0.
         12    1    3    3    0    0  0.33021325536E+02  0.15627175167E+02  0.46004227945E+01  0.36820923858E+02  0.00000000000E+00 0. -1.
         11    1    4    4    0    0 -0.21245923372E+02 -0.91338527798E+01 -0.13169409096E+01  0.23163567518E+02  0.51100000000E-03 0. -1.
        -11    1    4    4    0    0  0.21135514982E+01 -0.14276621797E+02 -0.48019459680E+01  0.15210118843E+02  0.51100000000E-03 0.  1.
         12    1    4    4    0    0 -0.13888953662E+02  0.77832994098E+01  0.15184640831E+01  0.15993389782E+02  0.00000000000E+00 0. -1.
</event>
<event>
 8    1  0.1261983E-006  0.9118800E+02  0.7816164E-02  0.1184000E+00
        -11   -1    0    0    0    0  0.00000000000E+00  0.00000000000E+00  0.45593999997E+02  0.45594000000E+02  0.51100000000E-03 0.  1.
         11   -1    0    0    0    0 -0.00000000000E+00 -0.00000000000E+00 -0.45593999997E+02  0.45594000000E+02  0.51100000000E-03 0. -1.
         23    2    1    2    0    0  0.00000000000E+00  0.00000000000E+00 -0.17763568394E-14  0.91188000000E+02  0.91188000000E+02 0.  0.
    9900012    2    3    3    0    0 -0.32813692981E+02 -0.95343372849E+01  0.13716223864E+02  0.54367125057E+02  0.40000093192E+02 0.  0.
         12    1    3    3    0    0  0.32813692981E+02  0.95343372849E+01 -0.13716223864E+02  0.36820874943E+02  0.00000000000E+00 0. -1.
         11    1    4    4    0    0 -0.35508241451E+01  0.12226913805E+02 -0.87721784292E+00  0.12762260173E+02  0.51100000000E-03 0. -1.
        -11    1    4    4    0    0 -0.66215853419E+01 -0.90481868557E+01 -0.10974970932E+01  0.11265858953E+02  0.51100000000E-03 0.  1.
        -12    1    4    4    0    0 -0.22641283494E+02 -0.12713064235E+02  0.15690938800E+02  0.30339005931E+02  0.00000000000E+00 0.  1.
</event>
<event>
 8    1  0.1261983E-006  0.9118800E+02  0.7816164E-02  0.1184000E+00
        -11   -1    0    0    0    0  0.00000000000E+00  0.00000000000E+00  0.45593999997E+02  0.45594000000E+02  0.51100000000E-03 0. -1.
         11   -1    0    0    0    0 -0.00000000000E+00 -0.00000000000E+00 -0.45593999997E+02  0.45594000000E+02  0.51100000000E-03 0.  1.
         23    2    1    2    0    0  0.71054273576E-14  0.00000000000E+00  0.88817841970E-15  0.91188000000E+02  0.91188000000E+02 0.  0.
    9900012    2    3    3    0    0 -0.33123003367E+02 -0.15602730032E+02 -0.38989263265E+01  0.54367079818E+02  0.39999990062E+02 0.  0.
        -12    1    3    3    0    0  0.33123003367E+02  0.15602730032E+02  0.38989263265E+01  0.36820920182E+02  0.00000000000E+00 0.  1.
         11    1    4    4    0    0 -0.27663904463E+01 -0.22570678888E+01  0.40910613774E+01  0.54299221920E+01  0.51100000000E-03 0. -1.
        -11    1    4    4    0    0  0.49940237101E+01 -0.78008066868E+01  0.54110790421E+01  0.10727191359E+02  0.51100000000E-03 0.  1.
         12    1    4    4    0    0 -0.35350636631E+02 -0.55448554568E+01 -0.13401066746E+02  0.38209966268E+02  0.00000000000E+00 0. -1.
</event>
<event>
 8    1  0.1261983E-006  0.9118800E+02  0.7816164E-02  0.1184000E+00
        -11   -1    0    0    0    0  0.00000000000E+00  0.00000000000E+00  0.45593999997E+02  0.45594000000E+02  0.51100000000E-03 0.  1.
         11   -1    0    0    0    0 -0.00000000000E+00 -0.00000000000E+00 -0.45593999997E+02  0.45594000000E+02  0.51100000000E-03 0. -1.
         23    2    1    2    0    0 -0.35527136788E-14  0.17763568394E-14  0.35527136788E-14  0.91188000000E+02  0.91188000000E+02 0.  0.
    9900012    2    3    3    0    0  0.25922846714E+02  0.11671741989E+02 -0.23399928542E+02  0.54367079335E+02  0.39999988961E+02 0.  0.
         12    1    3    3    0    0 -0.25922846714E+02 -0.11671741989E+02  0.23399928542E+02  0.36820920665E+02  0.00000000000E+00 0. -1.
         11    1    4    4    0    0  0.97634907273E+01  0.19562005635E+02 -0.22961803572E+02  0.31705555336E+02  0.51100000000E-03 0. -1.
        -11    1    4    4    0    0  0.26654573161E+00 -0.48243180970E+01 -0.37795998946E+01  0.61343677223E+01  0.51100000000E-03 0.  1.
        -12    1    4    4    0    0  0.15892810255E+02 -0.30659455488E+01  0.33414749247E+01  0.16527156277E+02  0.00000000000E+00 0.  1.
</event>
<event>
 8    1  0.1261983E-006  0.9118800E+02  0.7816164E-02  0.1184000E+00
        -11   -1    0    0    0    0  0.00000000000E+00  0.00000000000E+00  0.45593999997E+02  0.45594000000E+02  0.51100000000E-03 0. -1.
         11   -1    0    0    0    0 -0.00000000000E+00 -0.00000000000E+00 -0.45593999997E+02  0.45594000000E+02  0.51100000000E-03 0.  1.
         23    2    1    2    0    0  0.35527136788E-14  0.35527136788E-14  0.71054273576E-14  0.91188000000E+02  0.91188000000E+02 0.  0.
    9900012    2    3    3    0    0  0.16847372106E+02  0.21159081889E+02  0.24984782272E+02  0.54367081510E+02  0.39999993918E+02 0.  0.
        -12    1    3    3    0    0 -0.16847372106E+02 -0.21159081889E+02 -0.24984782272E+02  0.36820918490E+02  0.00000000000E+00 0.  1.
         11    1    4    4    0    0 -0.25089431133E+01  0.11738469772E+02  0.16525654724E+01  0.12116824709E+02  0.51100000000E-03 0. -1.
        -11    1    4    4    0    0 -0.29336949005E+01 -0.28181895488E+01  0.14922034989E+02  0.15466605529E+02  0.51100000000E-03 0.  1.
         12    1    4    4    0    0  0.22290010120E+02  0.12238801666E+02  0.84101818107E+01  0.26783651272E+02  0.00000000000E+00 0. -1.
</event>
<event>
 8    1  0.1261983E-006  0.9118800E+02  0.7816164E-02  0.1184000E+00
        -11   -1    0    0    0    0  0.00000000000E+00  0.00000000000E+00  0.45593999997E+02  0.45594000000E+02  0.51100000000E-03 0.  1.
         11   -1    0    0    0    0 -0.00000000000E+00 -0.00000000000E+00 -0.45593999997E+02  0.45594000000E+02  0.51100000000E-03 0. -1.
         23    2    1    2    0    0 -0.17763568394E-14  0.00000000000E+00  0.35527136788E-14  0.91188000000E+02  0.91188000000E+02 0.  0.
    9900012    2    3    3    0    0  0.90116812032E+01  0.27052901983E+02 -0.23296145758E+02  0.54367077809E+02  0.39999985480E+02 0.  0.
        -12    1    3    3    0    0 -0.90116812032E+01 -0.27052901983E+02  0.23296145758E+02  0.36820922191E+02  0.00000000000E+00 0.  1.
         11    1    4    4    0    0 -0.81598437259E+01  0.10923956636E+02 -0.16455518260E+02  0.21370539527E+02  0.51100000000E-03 0. -1.
        -11    1    4    4    0    0  0.78442972293E+01  0.81318419498E+01  0.79152455551E+01  0.13795324026E+02  0.51100000000E-03 0.  1.
        -12    1    4    4    0    0  0.93272276998E+01  0.79971033977E+01 -0.14755873053E+02  0.19201214256E+02  0.00000000000E+00 0.  1.
</event>
<event>
 8    1  0.1261983E-006  0.9118800E+02  0.7816164E-02  0.1184000E+00
        -11   -1    0    0    0    0  0.00000000000E+00  0.00000000000E+00  0.45593999997E+02  0.45594000000E+02  0.51100000000E-03 0. -1.
         11   -1    0    0    0    0 -0.00000000000E+00 -0.00000000000E+00 -0.45593999997E+02  0.45594000000E+02  0.51100000000E-03 0.  1.
         23    2    1    2    0    0  0.00000000000E+00  0.26645352591E-14 -0.35527136788E-14  0.91188000000E+02  0.91188000000E+02 0.  0.
    9900012    2    3    3    0    0 -0.27683412437E+02  0.41583539456E+01 -0.23918979138E+02  0.54367071240E+02  0.39999970507E+02 0.  0.
         12    1    3    3    0    0  0.27683412437E+02 -0.41583539456E+01  0.23918979138E+02  0.36820928760E+02  0.00000000000E+00 0. -1.
         11    1    4    4    0    0 -0.49593238379E+00  0.54515019372E+01 -0.14821718675E+00  0.54760196216E+01  0.51100000000E-03 0. -1.
        -11    1    4    4    0    0 -0.92987569204E+01  0.13160473221E+02 -0.42451937581E+00  0.16119713168E+02  0.51100000000E-03 0.  1.
        -12    1    4    4    0    0 -0.17888723133E+02 -0.14453621212E+02 -0.23346242575E+02  0.32771338451E+02  0.00000000000E+00 0.  1.
</event>
<event>
 8    1  0.1261983E-006  0.9118800E+02  0.7816164E-02  0.1184000E+00
        -11   -1    0    0    0    0  0.00000000000E+00  0.00000000000E+00  0.45593999997E+02  0.45594000000E+02  0.51100000000E-03 0. -1.
         11   -1    0    0    0    0 -0.00000000000E+00 -0.00000000000E+00 -0.45593999997E+02  0.45594000000E+02  0.51100000000E-03 0.  1.
         23    2    1    2    0    0  0.00000000000E+00  0.17763568394E-14  0.17763568394E-14  0.91188000000E+02  0.91188000000E+02 0.  0.
    9900012    2    3    3    0    0 -0.34497075280E+02  0.89506886608E+01  0.92529347260E+01  0.54367084321E+02  0.40000000327E+02 0.  0.
         12    1    3    3    0    0  0.34497075280E+02 -0.89506886608E+01 -0.92529347260E+01  0.36820915679E+02  0.00000000000E+00 0. -1.
         11    1    4    4    0    0  0.55553955855E+01  0.71232233631E+00 -0.37411308464E+01  0.67354200681E+01  0.51100000000E-03 0. -1.
        -11    1    4    4    0    0 -0.42322368149E+01 -0.34436900048E+00 -0.50644024768E+01  0.66089780733E+01  0.51100000000E-03 0.  1.
        -12    1    4    4    0    0 -0.35820234051E+02  0.85827353250E+01  0.18058468049E+02  0.41022686180E+02  0.00000000000E+00 0.  1.
</event>
<event>
 8    1  0.1261983E-006  0.9118800E+02  0.7816164E-02  0.1184000E+00
        -11   -1    0    0    0    0  0.00000000000E+00  0.00000000000E+00  0.45593999997E+02  0.45594000000E+02  0.51100000000E-03 0.  1.
         11   -1    0    0    0    0 -0.00000000000E+00 -0.00000000000E+00 -0.45593999997E+02  0.45594000000E+02  0.51100000000E-03 0. -1.
         23    2    1    2    0    0  0.00000000000E+00 -0.35527136788E-14  0.35527136788E-14  0.91188000000E+02  0.91188000000E+02 0.  0.
    9900012    2    3    3    0    0 -0.15209874711E+02 -0.22498574655E+02 -0.24864715941E+02  0.54367078650E+02  0.39999987399E+02 0.  0.
        -12    1    3    3    0    0  0.15209874711E+02  0.22498574655E+02  0.24864715941E+02  0.36820921350E+02  0.00000000000E+00 0.  1.
         11    1    4    4    0    0 -0.28333952371E+01 -0.23060500221E+02 -0.87000030501E+01  0.24809370253E+02  0.51100000000E-03 0. -1.
        -11    1    4    4    0    0 -0.15284373826E+02  0.72305594108E+01 -0.14043161210E+02  0.21979614412E+02  0.51100000000E-03 0.  1.
        -12    1    4    4    0    0  0.29078943521E+01 -0.66686338449E+01 -0.21215516800E+01  0.75780939854E+01  0.00000000000E+00 0.  1.
</event>
<event>
 8    1  0.1261983E-006  0.9118800E+02  0.7816164E-02  0.1184000E+00
        -11   -1    0    0    0    0  0.00000000000E+00  0.00000000000E+00  0.45593999997E+02  0.45594000000E+02  0.51100000000E-03 0. -1.
         11   -1    0    0    0    0 -0.00000000000E+00 -0.00000000000E+00 -0.45593999997E+02  0.45594000000E+02  0.51100000000E-03 0.  1.
         23    2    1    2    0    0  0.00000000000E+00  0.00000000000E+00  0.00000000000E+00  0.91188000000E+02  0.91188000000E+02 0.  0.
    9900012    2    3    3    0    0  0.48411091364E+01  0.53549589802E+01 -0.36106327634E+02  0.54367098075E+02  0.40000031683E+02 0.  0.
         12    1    3    3    0    0 -0.48411091364E+01 -0.53549589802E+01  0.36106327634E+02  0.36820901925E+02  0.00000000000E+00 0. -1.
         11    1    4    4    0    0 -0.74546082243E+01  0.71725321176E+01 -0.74960678031E+01  0.12775266476E+02  0.51100000000E-03 0. -1.
        -11    1    4    4    0    0  0.19253886855E+01 -0.85001222612E+01 -0.27905421785E+02  0.29234769801E+02  0.51100000000E-03 0.  1.
        -12    1    4    4    0    0  0.10370328675E+02  0.66825491238E+01 -0.70483804504E+00  0.12357061799E+02  0.00000000000E+00 0.  1.
</event>
<event>
 8    1  0.1261983E-006  0.9118800E+02  0.7816164E-02  0.1184000E+00
        -11   -1    0    0    0    0  0.00000000000E+00  0.00000000000E+00  0.45593999997E+02  0.45594000000E+02  0.51100000000E-03 0. -1.
         11   -1    0    0    0    0 -0.00000000000E+00 -0.00000000000E+00 -0.45593999997E+02  0.45594000000E+02  0.51100000000E-03 0.  1.
         23    2    1    2    0    0  0.00000000000E+00  0.35527136788E-14 -0.35527136788E-14  0.91188000000E+02  0.91188000000E+02 0.  0.
    9900012    2    3    3    0    0 -0.17595773382E+02 -0.22866898180E+02  0.22875158595E+02  0.54367093520E+02  0.40000021298E+02 0.  0.
        -12    1    3    3    0    0  0.17595773382E+02  0.22866898180E+02 -0.22875158595E+02  0.36820906480E+02  0.00000000000E+00 0.  1.
         11    1    4    4    0    0 -0.14549110258E+02 -0.17355434700E+02  0.78447752208E+01  0.23967232244E+02  0.51100000000E-03 0. -1.
        -11    1    4    4    0    0 -0.93183521725E+01  0.69791392912E+01  0.10580835074E+02  0.15731946592E+02  0.51100000000E-03 0.  1.
        -12    1    4    4    0    0  0.62716890484E+01 -0.12490602771E+02  0.44495482995E+01  0.14667914684E+02  0.00000000000E+00 0.  1.
</event>
<event>
 8    1  0.1261983E-006  0.9118800E+02  0.7816164E-02  0.1184000E+00
        -11   -1    0    0    0    0  0.00000000000E+00  0.00000000000E+00  0.45593999997E+02  0.45594000000E+02  0.51100000000E-03 0. -1.
         11   -1    0    0    0    0 -0.00000000000E+00 -0.00000000000E+00 -0.45593999997E+02  0.45594000000E+02  0.51100000000E-03 0.  1.
         23    2    1    2    0    0  0.00000000000E+00  0.00000000000E+00  0.17763568394E-14  0.91188000000E+02  0.91188000000E+02 0.  0.
    9900012    2    3    3    0    0 -0.34390287609E+02  0.10840328208E+02 -0.74547603261E+01  0.54367108525E+02  0.40000055505E+02 0.  0.
         12    1    3    3    0    0  0.34390287609E+02 -0.10840328208E+02  0.74547603261E+01  0.36820891475E+02  0.00000000000E+00 0. -1.
         11    1    4    4    0    0  0.15911810445E+01 -0.55442999423E+01 -0.67499212770E+00  0.58074722212E+01  0.51100000000E-03 0. -1.
        -11    1    4    4    0    0 -0.32107582861E+02  0.78733968135E+01 -0.14818405972E+02  0.36228061091E+02  0.51100000000E-03 0.  1.
         12    1    4    4    0    0 -0.38738857920E+01  0.85112313367E+01  0.80386377734E+01  0.12331575214E+02  0.00000000000E+00 0. -1.
</event>
<event>
 8    1  0.1261983E-006  0.9118800E+02  0.7816164E-02  0.1184000E+00
        -11   -1    0    0    0    0  0.00000000000E+00  0.00000000000E+00  0.45593999997E+02  0.45594000000E+02  0.51100000000E-03 0.  1.
         11   -1    0    0    0    0 -0.00000000000E+00 -0.00000000000E+00 -0.45593999997E+02  0.45594000000E+02  0.51100000000E-03 0. -1.
         23    2    1    2    0    0  0.53290705182E-14  0.17763568394E-14  0.00000000000E+00  0.91188000000E+02  0.91188000000E+02 0.  0.
    9900012    2    3    3    0    0  0.10291724704E+02  0.10493865191E+02  0.33760174597E+02  0.54366943621E+02  0.39999679571E+02 0.  0.
         12    1    3    3    0    0 -0.10291724704E+02 -0.10493865191E+02 -0.33760174597E+02  0.36821056379E+02  0.00000000000E+00 0. -1.
         11    1    4    4    0    0 -0.55384440953E+01 -0.72335026417E+00  0.12056005810E+02  0.13287019039E+02  0.51100000000E-03 0. -1.
        -11    1    4    4    0    0  0.18324976090E+02  0.14949700050E+02  0.25802614927E+02  0.35001045950E+02  0.51100000000E-03 0.  1.
         12    1    4    4    0    0 -0.24948072901E+01 -0.37324845950E+01 -0.40984461389E+01  0.60788786318E+01  0.00000000000E+00 0. -1.
</event>
<event>
 8    1  0.1261983E-006  0.9118800E+02  0.7816164E-02  0.1184000E+00
        -11   -1    0    0    0    0  0.00000000000E+00  0.00000000000E+00  0.45593999997E+02  0.45594000000E+02  0.51100000000E-03 0. -1.
         11   -1    0    0    0    0 -0.00000000000E+00 -0.00000000000E+00 -0.45593999997E+02  0.45594000000E+02  0.51100000000E-03 0.  1.
         23    2    1    2    0    0  0.00000000000E+00 -0.71054273576E-14  0.00000000000E+00  0.91188000000E+02  0.91188000000E+02 0.  0.
    9900012    2    3    3    0    0 -0.22770849777E+02 -0.24221021063E+02 -0.15830677053E+02  0.54367084790E+02  0.40000001396E+02 0.  0.
         12    1    3    3    0    0  0.22770849777E+02  0.24221021063E+02  0.15830677053E+02  0.36820915210E+02  0.00000000000E+00 0. -1.
         11    1    4    4    0    0  0.43479345895E+01 -0.43922161837E+01  0.31199133935E+01  0.69231465421E+01  0.51100000000E-03 0. -1.
        -11    1    4    4    0    0 -0.15633984568E+02  0.44161383793E+01 -0.10388172938E+02  0.19283098530E+02  0.51100000000E-03 0.  1.
        -12    1    4    4    0    0 -0.11484799799E+02 -0.24244943259E+02 -0.85624175089E+01  0.28160839718E+02  0.00000000000E+00 0.  1.
</event>
<event>
 8    1  0.1261983E-006  0.9118800E+02  0.7816164E-02  0.1184000E+00
        -11   -1    0    0    0    0  0.00000000000E+00  0.00000000000E+00  0.45593999997E+02  0.45594000000E+02  0.51100000000E-03 0.  1.
         11   -1    0    0    0    0 -0.00000000000E+00 -0.00000000000E+00 -0.45593999997E+02  0.45594000000E+02  0.51100000000E-03 0. -1.
         23    2    1    2    0    0 -0.71054273576E-14  0.00000000000E+00 -0.35527136788E-14  0.91188000000E+02  0.91188000000E+02 0.  0.
    9900012    2    3    3    0    0 -0.26139062767E+02 -0.76968740547E+01 -0.24764668045E+02  0.54367064977E+02  0.39999956229E+02 0.  0.
        -12    1    3    3    0    0  0.26139062767E+02  0.76968740547E+01  0.24764668045E+02  0.36820935023E+02  0.00000000000E+00 0.  1.
         11    1    4    4    0    0 -0.16906869202E+02  0.10193297449E+01 -0.74872008277E+00  0.16954109867E+02  0.51100000000E-03 0. -1.
        -11    1    4    4    0    0  0.70982000549E+01  0.27784334266E+01 -0.24171010770E+01  0.79966564390E+01  0.51100000000E-03 0.  1.
         12    1    4    4    0    0 -0.16330393620E+02 -0.11494637226E+02 -0.21598846885E+02  0.29416298671E+02  0.00000000000E+00 0. -1.
</event>
<event>
 8    1  0.1261983E-006  0.9118800E+02  0.7816164E-02  0.1184000E+00
        -11   -1    0    0    0    0  0.00000000000E+00  0.00000000000E+00  0.45593999997E+02  0.45594000000E+02  0.51100000000E-03 0.  1.
         11   -1    0    0    0    0 -0.00000000000E+00 -0.00000000000E+00 -0.45593999997E+02  0.45594000000E+02  0.51100000000E-03 0. -1.
         23    2    1    2    0    0  0.00000000000E+00  0.24424906542E-14  0.00000000000E+00  0.91188000000E+02  0.91188000000E+02 0.  0.
    9900012    2    3    3    0    0 -0.17924778941E+02 -0.13050254799E+01  0.32136890834E+02  0.54367074644E+02  0.39999978267E+02 0.  0.
         12    1    3    3    0    0  0.17924778941E+02  0.13050254799E+01 -0.32136890834E+02  0.36820925356E+02  0.00000000000E+00 0. -1.
         11    1    4    4    0    0 -0.10275527930E+02 -0.10527650300E+02  0.25174232519E+01  0.14924989620E+02  0.51100000000E-03 0. -1.
        -11    1    4    4    0    0 -0.53088382702E+01  0.16247912719E+02  0.13775734632E+02  0.21953343627E+02  0.51100000000E-03 0.  1.
        -12    1    4    4    0    0 -0.23404127405E+01 -0.70252878991E+01  0.15843732950E+02  0.17488741397E+02  0.00000000000E+00 0.  1.
</event>
<event>
 8    1  0.1261983E-006  0.9118800E+02  0.7816164E-02  0.1184000E+00
        -11   -1    0    0    0    0  0.00000000000E+00  0.00000000000E+00  0.45593999997E+02  0.45594000000E+02  0.51100000000E-03 0.  1.
         11   -1    0    0    0    0 -0.00000000000E+00 -0.00000000000E+00 -0.45593999997E+02  0.45594000000E+02  0.51100000000E-03 0. -1.
         23    2    1    2    0    0  0.35527136788E-14  0.00000000000E+00  0.00000000000E+00  0.91188000000E+02  0.91188000000E+02 0.  0.
    9900012    2    3    3    0    0  0.22857263958E+02 -0.24858857177E+02 -0.14675185121E+02  0.54367104382E+02  0.40000046059E+02 0.  0.
         12    1    3    3    0    0 -0.22857263958E+02  0.24858857177E+02  0.14675185121E+02  0.36820895618E+02  0.00000000000E+00 0. -1.
         11    1    4    4    0    0  0.49096474130E+01 -0.26480604918E+02 -0.10183605973E+02  0.28792931519E+02  0.51100000000E-03 0.  1.
        -11    1    4    4    0    0  0.81985905085E+01  0.95111873029E+01 -0.32542487354E+01  0.12971881333E+02  0.51100000000E-03 0. -1.
        -12    1    4    4    0    0  0.97490260363E+01 -0.78894395615E+01 -0.12373304130E+01  0.12602291530E+02  0.00000000000E+00 0.  1.
</event>
<event>
 8    1  0.1261983E-006  0.9118800E+02  0.7816164E-02  0.1184000E+00
        -11   -1    0    0    0    0  0.00000000000E+00  0.00000000000E+00  0.45593999997E+02  0.45594000000E+02  0.51100000000E-03 0.  1.
         11   -1    0    0    0    0 -0.00000000000E+00 -0.00000000000E+00 -0.45593999997E+02  0.45594000000E+02  0.51100000000E-03 0. -1.
         23    2    1    2    0    0 -0.35527136788E-14  0.00000000000E+00 -0.35527136788E-14  0.91188000000E+02  0.91188000000E+02 0.  0.
    9900012    2    3    3    0    0 -0.26339039200E+02  0.17122028949E+02 -0.19206014534E+02  0.54367083993E+02  0.39999999578E+02 0.  0.
        -12    1    3    3    0    0  0.26339039200E+02 -0.17122028949E+02  0.19206014534E+02  0.36820916007E+02  0.00000000000E+00 0.  1.
         11    1    4    4    0    0 -0.17934676931E+02  0.70970507635E+01 -0.88636829749E+01  0.21227002669E+02  0.51100000000E-03 0. -1.
        -11    1    4    4    0    0 -0.92751527733E+01 -0.16251108780E+01  0.73453497143E+01  0.11942512592E+02  0.51100000000E-03 0.  1.
        -12    1    4    4    0    0  0.87079050411E+00  0.11650089063E+02 -0.17687681274E+02  0.21197568731E+02  0.00000000000E+00 0.  1.
</event>
<event>
 8    1  0.1261983E-006  0.9118800E+02  0.7816164E-02  0.1184000E+00
        -11   -1    0    0    0    0  0.00000000000E+00  0.00000000000E+00  0.45593999997E+02  0.45594000000E+02  0.51100000000E-03 0.  1.
         11   -1    0    0    0    0 -0.00000000000E+00 -0.00000000000E+00 -0.45593999997E+02  0.45594000000E+02  0.51100000000E-03 0. -1.
         23    2    1    2    0    0  0.00000000000E+00  0.17763568394E-14  0.71054273576E-14  0.91188000000E+02  0.91188000000E+02 0.  0.
    9900012    2    3    3    0    0  0.24496273207E+02  0.13659410598E+02  0.23856508262E+02  0.54367083589E+02  0.39999998658E+02 0.  0.
         12    1    3    3    0    0 -0.24496273207E+02 -0.13659410598E+02 -0.23856508262E+02  0.36820916411E+02  0.00000000000E+00 0. -1.
         11    1    4    4    0    0  0.10233404082E+01  0.62029650043E+01  0.44244833480E+01  0.76876559232E+01  0.51100000000E-03 0.  1.
        -11    1    4    4    0    0  0.26512100821E+02  0.78897260679E+01  0.26912806946E+02  0.38593243519E+02  0.51100000000E-03 0. -1.
         12    1    4    4    0    0 -0.30391680223E+01 -0.43328047398E+00 -0.74807820324E+01  0.80861841466E+01  0.00000000000E+00 0. -1.
</event>
<event>
 8    1  0.1261983E-006  0.9118800E+02  0.7816164E-02  0.1184000E+00
        -11   -1    0    0    0    0  0.00000000000E+00  0.00000000000E+00  0.45593999997E+02  0.45594000000E+02  0.51100000000E-03 0.  1.
         11   -1    0    0    0    0 -0.00000000000E+00 -0.00000000000E+00 -0.45593999997E+02  0.45594000000E+02  0.51100000000E-03 0. -1.
         23    2    1    2    0    0  0.35527136788E-14  0.00000000000E+00  0.17763568394E-14  0.91188000000E+02  0.91188000000E+02 0.  0.
    9900012    2    3    3    0    0  0.31615368397E+02 -0.10699256417E+02  0.15548897893E+02  0.54367165783E+02  0.40000186035E+02 0.  0.
         12    1    3    3    0    0 -0.31615368397E+02  0.10699256417E+02 -0.15548897893E+02  0.36820834217E+02  0.00000000000E+00 0. -1.
         11    1    4    4    0    0  0.81602488196E+01  0.79130433706E+01  0.40435687620E+01  0.12064674251E+02  0.51100000000E-03 0. -1.
        -11    1    4    4    0    0  0.14686895526E+02  0.37731455004E+01  0.10100997697E+02  0.18220090063E+02  0.51100000000E-03 0.  1.
        -12    1    4    4    0    0  0.87682240507E+01 -0.22385445288E+02  0.14043314345E+01  0.24082401469E+02  0.00000000000E+00 0.  1.
</event>
<event>
 8    1  0.1261983E-006  0.9118800E+02  0.7816164E-02  0.1184000E+00
        -11   -1    0    0    0    0  0.00000000000E+00  0.00000000000E+00  0.45593999997E+02  0.45594000000E+02  0.51100000000E-03 0.  1.
         11   -1    0    0    0    0 -0.00000000000E+00 -0.00000000000E+00 -0.45593999997E+02  0.45594000000E+02  0.51100000000E-03 0. -1.
         23    2    1    2    0    0  0.00000000000E+00  0.88817841970E-15  0.88817841970E-15  0.91188000000E+02  0.91188000000E+02 0.  0.
    9900012    2    3    3    0    0  0.35839857238E+02  0.79983163319E+01 -0.27038416249E+01  0.54367093024E+02  0.40000020167E+02 0.  0.
         12    1    3    3    0    0 -0.35839857238E+02 -0.79983163319E+01  0.27038416249E+01  0.36820906976E+02  0.00000000000E+00 0. -1.
         11    1    4    4    0    0  0.24574880385E+01 -0.99812439352E+01 -0.83486186567E+00  0.10313169859E+02  0.51100000000E-03 0. -1.
        -11    1    4    4    0    0  0.12068116983E+02  0.21976285959E+01 -0.10517664003E+02  0.16158288130E+02  0.51100000000E-03 0.  1.
        -12    1    4    4    0    0  0.21314252217E+02  0.15781931671E+02  0.86486842435E+01  0.27895635035E+02  0.00000000000E+00 0.  1.
</event>
<event>
 8    1  0.1261983E-006  0.9118800E+02  0.7816164E-02  0.1184000E+00
        -11   -1    0    0    0    0  0.00000000000E+00  0.00000000000E+00  0.45593999997E+02  0.45594000000E+02  0.51100000000E-03 0.  1.
         11   -1    0    0    0    0 -0.00000000000E+00 -0.00000000000E+00 -0.45593999997E+02  0.45594000000E+02  0.51100000000E-03 0. -1.
         23    2    1    2    0    0  0.00000000000E+00 -0.35527136788E-14  0.35527136788E-14  0.91188000000E+02  0.91188000000E+02 0.  0.
    9900012    2    3    3    0    0 -0.11569754028E+02  0.19459544372E+02  0.29038710009E+02  0.54367085367E+02  0.40000002711E+02 0.  0.
         12    1    3    3    0    0  0.11569754028E+02 -0.19459544372E+02 -0.29038710009E+02  0.36820914633E+02  0.00000000000E+00 0. -1.
         11    1    4    4    0    0 -0.10167938744E+02 -0.40847477716E+01  0.59235258846E+01  0.12456335811E+02  0.51100000000E-03 0. -1.
        -11    1    4    4    0    0 -0.27007236160E+01  0.93409623403E+01  0.25644112032E+02  0.27425680806E+02  0.51100000000E-03 0.  1.
         12    1    4    4    0    0  0.12989083319E+01  0.14203329803E+02 -0.25289279073E+01  0.14485068751E+02  0.00000000000E+00 0. -1.
</event>
<event>
 8    1  0.1261983E-006  0.9118800E+02  0.7816164E-02  0.1184000E+00
        -11   -1    0    0    0    0  0.00000000000E+00  0.00000000000E+00  0.45593999997E+02  0.45594000000E+02  0.51100000000E-03 0.  1.
         11   -1    0    0    0    0 -0.00000000000E+00 -0.00000000000E+00 -0.45593999997E+02  0.45594000000E+02  0.51100000000E-03 0. -1.
         23    2    1    2    0    0  0.88817841970E-15  0.13322676296E-14  0.00000000000E+00  0.91188000000E+02  0.91188000000E+02 0.  0.
    9900012    2    3    3    0    0  0.50748390413E+01 -0.23729101344E+01  0.36392233630E+02  0.54367090691E+02  0.40000014847E+02 0.  0.
         12    1    3    3    0    0 -0.50748390413E+01  0.23729101344E+01 -0.36392233630E+02  0.36820909309E+02  0.00000000000E+00 0. -1.
         11    1    4    4    0    0  0.32136332006E+00 -0.11215716135E+02  0.67810524490E+01  0.13110233994E+02  0.51100000000E-03 0. -1.
        -11    1    4    4    0    0  0.26940785426E+01 -0.76678424963E+01  0.21008744404E+02  0.22526011841E+02  0.51100000000E-03 0.  1.
         12    1    4    4    0    0  0.20593971786E+01  0.16510648497E+02  0.86024367765E+01  0.18730844856E+02  0.00000000000E+00 0. -1.
</event>
<event>
 8    1  0.1261983E-006  0.9118800E+02  0.7816164E-02  0.1184000E+00
        -11   -1    0    0    0    0  0.00000000000E+00  0.00000000000E+00  0.45593999997E+02  0.45594000000E+02  0.51100000000E-03 0.  1.
         11   -1    0    0    0    0 -0.00000000000E+00 -0.00000000000E+00 -0.45593999997E+02  0.45594000000E+02  0.51100000000E-03 0. -1.
         23    2    1    2    0    0  0.35527136788E-14 -0.35527136788E-14 -0.88817841970E-15  0.91188000000E+02  0.91188000000E+02 0.  0.
    9900012    2    3    3    0    0 -0.19364193303E+02 -0.31045111473E+02  0.41243351497E+01  0.54367067515E+02  0.39999962014E+02 0.  0.
        -12    1    3    3    0    0  0.19364193303E+02  0.31045111473E+02 -0.41243351497E+01  0.36820932485E+02  0.00000000000E+00 0.  1.
         11    1    4    4    0    0 -0.25672791734E+02 -0.14078045222E+02 -0.80919091397E+01  0.30377007530E+02  0.51100000000E-03 0. -1.
        -11    1    4    4    0    0  0.11455702410E+01 -0.13330449395E+02  0.47187959606E+01  0.14187327015E+02  0.51100000000E-03 0.  1.
         12    1    4    4    0    0  0.51630281902E+01 -0.36366168558E+01  0.74974483287E+01  0.98027329705E+01  0.00000000000E+00 0. -1.
</event>
<event>
 8    1  0.1261983E-006  0.9118800E+02  0.7816164E-02  0.1184000E+00
        -11   -1    0    0    0    0  0.00000000000E+00  0.00000000000E+00  0.45593999997E+02  0.45594000000E+02  0.51100000000E-03 0.  1.
         11   -1    0    0    0    0 -0.00000000000E+00 -0.00000000000E+00 -0.45593999997E+02  0.45594000000E+02  0.51100000000E-03 0. -1.
         23    2    1    2    0    0  0.88817841970E-15 -0.71054273576E-14 -0.35527136788E-14  0.91188000000E+02  0.91188000000E+02 0.  0.
    9900012    2    3    3    0    0  0.79761807534E+01 -0.31579616206E+02 -0.17172172476E+02  0.54367148208E+02  0.40000145971E+02 0.  0.
        -12    1    3    3    0    0 -0.79761807534E+01  0.31579616206E+02  0.17172172476E+02  0.36820851792E+02  0.00000000000E+00 0.  1.
         11    1    4    4    0    0  0.24582271532E+01  0.56217054005E+01 -0.68820794004E+01  0.92200579977E+01  0.51100000000E-03 0. -1.
        -11    1    4    4    0    0 -0.30998022410E+01 -0.21739401578E+02  0.40948388319E+01  0.22337816819E+02  0.51100000000E-03 0.  1.
         12    1    4    4    0    0  0.86177558412E+01 -0.15461920028E+02 -0.14384931907E+02  0.22809273392E+02  0.00000000000E+00 0. -1.
</event>
<event>
 8    1  0.1261983E-006  0.9118800E+02  0.7816164E-02  0.1184000E+00
        -11   -1    0    0    0    0  0.00000000000E+00  0.00000000000E+00  0.45593999997E+02  0.45594000000E+02  0.51100000000E-03 0. -1.
         11   -1    0    0    0    0 -0.00000000000E+00 -0.00000000000E+00 -0.45593999997E+02  0.45594000000E+02  0.51100000000E-03 0.  1.
         23    2    1    2    0    0  0.00000000000E+00  0.00000000000E+00  0.00000000000E+00  0.91188000000E+02  0.91188000000E+02 0.  0.
    9900012    2    3    3    0    0  0.27412012264E+02  0.23124850359E+02 -0.83430430578E+01  0.54367034668E+02  0.39999887133E+02 0.  0.
         12    1    3    3    0    0 -0.27412012264E+02 -0.23124850359E+02  0.83430430578E+01  0.36820965332E+02  0.00000000000E+00 0. -1.
         11    1    4    4    0    0  0.44342134082E+01 -0.41741585059E+01 -0.10409333194E+02  0.12059853464E+02  0.51100000000E-03 0. -1.
        -11    1    4    4    0    0  0.96793034017E+01  0.24181755717E+02 -0.56024055745E+01  0.26642694541E+02  0.51100000000E-03 0.  1.
        -12    1    4    4    0    0  0.13298495454E+02  0.31172531478E+01  0.76686957104E+01  0.15664486663E+02  0.00000000000E+00 0.  1.
</event>
<event>
 8    1  0.1261983E-006  0.9118800E+02  0.7816164E-02  0.1184000E+00
        -11   -1    0    0    0    0  0.00000000000E+00  0.00000000000E+00  0.45593999997E+02  0.45594000000E+02  0.51100000000E-03 0.  1.
         11   -1    0    0    0    0 -0.00000000000E+00 -0.00000000000E+00 -0.45593999997E+02  0.45594000000E+02  0.51100000000E-03 0. -1.
         23    2    1    2    0    0  0.00000000000E+00  0.00000000000E+00  0.00000000000E+00  0.91188000000E+02  0.91188000000E+02 0.  0.
    9900012    2    3    3    0    0 -0.14775317721E+02 -0.73764389926E+01 -0.32909845297E+02  0.54367084973E+02  0.40000001813E+02 0.  0.
        -12    1    3    3    0    0  0.14775317721E+02  0.73764389926E+01  0.32909845297E+02  0.36820915027E+02  0.00000000000E+00 0.  1.
         11    1    4    4    0    0 -0.39118141381E+01 -0.37417770805E+01 -0.74814306735E+01  0.92344458823E+01  0.51100000000E-03 0. -1.
        -11    1    4    4    0    0 -0.32747376309E+01 -0.12918499017E+02  0.35327123357E+01  0.13787370312E+02  0.51100000000E-03 0.  1.
         12    1    4    4    0    0 -0.75887659522E+01  0.92838371051E+01 -0.28961126959E+02  0.31345268779E+02  0.00000000000E+00 0. -1.
</event>
<event>
 8    1  0.1261983E-006  0.9118800E+02  0.7816164E-02  0.1184000E+00
        -11   -1    0    0    0    0  0.00000000000E+00  0.00000000000E+00  0.45593999997E+02  0.45594000000E+02  0.51100000000E-03 0.  1.
         11   -1    0    0    0    0 -0.00000000000E+00 -0.00000000000E+00 -0.45593999997E+02  0.45594000000E+02  0.51100000000E-03 0. -1.
         23    2    1    2    0    0  0.00000000000E+00  0.00000000000E+00  0.00000000000E+00  0.91188000000E+02  0.91188000000E+02 0.  0.
    9900012    2    3    3    0    0 -0.13558845757E+02  0.32464045360E+02 -0.10863864250E+02  0.54367080867E+02  0.39999992452E+02 0.  0.
        -12    1    3    3    0    0  0.13558845757E+02 -0.32464045360E+02  0.10863864250E+02  0.36820919133E+02  0.00000000000E+00 0.  1.
         11    1    4    4    0    0 -0.62385716223E+01  0.72882412786E+01 -0.93679057917E+01  0.13408799201E+02  0.51100000000E-03 0. -1.
        -11    1    4    4    0    0 -0.15047959636E+02  0.24082995073E+02 -0.93387622022E+01  0.29893882663E+02  0.51100000000E-03 0.  1.
        -12    1    4    4    0    0  0.77276855020E+01  0.10928090078E+01  0.78428037440E+01  0.11064399004E+02  0.00000000000E+00 0.  1.
</event>
<event>
 8    1  0.1261983E-006  0.9118800E+02  0.7816164E-02  0.1184000E+00
        -11   -1    0    0    0    0  0.00000000000E+00  0.00000000000E+00  0.45593999997E+02  0.45594000000E+02  0.51100000000E-03 0. -1.
         11   -1    0    0    0    0 -0.00000000000E+00 -0.00000000000E+00 -0.45593999997E+02  0.45594000000E+02  0.51100000000E-03 0.  1.
         23    2    1    2    0    0 -0.35527136788E-14  0.00000000000E+00  0.00000000000E+00  0.91188000000E+02  0.91188000000E+02 0.  0.
    9900012    2    3    3    0    0  0.92944754809E+01  0.11567269835E+02 -0.33698571918E+02  0.54367044619E+02  0.39999909817E+02 0.  0.
         12    1    3    3    0    0 -0.92944754809E+01 -0.11567269835E+02  0.33698571918E+02  0.36820955381E+02  0.00000000000E+00 0. -1.
         11    1    4    4    0    0 -0.59266646619E+01 -0.14236926124E-01  0.17242122409E+01  0.61723953873E+01  0.51100000000E-03 0. -1.
        -11    1    4    4    0    0 -0.48587021285E+01  0.72076066794E+01 -0.21983757853E+02  0.23639843274E+02  0.51100000000E-03 0.  1.
        -12    1    4    4    0    0  0.20079842271E+02  0.43739000816E+01 -0.13439026305E+02  0.24554805957E+02  0.00000000000E+00 0.  1.
</event>
<event>
 8    1  0.1261983E-006  0.9118800E+02  0.7816164E-02  0.1184000E+00
        -11   -1    0    0    0    0  0.00000000000E+00  0.00000000000E+00  0.45593999997E+02  0.45594000000E+02  0.51100000000E-03 0. -1.
         11   -1    0    0    0    0 -0.00000000000E+00 -0.00000000000E+00 -0.45593999997E+02  0.45594000000E+02  0.51100000000E-03 0.  1.
         23    2    1    2    0    0  0.00000000000E+00  0.44408920985E-15  0.71054273576E-14  0.91188000000E+02  0.91188000000E+02 0.  0.
    9900012    2    3    3    0    0  0.20585151329E+02 -0.22099539587E+01 -0.30449124519E+02  0.54367061179E+02  0.39999947569E+02 0.  0.
         12    1    3    3    0    0 -0.20585151329E+02  0.22099539587E+01  0.30449124519E+02  0.36820938821E+02  0.00000000000E+00 0. -1.
         11    1    4    4    0    0  0.28921558405E+01 -0.11440538564E+02 -0.20689479726E+02  0.23818166589E+02  0.51100000000E-03 0. -1.
        -11    1    4    4    0    0 -0.28951788593E+01 -0.32933676059E+01  0.38621429661E+00  0.44019873420E+01  0.51100000000E-03 0.  1.
        -12    1    4    4    0    0  0.20588174348E+02  0.12523952211E+02 -0.10145859089E+02  0.26146907248E+02  0.00000000000E+00 0.  1.
</event>
<event>
 8    1  0.1261983E-006  0.9118800E+02  0.7816164E-02  0.1184000E+00
        -11   -1    0    0    0    0  0.00000000000E+00  0.00000000000E+00  0.45593999997E+02  0.45594000000E+02  0.51100000000E-03 0.  1.
         11   -1    0    0    0    0 -0.00000000000E+00 -0.00000000000E+00 -0.45593999997E+02  0.45594000000E+02  0.51100000000E-03 0. -1.
         23    2    1    2    0    0  0.00000000000E+00 -0.13322676296E-14  0.00000000000E+00  0.91188000000E+02  0.91188000000E+02 0.  0.
    9900012    2    3    3    0    0 -0.36227895777E+02  0.72102929737E+00 -0.65421191364E+01  0.54367086942E+02  0.40000006301E+02 0.  0.
        -12    1    3    3    0    0  0.36227895777E+02 -0.72102929737E+00  0.65421191364E+01  0.36820913058E+02  0.00000000000E+00 0.  1.
         11    1    4    4    0    0 -0.16935094737E+02  0.16451150933E+02 -0.55344459868E+01  0.24250111204E+02  0.51100000000E-03 0.  1.
        -11    1    4    4    0    0 -0.67993279205E+01  0.88776710604E+00 -0.55671824168E+01  0.88324691298E+01  0.51100000000E-03 0. -1.
        -12    1    4    4    0    0 -0.12493473119E+02 -0.16617888741E+02  0.45595092673E+01  0.21284506608E+02  0.00000000000E+00 0.  1.
</event>
<event>
 8    1  0.1261983E-006  0.9118800E+02  0.7816164E-02  0.1184000E+00
        -11   -1    0    0    0    0  0.00000000000E+00  0.00000000000E+00  0.45593999997E+02  0.45594000000E+02  0.51100000000E-03 0.  1.
         11   -1    0    0    0    0 -0.00000000000E+00 -0.00000000000E+00 -0.45593999997E+02  0.45594000000E+02  0.51100000000E-03 0. -1.
         23    2    1    2    0    0 -0.17763568394E-14  0.00000000000E+00 -0.41633363423E-15  0.91188000000E+02  0.91188000000E+02 0.  0.
    9900012    2    3    3    0    0  0.84047259129E+01  0.35848223383E+02  0.21945728395E+00  0.54367045383E+02  0.39999911560E+02 0.  0.
        -12    1    3    3    0    0 -0.84047259129E+01 -0.35848223383E+02 -0.21945728395E+00  0.36820954617E+02  0.00000000000E+00 0.  1.
         11    1    4    4    0    0  0.14006267232E+02  0.88792121474E+01 -0.35986588747E+01  0.16969569120E+02  0.51100000000E-03 0. -1.
        -11    1    4    4    0    0 -0.17665217000E+01 -0.76222126305E+00 -0.70943997443E+01  0.73506522271E+01  0.51100000000E-03 0.  1.
        -12    1    4    4    0    0 -0.38350196195E+01  0.27731232498E+02  0.10912515903E+02  0.30046824037E+02  0.00000000000E+00 0.  1.
</event>
<event>
 8    1  0.1261983E-006  0.9118800E+02  0.7816164E-02  0.1184000E+00
        -11   -1    0    0    0    0  0.00000000000E+00  0.00000000000E+00  0.45593999997E+02  0.45594000000E+02  0.51100000000E-03 0.  1.
         11   -1    0    0    0    0 -0.00000000000E+00 -0.00000000000E+00 -0.45593999997E+02  0.45594000000E+02  0.51100000000E-03 0. -1.
         23    2    1    2    0    0  0.17763568394E-14 -0.35527136788E-14  0.00000000000E+00  0.91188000000E+02  0.91188000000E+02 0.  0.
    9900012    2    3    3    0    0 -0.10741324287E+02 -0.27533646837E+02 -0.21961346523E+02  0.54367102446E+02  0.40000041646E+02 0.  0.
        -12    1    3    3    0    0  0.10741324287E+02  0.27533646837E+02  0.21961346523E+02  0.36820897554E+02  0.00000000000E+00 0.  1.
         11    1    4    4    0    0 -0.98010859176E+01 -0.33077734541E+01 -0.11351452044E+02  0.15357672810E+02  0.51100000000E-03 0. -1.
        -11    1    4    4    0    0 -0.45957391154E+01 -0.14755564031E+01  0.80318979158E+01  0.93706706861E+01  0.51100000000E-03 0.  1.
         12    1    4    4    0    0  0.36555007457E+01 -0.22750316980E+02 -0.18641792395E+02  0.29638758950E+02  0.00000000000E+00 0. -1.
</event>
<event>
 8    1  0.1261983E-006  0.9118800E+02  0.7816164E-02  0.1184000E+00
        -11   -1    0    0    0    0  0.00000000000E+00  0.00000000000E+00  0.45593999997E+02  0.45594000000E+02  0.51100000000E-03 0.  1.
         11   -1    0    0    0    0 -0.00000000000E+00 -0.00000000000E+00 -0.45593999997E+02  0.45594000000E+02  0.51100000000E-03 0. -1.
         23    2    1    2    0    0  0.35527136788E-14  0.00000000000E+00  0.00000000000E+00  0.91188000000E+02  0.91188000000E+02 0.  0.
    9900012    2    3    3    0    0 -0.28046336319E+02  0.11489368160E+02 -0.20908775168E+02  0.54367089628E+02  0.40000012424E+02 0.  0.
        -12    1    3    3    0    0  0.28046336319E+02 -0.11489368160E+02  0.20908775168E+02  0.36820910372E+02  0.00000000000E+00 0.  1.
         11    1    4    4    0    0 -0.85393554283E+01  0.95213664268E+01 -0.73027187781E+01  0.14727753107E+02  0.51100000000E-03 0. -1.
        -11    1    4    4    0    0  0.62631881515E+01  0.85831907340E+01 -0.38753239132E+01  0.11310032038E+02  0.51100000000E-03 0.  1.
        -12    1    4    4    0    0 -0.25770169042E+02 -0.66151890012E+01 -0.97307324770E+01  0.28329304483E+02  0.00000000000E+00 0.  1.
</event>
<event>
 8    1  0.1261983E-006  0.9118800E+02  0.7816164E-02  0.1184000E+00
        -11   -1    0    0    0    0  0.00000000000E+00  0.00000000000E+00  0.45593999997E+02  0.45594000000E+02  0.51100000000E-03 0.  1.
         11   -1    0    0    0    0 -0.00000000000E+00 -0.00000000000E+00 -0.45593999997E+02  0.45594000000E+02  0.51100000000E-03 0. -1.
         23    2    1    2    0    0  0.00000000000E+00  0.00000000000E+00  0.00000000000E+00  0.91188000000E+02  0.91188000000E+02 0.  0.
    9900012    2    3    3    0    0 -0.47460227959E+01 -0.24130081747E+02  0.27404346126E+02  0.54367030919E+02  0.39999878585E+02 0.  0.
         12    1    3    3    0    0  0.47460227959E+01  0.24130081747E+02 -0.27404346126E+02  0.36820969081E+02  0.00000000000E+00 0. -1.
         11    1    4    4    0    0 -0.55809667778E+01  0.37581799550E+01  0.11298830800E+02  0.13150463280E+02  0.51100000000E-03 0.  1.
        -11    1    4    4    0    0 -0.32355361291E+00 -0.23063081726E+02 -0.13152580632E+01  0.23102820817E+02  0.51100000000E-03 0. -1.
        -12    1    4    4    0    0  0.11584975948E+01 -0.48251799752E+01  0.17420773389E+02  0.18113746822E+02  0.00000000000E+00 0.  1.
</event>
<event>
 8    1  0.1261983E-006  0.9118800E+02  0.7816164E-02  0.1184000E+00
        -11   -1    0    0    0    0  0.00000000000E+00  0.00000000000E+00  0.45593999997E+02  0.45594000000E+02  0.51100000000E-03 0. -1.
         11   -1    0    0    0    0 -0.00000000000E+00 -0.00000000000E+00 -0.45593999997E+02  0.45594000000E+02  0.51100000000E-03 0.  1.
         23    2    1    2    0    0 -0.55511151231E-15  0.00000000000E+00  0.00000000000E+00  0.91188000000E+02  0.91188000000E+02 0.  0.
    9900012    2    3    3    0    0 -0.87653559494E+00  0.30290907061E+02  0.20916229804E+02  0.54366864298E+02  0.39999498736E+02 0.  0.
        -12    1    3    3    0    0  0.87653559494E+00 -0.30290907061E+02 -0.20916229804E+02  0.36821135702E+02  0.00000000000E+00 0.  1.
         11    1    4    4    0    0  0.98939415415E-01  0.30880822746E+02  0.20474875655E+02  0.37052065203E+02  0.51100000000E-03 0. -1.
        -11    1    4    4    0    0  0.71555012003E+01 -0.40985060394E+01  0.15481886805E+01  0.83902227405E+01  0.51100000000E-03 0.  1.
         12    1    4    4    0    0 -0.81309762107E+01  0.35085903542E+01 -0.11068345317E+01  0.89245763537E+01  0.00000000000E+00 0. -1.
</event>
<event>
 8    1  0.1261983E-006  0.9118800E+02  0.7816164E-02  0.1184000E+00
        -11   -1    0    0    0    0  0.00000000000E+00  0.00000000000E+00  0.45593999997E+02  0.45594000000E+02  0.51100000000E-03 0. -1.
         11   -1    0    0    0    0 -0.00000000000E+00 -0.00000000000E+00 -0.45593999997E+02  0.45594000000E+02  0.51100000000E-03 0.  1.
         23    2    1    2    0    0  0.00000000000E+00 -0.44408920985E-15 -0.88817841970E-15  0.91188000000E+02  0.91188000000E+02 0.  0.
    9900012    2    3    3    0    0 -0.36597895109E+02 -0.34212786434E+01 -0.21605196541E+01  0.54367096710E+02  0.40000028569E+02 0.  0.
        -12    1    3    3    0    0  0.36597895109E+02  0.34212786434E+01  0.21605196541E+01  0.36820903290E+02  0.00000000000E+00 0.  1.
         11    1    4    4    0    0 -0.78687564110E+01 -0.80973179572E+01 -0.53347611573E+01  0.12487736481E+02  0.51100000000E-03 0. -1.
        -11    1    4    4    0    0 -0.80896796383E+01  0.71505322643E+01 -0.12000431206E+02  0.16142595136E+02  0.51100000000E-03 0.  1.
        -12    1    4    4    0    0 -0.20639459059E+02 -0.24744929506E+01  0.15174672709E+02  0.25736765093E+02  0.00000000000E+00 0.  1.
</event>
<event>
 8    1  0.1261983E-006  0.9118800E+02  0.7816164E-02  0.1184000E+00
        -11   -1    0    0    0    0  0.00000000000E+00  0.00000000000E+00  0.45593999997E+02  0.45594000000E+02  0.51100000000E-03 0.  1.
         11   -1    0    0    0    0 -0.00000000000E+00 -0.00000000000E+00 -0.45593999997E+02  0.45594000000E+02  0.51100000000E-03 0. -1.
         23    2    1    2    0    0  0.00000000000E+00  0.00000000000E+00 -0.71054273576E-14  0.91188000000E+02  0.91188000000E+02 0.  0.
    9900012    2    3    3    0    0 -0.11289349754E+02  0.13417699225E+02 -0.32377399572E+02  0.54367081035E+02  0.39999992836E+02 0.  0.
        -12    1    3    3    0    0  0.11289349754E+02 -0.13417699225E+02  0.32377399572E+02  0.36820918965E+02  0.00000000000E+00 0.  1.
         11    1    4    4    0    0 -0.15244222480E+01 -0.17405056229E+01  0.33244467633E+01  0.40503295615E+01  0.51100000000E-03 0. -1.
        -11    1    4    4    0    0 -0.14953338325E+00 -0.80065584961E+01 -0.19073745802E+01  0.82319752936E+01  0.51100000000E-03 0.  1.
         12    1    4    4    0    0 -0.96153941226E+01  0.23164763344E+02 -0.33794471755E+02  0.42084776180E+02  0.00000000000E+00 0. -1.
</event>
<event>
 8    1  0.1261983E-006  0.9118800E+02  0.7816164E-02  0.1184000E+00
        -11   -1    0    0    0    0  0.00000000000E+00  0.00000000000E+00  0.45593999997E+02  0.45594000000E+02  0.51100000000E-03 0.  1.
         11   -1    0    0    0    0 -0.00000000000E+00 -0.00000000000E+00 -0.45593999997E+02  0.45594000000E+02  0.51100000000E-03 0. -1.
         23    2    1    2    0    0  0.35527136788E-14  0.13877787808E-14  0.00000000000E+00  0.91188000000E+02  0.91188000000E+02 0.  0.
    9900012    2    3    3    0    0 -0.29788101689E+02 -0.28449992723E+00 -0.21641821547E+02  0.54367076841E+02  0.39999983274E+02 0.  0.
        -12    1    3    3    0    0  0.29788101689E+02  0.28449992723E+00  0.21641821547E+02  0.36820923159E+02  0.00000000000E+00 0.  1.
         11    1    4    4    0    0 -0.11437207269E+02 -0.16682962698E+02 -0.39927416003E+01  0.20617297113E+02  0.51100000000E-03 0. -1.
        -11    1    4    4    0    0 -0.18772049781E+02  0.13048701881E+02 -0.91861154856E+01  0.24638246524E+02  0.51100000000E-03 0.  1.
         12    1    4    4    0    0  0.42115536146E+00  0.33497608897E+01 -0.84629644612E+01  0.91115332041E+01  0.00000000000E+00 0. -1.
</event>
<event>
 8    1  0.1261983E-006  0.9118800E+02  0.7816164E-02  0.1184000E+00
        -11   -1    0    0    0    0  0.00000000000E+00  0.00000000000E+00  0.45593999997E+02  0.45594000000E+02  0.51100000000E-03 0.  1.
         11   -1    0    0    0    0 -0.00000000000E+00 -0.00000000000E+00 -0.45593999997E+02  0.45594000000E+02  0.51100000000E-03 0. -1.
         23    2    1    2    0    0  0.71054273576E-14  0.53290705182E-14  0.00000000000E+00  0.91188000000E+02  0.91188000000E+02 0.  0.
    9900012    2    3    3    0    0  0.33639198580E+02  0.10514071527E+02  0.10660082650E+02  0.54367099097E+02  0.40000034012E+02 0.  0.
        -12    1    3    3    0    0 -0.33639198580E+02 -0.10514071527E+02 -0.10660082650E+02  0.36820900903E+02  0.00000000000E+00 0.  1.
         11    1    4    4    0    0  0.17867134372E+01  0.82354332409E+01 -0.13691770268E+01  0.85375260799E+01  0.51100000000E-03 0. -1.
        -11    1    4    4    0    0  0.77043769370E+01 -0.13328195328E+02  0.54767245931E+01  0.16339912094E+02  0.51100000000E-03 0.  1.
        -12    1    4    4    0    0  0.24148108206E+02  0.15606833615E+02  0.65525350835E+01  0.29489660924E+02  0.00000000000E+00 0.  1.
</event>
<event>
 8    1  0.1261983E-006  0.9118800E+02  0.7816164E-02  0.1184000E+00
        -11   -1    0    0    0    0  0.00000000000E+00  0.00000000000E+00  0.45593999997E+02  0.45594000000E+02  0.51100000000E-03 0. -1.
         11   -1    0    0    0    0 -0.00000000000E+00 -0.00000000000E+00 -0.45593999997E+02  0.45594000000E+02  0.51100000000E-03 0.  1.
         23    2    1    2    0    0  0.00000000000E+00  0.00000000000E+00  0.71054273576E-14  0.91188000000E+02  0.91188000000E+02 0.  0.
    9900012    2    3    3    0    0 -0.28803566935E+02 -0.37351089138E+01  0.22631494779E+02  0.54367067602E+02  0.39999962211E+02 0.  0.
        -12    1    3    3    0    0  0.28803566935E+02  0.37351089138E+01 -0.22631494779E+02  0.36820932398E+02  0.00000000000E+00 0.  1.
         11    1    4    4    0    0 -0.10941525784E+02 -0.11283033302E+02  0.40376132227E+01  0.16227327192E+02  0.51100000000E-03 0. -1.
        -11    1    4    4    0    0  0.18848078029E+00 -0.83762674075E+01  0.88062786918E+01  0.12155160441E+02  0.51100000000E-03 0.  1.
         12    1    4    4    0    0 -0.18050521931E+02  0.15924191796E+02  0.97876028646E+01  0.25984579969E+02  0.00000000000E+00 0. -1.
</event>
<event>
 8    1  0.1261983E-006  0.9118800E+02  0.7816164E-02  0.1184000E+00
        -11   -1    0    0    0    0  0.00000000000E+00  0.00000000000E+00  0.45593999997E+02  0.45594000000E+02  0.51100000000E-03 0.  1.
         11   -1    0    0    0    0 -0.00000000000E+00 -0.00000000000E+00 -0.45593999997E+02  0.45594000000E+02  0.51100000000E-03 0. -1.
         23    2    1    2    0    0  0.00000000000E+00 -0.27755575616E-16  0.00000000000E+00  0.91188000000E+02  0.91188000000E+02 0.  0.
    9900012    2    3    3    0    0 -0.48630351066E+01 -0.63846483203E-01  0.36498300882E+02  0.54367093519E+02  0.40000021295E+02 0.  0.
         12    1    3    3    0    0  0.48630351066E+01  0.63846483203E-01 -0.36498300882E+02  0.36820906481E+02  0.00000000000E+00 0. -1.
         11    1    4    4    0    0 -0.12870793623E+02  0.10436135027E+02  0.68822588016E+01  0.17942567522E+02  0.51100000000E-03 0. -1.
        -11    1    4    4    0    0  0.13029096047E+02 -0.65557598537E+01  0.22959540663E+02  0.27200658793E+02  0.51100000000E-03 0.  1.
        -12    1    4    4    0    0 -0.50213375305E+01 -0.39442216568E+01  0.66565014175E+01  0.92238672038E+01  0.00000000000E+00 0.  1.
</event>
<event>
 8    1  0.1261983E-006  0.9118800E+02  0.7816164E-02  0.1184000E+00
        -11   -1    0    0    0    0  0.00000000000E+00  0.00000000000E+00  0.45593999997E+02  0.45594000000E+02  0.51100000000E-03 0. -1.
         11   -1    0    0    0    0 -0.00000000000E+00 -0.00000000000E+00 -0.45593999997E+02  0.45594000000E+02  0.51100000000E-03 0.  1.
         23    2    1    2    0    0  0.17763568394E-14  0.00000000000E+00  0.00000000000E+00  0.91188000000E+02  0.91188000000E+02 0.  0.
    9900012    2    3    3    0    0 -0.14517495659E+02 -0.60829358299E+01 -0.33286886893E+02  0.54367127828E+02  0.40000099509E+02 0.  0.
         12    1    3    3    0    0  0.14517495659E+02  0.60829358299E+01  0.33286886893E+02  0.36820872172E+02  0.00000000000E+00 0. -1.
         11    1    4    4    0    0  0.10786717617E+01  0.12218050935E+01  0.25927086689E+01  0.30624302374E+01  0.51100000000E-03 0. -1.
        -11    1    4    4    0    0 -0.17177491487E+02 -0.20532545461E+01 -0.40559580193E+02  0.44094915962E+02  0.51100000000E-03 0.  1.
        -12    1    4    4    0    0  0.15813240672E+01 -0.52514863773E+01  0.46799846311E+01  0.72097816280E+01  0.00000000000E+00 0.  1.
</event>
<event>
 8    1  0.1261983E-006  0.9118800E+02  0.7816164E-02  0.1184000E+00
        -11   -1    0    0    0    0  0.00000000000E+00  0.00000000000E+00  0.45593999997E+02  0.45594000000E+02  0.51100000000E-03 0. -1.
         11   -1    0    0    0    0 -0.00000000000E+00 -0.00000000000E+00 -0.45593999997E+02  0.45594000000E+02  0.51100000000E-03 0.  1.
         23    2    1    2    0    0  0.00000000000E+00  0.53290705182E-14  0.00000000000E+00  0.91188000000E+02  0.91188000000E+02 0.  0.
    9900012    2    3    3    0    0  0.24871307488E+02 -0.14556720877E+02 -0.22919402320E+02  0.54367094776E+02  0.40000024160E+02 0.  0.
         12    1    3    3    0    0 -0.24871307488E+02  0.14556720877E+02  0.22919402320E+02  0.36820905224E+02  0.00000000000E+00 0. -1.
         11    1    4    4    0    0  0.38444640266E+01 -0.12518860243E+02 -0.22625548330E+01  0.13289880363E+02  0.51100000000E-03 0. -1.
        -11    1    4    4    0    0  0.18714174030E+02  0.81414256274E+01 -0.22608867655E+02  0.30457577346E+02  0.51100000000E-03 0.  1.
        -12    1    4    4    0    0  0.23126694314E+01 -0.10179286261E+02  0.19520201683E+01  0.10619637066E+02  0.00000000000E+00 0.  1.
</event>
<event>
 8    1  0.1261983E-006  0.9118800E+02  0.7816164E-02  0.1184000E+00
        -11   -1    0    0    0    0  0.00000000000E+00  0.00000000000E+00  0.45593999997E+02  0.45594000000E+02  0.51100000000E-03 0.  1.
         11   -1    0    0    0    0 -0.00000000000E+00 -0.00000000000E+00 -0.45593999997E+02  0.45594000000E+02  0.51100000000E-03 0. -1.
         23    2    1    2    0    0  0.11102230246E-15  0.00000000000E+00 -0.88817841970E-15  0.91188000000E+02  0.91188000000E+02 0.  0.
    9900012    2    3    3    0    0  0.90814759063E+00  0.36182286288E+02  0.67673186843E+01  0.54367093232E+02  0.40000020640E+02 0.  0.
        -12    1    3    3    0    0 -0.90814759063E+00 -0.36182286288E+02 -0.67673186843E+01  0.36820906768E+02  0.00000000000E+00 0.  1.
         11    1    4    4    0    0  0.12772249195E+02  0.10272989560E+02  0.36995381455E+01  0.16803310589E+02  0.51100000000E-03 0. -1.
        -11    1    4    4    0    0 -0.81055445364E+00  0.97943097001E+01  0.12470589477E+02  0.15877691998E+02  0.51100000000E-03 0.  1.
         12    1    4    4    0    0 -0.11053547151E+02  0.16114987028E+02 -0.94028089379E+01  0.21686090645E+02  0.00000000000E+00 0. -1.
</event>
<event>
 8    1  0.1261983E-006  0.9118800E+02  0.7816164E-02  0.1184000E+00
        -11   -1    0    0    0    0  0.00000000000E+00  0.00000000000E+00  0.45593999997E+02  0.45594000000E+02  0.51100000000E-03 0.  1.
         11   -1    0    0    0    0 -0.00000000000E+00 -0.00000000000E+00 -0.45593999997E+02  0.45594000000E+02  0.51100000000E-03 0. -1.
         23    2    1    2    0    0  0.00000000000E+00  0.00000000000E+00  0.00000000000E+00  0.91188000000E+02  0.91188000000E+02 0.  0.
    9900012    2    3    3    0    0  0.27360920237E+02 -0.18688495226E+02  0.16059188968E+02  0.54367117877E+02  0.40000076824E+02 0.  0.
         12    1    3    3    0    0 -0.27360920237E+02  0.18688495226E+02 -0.16059188968E+02  0.36820882123E+02  0.00000000000E+00 0. -1.
         11    1    4    4    0    0  0.19103963964E+02 -0.32280516781E+01 -0.16876102404E+00  0.19375506117E+02  0.51100000000E-03 0. -1.
        -11    1    4    4    0    0  0.17074314278E+02 -0.13900630169E+02  0.10837102628E+02  0.24539815011E+02  0.51100000000E-03 0.  1.
        -12    1    4    4    0    0 -0.88173580050E+01 -0.15598133793E+01  0.53908473638E+01  0.10451796748E+02  0.00000000000E+00 0.  1.
</event>
<event>
 8    1  0.1261983E-006  0.9118800E+02  0.7816164E-02  0.1184000E+00
        -11   -1    0    0    0    0  0.00000000000E+00  0.00000000000E+00  0.45593999997E+02  0.45594000000E+02  0.51100000000E-03 0.  1.
         11   -1    0    0    0    0 -0.00000000000E+00 -0.00000000000E+00 -0.45593999997E+02  0.45594000000E+02  0.51100000000E-03 0. -1.
         23    2    1    2    0    0 -0.35527136788E-14  0.00000000000E+00 -0.35527136788E-14  0.91188000000E+02  0.91188000000E+02 0.  0.
    9900012    2    3    3    0    0  0.15440309876E+02  0.11546941942E+02  0.31369484233E+02  0.54367087758E+02  0.40000008162E+02 0.  0.
         12    1    3    3    0    0 -0.15440309876E+02 -0.11546941942E+02 -0.31369484233E+02  0.36820912242E+02  0.00000000000E+00 0. -1.
         11    1    4    4    0    0  0.51315412449E+01  0.29243983292E+01 -0.99049011393E+00  0.59888139112E+01  0.51100000000E-03 0. -1.
        -11    1    4    4    0    0 -0.24762409956E+00 -0.10191405775E+02  0.22412626651E+02  0.24622183149E+02  0.51100000000E-03 0.  1.
        -12    1    4    4    0    0  0.10556392731E+02  0.18813949388E+02  0.99473476955E+01  0.23756090698E+02  0.00000000000E+00 0.  1.
</event>
<event>
 8    1  0.1261983E-006  0.9118800E+02  0.7816164E-02  0.1184000E+00
        -11   -1    0    0    0    0  0.00000000000E+00  0.00000000000E+00  0.45593999997E+02  0.45594000000E+02  0.51100000000E-03 0.  1.
         11   -1    0    0    0    0 -0.00000000000E+00 -0.00000000000E+00 -0.45593999997E+02  0.45594000000E+02  0.51100000000E-03 0. -1.
         23    2    1    2    0    0 -0.44408920985E-15  0.00000000000E+00  0.00000000000E+00  0.91188000000E+02  0.91188000000E+02 0.  0.
    9900012    2    3    3    0    0  0.82047154371E+00 -0.30859988465E+02  0.20069081739E+02  0.54367080627E+02  0.39999991906E+02 0.  0.
         12    1    3    3    0    0 -0.82047154371E+00  0.30859988465E+02 -0.20069081739E+02  0.36820919373E+02  0.00000000000E+00 0. -1.
         11    1    4    4    0    0 -0.54407676162E+01  0.46700704107E+01 -0.41574240696E+01  0.82882860140E+01  0.51100000000E-03 0. -1.
        -11    1    4    4    0    0  0.11054693964E+02 -0.24670815705E+02  0.14178168723E+02  0.30526642049E+02  0.51100000000E-03 0.  1.
        -12    1    4    4    0    0 -0.47934548039E+01 -0.10859243170E+02  0.10048337086E+02  0.15552152565E+02  0.00000000000E+00 0.  1.
</event>
<event>
 8    1  0.1261983E-006  0.9118800E+02  0.7816164E-02  0.1184000E+00
        -11   -1    0    0    0    0  0.00000000000E+00  0.00000000000E+00  0.45593999997E+02  0.45594000000E+02  0.51100000000E-03 0. -1.
         11   -1    0    0    0    0 -0.00000000000E+00 -0.00000000000E+00 -0.45593999997E+02  0.45594000000E+02  0.51100000000E-03 0.  1.
         23    2    1    2    0    0  0.35527136788E-14  0.35527136788E-14 -0.14710455076E-14  0.91188000000E+02  0.91188000000E+02 0.  0.
    9900012    2    3    3    0    0 -0.29185961601E+02 -0.22448108194E+02  0.20481211617E+00  0.54367083878E+02  0.39999999316E+02 0.  0.
        -12    1    3    3    0    0  0.29185961601E+02  0.22448108194E+02 -0.20481211617E+00  0.36820916122E+02  0.00000000000E+00 0.  1.
         11    1    4    4    0    0 -0.19274638480E+02 -0.71931603359E+01  0.76797280281E+01  0.21959769284E+02  0.51100000000E-03 0. -1.
        -11    1    4    4    0    0 -0.69022882789E+01 -0.27818529065E+01  0.89018516455E+01  0.11602726061E+02  0.51100000000E-03 0.  1.
        -12    1    4    4    0    0 -0.30090348419E+01 -0.12473094952E+02 -0.16376767557E+02  0.20804588532E+02  0.00000000000E+00 0.  1.
</event>
<event>
 8    1  0.1261983E-006  0.9118800E+02  0.7816164E-02  0.1184000E+00
        -11   -1    0    0    0    0  0.00000000000E+00  0.00000000000E+00  0.45593999997E+02  0.45594000000E+02  0.51100000000E-03 0. -1.
         11   -1    0    0    0    0 -0.00000000000E+00 -0.00000000000E+00 -0.45593999997E+02  0.45594000000E+02  0.51100000000E-03 0.  1.
         23    2    1    2    0    0 -0.35527136788E-14  0.00000000000E+00  0.00000000000E+00  0.91188000000E+02  0.91188000000E+02 0.  0.
    9900012    2    3    3    0    0 -0.18009815580E+02  0.75170696389E+01 -0.31223711717E+02  0.54367082486E+02  0.39999996144E+02 0.  0.
         12    1    3    3    0    0  0.18009815580E+02 -0.75170696389E+01  0.31223711717E+02  0.36820917514E+02  0.00000000000E+00 0. -1.
         11    1    4    4    0    0 -0.21202250101E+02  0.39242005844E+01 -0.98927871366E+01  0.23723448256E+02  0.51100000000E-03 0. -1.
        -11    1    4    4    0    0 -0.79558307312E+01  0.54111648766E+01 -0.14628873783E+02  0.17509423073E+02  0.51100000000E-03 0.  1.
         12    1    4    4    0    0  0.11148265252E+02 -0.18182958221E+01 -0.67020507973E+01  0.13134211157E+02  0.00000000000E+00 0. -1.
</event>
<event>
 8    1  0.1261983E-006  0.9118800E+02  0.7816164E-02  0.1184000E+00
        -11   -1    0    0    0    0  0.00000000000E+00  0.00000000000E+00  0.45593999997E+02  0.45594000000E+02  0.51100000000E-03 0.  1.
         11   -1    0    0    0    0 -0.00000000000E+00 -0.00000000000E+00 -0.45593999997E+02  0.45594000000E+02  0.51100000000E-03 0. -1.
         23    2    1    2    0    0  0.00000000000E+00  0.00000000000E+00 -0.17763568394E-14  0.91188000000E+02  0.91188000000E+02 0.  0.
    9900012    2    3    3    0    0 -0.33220644448E+02 -0.14764605412E+02 -0.58459984091E+01  0.54367075407E+02  0.39999980004E+02 0.  0.
        -12    1    3    3    0    0  0.33220644448E+02  0.14764605412E+02  0.58459984091E+01  0.36820924593E+02  0.00000000000E+00 0.  1.
         11    1    4    4    0    0 -0.39764012249E+01 -0.47990961316E+01 -0.75208483813E-01  0.62328762990E+01  0.51100000000E-03 0. -1.
        -11    1    4    4    0    0 -0.25674187517E+02  0.30694050487E+01 -0.16676111872E+02  0.30768130581E+02  0.51100000000E-03 0.  1.
        -12    1    4    4    0    0 -0.35700557058E+01 -0.13034914329E+02  0.10905321947E+02  0.17366068527E+02  0.00000000000E+00 0.  1.
</event>
<event>
 8    1  0.1261983E-006  0.9118800E+02  0.7816164E-02  0.1184000E+00
        -11   -1    0    0    0    0  0.00000000000E+00  0.00000000000E+00  0.45593999997E+02  0.45594000000E+02  0.51100000000E-03 0. -1.
         11   -1    0    0    0    0 -0.00000000000E+00 -0.00000000000E+00 -0.45593999997E+02  0.45594000000E+02  0.51100000000E-03 0.  1.
         23    2    1    2    0    0  0.00000000000E+00  0.00000000000E+00  0.00000000000E+00  0.91188000000E+02  0.91188000000E+02 0.  0.
    9900012    2    3    3    0    0 -0.27727497415E+02 -0.10640879065E+02  0.21765491354E+02  0.54367095149E+02  0.40000025011E+02 0.  0.
        -12    1    3    3    0    0  0.27727497415E+02  0.10640879065E+02 -0.21765491354E+02  0.36820904851E+02  0.00000000000E+00 0.  1.
         11    1    4    4    0    0 -0.77497862998E+01  0.12502457002E+01 -0.13263034637E+01  0.79612425628E+01  0.51100000000E-03 0. -1.
        -11    1    4    4    0    0  0.39979205795E+01  0.31300359603E+01  0.16625852370E+02  0.17383885106E+02  0.51100000000E-03 0.  1.
         12    1    4    4    0    0 -0.23975631694E+02 -0.15021160726E+02  0.64659424478E+01  0.29021967480E+02  0.00000000000E+00 0. -1.
</event>
<event>
 8    1  0.1261983E-006  0.9118800E+02  0.7816164E-02  0.1184000E+00
        -11   -1    0    0    0    0  0.00000000000E+00  0.00000000000E+00  0.45593999997E+02  0.45594000000E+02  0.51100000000E-03 0.  1.
         11   -1    0    0    0    0 -0.00000000000E+00 -0.00000000000E+00 -0.45593999997E+02  0.45594000000E+02  0.51100000000E-03 0. -1.
         23    2    1    2    0    0  0.00000000000E+00  0.00000000000E+00 -0.35527136788E-14  0.91188000000E+02  0.91188000000E+02 0.  0.
    9900012    2    3    3    0    0  0.20532333879E+02  0.21041573656E+02  0.22168737671E+02  0.54367116165E+02  0.40000072922E+02 0.  0.
         12    1    3    3    0    0 -0.20532333879E+02 -0.21041573656E+02 -0.22168737671E+02  0.36820883835E+02  0.00000000000E+00 0. -1.
         11    1    4    4    0    0  0.13641593202E+02 -0.17350855850E+01  0.14099507677E+02  0.19695169562E+02  0.51100000000E-03 0. -1.
        -11    1    4    4    0    0 -0.30162744972E+01  0.18701549268E+02 -0.31008190385E+01  0.19195336304E+02  0.51100000000E-03 0.  1.
        -12    1    4    4    0    0  0.99070151744E+01  0.40751099731E+01  0.11170049033E+02  0.15476610299E+02  0.00000000000E+00 0.  1.
</event>
<event>
 8    1  0.1261983E-006  0.9118800E+02  0.7816164E-02  0.1184000E+00
        -11   -1    0    0    0    0  0.00000000000E+00  0.00000000000E+00  0.45593999997E+02  0.45594000000E+02  0.51100000000E-03 0.  1.
         11   -1    0    0    0    0 -0.00000000000E+00 -0.00000000000E+00 -0.45593999997E+02  0.45594000000E+02  0.51100000000E-03 0. -1.
         23    2    1    2    0    0 -0.35527136788E-14  0.35527136788E-14  0.00000000000E+00  0.91188000000E+02  0.91188000000E+02 0.  0.
    9900012    2    3    3    0    0 -0.26952526984E+02  0.23216658433E+02  0.95041239880E+01  0.54367077790E+02  0.39999985438E+02 0.  0.
         12    1    3    3    0    0  0.26952526984E+02 -0.23216658433E+02 -0.95041239880E+01  0.36820922210E+02  0.00000000000E+00 0. -1.
         11    1    4    4    0    0 -0.19978561842E+02  0.63396588981E+01 -0.98907375057E+01  0.23176731799E+02  0.51100000000E-03 0. -1.
        -11    1    4    4    0    0 -0.11564278612E+02  0.74895471434E+01  0.90368906531E+01  0.16476991509E+02  0.51100000000E-03 0.  1.
         12    1    4    4    0    0  0.45903134712E+01  0.93874523920E+01  0.10357970841E+02  0.14713354482E+02  0.00000000000E+00 0. -1.
</event>
<event>
 8    1  0.1261983E-006  0.9118800E+02  0.7816164E-02  0.1184000E+00
        -11   -1    0    0    0    0  0.00000000000E+00  0.00000000000E+00  0.45593999997E+02  0.45594000000E+02  0.51100000000E-03 0.  1.
         11   -1    0    0    0    0 -0.00000000000E+00 -0.00000000000E+00 -0.45593999997E+02  0.45594000000E+02  0.51100000000E-03 0. -1.
         23    2    1    2    0    0  0.17763568394E-14  0.00000000000E+00  0.00000000000E+00  0.91188000000E+02  0.91188000000E+02 0.  0.
    9900012    2    3    3    0    0  0.47260540906E+01  0.89996883985E+01 -0.35389970197E+02  0.54367082452E+02  0.39999996066E+02 0.  0.
        -12    1    3    3    0    0 -0.47260540906E+01 -0.89996883985E+01  0.35389970197E+02  0.36820917548E+02  0.00000000000E+00 0.  1.
         11    1    4    4    0    0  0.12065591153E+02  0.42289881396E+01  0.14825198019E+01  0.12870924433E+02  0.51100000000E-03 0. -1.
        -11    1    4    4    0    0  0.10136587282E+01 -0.43253062367E+00  0.15115218868E+01  0.18706377076E+01  0.51100000000E-03 0.  1.
         12    1    4    4    0    0 -0.83531957901E+01  0.52032308826E+01 -0.38384011885E+02  0.39625520311E+02  0.00000000000E+00 0. -1.
</event>
<event>
 8    1  0.1261983E-006  0.9118800E+02  0.7816164E-02  0.1184000E+00
        -11   -1    0    0    0    0  0.00000000000E+00  0.00000000000E+00  0.45593999997E+02  0.45594000000E+02  0.51100000000E-03 0. -1.
         11   -1    0    0    0    0 -0.00000000000E+00 -0.00000000000E+00 -0.45593999997E+02  0.45594000000E+02  0.51100000000E-03 0.  1.
         23    2    1    2    0    0  0.00000000000E+00  0.00000000000E+00  0.00000000000E+00  0.91188000000E+02  0.91188000000E+02 0.  0.
    9900012    2    3    3    0    0 -0.81743222832E+01 -0.17553516501E+02  0.31318256102E+02  0.54367100342E+02  0.40000036850E+02 0.  0.
        -12    1    3    3    0    0  0.81743222832E+01  0.17553516501E+02 -0.31318256102E+02  0.36820899658E+02  0.00000000000E+00 0.  1.
         11    1    4    4    0    0  0.28453545404E+01 -0.16089963936E+02  0.96701702611E+01  0.18986710486E+02  0.51100000000E-03 0. -1.
        -11    1    4    4    0    0  0.12254053734E+01 -0.10966822063E+02  0.36392957945E+01  0.11619693569E+02  0.51100000000E-03 0.  1.
        -12    1    4    4    0    0 -0.12245082197E+02  0.95032694978E+01  0.18008790046E+02  0.23760696288E+02  0.00000000000E+00 0.  1.
</event>
<event>
 8    1  0.1261983E-006  0.9118800E+02  0.7816164E-02  0.1184000E+00
        -11   -1    0    0    0    0  0.00000000000E+00  0.00000000000E+00  0.45593999997E+02  0.45594000000E+02  0.51100000000E-03 0. -1.
         11   -1    0    0    0    0 -0.00000000000E+00 -0.00000000000E+00 -0.45593999997E+02  0.45594000000E+02  0.51100000000E-03 0.  1.
         23    2    1    2    0    0  0.00000000000E+00  0.35527136788E-14  0.00000000000E+00  0.91188000000E+02  0.91188000000E+02 0.  0.
    9900012    2    3    3    0    0 -0.19943174950E+02 -0.23825709903E+02 -0.19758153372E+02  0.54367091481E+02  0.40000016650E+02 0.  0.
         12    1    3    3    0    0  0.19943174950E+02  0.23825709903E+02  0.19758153372E+02  0.36820908519E+02  0.00000000000E+00 0. -1.
         11    1    4    4    0    0 -0.11296265769E+02 -0.20350056391E+02 -0.14688682382E+02  0.27522496359E+02  0.51100000000E-03 0.  1.
        -11    1    4    4    0    0 -0.62942334054E+01  0.89393402694E+01 -0.83881995786E+01  0.13780096917E+02  0.51100000000E-03 0. -1.
        -12    1    4    4    0    0 -0.23526757761E+01 -0.12414993782E+02  0.33187285895E+01  0.13064498205E+02  0.00000000000E+00 0.  1.
</event>
<event>
 8    1  0.1261983E-006  0.9118800E+02  0.7816164E-02  0.1184000E+00
        -11   -1    0    0    0    0  0.00000000000E+00  0.00000000000E+00  0.45593999997E+02  0.45594000000E+02  0.51100000000E-03 0.  1.
         11   -1    0    0    0    0 -0.00000000000E+00 -0.00000000000E+00 -0.45593999997E+02  0.45594000000E+02  0.51100000000E-03 0. -1.
         23    2    1    2    0    0  0.00000000000E+00  0.00000000000E+00  0.00000000000E+00  0.91188000000E+02  0.91188000000E+02 0.  0.
    9900012    2    3    3    0    0 -0.73974104346E+00  0.16175453153E+02  0.33069374526E+02  0.54367135900E+02  0.40000117911E+02 0.  0.
         12    1    3    3    0    0  0.73974104346E+00 -0.16175453153E+02 -0.33069374526E+02  0.36820864100E+02  0.00000000000E+00 0. -1.
         11    1    4    4    0    0 -0.21320880629E+01  0.20011865734E+02  0.37558662455E+01  0.20472593905E+02  0.51100000000E-03 0.  1.
        -11    1    4    4    0    0 -0.46440108109E+00 -0.10260457901E+02  0.19105168633E+02  0.21691015040E+02  0.51100000000E-03 0. -1.
         12    1    4    4    0    0  0.18567481005E+01  0.64240453198E+01  0.10208339648E+02  0.12203526955E+02  0.00000000000E+00 0. -1.
</event>
<event>
 8    1  0.1261983E-006  0.9118800E+02  0.7816164E-02  0.1184000E+00
        -11   -1    0    0    0    0  0.00000000000E+00  0.00000000000E+00  0.45593999997E+02  0.45594000000E+02  0.51100000000E-03 0.  1.
         11   -1    0    0    0    0 -0.00000000000E+00 -0.00000000000E+00 -0.45593999997E+02  0.45594000000E+02  0.51100000000E-03 0. -1.
         23    2    1    2    0    0  0.00000000000E+00  0.35527136788E-14 -0.71054273576E-14  0.91188000000E+02  0.91188000000E+02 0.  0.
    9900012    2    3    3    0    0  0.15048323727E+01 -0.24440551784E+02  0.27498627664E+02  0.54367087255E+02  0.40000007015E+02 0.  0.
         12    1    3    3    0    0 -0.15048323727E+01  0.24440551784E+02 -0.27498627664E+02  0.36820912745E+02  0.00000000000E+00 0. -1.
         11    1    4    4    0    0 -0.48860712873E+01  0.18265245532E+01  0.24415900339E+02  0.24966899571E+02  0.51100000000E-03 0. -1.
        -11    1    4    4    0    0  0.50176555930E+01 -0.19801096543E+02 -0.27163674700E+01  0.20606769384E+02  0.51100000000E-03 0.  1.
        -12    1    4    4    0    0  0.13732480670E+01 -0.64659797945E+01  0.57990947946E+01  0.87934182997E+01  0.00000000000E+00 0.  1.
</event>
<event>
 8    1  0.1261983E-006  0.9118800E+02  0.7816164E-02  0.1184000E+00
        -11   -1    0    0    0    0  0.00000000000E+00  0.00000000000E+00  0.45593999997E+02  0.45594000000E+02  0.51100000000E-03 0. -1.
         11   -1    0    0    0    0 -0.00000000000E+00 -0.00000000000E+00 -0.45593999997E+02  0.45594000000E+02  0.51100000000E-03 0.  1.
         23    2    1    2    0    0  0.00000000000E+00  0.00000000000E+00  0.00000000000E+00  0.91188000000E+02  0.91188000000E+02 0.  0.
    9900012    2    3    3    0    0 -0.75224881181E+01 -0.32509755337E+02  0.15566220305E+02  0.54367092432E+02  0.40000018817E+02 0.  0.
        -12    1    3    3    0    0  0.75224881181E+01  0.32509755337E+02 -0.15566220305E+02  0.36820907568E+02  0.00000000000E+00 0.  1.
         11    1    4    4    0    0 -0.12125806787E+02 -0.10540189081E+02  0.23961277040E+02  0.28849152046E+02  0.51100000000E-03 0. -1.
        -11    1    4    4    0    0  0.14779091413E+00 -0.15360266990E+01 -0.38056967586E+01  0.41066468382E+01  0.51100000000E-03 0.  1.
         12    1    4    4    0    0  0.44555277552E+01 -0.20433539557E+02 -0.45893599765E+01  0.21411293548E+02  0.00000000000E+00 0. -1.
</event>
<event>
 8    1  0.1261983E-006  0.9118800E+02  0.7816164E-02  0.1184000E+00
        -11   -1    0    0    0    0  0.00000000000E+00  0.00000000000E+00  0.45593999997E+02  0.45594000000E+02  0.51100000000E-03 0.  1.
         11   -1    0    0    0    0 -0.00000000000E+00 -0.00000000000E+00 -0.45593999997E+02  0.45594000000E+02  0.51100000000E-03 0. -1.
         23    2    1    2    0    0  0.17763568394E-14  0.00000000000E+00 -0.11102230246E-15  0.91188000000E+02  0.91188000000E+02 0.  0.
    9900012    2    3    3    0    0  0.68584218809E+01  0.36171445692E+02  0.60671773869E+00  0.54367088271E+02  0.40000009332E+02 0.  0.
         12    1    3    3    0    0 -0.68584218809E+01 -0.36171445692E+02 -0.60671773869E+00  0.36820911729E+02  0.00000000000E+00 0. -1.
         11    1    4    4    0    0  0.19068842205E+02  0.13182207356E+02 -0.35495789375E+01  0.23451883607E+02  0.51100000000E-03 0. -1.
        -11    1    4    4    0    0 -0.11539249072E+01  0.11341065802E+02 -0.49781262897E+01  0.12439174323E+02  0.51100000000E-03 0.  1.
        -12    1    4    4    0    0 -0.11056495417E+02  0.11648172533E+02  0.91344229659E+01  0.18476030342E+02  0.00000000000E+00 0.  1.
</event>
<event>
 8    1  0.1261983E-006  0.9118800E+02  0.7816164E-02  0.1184000E+00
        -11   -1    0    0    0    0  0.00000000000E+00  0.00000000000E+00  0.45593999997E+02  0.45594000000E+02  0.51100000000E-03 0. -1.
         11   -1    0    0    0    0 -0.00000000000E+00 -0.00000000000E+00 -0.45593999997E+02  0.45594000000E+02  0.51100000000E-03 0.  1.
         23    2    1    2    0    0  0.00000000000E+00 -0.17763568394E-14 -0.35527136788E-14  0.91188000000E+02  0.91188000000E+02 0.  0.
    9900012    2    3    3    0    0  0.11237160006E+02 -0.14417599124E+02  0.31963077777E+02  0.54367091938E+02  0.40000017691E+02 0.  0.
        -12    1    3    3    0    0 -0.11237160006E+02  0.14417599124E+02 -0.31963077777E+02  0.36820908062E+02  0.00000000000E+00 0.  1.
         11    1    4    4    0    0 -0.77970136278E+01 -0.20979794185E+01 -0.70621686077E+00  0.81051638890E+01  0.51100000000E-03 0. -1.
        -11    1    4    4    0    0  0.91041003877E+01 -0.10562813488E+02  0.21372547144E+01  0.14107640860E+02  0.51100000000E-03 0.  1.
        -12    1    4    4    0    0  0.99300732461E+01 -0.17568062171E+01  0.30532039924E+02  0.32154287190E+02  0.00000000000E+00 0.  1.
</event>
<event>
 8    1  0.1261983E-006  0.9118800E+02  0.7816164E-02  0.1184000E+00
        -11   -1    0    0    0    0  0.00000000000E+00  0.00000000000E+00  0.45593999997E+02  0.45594000000E+02  0.51100000000E-03 0.  1.
         11   -1    0    0    0    0 -0.00000000000E+00 -0.00000000000E+00 -0.45593999997E+02  0.45594000000E+02  0.51100000000E-03 0. -1.
         23    2    1    2    0    0 -0.17763568394E-14 -0.66613381478E-15  0.00000000000E+00  0.91188000000E+02  0.91188000000E+02 0.  0.
    9900012    2    3    3    0    0 -0.13313407298E+02  0.14719792566E+01  0.34298197045E+02  0.54367083969E+02  0.39999999524E+02 0.  0.
         12    1    3    3    0    0  0.13313407298E+02 -0.14719792566E+01 -0.34298197045E+02  0.36820916031E+02  0.00000000000E+00 0. -1.
         11    1    4    4    0    0  0.22685439363E+01  0.44600701579E+01 -0.33671481012E+00  0.50151664508E+01  0.51100000000E-03 0. -1.
        -11    1    4    4    0    0  0.84520631356E+01  0.24243198287E+01  0.30751643287E+01  0.93151131925E+01  0.51100000000E-03 0.  1.
        -12    1    4    4    0    0 -0.24034014370E+02 -0.54124107300E+01  0.31559747527E+02  0.40036804326E+02  0.00000000000E+00 0.  1.
</event>
<event>
 8    1  0.1261983E-006  0.9118800E+02  0.7816164E-02  0.1184000E+00
        -11   -1    0    0    0    0  0.00000000000E+00  0.00000000000E+00  0.45593999997E+02  0.45594000000E+02  0.51100000000E-03 0.  1.
         11   -1    0    0    0    0 -0.00000000000E+00 -0.00000000000E+00 -0.45593999997E+02  0.45594000000E+02  0.51100000000E-03 0. -1.
         23    2    1    2    0    0  0.00000000000E+00 -0.35527136788E-14 -0.35527136788E-14  0.91188000000E+02  0.91188000000E+02 0.  0.
    9900012    2    3    3    0    0 -0.16234221306E+02 -0.19884004305E+02 -0.26398029577E+02  0.54367088358E+02  0.40000009530E+02 0.  0.
        -12    1    3    3    0    0  0.16234221306E+02  0.19884004305E+02  0.26398029577E+02  0.36820911642E+02  0.00000000000E+00 0.  1.
         11    1    4    4    0    0 -0.70231457646E+01 -0.18289969616E+02 -0.17402672000E+02  0.26204972009E+02  0.51100000000E-03 0. -1.
        -11    1    4    4    0    0 -0.16976864175E+02  0.35445947924E+01 -0.51929608244E+01  0.18103726463E+02  0.51100000000E-03 0.  1.
        -12    1    4    4    0    0  0.77657886336E+01 -0.51386294811E+01 -0.38023967526E+01  0.10058389887E+02  0.00000000000E+00 0.  1.
</event>
<event>
 8    1  0.1261983E-006  0.9118800E+02  0.7816164E-02  0.1184000E+00
        -11   -1    0    0    0    0  0.00000000000E+00  0.00000000000E+00  0.45593999997E+02  0.45594000000E+02  0.51100000000E-03 0.  1.
         11   -1    0    0    0    0 -0.00000000000E+00 -0.00000000000E+00 -0.45593999997E+02  0.45594000000E+02  0.51100000000E-03 0. -1.
         23    2    1    2    0    0  0.17763568394E-14  0.00000000000E+00  0.71054273576E-14  0.91188000000E+02  0.91188000000E+02 0.  0.
    9900012    2    3    3    0    0 -0.15376423296E+02 -0.84144950149E+01  0.32381188239E+02  0.54367089208E+02  0.40000011469E+02 0.  0.
         12    1    3    3    0    0  0.15376423296E+02  0.84144950149E+01 -0.32381188239E+02  0.36820910792E+02  0.00000000000E+00 0. -1.
         11    1    4    4    0    0 -0.79513757060E+01 -0.11633859358E+02 -0.48195345303E+01  0.14892916858E+02  0.51100000000E-03 0. -1.
        -11    1    4    4    0    0 -0.76261207284E+01  0.57430849488E+01  0.20889342055E+02  0.22967484709E+02  0.51100000000E-03 0.  1.
         12    1    4    4    0    0  0.20107313793E+00 -0.25237206056E+01  0.16311380714E+02  0.16506687642E+02  0.00000000000E+00 0. -1.
</event>
<event>
 8    1  0.1261983E-006  0.9118800E+02  0.7816164E-02  0.1184000E+00
        -11   -1    0    0    0    0  0.00000000000E+00  0.00000000000E+00  0.45593999997E+02  0.45594000000E+02  0.51100000000E-03 0. -1.
         11   -1    0    0    0    0 -0.00000000000E+00 -0.00000000000E+00 -0.45593999997E+02  0.45594000000E+02  0.51100000000E-03 0.  1.
         23    2    1    2    0    0  0.00000000000E+00  0.00000000000E+00  0.17763568394E-14  0.91188000000E+02  0.91188000000E+02 0.  0.
    9900012    2    3    3    0    0  0.33196169402E+02 -0.13632869921E+02  0.82425006675E+01  0.54367087158E+02  0.40000006794E+02 0.  0.
         12    1    3    3    0    0 -0.33196169402E+02  0.13632869921E+02 -0.82425006675E+01  0.36820912842E+02  0.00000000000E+00 0. -1.
         11    1    4    4    0    0  0.11830367018E+02 -0.89976909716E+01 -0.10004073200E+02  0.17916403307E+02  0.51100000000E-03 0.  1.
        -11    1    4    4    0    0  0.24241194883E+02 -0.39781472420E+01  0.80726760358E+01  0.25857866955E+02  0.51100000000E-03 0. -1.
        -12    1    4    4    0    0 -0.28753924986E+01 -0.65703170721E+00  0.10173897832E+02  0.10592816896E+02  0.00000000000E+00 0.  1.
</event>
<event>
 8    1  0.1261983E-006  0.9118800E+02  0.7816164E-02  0.1184000E+00
        -11   -1    0    0    0    0  0.00000000000E+00  0.00000000000E+00  0.45593999997E+02  0.45594000000E+02  0.51100000000E-03 0. -1.
         11   -1    0    0    0    0 -0.00000000000E+00 -0.00000000000E+00 -0.45593999997E+02  0.45594000000E+02  0.51100000000E-03 0.  1.
         23    2    1    2    0    0  0.35527136788E-14  0.17763568394E-14  0.35527136788E-14  0.91188000000E+02  0.91188000000E+02 0.  0.
    9900012    2    3    3    0    0  0.16859209455E+02  0.13376749853E+02  0.29876452811E+02  0.54367179631E+02  0.40000217603E+02 0.  0.
        -12    1    3    3    0    0 -0.16859209455E+02 -0.13376749853E+02 -0.29876452811E+02  0.36820820369E+02  0.00000000000E+00 0.  1.
         11    1    4    4    0    0  0.17101017218E+02  0.18829198297E+01  0.40779292355E+01  0.17681054383E+02  0.51100000000E-03 0. -1.
        -11    1    4    4    0    0 -0.27226393347E+01  0.70823316512E+01 -0.24611496502E+01  0.79768066559E+01  0.51100000000E-03 0.  1.
         12    1    4    4    0    0  0.24808315720E+01  0.44114983724E+01  0.28259673226E+02  0.28709318592E+02  0.00000000000E+00 0. -1.
</event>
<event>
 8    1  0.1261983E-006  0.9118800E+02  0.7816164E-02  0.1184000E+00
        -11   -1    0    0    0    0  0.00000000000E+00  0.00000000000E+00  0.45593999997E+02  0.45594000000E+02  0.51100000000E-03 0. -1.
         11   -1    0    0    0    0 -0.00000000000E+00 -0.00000000000E+00 -0.45593999997E+02  0.45594000000E+02  0.51100000000E-03 0.  1.
         23    2    1    2    0    0  0.00000000000E+00  0.35527136788E-14 -0.35527136788E-14  0.91188000000E+02  0.91188000000E+02 0.  0.
    9900012    2    3    3    0    0 -0.11140180947E+02  0.22842846491E+02 -0.26643581315E+02  0.54367086206E+02  0.40000004623E+02 0.  0.
         12    1    3    3    0    0  0.11140180947E+02 -0.22842846491E+02  0.26643581315E+02  0.36820913794E+02  0.00000000000E+00 0. -1.
         11    1    4    4    0    0  0.11634439564E+02  0.65262048949E+01 -0.14313158874E+02  0.19565736672E+02  0.51100000000E-03 0.  1.
        -11    1    4    4    0    0 -0.57389480023E+01 -0.25026254527E+01  0.64271305666E+00  0.62937857180E+01  0.51100000000E-03 0. -1.
        -12    1    4    4    0    0 -0.17035672509E+02  0.18819267049E+02 -0.12973135498E+02  0.28507563816E+02  0.00000000000E+00 0.  1.
</event>
<event>
 8    1  0.1261983E-006  0.9118800E+02  0.7816164E-02  0.1184000E+00
        -11   -1    0    0    0    0  0.00000000000E+00  0.00000000000E+00  0.45593999997E+02  0.45594000000E+02  0.51100000000E-03 0.  1.
         11   -1    0    0    0    0 -0.00000000000E+00 -0.00000000000E+00 -0.45593999997E+02  0.45594000000E+02  0.51100000000E-03 0. -1.
         23    2    1    2    0    0  0.00000000000E+00 -0.35527136788E-14 -0.35527136788E-14  0.91188000000E+02  0.91188000000E+02 0.  0.
    9900012    2    3    3    0    0 -0.18653745545E+02 -0.19883225199E+02 -0.24748284110E+02  0.54367048986E+02  0.39999919774E+02 0.  0.
        -12    1    3    3    0    0  0.18653745545E+02  0.19883225199E+02  0.24748284110E+02  0.36820951014E+02  0.00000000000E+00 0.  1.
         11    1    4    4    0    0 -0.37407516452E+01 -0.10596801941E+02 -0.21634099066E+02  0.24378672583E+02  0.51100000000E-03 0. -1.
        -11    1    4    4    0    0  0.59093462504E+01  0.18175491245E+01 -0.13224671724E+01  0.63224028352E+01  0.51100000000E-03 0.  1.
         12    1    4    4    0    0 -0.20822340151E+02 -0.11103972382E+02 -0.17917178717E+01  0.23665973569E+02  0.00000000000E+00 0. -1.
</event>
<event>
 8    1  0.1261983E-006  0.9118800E+02  0.7816164E-02  0.1184000E+00
        -11   -1    0    0    0    0  0.00000000000E+00  0.00000000000E+00  0.45593999997E+02  0.45594000000E+02  0.51100000000E-03 0.  1.
         11   -1    0    0    0    0 -0.00000000000E+00 -0.00000000000E+00 -0.45593999997E+02  0.45594000000E+02  0.51100000000E-03 0. -1.
         23    2    1    2    0    0 -0.88817841970E-15 -0.35527136788E-14  0.00000000000E+00  0.91188000000E+02  0.91188000000E+02 0.  0.
    9900012    2    3    3    0    0  0.54420371821E+01 -0.29602073306E+02 -0.21210424327E+02  0.54367073710E+02  0.39999976137E+02 0.  0.
        -12    1    3    3    0    0 -0.54420371821E+01  0.29602073306E+02  0.21210424327E+02  0.36820926290E+02  0.00000000000E+00 0.  1.
         11    1    4    4    0    0  0.13536767731E+02 -0.78745553958E+01 -0.15131908643E+02  0.21776761989E+02  0.51100000000E-03 0. -1.
        -11    1    4    4    0    0 -0.57200195545E+01 -0.25613129099E+01 -0.11000188431E+02  0.12660295940E+02  0.51100000000E-03 0.  1.
         12    1    4    4    0    0 -0.23747109944E+01 -0.19166205000E+02  0.49216727460E+01  0.19930015781E+02  0.00000000000E+00 0. -1.
</event>
<event>
 8    1  0.1261983E-006  0.9118800E+02  0.7816164E-02  0.1184000E+00
        -11   -1    0    0    0    0  0.00000000000E+00  0.00000000000E+00  0.45593999997E+02  0.45594000000E+02  0.51100000000E-03 0. -1.
         11   -1    0    0    0    0 -0.00000000000E+00 -0.00000000000E+00 -0.45593999997E+02  0.45594000000E+02  0.51100000000E-03 0.  1.
         23    2    1    2    0    0 -0.35527136788E-14 -0.35527136788E-14  0.00000000000E+00  0.91188000000E+02  0.91188000000E+02 0.  0.
    9900012    2    3    3    0    0  0.16527535449E+02  0.23788249821E+02 -0.22731900593E+02  0.54367087978E+02  0.40000008664E+02 0.  0.
        -12    1    3    3    0    0 -0.16527535449E+02 -0.23788249821E+02  0.22731900593E+02  0.36820912022E+02  0.00000000000E+00 0.  1.
         11    1    4    4    0    0 -0.34792590647E+01  0.88281862041E+01 -0.11177979594E+01  0.95546631459E+01  0.51100000000E-03 0. -1.
        -11    1    4    4    0    0  0.26330422404E+02  0.16328209558E+02 -0.12002116729E+02  0.33225778810E+02  0.51100000000E-03 0.  1.
        -12    1    4    4    0    0 -0.63236278903E+01 -0.13681459409E+01 -0.96119859047E+01  0.11586646022E+02  0.00000000000E+00 0.  1.
</event>
<event>
 8    1  0.1261983E-006  0.9118800E+02  0.7816164E-02  0.1184000E+00
        -11   -1    0    0    0    0  0.00000000000E+00  0.00000000000E+00  0.45593999997E+02  0.45594000000E+02  0.51100000000E-03 0.  1.
         11   -1    0    0    0    0 -0.00000000000E+00 -0.00000000000E+00 -0.45593999997E+02  0.45594000000E+02  0.51100000000E-03 0. -1.
         23    2    1    2    0    0  0.44408920985E-15 -0.17763568394E-14  0.00000000000E+00  0.91188000000E+02  0.91188000000E+02 0.  0.
    9900012    2    3    3    0    0 -0.22805470641E+01 -0.12498246820E+02  0.34559699349E+02  0.54367083559E+02  0.39999998589E+02 0.  0.
         12    1    3    3    0    0  0.22805470641E+01  0.12498246820E+02 -0.34559699349E+02  0.36820916441E+02  0.00000000000E+00 0. -1.
         11    1    4    4    0    0  0.84830546639E+01  0.14126704228E+01  0.12962569290E+02  0.15555901035E+02  0.51100000000E-03 0. -1.
        -11    1    4    4    0    0  0.45562378063E+01 -0.21438834422E+01 -0.42179987497E+01  0.65686416308E+01  0.51100000000E-03 0.  1.
        -12    1    4    4    0    0 -0.15319839534E+02 -0.11767033801E+02  0.25815128808E+02  0.32242540893E+02  0.00000000000E+00 0.  1.
</event>
<event>
 8    1  0.1261983E-006  0.9118800E+02  0.7816164E-02  0.1184000E+00
        -11   -1    0    0    0    0  0.00000000000E+00  0.00000000000E+00  0.45593999997E+02  0.45594000000E+02  0.51100000000E-03 0. -1.
         11   -1    0    0    0    0 -0.00000000000E+00 -0.00000000000E+00 -0.45593999997E+02  0.45594000000E+02  0.51100000000E-03 0.  1.
         23    2    1    2    0    0  0.17763568394E-14  0.00000000000E+00  0.00000000000E+00  0.91188000000E+02  0.91188000000E+02 0.  0.
    9900012    2    3    3    0    0  0.10181477098E+02  0.18560121462E+02 -0.30127044070E+02  0.54367090601E+02  0.40000014643E+02 0.  0.
         12    1    3    3    0    0 -0.10181477098E+02 -0.18560121462E+02  0.30127044070E+02  0.36820909399E+02  0.00000000000E+00 0. -1.
         11    1    4    4    0    0  0.66594075934E+01 -0.11047093706E+02 -0.49019792480E+01  0.13799108292E+02  0.51100000000E-03 0. -1.
        -11    1    4    4    0    0  0.36452141606E+01  0.99045763340E+01 -0.15080335937E+02  0.18406649637E+02  0.51100000000E-03 0.  1.
         12    1    4    4    0    0 -0.12314465570E+00  0.19702638834E+02 -0.10144728885E+02  0.22161332672E+02  0.00000000000E+00 0. -1.
</event>
<event>
 8    1  0.1261983E-006  0.9118800E+02  0.7816164E-02  0.1184000E+00
        -11   -1    0    0    0    0  0.00000000000E+00  0.00000000000E+00  0.45593999997E+02  0.45594000000E+02  0.51100000000E-03 0.  1.
         11   -1    0    0    0    0 -0.00000000000E+00 -0.00000000000E+00 -0.45593999997E+02  0.45594000000E+02  0.51100000000E-03 0. -1.
         23    2    1    2    0    0  0.00000000000E+00  0.00000000000E+00  0.00000000000E+00  0.91188000000E+02  0.91188000000E+02 0.  0.
    9900012    2    3    3    0    0  0.20440589800E+02  0.27061438914E+02 -0.14340234661E+02  0.54367061424E+02  0.39999948129E+02 0.  0.
        -12    1    3    3    0    0 -0.20440589800E+02 -0.27061438914E+02  0.14340234661E+02  0.36820938576E+02  0.00000000000E+00 0.  1.
         11    1    4    4    0    0 -0.63722371913E+01  0.12410136388E+02 -0.63638700240E+01  0.15333484077E+02  0.51100000000E-03 0. -1.
        -11    1    4    4    0    0  0.30706422233E+02  0.10804715185E+02 -0.81534102113E+01  0.33557478078E+02  0.51100000000E-03 0.  1.
        -12    1    4    4    0    0 -0.38935952419E+01  0.38465873406E+01  0.17704557463E+00  0.54760992697E+01  0.00000000000E+00 0.  1.
</event>
<event>
 8    1  0.1261983E-006  0.9118800E+02  0.7816164E-02  0.1184000E+00
        -11   -1    0    0    0    0  0.00000000000E+00  0.00000000000E+00  0.45593999997E+02  0.45594000000E+02  0.51100000000E-03 0.  1.
         11   -1    0    0    0    0 -0.00000000000E+00 -0.00000000000E+00 -0.45593999997E+02  0.45594000000E+02  0.51100000000E-03 0. -1.
         23    2    1    2    0    0  0.35527136788E-14  0.00000000000E+00  0.00000000000E+00  0.91188000000E+02  0.91188000000E+02 0.  0.
    9900012    2    3    3    0    0  0.17924563186E+02 -0.27911265618E+02  0.15982938958E+02  0.54367040594E+02  0.39999900642E+02 0.  0.
         12    1    3    3    0    0 -0.17924563186E+02  0.27911265618E+02 -0.15982938958E+02  0.36820959406E+02  0.00000000000E+00 0. -1.
         11    1    4    4    0    0  0.18606316228E+01  0.48468350513E+01  0.28727817154E+01  0.59335179359E+01  0.51100000000E-03 0. -1.
        -11    1    4    4    0    0  0.12843895709E+02 -0.15214615851E+02  0.20992165697E+02  0.28933047081E+02  0.51100000000E-03 0.  1.
        -12    1    4    4    0    0  0.32200358547E+01 -0.17543484819E+02 -0.78820084540E+01  0.19500475578E+02  0.00000000000E+00 0.  1.
</event>
<event>
 8    1  0.1261983E-006  0.9118800E+02  0.7816164E-02  0.1184000E+00
        -11   -1    0    0    0    0  0.00000000000E+00  0.00000000000E+00  0.45593999997E+02  0.45594000000E+02  0.51100000000E-03 0.  1.
         11   -1    0    0    0    0 -0.00000000000E+00 -0.00000000000E+00 -0.45593999997E+02  0.45594000000E+02  0.51100000000E-03 0. -1.
         23    2    1    2    0    0  0.00000000000E+00  0.00000000000E+00 -0.17763568394E-14  0.91188000000E+02  0.91188000000E+02 0.  0.
    9900012    2    3    3    0    0 -0.19577266871E+02 -0.27482124069E+02  0.14739281410E+02  0.54367042137E+02  0.39999904159E+02 0.  0.
         12    1    3    3    0    0  0.19577266871E+02  0.27482124069E+02 -0.14739281410E+02  0.36820957863E+02  0.00000000000E+00 0. -1.
         11    1    4    4    0    0  0.89563250241E+01  0.26346969612E+01  0.16575433081E+01  0.94818160757E+01  0.51100000000E-03 0. -1.
        -11    1    4    4    0    0 -0.13793242903E+02 -0.19152433682E+02  0.26280766188E+01  0.23748179988E+02  0.51100000000E-03 0.  1.
        -12    1    4    4    0    0 -0.14740348992E+02 -0.10964387347E+02  0.10453661484E+02  0.21137046074E+02  0.00000000000E+00 0.  1.
</event>
<event>
 8    1  0.1261983E-006  0.9118800E+02  0.7816164E-02  0.1184000E+00
        -11   -1    0    0    0    0  0.00000000000E+00  0.00000000000E+00  0.45593999997E+02  0.45594000000E+02  0.51100000000E-03 0. -1.
         11   -1    0    0    0    0 -0.00000000000E+00 -0.00000000000E+00 -0.45593999997E+02  0.45594000000E+02  0.51100000000E-03 0.  1.
         23    2    1    2    0    0  0.00000000000E+00  0.00000000000E+00  0.00000000000E+00  0.91188000000E+02  0.91188000000E+02 0.  0.
    9900012    2    3    3    0    0 -0.20450876676E+02 -0.13784035768E+02  0.27341238588E+02  0.54367064021E+02  0.39999954048E+02 0.  0.
        -12    1    3    3    0    0  0.20450876676E+02  0.13784035768E+02 -0.27341238588E+02  0.36820935979E+02  0.00000000000E+00 0.  1.
         11    1    4    4    0    0 -0.11116536831E+02 -0.11519990997E+01  0.48981190474E+01  0.12202297468E+02  0.51100000000E-03 0. -1.
        -11    1    4    4    0    0 -0.14981303288E+02 -0.40559934425E+01 -0.20033087016E+01  0.15649401811E+02  0.51100000000E-03 0.  1.
         12    1    4    4    0    0  0.56469634440E+01 -0.85760432258E+01  0.24446428243E+02  0.26515364741E+02  0.00000000000E+00 0. -1.
</event>
<event>
 8    1  0.1261983E-006  0.9118800E+02  0.7816164E-02  0.1184000E+00
        -11   -1    0    0    0    0  0.00000000000E+00  0.00000000000E+00  0.45593999997E+02  0.45594000000E+02  0.51100000000E-03 0. -1.
         11   -1    0    0    0    0 -0.00000000000E+00 -0.00000000000E+00 -0.45593999997E+02  0.45594000000E+02  0.51100000000E-03 0.  1.
         23    2    1    2    0    0  0.00000000000E+00  0.00000000000E+00  0.00000000000E+00  0.91188000000E+02  0.91188000000E+02 0.  0.
    9900012    2    3    3    0    0  0.18593061201E+02 -0.26588848722E+02  0.17410088834E+02  0.54367082108E+02  0.39999995282E+02 0.  0.
        -12    1    3    3    0    0 -0.18593061201E+02  0.26588848722E+02 -0.17410088834E+02  0.36820917892E+02  0.00000000000E+00 0.  1.
         11    1    4    4    0    0  0.18229559376E+02  0.80133797282E+00  0.10876341246E+02  0.21242734682E+02  0.51100000000E-03 0. -1.
        -11    1    4    4    0    0  0.99565082449E+00 -0.13287356545E+01 -0.45149120226E+01  0.48105394538E+01  0.51100000000E-03 0.  1.
         12    1    4    4    0    0 -0.63214900016E+00 -0.26061451041E+02  0.11048659611E+02  0.28313807972E+02  0.00000000000E+00 0. -1.
</event>
<event>
 8    1  0.1261983E-006  0.9118800E+02  0.7816164E-02  0.1184000E+00
        -11   -1    0    0    0    0  0.00000000000E+00  0.00000000000E+00  0.45593999997E+02  0.45594000000E+02  0.51100000000E-03 0.  1.
         11   -1    0    0    0    0 -0.00000000000E+00 -0.00000000000E+00 -0.45593999997E+02  0.45594000000E+02  0.51100000000E-03 0. -1.
         23    2    1    2    0    0  0.00000000000E+00  0.72164496601E-15  0.35527136788E-14  0.91188000000E+02  0.91188000000E+02 0.  0.
    9900012    2    3    3    0    0 -0.30324621417E+02  0.46558529177E+00 -0.20880156247E+02  0.54367077161E+02  0.39999984005E+02 0.  0.
        -12    1    3    3    0    0  0.30324621417E+02 -0.46558529177E+00  0.20880156247E+02  0.36820922839E+02  0.00000000000E+00 0.  1.
         11    1    4    4    0    0  0.12884766436E+01  0.14691147456E+01  0.44296291756E+00  0.20036682870E+01  0.51100000000E-03 0. -1.
        -11    1    4    4    0    0  0.60300209435E+01  0.65455640260E+01 -0.72281026365E+01  0.11465209505E+02  0.51100000000E-03 0.  1.
         12    1    4    4    0    0 -0.37643119005E+02 -0.75490934798E+01 -0.14095016528E+02  0.40898199370E+02  0.00000000000E+00 0. -1.
</event>
<event>
 8    1  0.1261983E-006  0.9118800E+02  0.7816164E-02  0.1184000E+00
        -11   -1    0    0    0    0  0.00000000000E+00  0.00000000000E+00  0.45593999997E+02  0.45594000000E+02  0.51100000000E-03 0.  1.
         11   -1    0    0    0    0 -0.00000000000E+00 -0.00000000000E+00 -0.45593999997E+02  0.45594000000E+02  0.51100000000E-03 0. -1.
         23    2    1    2    0    0  0.88817841970E-15  0.71054273576E-14  0.00000000000E+00  0.91188000000E+02  0.91188000000E+02 0.  0.
    9900012    2    3    3    0    0 -0.57567597381E+01  0.26743113191E+02  0.24646444100E+02  0.54367060405E+02  0.39999945806E+02 0.  0.
         12    1    3    3    0    0  0.57567597381E+01 -0.26743113191E+02 -0.24646444100E+02  0.36820939595E+02  0.00000000000E+00 0. -1.
         11    1    4    4    0    0  0.10314857262E+02  0.56989872964E+01  0.85377951898E+01  0.14552274169E+02  0.51100000000E-03 0. -1.
        -11    1    4    4    0    0 -0.68355448714E+01 -0.34171368155E+01  0.10643482249E+02  0.13102870386E+02  0.51100000000E-03 0.  1.
        -12    1    4    4    0    0 -0.92360721286E+01  0.24461262710E+02  0.54651666614E+01  0.26711915850E+02  0.00000000000E+00 0.  1.
</event>
<event>
 8    1  0.1261983E-006  0.9118800E+02  0.7816164E-02  0.1184000E+00
        -11   -1    0    0    0    0  0.00000000000E+00  0.00000000000E+00  0.45593999997E+02  0.45594000000E+02  0.51100000000E-03 0. -1.
         11   -1    0    0    0    0 -0.00000000000E+00 -0.00000000000E+00 -0.45593999997E+02  0.45594000000E+02  0.51100000000E-03 0.  1.
         23    2    1    2    0    0 -0.35527136788E-14  0.00000000000E+00  0.00000000000E+00  0.91188000000E+02  0.91188000000E+02 0.  0.
    9900012    2    3    3    0    0  0.30470680095E+02 -0.16684235818E+02 -0.12204613550E+02  0.54367100198E+02  0.40000036522E+02 0.  0.
         12    1    3    3    0    0 -0.30470680095E+02  0.16684235818E+02  0.12204613550E+02  0.36820899802E+02  0.00000000000E+00 0. -1.
         11    1    4    4    0    0  0.32604136426E+02 -0.66240166367E+01 -0.17712571978E+02  0.37691411685E+02  0.51100000000E-03 0. -1.
        -11    1    4    4    0    0 -0.46394219227E+01 -0.48466643863E+01 -0.21800199858E+01  0.70545643983E+01  0.51100000000E-03 0.  1.
         12    1    4    4    0    0  0.25059655914E+01 -0.52135547952E+01  0.76879784134E+01  0.96211241148E+01  0.00000000000E+00 0. -1.
</event>
<event>
 8    1  0.1261983E-006  0.9118800E+02  0.7816164E-02  0.1184000E+00
        -11   -1    0    0    0    0  0.00000000000E+00  0.00000000000E+00  0.45593999997E+02  0.45594000000E+02  0.51100000000E-03 0. -1.
         11   -1    0    0    0    0 -0.00000000000E+00 -0.00000000000E+00 -0.45593999997E+02  0.45594000000E+02  0.51100000000E-03 0.  1.
         23    2    1    2    0    0  0.35527136788E-14  0.17763568394E-14  0.00000000000E+00  0.91188000000E+02  0.91188000000E+02 0.  0.
    9900012    2    3    3    0    0  0.29648263599E+02  0.10131051714E+02 -0.19342229159E+02  0.54367087843E+02  0.40000008355E+02 0.  0.
        -12    1    3    3    0    0 -0.29648263599E+02 -0.10131051714E+02  0.19342229159E+02  0.36820912157E+02  0.00000000000E+00 0.  1.
         11    1    4    4    0    0  0.32619774502E+02  0.91843271488E+01 -0.13463362458E+01  0.33914807611E+02  0.51100000000E-03 0. -1.
        -11    1    4    4    0    0 -0.41610294703E+01 -0.25226186489E+01 -0.14827844357E+02  0.15605855941E+02  0.51100000000E-03 0.  1.
         12    1    4    4    0    0  0.11895185675E+01  0.34693432141E+01 -0.31680485556E+01  0.48464242912E+01  0.00000000000E+00 0. -1.
</event>
<event>
 8    1  0.1261983E-006  0.9118800E+02  0.7816164E-02  0.1184000E+00
        -11   -1    0    0    0    0  0.00000000000E+00  0.00000000000E+00  0.45593999997E+02  0.45594000000E+02  0.51100000000E-03 0. -1.
         11   -1    0    0    0    0 -0.00000000000E+00 -0.00000000000E+00 -0.45593999997E+02  0.45594000000E+02  0.51100000000E-03 0.  1.
         23    2    1    2    0    0  0.15543122345E-14  0.71054273576E-14  0.00000000000E+00  0.91188000000E+02  0.91188000000E+02 0.  0.
    9900012    2    3    3    0    0 -0.16411127117E+01 -0.36556037018E+02 -0.40917970104E+01  0.54367083442E+02  0.39999998322E+02 0.  0.
        -12    1    3    3    0    0  0.16411127117E+01  0.36556037018E+02  0.40917970104E+01  0.36820916558E+02  0.00000000000E+00 0.  1.
         11    1    4    4    0    0 -0.15516426205E+02 -0.16349994352E+02  0.20229760142E+01  0.22631266639E+02  0.51100000000E-03 0. -1.
        -11    1    4    4    0    0  0.17180227410E+01  0.96826877024E+00  0.46507495673E+01  0.50515956241E+01  0.51100000000E-03 0.  1.
         12    1    4    4    0    0  0.12157290752E+02 -0.21174311436E+02 -0.10765522592E+02  0.26684221178E+02  0.00000000000E+00 0. -1.
</event>
<event>
 8    1  0.1261983E-006  0.9118800E+02  0.7816164E-02  0.1184000E+00
        -11   -1    0    0    0    0  0.00000000000E+00  0.00000000000E+00  0.45593999997E+02  0.45594000000E+02  0.51100000000E-03 0. -1.
         11   -1    0    0    0    0 -0.00000000000E+00 -0.00000000000E+00 -0.45593999997E+02  0.45594000000E+02  0.51100000000E-03 0.  1.
         23    2    1    2    0    0 -0.71054273576E-14  0.71054273576E-14  0.44408920985E-15  0.91188000000E+02  0.91188000000E+02 0.  0.
    9900012    2    3    3    0    0  0.15141031366E+02 -0.33540895759E+02 -0.12402980012E+01  0.54367070377E+02  0.39999968539E+02 0.  0.
        -12    1    3    3    0    0 -0.15141031366E+02  0.33540895759E+02  0.12402980012E+01  0.36820929623E+02  0.00000000000E+00 0.  1.
         11    1    4    4    0    0 -0.12342475535E+02 -0.14799089333E+02  0.60208993572E+01  0.20189130164E+02  0.51100000000E-03 0. -1.
        -11    1    4    4    0    0  0.10232546253E+02 -0.69933809407E+01 -0.12438750242E+01  0.12456307845E+02  0.51100000000E-03 0.  1.
         12    1    4    4    0    0  0.17250960648E+02 -0.11748425485E+02 -0.60173223342E+01  0.21721632368E+02  0.00000000000E+00 0. -1.
</event>
<event>
 8    1  0.1261983E-006  0.9118800E+02  0.7816164E-02  0.1184000E+00
        -11   -1    0    0    0    0  0.00000000000E+00  0.00000000000E+00  0.45593999997E+02  0.45594000000E+02  0.51100000000E-03 0.  1.
         11   -1    0    0    0    0 -0.00000000000E+00 -0.00000000000E+00 -0.45593999997E+02  0.45594000000E+02  0.51100000000E-03 0. -1.
         23    2    1    2    0    0  0.00000000000E+00  0.00000000000E+00  0.35527136788E-14  0.91188000000E+02  0.91188000000E+02 0.  0.
    9900012    2    3    3    0    0  0.19636464250E+02 -0.14491963235E+02 -0.27571225262E+02  0.54367079464E+02  0.39999989255E+02 0.  0.
        -12    1    3    3    0    0 -0.19636464250E+02  0.14491963235E+02  0.27571225262E+02  0.36820920536E+02  0.00000000000E+00 0.  1.
         11    1    4    4    0    0  0.29859924150E+02 -0.86115084204E+01 -0.27362852302E+02  0.41406507144E+02  0.51100000000E-03 0. -1.
        -11    1    4    4    0    0 -0.96760878321E+01 -0.44759444394E+01 -0.17506756322E+01  0.10803963152E+02  0.51100000000E-03 0.  1.
         12    1    4    4    0    0 -0.54737206762E+00 -0.14045103749E+01  0.15423026718E+01  0.21566091684E+01  0.00000000000E+00 0. -1.
</event>
<event>
 8    1  0.1261983E-006  0.9118800E+02  0.7816164E-02  0.1184000E+00
        -11   -1    0    0    0    0  0.00000000000E+00  0.00000000000E+00  0.45593999997E+02  0.45594000000E+02  0.51100000000E-03 0.  1.
         11   -1    0    0    0    0 -0.00000000000E+00 -0.00000000000E+00 -0.45593999997E+02  0.45594000000E+02  0.51100000000E-03 0. -1.
         23    2    1    2    0    0 -0.17763568394E-14 -0.71054273576E-14 -0.35527136788E-14  0.91188000000E+02  0.91188000000E+02 0.  0.
    9900012    2    3    3    0    0 -0.12474361627E+02 -0.30820066314E+02 -0.15820698155E+02  0.54367072857E+02  0.39999974192E+02 0.  0.
        -12    1    3    3    0    0  0.12474361627E+02  0.30820066314E+02  0.15820698155E+02  0.36820927143E+02  0.00000000000E+00 0.  1.
         11    1    4    4    0    0 -0.22595980070E+02 -0.29901129291E+02 -0.13562450542E+02  0.39857193995E+02  0.51100000000E-03 0. -1.
        -11    1    4    4    0    0  0.38517181303E+01 -0.53359765638E+01 -0.18194466914E+01  0.68277935652E+01  0.51100000000E-03 0.  1.
        -12    1    4    4    0    0  0.62699003133E+01  0.44170395414E+01 -0.43880092179E+00  0.76820852962E+01  0.00000000000E+00 0.  1.
</event>
<event>
 8    1  0.1261983E-006  0.9118800E+02  0.7816164E-02  0.1184000E+00
        -11   -1    0    0    0    0  0.00000000000E+00  0.00000000000E+00  0.45593999997E+02  0.45594000000E+02  0.51100000000E-03 0. -1.
         11   -1    0    0    0    0 -0.00000000000E+00 -0.00000000000E+00 -0.45593999997E+02  0.45594000000E+02  0.51100000000E-03 0.  1.
         23    2    1    2    0    0  0.00000000000E+00  0.00000000000E+00  0.00000000000E+00  0.91188000000E+02  0.91188000000E+02 0.  0.
    9900012    2    3    3    0    0 -0.16862092424E+02  0.60831421221E+01 -0.32162768310E+02  0.54367103157E+02  0.40000043267E+02 0.  0.
         12    1    3    3    0    0  0.16862092424E+02 -0.60831421221E+01  0.32162768310E+02  0.36820896843E+02  0.00000000000E+00 0. -1.
         11    1    4    4    0    0  0.97174619610E+00 -0.30957304231E+00  0.13940649333E+01  0.17272936744E+01  0.51100000000E-03 0. -1.
        -11    1    4    4    0    0 -0.22050063083E+02  0.10702413969E+01 -0.38404138830E+02  0.44297049317E+02  0.51100000000E-03 0.  1.
        -12    1    4    4    0    0  0.42162244630E+01  0.53224737676E+01  0.48473055871E+01  0.83427601658E+01  0.00000000000E+00 0.  1.
</event>
<event>
 8    1  0.1261983E-006  0.9118800E+02  0.7816164E-02  0.1184000E+00
        -11   -1    0    0    0    0  0.00000000000E+00  0.00000000000E+00  0.45593999997E+02  0.45594000000E+02  0.51100000000E-03 0. -1.
         11   -1    0    0    0    0 -0.00000000000E+00 -0.00000000000E+00 -0.45593999997E+02  0.45594000000E+02  0.51100000000E-03 0.  1.
         23    2    1    2    0    0  0.00000000000E+00  0.00000000000E+00  0.00000000000E+00  0.91188000000E+02  0.91188000000E+02 0.  0.
    9900012    2    3    3    0    0 -0.71134448260E+01  0.98835817898E+01  0.34749018596E+02  0.54367074160E+02  0.39999977163E+02 0.  0.
        -12    1    3    3    0    0  0.71134448260E+01 -0.98835817898E+01 -0.34749018596E+02  0.36820925840E+02  0.00000000000E+00 0.  1.
         11    1    4    4    0    0  0.59094047291E+01 -0.72462956924E-01  0.28477362759E+02  0.29084128062E+02  0.51100000000E-03 0. -1.
        -11    1    4    4    0    0 -0.97542284220E+00  0.10324724839E+02  0.80117182282E+01  0.13104923577E+02  0.51100000000E-03 0.  1.
        -12    1    4    4    0    0 -0.12047426713E+02 -0.36868009247E+00 -0.17400623914E+01  0.12178022522E+02  0.00000000000E+00 0.  1.
</event>
<event>
 8    1  0.1261983E-006  0.9118800E+02  0.7816164E-02  0.1184000E+00
        -11   -1    0    0    0    0  0.00000000000E+00  0.00000000000E+00  0.45593999997E+02  0.45594000000E+02  0.51100000000E-03 0.  1.
         11   -1    0    0    0    0 -0.00000000000E+00 -0.00000000000E+00 -0.45593999997E+02  0.45594000000E+02  0.51100000000E-03 0. -1.
         23    2    1    2    0    0  0.00000000000E+00  0.00000000000E+00  0.00000000000E+00  0.91188000000E+02  0.91188000000E+02 0.  0.
    9900012    2    3    3    0    0  0.30126704718E+01  0.88031098262E+01  0.35625940345E+02  0.54367101702E+02  0.40000039951E+02 0.  0.
         12    1    3    3    0    0 -0.30126704718E+01 -0.88031098262E+01 -0.35625940345E+02  0.36820898298E+02  0.00000000000E+00 0. -1.
         11    1    4    4    0    0  0.58795289992E-01  0.87102740492E+00 -0.30680688061E+01  0.31898576906E+01  0.51100000000E-03 0. -1.
        -11    1    4    4    0    0 -0.15113040909E+01  0.15573006102E+01  0.42470826763E+02  0.42526231334E+02  0.51100000000E-03 0.  1.
        -12    1    4    4    0    0  0.44651792727E+01  0.63747818110E+01 -0.37768176122E+01  0.86510126778E+01  0.00000000000E+00 0.  1.
</event>
<event>
 8    1  0.1261983E-006  0.9118800E+02  0.7816164E-02  0.1184000E+00
        -11   -1    0    0    0    0  0.00000000000E+00  0.00000000000E+00  0.45593999997E+02  0.45594000000E+02  0.51100000000E-03 0.  1.
         11   -1    0    0    0    0 -0.00000000000E+00 -0.00000000000E+00 -0.45593999997E+02  0.45594000000E+02  0.51100000000E-03 0. -1.
         23    2    1    2    0    0  0.00000000000E+00 -0.17763568394E-14 -0.44408920985E-15  0.91188000000E+02  0.91188000000E+02 0.  0.
    9900012    2    3    3    0    0  0.34089472193E+02  0.13526629892E+02 -0.32740422069E+01  0.54367065968E+02  0.39999958486E+02 0.  0.
        -12    1    3    3    0    0 -0.34089472193E+02 -0.13526629892E+02  0.32740422069E+01  0.36820934032E+02  0.00000000000E+00 0.  1.
         11    1    4    4    0    0  0.10916145193E+02  0.13201452729E+02 -0.10896681690E+02  0.20302173582E+02  0.51100000000E-03 0. -1.
        -11    1    4    4    0    0  0.11151001816E+02  0.11741024900E+02  0.64989899702E+01  0.17448019317E+02  0.51100000000E-03 0.  1.
         12    1    4    4    0    0  0.12022325184E+02 -0.11415847736E+02  0.11236495128E+01  0.16616873069E+02  0.00000000000E+00 0. -1.
</event>
<event>
 8    1  0.1261983E-006  0.9118800E+02  0.7816164E-02  0.1184000E+00
        -11   -1    0    0    0    0  0.00000000000E+00  0.00000000000E+00  0.45593999997E+02  0.45594000000E+02  0.51100000000E-03 0.  1.
         11   -1    0    0    0    0 -0.00000000000E+00 -0.00000000000E+00 -0.45593999997E+02  0.45594000000E+02  0.51100000000E-03 0. -1.
         23    2    1    2    0    0  0.00000000000E+00  0.26645352591E-14 -0.26645352591E-14  0.91188000000E+02  0.91188000000E+02 0.  0.
    9900012    2    3    3    0    0  0.35900097293E+02  0.44763365805E+01  0.68500080813E+01  0.54367120250E+02  0.40000082234E+02 0.  0.
        -12    1    3    3    0    0 -0.35900097293E+02 -0.44763365805E+01 -0.68500080813E+01  0.36820879750E+02  0.00000000000E+00 0.  1.
         11    1    4    4    0    0  0.31330063755E+02  0.14344670125E+02 -0.15434205780E+01  0.34492384714E+02  0.51100000000E-03 0. -1.
        -11    1    4    4    0    0  0.70038141893E+01 -0.34437467317E+01 -0.13825389167E+01  0.79261730279E+01  0.51100000000E-03 0.  1.
         12    1    4    4    0    0 -0.24337806513E+01 -0.64245868128E+01  0.97759675761E+01  0.11948562509E+02  0.00000000000E+00 0. -1.
</event>
<event>
 8    1  0.1261983E-006  0.9118800E+02  0.7816164E-02  0.1184000E+00
        -11   -1    0    0    0    0  0.00000000000E+00  0.00000000000E+00  0.45593999997E+02  0.45594000000E+02  0.51100000000E-03 0.  1.
         11   -1    0    0    0    0 -0.00000000000E+00 -0.00000000000E+00 -0.45593999997E+02  0.45594000000E+02  0.51100000000E-03 0. -1.
         23    2    1    2    0    0 -0.71054273576E-14  0.35527136788E-14  0.00000000000E+00  0.91188000000E+02  0.91188000000E+02 0.  0.
    9900012    2    3    3    0    0 -0.32887026099E+02 -0.16482528753E+02  0.15984440062E+01  0.54367010565E+02  0.39999832185E+02 0.  0.
        -12    1    3    3    0    0  0.32887026099E+02  0.16482528753E+02 -0.15984440062E+01  0.36820989435E+02  0.00000000000E+00 0.  1.
         11    1    4    4    0    0  0.99019210802E+00  0.11955611852E+01  0.15525964153E+01  0.21955415843E+01  0.51100000000E-03 0. -1.
        -11    1    4    4    0    0 -0.14440581210E+02 -0.55966899775E+01  0.17515374087E+02  0.23380368989E+02  0.51100000000E-03 0.  1.
         12    1    4    4    0    0 -0.19436636996E+02 -0.12081399960E+02 -0.17469526496E+02  0.28791099992E+02  0.00000000000E+00 0. -1.
</event>
<event>
 8    1  0.1261983E-006  0.9118800E+02  0.7816164E-02  0.1184000E+00
        -11   -1    0    0    0    0  0.00000000000E+00  0.00000000000E+00  0.45593999997E+02  0.45594000000E+02  0.51100000000E-03 0.  1.
         11   -1    0    0    0    0 -0.00000000000E+00 -0.00000000000E+00 -0.45593999997E+02  0.45594000000E+02  0.51100000000E-03 0. -1.
         23    2    1    2    0    0  0.00000000000E+00  0.00000000000E+00 -0.17763568394E-14  0.91188000000E+02  0.91188000000E+02 0.  0.
    9900012    2    3    3    0    0 -0.34034530060E+02  0.93189582002E+01  0.10516057800E+02  0.54367086242E+02  0.40000004706E+02 0.  0.
         12    1    3    3    0    0  0.34034530060E+02 -0.93189582002E+01 -0.10516057800E+02  0.36820913758E+02  0.00000000000E+00 0. -1.
         11    1    4    4    0    0 -0.73994609530E+01  0.88020048675E+01  0.39427747680E+01  0.12156183003E+02  0.51100000000E-03 0. -1.
        -11    1    4    4    0    0 -0.19475072808E+02 -0.43448931927E+01 -0.10881678918E+02  0.22728121217E+02  0.51100000000E-03 0.  1.
        -12    1    4    4    0    0 -0.71599962988E+01  0.48618465254E+01  0.17454961949E+02  0.19482782021E+02  0.00000000000E+00 0.  1.
</event>
<event>
 8    1  0.1261983E-006  0.9118800E+02  0.7816164E-02  0.1184000E+00
        -11   -1    0    0    0    0  0.00000000000E+00  0.00000000000E+00  0.45593999997E+02  0.45594000000E+02  0.51100000000E-03 0. -1.
         11   -1    0    0    0    0 -0.00000000000E+00 -0.00000000000E+00 -0.45593999997E+02  0.45594000000E+02  0.51100000000E-03 0.  1.
         23    2    1    2    0    0  0.00000000000E+00  0.00000000000E+00 -0.35527136788E-14  0.91188000000E+02  0.91188000000E+02 0.  0.
    9900012    2    3    3    0    0 -0.99323620815E+01  0.25028956598E+02  0.25113340216E+02  0.54367077392E+02  0.39999984530E+02 0.  0.
        -12    1    3    3    0    0  0.99323620815E+01 -0.25028956598E+02 -0.25113340216E+02  0.36820922608E+02  0.00000000000E+00 0.  1.
         11    1    4    4    0    0 -0.95474491859E+01  0.80880128147E+01  0.26807137273E+01  0.12796716907E+02  0.51100000000E-03 0. -1.
        -11    1    4    4    0    0 -0.83146542056E+01  0.23278560639E+02  0.14252501887E+02  0.28533465795E+02  0.51100000000E-03 0.  1.
        -12    1    4    4    0    0  0.79297413101E+01 -0.63376168553E+01  0.81801246017E+01  0.13036894690E+02  0.00000000000E+00 0.  1.
</event>
<event>
 8    1  0.1261983E-006  0.9118800E+02  0.7816164E-02  0.1184000E+00
        -11   -1    0    0    0    0  0.00000000000E+00  0.00000000000E+00  0.45593999997E+02  0.45594000000E+02  0.51100000000E-03 0.  1.
         11   -1    0    0    0    0 -0.00000000000E+00 -0.00000000000E+00 -0.45593999997E+02  0.45594000000E+02  0.51100000000E-03 0. -1.
         23    2    1    2    0    0 -0.88817841970E-15 -0.88817841970E-15  0.00000000000E+00  0.91188000000E+02  0.91188000000E+02 0.  0.
    9900012    2    3    3    0    0  0.26403738539E+01  0.40695693349E+01 -0.36499893952E+02  0.54367146844E+02  0.40000142859E+02 0.  0.
        -12    1    3    3    0    0 -0.26403738539E+01 -0.40695693349E+01  0.36499893952E+02  0.36820853156E+02  0.00000000000E+00 0.  1.
         11    1    4    4    0    0 -0.64475120600E+01 -0.50646541342E+01 -0.15388887017E+02  0.17436713485E+02  0.51100000000E-03 0. -1.
        -11    1    4    4    0    0  0.14060422485E+02  0.15693140322E+02 -0.19142320637E+02  0.28467500299E+02  0.51100000000E-03 0.  1.
        -12    1    4    4    0    0 -0.49725365710E+01 -0.65589168532E+01 -0.19686862978E+01  0.84629330599E+01  0.00000000000E+00 0.  1.
</event>
<event>
 8    1  0.1261983E-006  0.9118800E+02  0.7816164E-02  0.1184000E+00
        -11   -1    0    0    0    0  0.00000000000E+00  0.00000000000E+00  0.45593999997E+02  0.45594000000E+02  0.51100000000E-03 0.  1.
         11   -1    0    0    0    0 -0.00000000000E+00 -0.00000000000E+00 -0.45593999997E+02  0.45594000000E+02  0.51100000000E-03 0. -1.
         23    2    1    2    0    0  0.00000000000E+00  0.00000000000E+00  0.00000000000E+00  0.91188000000E+02  0.91188000000E+02 0.  0.
    9900012    2    3    3    0    0 -0.14290143138E+02  0.29575801801E+02 -0.16638608091E+02  0.54367088519E+02  0.40000009896E+02 0.  0.
        -12    1    3    3    0    0  0.14290143138E+02 -0.29575801801E+02  0.16638608091E+02  0.36820911481E+02  0.00000000000E+00 0.  1.
         11    1    4    4    0    0  0.28708826550E+01  0.67963732262E+01 -0.12848577258E+02  0.14816159896E+02  0.51100000000E-03 0. -1.
        -11    1    4    4    0    0 -0.38824429055E+01 -0.20096180160E+01 -0.98565351095E+01  0.10782542006E+02  0.51100000000E-03 0.  1.
        -12    1    4    4    0    0 -0.13278582887E+02  0.24789046591E+02  0.60665042763E+01  0.28768386617E+02  0.00000000000E+00 0.  1.
</event>
<event>
 8    1  0.1261983E-006  0.9118800E+02  0.7816164E-02  0.1184000E+00
        -11   -1    0    0    0    0  0.00000000000E+00  0.00000000000E+00  0.45593999997E+02  0.45594000000E+02  0.51100000000E-03 0.  1.
         11   -1    0    0    0    0 -0.00000000000E+00 -0.00000000000E+00 -0.45593999997E+02  0.45594000000E+02  0.51100000000E-03 0. -1.
         23    2    1    2    0    0  0.00000000000E+00  0.00000000000E+00  0.44408920985E-15  0.91188000000E+02  0.91188000000E+02 0.  0.
    9900012    2    3    3    0    0  0.29306328807E+02 -0.22064462272E+02 -0.31745549393E+01  0.54367092861E+02  0.40000019795E+02 0.  0.
         12    1    3    3    0    0 -0.29306328807E+02  0.22064462272E+02  0.31745549393E+01  0.36820907139E+02  0.00000000000E+00 0. -1.
         11    1    4    4    0    0  0.92558332349E+01  0.15965322735E+00 -0.80208287830E+01  0.12248658402E+02  0.51100000000E-03 0. -1.
        -11    1    4    4    0    0  0.16686031320E+00 -0.19806580459E+01 -0.99295480587E+01  0.10126538084E+02  0.51100000000E-03 0.  1.
        -12    1    4    4    0    0  0.19883635259E+02 -0.20243457453E+02  0.14775821902E+02  0.31991896375E+02  0.00000000000E+00 0.  1.
</event>
<event>
 8    1  0.1261983E-006  0.9118800E+02  0.7816164E-02  0.1184000E+00
        -11   -1    0    0    0    0  0.00000000000E+00  0.00000000000E+00  0.45593999997E+02  0.45594000000E+02  0.51100000000E-03 0. -1.
         11   -1    0    0    0    0 -0.00000000000E+00 -0.00000000000E+00 -0.45593999997E+02  0.45594000000E+02  0.51100000000E-03 0.  1.
         23    2    1    2    0    0  0.00000000000E+00  0.00000000000E+00  0.00000000000E+00  0.91188000000E+02  0.91188000000E+02 0.  0.
    9900012    2    3    3    0    0 -0.10998149788E+02  0.17955607720E+02 -0.30206254751E+02  0.54367068813E+02  0.39999964974E+02 0.  0.
         12    1    3    3    0    0  0.10998149788E+02 -0.17955607720E+02  0.30206254751E+02  0.36820931187E+02  0.00000000000E+00 0. -1.
         11    1    4    4    0    0  0.39956505325E+01  0.73599638390E+01 -0.15969675202E+02  0.18032327004E+02  0.51100000000E-03 0. -1.
        -11    1    4    4    0    0 -0.13144417767E+02  0.14191336339E+02  0.21445311951E+01  0.19461982423E+02  0.51100000000E-03 0.  1.
        -12    1    4    4    0    0 -0.18493825542E+01 -0.35956924581E+01 -0.16381110745E+02  0.16872759386E+02  0.00000000000E+00 0.  1.
</event>
<event>
 8    1  0.1261983E-006  0.9118800E+02  0.7816164E-02  0.1184000E+00
        -11   -1    0    0    0    0  0.00000000000E+00  0.00000000000E+00  0.45593999997E+02  0.45594000000E+02  0.51100000000E-03 0.  1.
         11   -1    0    0    0    0 -0.00000000000E+00 -0.00000000000E+00 -0.45593999997E+02  0.45594000000E+02  0.51100000000E-03 0. -1.
         23    2    1    2    0    0  0.00000000000E+00 -0.35527136788E-14  0.00000000000E+00  0.91188000000E+02  0.91188000000E+02 0.  0.
    9900012    2    3    3    0    0 -0.20557200193E+02 -0.26468370793E+02 -0.15251718337E+02  0.54366972795E+02  0.39999746081E+02 0.  0.
        -12    1    3    3    0    0  0.20557200193E+02  0.26468370793E+02  0.15251718337E+02  0.36821027205E+02  0.00000000000E+00 0.  1.
         11    1    4    4    0    0 -0.80726655687E+01 -0.19799047375E+02  0.43607674032E+01  0.21821697893E+02  0.51100000000E-03 0. -1.
        -11    1    4    4    0    0 -0.16207249854E+02 -0.53717724455E+00 -0.19511999199E+02  0.25370881345E+02  0.51100000000E-03 0.  1.
        -12    1    4    4    0    0  0.37227152297E+01 -0.61321461734E+01 -0.10048654068E+00  0.71743935575E+01  0.00000000000E+00 0.  1.
</event>
<event>
 8    1  0.1261983E-006  0.9118800E+02  0.7816164E-02  0.1184000E+00
        -11   -1    0    0    0    0  0.00000000000E+00  0.00000000000E+00  0.45593999997E+02  0.45594000000E+02  0.51100000000E-03 0.  1.
         11   -1    0    0    0    0 -0.00000000000E+00 -0.00000000000E+00 -0.45593999997E+02  0.45594000000E+02  0.51100000000E-03 0. -1.
         23    2    1    2    0    0  0.00000000000E+00  0.00000000000E+00 -0.17763568394E-14  0.91188000000E+02  0.91188000000E+02 0.  0.
    9900012    2    3    3    0    0  0.14410851666E+02  0.30652615027E+02 -0.14440333938E+02  0.54367099712E+02  0.40000035413E+02 0.  0.
        -12    1    3    3    0    0 -0.14410851666E+02 -0.30652615027E+02  0.14440333938E+02  0.36820900288E+02  0.00000000000E+00 0.  1.
         11    1    4    4    0    0  0.82920411570E+01 -0.23351594279E+01 -0.13295101408E+02  0.15842052828E+02  0.51100000000E-03 0. -1.
        -11    1    4    4    0    0  0.14000182524E+01 -0.23723389571E+01 -0.72720970048E+00  0.28490134159E+01  0.51100000000E-03 0.  1.
         12    1    4    4    0    0  0.47187922569E+01  0.35360113412E+02 -0.41802282981E+00  0.35676033468E+02  0.00000000000E+00 0. -1.
</event>
<event>
 8    1  0.1261983E-006  0.9118800E+02  0.7816164E-02  0.1184000E+00
        -11   -1    0    0    0    0  0.00000000000E+00  0.00000000000E+00  0.45593999997E+02  0.45594000000E+02  0.51100000000E-03 0. -1.
         11   -1    0    0    0    0 -0.00000000000E+00 -0.00000000000E+00 -0.45593999997E+02  0.45594000000E+02  0.51100000000E-03 0.  1.
         23    2    1    2    0    0  0.00000000000E+00  0.00000000000E+00  0.00000000000E+00  0.91188000000E+02  0.91188000000E+02 0.  0.
    9900012    2    3    3    0    0  0.35434404694E+02 -0.98225503403E+01  0.19229596898E+01  0.54367118626E+02  0.40000078531E+02 0.  0.
        -12    1    3    3    0    0 -0.35434404694E+02  0.98225503403E+01 -0.19229596898E+01  0.36820881374E+02  0.00000000000E+00 0.  1.
         11    1    4    4    0    0  0.17510126610E+02 -0.94352993212E+01  0.80570348749E+00  0.19906746735E+02  0.51100000000E-03 0. -1.
        -11    1    4    4    0    0  0.10048907297E+02 -0.13033010214E+02 -0.65412834140E+01  0.17709553412E+02  0.51100000000E-03 0.  1.
        -12    1    4    4    0    0  0.78753707871E+01  0.12645759195E+02  0.76585396163E+01  0.16750818479E+02  0.00000000000E+00 0.  1.
</event>
<event>
 8    1  0.1261983E-006  0.9118800E+02  0.7816164E-02  0.1184000E+00
        -11   -1    0    0    0    0  0.00000000000E+00  0.00000000000E+00  0.45593999997E+02  0.45594000000E+02  0.51100000000E-03 0.  1.
         11   -1    0    0    0    0 -0.00000000000E+00 -0.00000000000E+00 -0.45593999997E+02  0.45594000000E+02  0.51100000000E-03 0. -1.
         23    2    1    2    0    0  0.00000000000E+00  0.00000000000E+00  0.00000000000E+00  0.91188000000E+02  0.91188000000E+02 0.  0.
    9900012    2    3    3    0    0 -0.13983246632E+02  0.20838509653E+02 -0.26944450836E+02  0.54367107808E+02  0.40000053871E+02 0.  0.
        -12    1    3    3    0    0  0.13983246632E+02 -0.20838509653E+02  0.26944450836E+02  0.36820892192E+02  0.00000000000E+00 0.  1.
         11    1    4    4    0    0 -0.48711865494E+01  0.15545879846E+02 -0.10036343450E+02  0.19134550654E+02  0.51100000000E-03 0. -1.
        -11    1    4    4    0    0 -0.14993885788E+02  0.19052091917E+01  0.19035422633E+01  0.15233840832E+02  0.51100000000E-03 0.  1.
        -12    1    4    4    0    0  0.58818257052E+01  0.33874206148E+01 -0.18811649649E+02  0.19998716323E+02  0.00000000000E+00 0.  1.
</event>
<event>
 8    1  0.1261983E-006  0.9118800E+02  0.7816164E-02  0.1184000E+00
        -11   -1    0    0    0    0  0.00000000000E+00  0.00000000000E+00  0.45593999997E+02  0.45594000000E+02  0.51100000000E-03 0.  1.
         11   -1    0    0    0    0 -0.00000000000E+00 -0.00000000000E+00 -0.45593999997E+02  0.45594000000E+02  0.51100000000E-03 0. -1.
         23    2    1    2    0    0  0.00000000000E+00  0.00000000000E+00  0.00000000000E+00  0.91188000000E+02  0.91188000000E+02 0.  0.
    9900012    2    3    3    0    0 -0.12980681157E+02  0.20220263302E+02  0.27900211225E+02  0.54367096729E+02  0.40000028613E+02 0.  0.
         12    1    3    3    0    0  0.12980681157E+02 -0.20220263302E+02 -0.27900211225E+02  0.36820903271E+02  0.00000000000E+00 0. -1.
         11    1    4    4    0    0 -0.42236054651E+01  0.78898721174E+01  0.60577040936E+01  0.10806697197E+02  0.51100000000E-03 0.  1.
        -11    1    4    4    0    0 -0.45341337416E+01  0.22785503001E+02  0.22398160788E+02  0.32270964081E+02  0.51100000000E-03 0. -1.
        -12    1    4    4    0    0 -0.42229419500E+01 -0.10455111817E+02 -0.55565365621E+00  0.11289435451E+02  0.00000000000E+00 0.  1.
</event>
<event>
 8    1  0.1261983E-006  0.9118800E+02  0.7816164E-02  0.1184000E+00
        -11   -1    0    0    0    0  0.00000000000E+00  0.00000000000E+00  0.45593999997E+02  0.45594000000E+02  0.51100000000E-03 0.  1.
         11   -1    0    0    0    0 -0.00000000000E+00 -0.00000000000E+00 -0.45593999997E+02  0.45594000000E+02  0.51100000000E-03 0. -1.
         23    2    1    2    0    0 -0.17763568394E-14  0.35527136788E-14  0.00000000000E+00  0.91188000000E+02  0.91188000000E+02 0.  0.
    9900012    2    3    3    0    0  0.13831050847E+02 -0.22968783614E+02 -0.25237222751E+02  0.54367076594E+02  0.39999982712E+02 0.  0.
        -12    1    3    3    0    0 -0.13831050847E+02  0.22968783614E+02  0.25237222751E+02  0.36820923406E+02  0.00000000000E+00 0.  1.
         11    1    4    4    0    0 -0.19478025780E+01 -0.21594186058E+02 -0.24118047486E+02  0.32431204436E+02  0.51100000000E-03 0. -1.
        -11    1    4    4    0    0  0.14897170604E+02  0.46603916023E+01 -0.21294412803E+01  0.15753712652E+02  0.51100000000E-03 0.  1.
         12    1    4    4    0    0  0.88168282125E+00 -0.60349891587E+01  0.10102660149E+01  0.61821595065E+01  0.00000000000E+00 0. -1.
</event>
<event>
 8    1  0.1261983E-006  0.9118800E+02  0.7816164E-02  0.1184000E+00
        -11   -1    0    0    0    0  0.00000000000E+00  0.00000000000E+00  0.45593999997E+02  0.45594000000E+02  0.51100000000E-03 0. -1.
         11   -1    0    0    0    0 -0.00000000000E+00 -0.00000000000E+00 -0.45593999997E+02  0.45594000000E+02  0.51100000000E-03 0.  1.
         23    2    1    2    0    0  0.35527136788E-14  0.35527136788E-14  0.00000000000E+00  0.91188000000E+02  0.91188000000E+02 0.  0.
    9900012    2    3    3    0    0  0.28906699257E+02  0.12994787156E+02  0.18743489522E+02  0.54367079933E+02  0.39999990323E+02 0.  0.
         12    1    3    3    0    0 -0.28906699257E+02 -0.12994787156E+02 -0.18743489522E+02  0.36820920067E+02  0.00000000000E+00 0. -1.
         11    1    4    4    0    0  0.57996979015E+01 -0.13873363030E+02  0.39637967778E+01  0.15550510688E+02  0.51100000000E-03 0. -1.
        -11    1    4    4    0    0  0.16312239810E+01  0.50961763868E+00 -0.81288516215E-01  0.17109090852E+01  0.51100000000E-03 0.  1.
         12    1    4    4    0    0  0.21475777374E+02  0.26358532547E+02  0.14860981260E+02  0.37105660159E+02  0.00000000000E+00 0. -1.
</event>
<event>
 8    1  0.1261983E-006  0.9118800E+02  0.7816164E-02  0.1184000E+00
        -11   -1    0    0    0    0  0.00000000000E+00  0.00000000000E+00  0.45593999997E+02  0.45594000000E+02  0.51100000000E-03 0.  1.
         11   -1    0    0    0    0 -0.00000000000E+00 -0.00000000000E+00 -0.45593999997E+02  0.45594000000E+02  0.51100000000E-03 0. -1.
         23    2    1    2    0    0  0.00000000000E+00  0.35527136788E-14 -0.22204460493E-15  0.91188000000E+02  0.91188000000E+02 0.  0.
    9900012    2    3    3    0    0  0.24150292584E+02  0.27728088275E+02 -0.19227388183E+01  0.54367076114E+02  0.39999981617E+02 0.  0.
        -12    1    3    3    0    0 -0.24150292584E+02 -0.27728088275E+02  0.19227388183E+01  0.36820923886E+02  0.00000000000E+00 0.  1.
         11    1    4    4    0    0  0.10928632264E+02  0.21843164459E+02 -0.33633310471E+01  0.24655036661E+02  0.51100000000E-03 0. -1.
        -11    1    4    4    0    0 -0.26060846476E+01  0.96301654573E+01 -0.61956368777E+01  0.11743835851E+02  0.51100000000E-03 0.  1.
         12    1    4    4    0    0  0.15827744968E+02 -0.37452416414E+01  0.76362291065E+01  0.17968203602E+02  0.00000000000E+00 0. -1.
</event>
<event>
 8    1  0.1261983E-006  0.9118800E+02  0.7816164E-02  0.1184000E+00
        -11   -1    0    0    0    0  0.00000000000E+00  0.00000000000E+00  0.45593999997E+02  0.45594000000E+02  0.51100000000E-03 0. -1.
         11   -1    0    0    0    0 -0.00000000000E+00 -0.00000000000E+00 -0.45593999997E+02  0.45594000000E+02  0.51100000000E-03 0.  1.
         23    2    1    2    0    0  0.00000000000E+00  0.17763568394E-14  0.00000000000E+00  0.91188000000E+02  0.91188000000E+02 0.  0.
    9900012    2    3    3    0    0  0.25716679012E+02 -0.50371630971E+01 -0.25866154965E+02  0.54367101529E+02  0.40000039557E+02 0.  0.
         12    1    3    3    0    0 -0.25716679012E+02  0.50371630971E+01  0.25866154965E+02  0.36820898471E+02  0.00000000000E+00 0. -1.
         11    1    4    4    0    0 -0.80807168130E+01 -0.51332479135E+01  0.14127346079E+01  0.96769849481E+01  0.51100000000E-03 0. -1.
        -11    1    4    4    0    0  0.30803522065E+02  0.77461445142E+00 -0.19854060788E+02  0.36655705274E+02  0.51100000000E-03 0.  1.
        -12    1    4    4    0    0  0.29938737609E+01 -0.67852963499E+00 -0.74248287851E+01  0.80344113069E+01  0.00000000000E+00 0.  1.
</event>
<event>
 8    1  0.1261983E-006  0.9118800E+02  0.7816164E-02  0.1184000E+00
        -11   -1    0    0    0    0  0.00000000000E+00  0.00000000000E+00  0.45593999997E+02  0.45594000000E+02  0.51100000000E-03 0.  1.
         11   -1    0    0    0    0 -0.00000000000E+00 -0.00000000000E+00 -0.45593999997E+02  0.45594000000E+02  0.51100000000E-03 0. -1.
         23    2    1    2    0    0  0.00000000000E+00  0.00000000000E+00  0.00000000000E+00  0.91188000000E+02  0.91188000000E+02 0.  0.
    9900012    2    3    3    0    0  0.17488401211E+02 -0.31666361361E+02  0.68686233367E+01  0.54367073812E+02  0.39999976370E+02 0.  0.
         12    1    3    3    0    0 -0.17488401211E+02  0.31666361361E+02 -0.68686233367E+01  0.36820926188E+02  0.00000000000E+00 0. -1.
         11    1    4    4    0    0  0.72148181700E+01  0.81131662202E+00 -0.61481790015E+00  0.72862773211E+01  0.51100000000E-03 0. -1.
        -11    1    4    4    0    0 -0.94149350756E+01 -0.42601600319E+01  0.73360861578E+01  0.12673126148E+02  0.51100000000E-03 0.  1.
         12    1    4    4    0    0  0.19688518117E+02 -0.28217517951E+02  0.14735507901E+00  0.34407670344E+02  0.00000000000E+00 0. -1.
</event>
<event>
 8    1  0.1261983E-006  0.9118800E+02  0.7816164E-02  0.1184000E+00
        -11   -1    0    0    0    0  0.00000000000E+00  0.00000000000E+00  0.45593999997E+02  0.45594000000E+02  0.51100000000E-03 0.  1.
         11   -1    0    0    0    0 -0.00000000000E+00 -0.00000000000E+00 -0.45593999997E+02  0.45594000000E+02  0.51100000000E-03 0. -1.
         23    2    1    2    0    0  0.00000000000E+00 -0.35527136788E-14  0.35527136788E-14  0.91188000000E+02  0.91188000000E+02 0.  0.
    9900012    2    3    3    0    0 -0.88697858899E+01 -0.28062441947E+02  0.22127048357E+02  0.54367081778E+02  0.39999994529E+02 0.  0.
        -12    1    3    3    0    0  0.88697858899E+01  0.28062441947E+02 -0.22127048357E+02  0.36820918222E+02  0.00000000000E+00 0.  1.
         11    1    4    4    0    0 -0.73383451187E+01 -0.11885036512E+02 -0.28592354262E+01  0.14257651611E+02  0.51100000000E-03 0. -1.
        -11    1    4    4    0    0 -0.60201585364E+00  0.29619273856E+00  0.23536501976E+02  0.23546062915E+02  0.51100000000E-03 0.  1.
        -12    1    4    4    0    0 -0.92942491754E+00 -0.16473598173E+02  0.14497818065E+01  0.16563367252E+02  0.00000000000E+00 0.  1.
</event>
<event>
 8    1  0.1261983E-006  0.9118800E+02  0.7816164E-02  0.1184000E+00
        -11   -1    0    0    0    0  0.00000000000E+00  0.00000000000E+00  0.45593999997E+02  0.45594000000E+02  0.51100000000E-03 0. -1.
         11   -1    0    0    0    0 -0.00000000000E+00 -0.00000000000E+00 -0.45593999997E+02  0.45594000000E+02  0.51100000000E-03 0.  1.
         23    2    1    2    0    0  0.17763568394E-14 -0.35527136788E-14  0.00000000000E+00  0.91188000000E+02  0.91188000000E+02 0.  0.
    9900012    2    3    3    0    0 -0.14611973786E+02 -0.30098513124E+02 -0.15373675381E+02  0.54367079793E+02  0.39999990003E+02 0.  0.
         12    1    3    3    0    0  0.14611973786E+02  0.30098513124E+02  0.15373675381E+02  0.36820920207E+02  0.00000000000E+00 0. -1.
         11    1    4    4    0    0 -0.33508498437E+01 -0.65444860700E+01 -0.69262549394E+01  0.10101064317E+02  0.51100000000E-03 0. -1.
        -11    1    4    4    0    0 -0.20176163041E+02 -0.56674755229E+01  0.30993224611E+01  0.21184986047E+02  0.51100000000E-03 0.  1.
         12    1    4    4    0    0  0.89150390983E+01 -0.17886551531E+02 -0.11546742903E+02  0.23081029428E+02  0.00000000000E+00 0. -1.
</event>
<event>
 8    1  0.1261983E-006  0.9118800E+02  0.7816164E-02  0.1184000E+00
        -11   -1    0    0    0    0  0.00000000000E+00  0.00000000000E+00  0.45593999997E+02  0.45594000000E+02  0.51100000000E-03 0.  1.
         11   -1    0    0    0    0 -0.00000000000E+00 -0.00000000000E+00 -0.45593999997E+02  0.45594000000E+02  0.51100000000E-03 0. -1.
         23    2    1    2    0    0 -0.35527136788E-14  0.00000000000E+00  0.00000000000E+00  0.91188000000E+02  0.91188000000E+02 0.  0.
    9900012    2    3    3    0    0  0.24754403850E+02 -0.10222884052E+02  0.25268403052E+02  0.54367081203E+02  0.39999993218E+02 0.  0.
         12    1    3    3    0    0 -0.24754403850E+02  0.10222884052E+02 -0.25268403052E+02  0.36820918797E+02  0.00000000000E+00 0. -1.
         11    1    4    4    0    0 -0.54961740534E+01 -0.10998974237E+01  0.41338604086E+01  0.69646612055E+01  0.51100000000E-03 0. -1.
        -11    1    4    4    0    0  0.35234165514E+02 -0.73849723219E+01  0.21794959915E+02  0.42083304452E+02  0.51100000000E-03 0.  1.
        -12    1    4    4    0    0 -0.49835876114E+01 -0.17380143061E+01 -0.66041727163E+00  0.53191155450E+01  0.00000000000E+00 0.  1.
</event>
<event>
 8    1  0.1261983E-006  0.9118800E+02  0.7816164E-02  0.1184000E+00
        -11   -1    0    0    0    0  0.00000000000E+00  0.00000000000E+00  0.45593999997E+02  0.45594000000E+02  0.51100000000E-03 0. -1.
         11   -1    0    0    0    0 -0.00000000000E+00 -0.00000000000E+00 -0.45593999997E+02  0.45594000000E+02  0.51100000000E-03 0.  1.
         23    2    1    2    0    0  0.35527136788E-14 -0.44408920985E-15  0.35527136788E-14  0.91188000000E+02  0.91188000000E+02 0.  0.
    9900012    2    3    3    0    0 -0.29153098328E+02 -0.25305466605E+01  0.22348904493E+02  0.54367077408E+02  0.39999984567E+02 0.  0.
        -12    1    3    3    0    0  0.29153098328E+02  0.25305466605E+01 -0.22348904493E+02  0.36820922592E+02  0.00000000000E+00 0.  1.
         11    1    4    4    0    0 -0.14473050865E+02  0.66787282285E+01  0.15733558235E+02  0.22396862884E+02  0.51100000000E-03 0. -1.
        -11    1    4    4    0    0 -0.33850691295E+01 -0.26209751500E+01  0.15553046479E+02  0.16131505162E+02  0.51100000000E-03 0.  1.
        -12    1    4    4    0    0 -0.11294978334E+02 -0.65882997390E+01 -0.89377002209E+01  0.15838709362E+02  0.00000000000E+00 0.  1.
</event>
<event>
 8    1  0.1261983E-006  0.9118800E+02  0.7816164E-02  0.1184000E+00
        -11   -1    0    0    0    0  0.00000000000E+00  0.00000000000E+00  0.45593999997E+02  0.45594000000E+02  0.51100000000E-03 0. -1.
         11   -1    0    0    0    0 -0.00000000000E+00 -0.00000000000E+00 -0.45593999997E+02  0.45594000000E+02  0.51100000000E-03 0.  1.
         23    2    1    2    0    0  0.35527136788E-14  0.17763568394E-14  0.71054273576E-14  0.91188000000E+02  0.91188000000E+02 0.  0.
    9900012    2    3    3    0    0  0.16147712965E+02 -0.70539597442E+01  0.32330679112E+02  0.54367084830E+02  0.40000001488E+02 0.  0.
        -12    1    3    3    0    0 -0.16147712965E+02  0.70539597442E+01 -0.32330679112E+02  0.36820915170E+02  0.00000000000E+00 0.  1.
         11    1    4    4    0    0  0.10719876374E+02  0.29207625541E+01  0.12852935458E+02  0.16989542475E+02  0.51100000000E-03 0. -1.
        -11    1    4    4    0    0  0.24071490093E+01 -0.17549116063E+02  0.16705536921E+01  0.17792037288E+02  0.51100000000E-03 0.  1.
        -12    1    4    4    0    0  0.30206875813E+01  0.75743937652E+01  0.17807189962E+02  0.19585505067E+02  0.00000000000E+00 0.  1.
</event>
<event>
 8    1  0.1261983E-006  0.9118800E+02  0.7816164E-02  0.1184000E+00
        -11   -1    0    0    0    0  0.00000000000E+00  0.00000000000E+00  0.45593999997E+02  0.45594000000E+02  0.51100000000E-03 0. -1.
         11   -1    0    0    0    0 -0.00000000000E+00 -0.00000000000E+00 -0.45593999997E+02  0.45594000000E+02  0.51100000000E-03 0.  1.
         23    2    1    2    0    0  0.00000000000E+00  0.35527136788E-14  0.00000000000E+00  0.91188000000E+02  0.91188000000E+02 0.  0.
    9900012    2    3    3    0    0 -0.23815632680E+02 -0.27047781471E+02 -0.75506324545E+01  0.54367097065E+02  0.40000029379E+02 0.  0.
         12    1    3    3    0    0  0.23815632680E+02  0.27047781471E+02  0.75506324545E+01  0.36820902935E+02  0.00000000000E+00 0. -1.
         11    1    4    4    0    0 -0.20764721427E+02 -0.30932391908E+02 -0.55994931096E+01  0.37674140314E+02  0.51100000000E-03 0. -1.
        -11    1    4    4    0    0 -0.52842300057E+01 -0.50749452436E+01 -0.47410535770E+00  0.73418616257E+01  0.51100000000E-03 0.  1.
         12    1    4    4    0    0  0.22333187524E+01  0.89595556802E+01 -0.14770339873E+01  0.93510951250E+01  0.00000000000E+00 0. -1.
</event>
<event>
 8    1  0.1261983E-006  0.9118800E+02  0.7816164E-02  0.1184000E+00
        -11   -1    0    0    0    0  0.00000000000E+00  0.00000000000E+00  0.45593999997E+02  0.45594000000E+02  0.51100000000E-03 0.  1.
         11   -1    0    0    0    0 -0.00000000000E+00 -0.00000000000E+00 -0.45593999997E+02  0.45594000000E+02  0.51100000000E-03 0. -1.
         23    2    1    2    0    0  0.35527136788E-14  0.00000000000E+00  0.00000000000E+00  0.91188000000E+02  0.91188000000E+02 0.  0.
    9900012    2    3    3    0    0  0.26997495983E+02  0.23136140959E+02 -0.95725896060E+01  0.54367078236E+02  0.39999986453E+02 0.  0.
         12    1    3    3    0    0 -0.26997495983E+02 -0.23136140959E+02  0.95725896060E+01  0.36820921764E+02  0.00000000000E+00 0. -1.
         11    1    4    4    0    0  0.13628614101E+02 -0.41287390305E+01  0.10014624887E+02  0.17409144729E+02  0.51100000000E-03 0.  1.
        -11    1    4    4    0    0  0.16695849163E+01  0.85644651635E+01 -0.88381827099E+01  0.12419784668E+02  0.51100000000E-03 0. -1.
        -12    1    4    4    0    0  0.11699296966E+02  0.18700414826E+02 -0.10749031783E+02  0.24538148839E+02  0.00000000000E+00 0.  1.
</event>
<event>
 8    1  0.1261983E-006  0.9118800E+02  0.7816164E-02  0.1184000E+00
        -11   -1    0    0    0    0  0.00000000000E+00  0.00000000000E+00  0.45593999997E+02  0.45594000000E+02  0.51100000000E-03 0. -1.
         11   -1    0    0    0    0 -0.00000000000E+00 -0.00000000000E+00 -0.45593999997E+02  0.45594000000E+02  0.51100000000E-03 0.  1.
         23    2    1    2    0    0  0.00000000000E+00  0.17763568394E-14  0.00000000000E+00  0.91188000000E+02  0.91188000000E+02 0.  0.
    9900012    2    3    3    0    0 -0.32655855676E+02 -0.10626327596E+02  0.13283676150E+02  0.54367084745E+02  0.40000001294E+02 0.  0.
        -12    1    3    3    0    0  0.32655855676E+02  0.10626327596E+02 -0.13283676150E+02  0.36820915255E+02  0.00000000000E+00 0.  1.
         11    1    4    4    0    0 -0.15932592336E+02 -0.16701890707E+01 -0.85986939301E+01  0.18181709700E+02  0.51100000000E-03 0. -1.
        -11    1    4    4    0    0  0.27998302093E+01 -0.33142021275E+01 -0.20419033663E+01  0.47950343649E+01  0.51100000000E-03 0.  1.
         12    1    4    4    0    0 -0.19523093550E+02 -0.56419363981E+01  0.23924273446E+02  0.31390340680E+02  0.00000000000E+00 0. -1.
</event>
<event>
 8    1  0.1261983E-006  0.9118800E+02  0.7816164E-02  0.1184000E+00
        -11   -1    0    0    0    0  0.00000000000E+00  0.00000000000E+00  0.45593999997E+02  0.45594000000E+02  0.51100000000E-03 0.  1.
         11   -1    0    0    0    0 -0.00000000000E+00 -0.00000000000E+00 -0.45593999997E+02  0.45594000000E+02  0.51100000000E-03 0. -1.
         23    2    1    2    0    0  0.88817841970E-15 -0.35527136788E-14 -0.35527136788E-14  0.91188000000E+02  0.91188000000E+02 0.  0.
    9900012    2    3    3    0    0 -0.58145989228E+01 -0.21298534356E+02 -0.29467652986E+02  0.54367086121E+02  0.40000004430E+02 0.  0.
        -12    1    3    3    0    0  0.58145989228E+01  0.21298534356E+02  0.29467652986E+02  0.36820913879E+02  0.00000000000E+00 0.  1.
         11    1    4    4    0    0 -0.59357489512E+01 -0.15022617471E+02 -0.12230452102E+02  0.20260703595E+02  0.51100000000E-03 0. -1.
        -11    1    4    4    0    0 -0.10181966598E+02 -0.13448369269E+02 -0.94853424228E+01  0.19352074848E+02  0.51100000000E-03 0.  1.
        -12    1    4    4    0    0  0.10303116627E+02  0.71724523842E+01 -0.77518584620E+01  0.14754307677E+02  0.00000000000E+00 0.  1.
</event>
<event>
 8    1  0.1261983E-006  0.9118800E+02  0.7816164E-02  0.1184000E+00
        -11   -1    0    0    0    0  0.00000000000E+00  0.00000000000E+00  0.45593999997E+02  0.45594000000E+02  0.51100000000E-03 0.  1.
         11   -1    0    0    0    0 -0.00000000000E+00 -0.00000000000E+00 -0.45593999997E+02  0.45594000000E+02  0.51100000000E-03 0. -1.
         23    2    1    2    0    0 -0.35527136788E-14  0.35527136788E-14  0.00000000000E+00  0.91188000000E+02  0.91188000000E+02 0.  0.
    9900012    2    3    3    0    0 -0.15516450770E+02  0.28295174207E+02  0.17731417451E+02  0.54367078057E+02  0.39999986047E+02 0.  0.
         12    1    3    3    0    0  0.15516450770E+02 -0.28295174207E+02 -0.17731417451E+02  0.36820921943E+02  0.00000000000E+00 0. -1.
         11    1    4    4    0    0 -0.10976869078E+02  0.63881591239E+01  0.11295492487E+00  0.12700905118E+02  0.51100000000E-03 0. -1.
        -11    1    4    4    0    0  0.11260143074E+02  0.41748094576E+01  0.12571789775E+02  0.17385906777E+02  0.51100000000E-03 0.  1.
        -12    1    4    4    0    0 -0.15799724767E+02  0.17732205625E+02  0.50466727513E+01  0.24280266162E+02  0.00000000000E+00 0.  1.
</event>
<event>
 8    1  0.1261983E-006  0.9118800E+02  0.7816164E-02  0.1184000E+00
        -11   -1    0    0    0    0  0.00000000000E+00  0.00000000000E+00  0.45593999997E+02  0.45594000000E+02  0.51100000000E-03 0. -1.
         11   -1    0    0    0    0 -0.00000000000E+00 -0.00000000000E+00 -0.45593999997E+02  0.45594000000E+02  0.51100000000E-03 0.  1.
         23    2    1    2    0    0  0.88817841970E-15  0.17763568394E-14  0.00000000000E+00  0.91188000000E+02  0.91188000000E+02 0.  0.
    9900012    2    3    3    0    0  0.69801772481E+01 -0.47671731150E+01 -0.35837569326E+02  0.54367079464E+02  0.39999989253E+02 0.  0.
         12    1    3    3    0    0 -0.69801772481E+01  0.47671731150E+01  0.35837569326E+02  0.36820920536E+02  0.00000000000E+00 0. -1.
         11    1    4    4    0    0  0.74656233629E+01 -0.34029385309E+01 -0.45205205645E+01  0.93675305858E+01  0.51100000000E-03 0. -1.
        -11    1    4    4    0    0  0.31276569289E+01  0.12569318377E+02 -0.30929412628E+01  0.13316767184E+02  0.51100000000E-03 0.  1.
        -12    1    4    4    0    0 -0.36131030437E+01 -0.13933552961E+02 -0.28224107499E+02  0.31682781694E+02  0.00000000000E+00 0.  1.
</event>
<event>
 8    1  0.1261983E-006  0.9118800E+02  0.7816164E-02  0.1184000E+00
        -11   -1    0    0    0    0  0.00000000000E+00  0.00000000000E+00  0.45593999997E+02  0.45594000000E+02  0.51100000000E-03 0.  1.
         11   -1    0    0    0    0 -0.00000000000E+00 -0.00000000000E+00 -0.45593999997E+02  0.45594000000E+02  0.51100000000E-03 0. -1.
         23    2    1    2    0    0 -0.88817841970E-15 -0.17763568394E-14  0.71054273576E-14  0.91188000000E+02  0.91188000000E+02 0.  0.
    9900012    2    3    3    0    0 -0.32056028919E+01  0.11727996068E+02 -0.34755683822E+02  0.54367090999E+02  0.40000015551E+02 0.  0.
        -12    1    3    3    0    0  0.32056028919E+01 -0.11727996068E+02  0.34755683822E+02  0.36820909001E+02  0.00000000000E+00 0.  1.
         11    1    4    4    0    0 -0.41577653624E+01  0.39427020883E+01 -0.28660259098E+02  0.29227424868E+02  0.51100000000E-03 0. -1.
        -11    1    4    4    0    0  0.34320492036E+01 -0.78347443574E+01 -0.26311788675E+01  0.89490381257E+01  0.51100000000E-03 0.  1.
        -12    1    4    4    0    0 -0.24798867330E+01  0.15620038337E+02 -0.34642458569E+01  0.16190628006E+02  0.00000000000E+00 0.  1.
</event>
<event>
 8    1  0.1261983E-006  0.9118800E+02  0.7816164E-02  0.1184000E+00
        -11   -1    0    0    0    0  0.00000000000E+00  0.00000000000E+00  0.45593999997E+02  0.45594000000E+02  0.51100000000E-03 0.  1.
         11   -1    0    0    0    0 -0.00000000000E+00 -0.00000000000E+00 -0.45593999997E+02  0.45594000000E+02  0.51100000000E-03 0. -1.
         23    2    1    2    0    0  0.35527136788E-14  0.88817841970E-15  0.00000000000E+00  0.91188000000E+02  0.91188000000E+02 0.  0.
    9900012    2    3    3    0    0 -0.29291862585E+02 -0.67904177487E+01  0.21252231614E+02  0.54367077477E+02  0.39999984724E+02 0.  0.
         12    1    3    3    0    0  0.29291862585E+02  0.67904177487E+01 -0.21252231614E+02  0.36820922523E+02  0.00000000000E+00 0. -1.
         11    1    4    4    0    0 -0.21907704638E+02 -0.71485751350E+01  0.19861663355E+02  0.30422611993E+02  0.51100000000E-03 0.  1.
        -11    1    4    4    0    0 -0.13984496544E+02  0.39617534768E+01 -0.35304081943E+01  0.14957453542E+02  0.51100000000E-03 0. -1.
         12    1    4    4    0    0  0.66003385971E+01 -0.36035960906E+01  0.49209764532E+01  0.89870119413E+01  0.00000000000E+00 0. -1.
</event>
<event>
 8    1  0.1261983E-006  0.9118800E+02  0.7816164E-02  0.1184000E+00
        -11   -1    0    0    0    0  0.00000000000E+00  0.00000000000E+00  0.45593999997E+02  0.45594000000E+02  0.51100000000E-03 0. -1.
         11   -1    0    0    0    0 -0.00000000000E+00 -0.00000000000E+00 -0.45593999997E+02  0.45594000000E+02  0.51100000000E-03 0.  1.
         23    2    1    2    0    0 -0.35527136788E-14  0.11102230246E-15 -0.35527136788E-14  0.91188000000E+02  0.91188000000E+02 0.  0.
    9900012    2    3    3    0    0  0.25281234577E+02  0.46846413629E+00  0.26766022137E+02  0.54367079025E+02  0.39999988254E+02 0.  0.
        -12    1    3    3    0    0 -0.25281234577E+02 -0.46846413629E+00 -0.26766022137E+02  0.36820920975E+02  0.00000000000E+00 0.  1.
         11    1    4    4    0    0  0.21428441907E+02 -0.20053167274E+01  0.15312518944E+01  0.21576472149E+02  0.51100000000E-03 0.  1.
        -11    1    4    4    0    0 -0.82892326132E+01  0.15706399908E+01  0.75621166604E+01  0.11329779166E+02  0.51100000000E-03 0. -1.
        -12    1    4    4    0    0  0.12142025282E+02  0.90314087288E+00  0.17672653583E+02  0.21460827711E+02  0.00000000000E+00 0.  1.
</event>
<event>
 8    1  0.1261983E-006  0.9118800E+02  0.7816164E-02  0.1184000E+00
        -11   -1    0    0    0    0  0.00000000000E+00  0.00000000000E+00  0.45593999997E+02  0.45594000000E+02  0.51100000000E-03 0.  1.
         11   -1    0    0    0    0 -0.00000000000E+00 -0.00000000000E+00 -0.45593999997E+02  0.45594000000E+02  0.51100000000E-03 0. -1.
         23    2    1    2    0    0 -0.35527136788E-14  0.00000000000E+00  0.35527136788E-14  0.91188000000E+02  0.91188000000E+02 0.  0.
    9900012    2    3    3    0    0 -0.24786940933E+02 -0.18222937024E+02  0.20231501501E+02  0.54367061289E+02  0.39999947820E+02 0.  0.
         12    1    3    3    0    0  0.24786940933E+02  0.18222937024E+02 -0.20231501501E+02  0.36820938711E+02  0.00000000000E+00 0. -1.
         11    1    4    4    0    0 -0.13757094573E+02  0.56159285124E+01 -0.32032855156E+01  0.15200570466E+02  0.51100000000E-03 0. -1.
        -11    1    4    4    0    0 -0.14686682707E+02 -0.20444448293E+02  0.14820765415E+02  0.29211799032E+02  0.51100000000E-03 0.  1.
         12    1    4    4    0    0  0.36568363468E+01 -0.33944172428E+01  0.86140216021E+01  0.99546917906E+01  0.00000000000E+00 0. -1.
</event>
<event>
 8    1  0.1261983E-006  0.9118800E+02  0.7816164E-02  0.1184000E+00
        -11   -1    0    0    0    0  0.00000000000E+00  0.00000000000E+00  0.45593999997E+02  0.45594000000E+02  0.51100000000E-03 0.  1.
         11   -1    0    0    0    0 -0.00000000000E+00 -0.00000000000E+00 -0.45593999997E+02  0.45594000000E+02  0.51100000000E-03 0. -1.
         23    2    1    2    0    0  0.00000000000E+00  0.00000000000E+00  0.35527136788E-14  0.91188000000E+02  0.91188000000E+02 0.  0.
    9900012    2    3    3    0    0 -0.29470624742E+02  0.27799279727E+01  0.21898315001E+02  0.54367055931E+02  0.39999935607E+02 0.  0.
        -12    1    3    3    0    0  0.29470624742E+02 -0.27799279727E+01 -0.21898315001E+02  0.36820944069E+02  0.00000000000E+00 0.  1.
         11    1    4    4    0    0 -0.31833777677E+02 -0.80954351424E+01  0.21487678970E+02  0.39251061376E+02  0.51100000000E-03 0. -1.
        -11    1    4    4    0    0  0.36025605034E+01  0.26530252610E+01 -0.37317797970E+01  0.58260763753E+01  0.51100000000E-03 0.  1.
         12    1    4    4    0    0 -0.12394075685E+01  0.82223378541E+01  0.41424158277E+01  0.92899181804E+01  0.00000000000E+00 0. -1.
</event>
<event>
 8    1  0.1261983E-006  0.9118800E+02  0.7816164E-02  0.1184000E+00
        -11   -1    0    0    0    0  0.00000000000E+00  0.00000000000E+00  0.45593999997E+02  0.45594000000E+02  0.51100000000E-03 0. -1.
         11   -1    0    0    0    0 -0.00000000000E+00 -0.00000000000E+00 -0.45593999997E+02  0.45594000000E+02  0.51100000000E-03 0.  1.
         23    2    1    2    0    0  0.00000000000E+00  0.00000000000E+00 -0.53290705182E-14  0.91188000000E+02  0.91188000000E+02 0.  0.
    9900012    2    3    3    0    0  0.15377142976E+01 -0.34575879579E+02 -0.12566768406E+02  0.54367086349E+02  0.40000004950E+02 0.  0.
         12    1    3    3    0    0 -0.15377142976E+01  0.34575879579E+02  0.12566768406E+02  0.36820913651E+02  0.00000000000E+00 0. -1.
         11    1    4    4    0    0 -0.35413980033E+01 -0.76071695496E+01  0.94064199778E+01  0.12605207870E+02  0.51100000000E-03 0. -1.
        -11    1    4    4    0    0  0.23571048023E+01 -0.94886837920E+01  0.38099603537E+01  0.10493181658E+02  0.51100000000E-03 0.  1.
        -12    1    4    4    0    0  0.27220074986E+01 -0.17480026237E+02 -0.25783148738E+02  0.31268696821E+02  0.00000000000E+00 0.  1.
</event>
<event>
 8    1  0.1261983E-006  0.9118800E+02  0.7816164E-02  0.1184000E+00
        -11   -1    0    0    0    0  0.00000000000E+00  0.00000000000E+00  0.45593999997E+02  0.45594000000E+02  0.51100000000E-03 0. -1.
         11   -1    0    0    0    0 -0.00000000000E+00 -0.00000000000E+00 -0.45593999997E+02  0.45594000000E+02  0.51100000000E-03 0.  1.
         23    2    1    2    0    0 -0.35527136788E-14  0.35527136788E-14  0.00000000000E+00  0.91188000000E+02  0.91188000000E+02 0.  0.
    9900012    2    3    3    0    0  0.19028073492E+02  0.27221462770E+02 -0.15896732631E+02  0.54367058615E+02  0.39999941725E+02 0.  0.
         12    1    3    3    0    0 -0.19028073492E+02 -0.27221462770E+02  0.15896732631E+02  0.36820941385E+02  0.00000000000E+00 0. -1.
         11    1    4    4    0    0 -0.35348870158E+01 -0.47430748614E+01  0.13734975129E+01  0.60727819847E+01  0.51100000000E-03 0. -1.
        -11    1    4    4    0    0  0.21705566893E+02  0.19474495947E+02 -0.30070890453E+01  0.29316040171E+02  0.51100000000E-03 0.  1.
        -12    1    4    4    0    0  0.85739361418E+00  0.12490041684E+02 -0.14263141099E+02  0.18978236459E+02  0.00000000000E+00 0.  1.
</event>
<event>
 8    1  0.1261983E-006  0.9118800E+02  0.7816164E-02  0.1184000E+00
        -11   -1    0    0    0    0  0.00000000000E+00  0.00000000000E+00  0.45593999997E+02  0.45594000000E+02  0.51100000000E-03 0. -1.
         11   -1    0    0    0    0 -0.00000000000E+00 -0.00000000000E+00 -0.45593999997E+02  0.45594000000E+02  0.51100000000E-03 0.  1.
         23    2    1    2    0    0  0.00000000000E+00 -0.88817841970E-15  0.00000000000E+00  0.91188000000E+02  0.91188000000E+02 0.  0.
    9900012    2    3    3    0    0 -0.35120374586E+02 -0.48438268629E+01 -0.99436850451E+01  0.54367078746E+02  0.39999987616E+02 0.  0.
         12    1    3    3    0    0  0.35120374586E+02  0.48438268629E+01  0.99436850451E+01  0.36820921254E+02  0.00000000000E+00 0. -1.
         11    1    4    4    0    0 -0.20606645060E+02  0.41545679568E+01 -0.27611873701E+01  0.21201849247E+02  0.51100000000E-03 0. -1.
        -11    1    4    4    0    0 -0.16891717612E+02  0.44900093090E+01 -0.84434728970E+01  0.19410887211E+02  0.51100000000E-03 0.  1.
         12    1    4    4    0    0  0.23779880857E+01 -0.13488404129E+02  0.12609752220E+01  0.13754342288E+02  0.00000000000E+00 0. -1.
</event>
<event>
 8    1  0.1261983E-006  0.9118800E+02  0.7816164E-02  0.1184000E+00
        -11   -1    0    0    0    0  0.00000000000E+00  0.00000000000E+00  0.45593999997E+02  0.45594000000E+02  0.51100000000E-03 0. -1.
         11   -1    0    0    0    0 -0.00000000000E+00 -0.00000000000E+00 -0.45593999997E+02  0.45594000000E+02  0.51100000000E-03 0.  1.
         23    2    1    2    0    0 -0.88817841970E-15  0.17763568394E-14  0.00000000000E+00  0.91188000000E+02  0.91188000000E+02 0.  0.
    9900012    2    3    3    0    0 -0.37668702761E+01 -0.11523797218E+02  0.34767676325E+02  0.54367101979E+02  0.40000040581E+02 0.  0.
        -12    1    3    3    0    0  0.37668702761E+01  0.11523797218E+02 -0.34767676325E+02  0.36820898021E+02  0.00000000000E+00 0.  1.
         11    1    4    4    0    0 -0.30879413700E+01 -0.79396151327E+01  0.14757958944E+02  0.17040253015E+02  0.51100000000E-03 0. -1.
        -11    1    4    4    0    0 -0.51101027452E+01  0.42636525493E+01 -0.65147379981E+01  0.93130926427E+01  0.51100000000E-03 0.  1.
        -12    1    4    4    0    0  0.44311738391E+01 -0.78478346347E+01  0.26524455380E+02  0.28013756321E+02  0.00000000000E+00 0.  1.
</event>
<event>
 8    1  0.1261983E-006  0.9118800E+02  0.7816164E-02  0.1184000E+00
        -11   -1    0    0    0    0  0.00000000000E+00  0.00000000000E+00  0.45593999997E+02  0.45594000000E+02  0.51100000000E-03 0. -1.
         11   -1    0    0    0    0 -0.00000000000E+00 -0.00000000000E+00 -0.45593999997E+02  0.45594000000E+02  0.51100000000E-03 0.  1.
         23    2    1    2    0    0 -0.44408920985E-15  0.17763568394E-14  0.00000000000E+00  0.91188000000E+02  0.91188000000E+02 0.  0.
    9900012    2    3    3    0    0 -0.20002247433E+01 -0.55971269193E+01 -0.36338010279E+02  0.54367085837E+02  0.40000003782E+02 0.  0.
         12    1    3    3    0    0  0.20002247433E+01  0.55971269193E+01  0.36338010279E+02  0.36820914163E+02  0.00000000000E+00 0. -1.
         11    1    4    4    0    0 -0.32191954246E+01  0.10161681158E+02 -0.20655966601E+02  0.23244180769E+02  0.51100000000E-03 0. -1.
        -11    1    4    4    0    0 -0.30849722011E+00  0.46444164051E+01 -0.80241049287E+01  0.92764235806E+01  0.51100000000E-03 0.  1.
         12    1    4    4    0    0  0.15274679014E+01 -0.20403224483E+02 -0.76579387500E+01  0.21846481487E+02  0.00000000000E+00 0. -1.
</event>
<event>
 8    1  0.1261983E-006  0.9118800E+02  0.7816164E-02  0.1184000E+00
        -11   -1    0    0    0    0  0.00000000000E+00  0.00000000000E+00  0.45593999997E+02  0.45594000000E+02  0.51100000000E-03 0.  1.
         11   -1    0    0    0    0 -0.00000000000E+00 -0.00000000000E+00 -0.45593999997E+02  0.45594000000E+02  0.51100000000E-03 0. -1.
         23    2    1    2    0    0  0.71054273576E-14  0.00000000000E+00  0.35527136788E-14  0.91188000000E+02  0.91188000000E+02 0.  0.
    9900012    2    3    3    0    0  0.32028716577E+02  0.34710337299E+01  0.17829559061E+02  0.54367082888E+02  0.39999997059E+02 0.  0.
         12    1    3    3    0    0 -0.32028716577E+02 -0.34710337299E+01 -0.17829559061E+02  0.36820917112E+02  0.00000000000E+00 0. -1.
         11    1    4    4    0    0 -0.35367579498E+01  0.37509173160E+01 -0.51451381774E+01  0.72835763628E+01  0.51100000000E-03 0. -1.
        -11    1    4    4    0    0  0.14142693128E+01 -0.53823879177E+01 -0.77282203416E-01  0.55656293612E+01  0.51100000000E-03 0.  1.
        -12    1    4    4    0    0  0.34151205214E+02  0.51025043317E+01  0.23051979442E+02  0.41517877164E+02  0.00000000000E+00 0.  1.
</event>
<event>
 8    1  0.1261983E-006  0.9118800E+02  0.7816164E-02  0.1184000E+00
        -11   -1    0    0    0    0  0.00000000000E+00  0.00000000000E+00  0.45593999997E+02  0.45594000000E+02  0.51100000000E-03 0. -1.
         11   -1    0    0    0    0 -0.00000000000E+00 -0.00000000000E+00 -0.45593999997E+02  0.45594000000E+02  0.51100000000E-03 0.  1.
         23    2    1    2    0    0  0.35527136788E-14  0.00000000000E+00  0.35527136788E-14  0.91188000000E+02  0.91188000000E+02 0.  0.
    9900012    2    3    3    0    0 -0.25968753323E+02 -0.14541753718E+01 -0.26063153653E+02  0.54367098959E+02  0.40000033697E+02 0.  0.
         12    1    3    3    0    0  0.25968753323E+02  0.14541753718E+01  0.26063153653E+02  0.36820901041E+02  0.00000000000E+00 0. -1.
         11    1    4    4    0    0 -0.17350257972E+02  0.86792179171E+00  0.24341334361E+01  0.17541657441E+02  0.51100000000E-03 0.  1.
        -11    1    4    4    0    0 -0.11365065527E+02 -0.99626853750E+01 -0.16951406994E+02  0.22710570527E+02  0.51100000000E-03 0. -1.
         12    1    4    4    0    0  0.27465701758E+01  0.76405882115E+01 -0.11545880095E+02  0.14114870992E+02  0.00000000000E+00 0. -1.
</event>
<event>
 8    1  0.1261983E-006  0.9118800E+02  0.7816164E-02  0.1184000E+00
        -11   -1    0    0    0    0  0.00000000000E+00  0.00000000000E+00  0.45593999997E+02  0.45594000000E+02  0.51100000000E-03 0.  1.
         11   -1    0    0    0    0 -0.00000000000E+00 -0.00000000000E+00 -0.45593999997E+02  0.45594000000E+02  0.51100000000E-03 0. -1.
         23    2    1    2    0    0  0.00000000000E+00  0.35527136788E-14 -0.17763568394E-14  0.91188000000E+02  0.91188000000E+02 0.  0.
    9900012    2    3    3    0    0  0.26203180275E+02 -0.21488509928E+02  0.14401719419E+02  0.54367187439E+02  0.40000235403E+02 0.  0.
        -12    1    3    3    0    0 -0.26203180275E+02  0.21488509928E+02 -0.14401719419E+02  0.36820812561E+02  0.00000000000E+00 0.  1.
         11    1    4    4    0    0  0.60900015059E+01 -0.67655421320E+01 -0.15866730336E+01  0.92400330225E+01  0.51100000000E-03 0. -1.
        -11    1    4    4    0    0  0.17927707126E+02 -0.21390286362E+02  0.22273084786E+02  0.35707664998E+02  0.51100000000E-03 0.  1.
        -12    1    4    4    0    0  0.21854716440E+01  0.66673185661E+01 -0.62846923343E+01  0.94194894185E+01  0.00000000000E+00 0.  1.
</event>
<event>
 8    1  0.1261983E-006  0.9118800E+02  0.7816164E-02  0.1184000E+00
        -11   -1    0    0    0    0  0.00000000000E+00  0.00000000000E+00  0.45593999997E+02  0.45594000000E+02  0.51100000000E-03 0.  1.
         11   -1    0    0    0    0 -0.00000000000E+00 -0.00000000000E+00 -0.45593999997E+02  0.45594000000E+02  0.51100000000E-03 0. -1.
         23    2    1    2    0    0  0.00000000000E+00 -0.35527136788E-14  0.00000000000E+00  0.91188000000E+02  0.91188000000E+02 0.  0.
    9900012    2    3    3    0    0  0.18672740039E+02  0.29305273708E+02 -0.12178225022E+02  0.54367089468E+02  0.40000012061E+02 0.  0.
         12    1    3    3    0    0 -0.18672740039E+02 -0.29305273708E+02  0.12178225022E+02  0.36820910532E+02  0.00000000000E+00 0. -1.
         11    1    4    4    0    0 -0.17550457142E+00  0.24759912667E+02 -0.70065330283E+01  0.25732772537E+02  0.51100000000E-03 0.  1.
        -11    1    4    4    0    0  0.66911301406E+01  0.11565331507E+02  0.78499186377E+00  0.13384480861E+02  0.51100000000E-03 0. -1.
         12    1    4    4    0    0  0.12157114470E+02 -0.70199704655E+01 -0.59566838576E+01  0.15249836070E+02  0.00000000000E+00 0. -1.
</event>
<event>
 8    1  0.1261983E-006  0.9118800E+02  0.7816164E-02  0.1184000E+00
        -11   -1    0    0    0    0  0.00000000000E+00  0.00000000000E+00  0.45593999997E+02  0.45594000000E+02  0.51100000000E-03 0. -1.
         11   -1    0    0    0    0 -0.00000000000E+00 -0.00000000000E+00 -0.45593999997E+02  0.45594000000E+02  0.51100000000E-03 0.  1.
         23    2    1    2    0    0  0.00000000000E+00  0.00000000000E+00  0.22204460493E-14  0.91188000000E+02  0.91188000000E+02 0.  0.
    9900012    2    3    3    0    0  0.24080866891E+01 -0.36732952837E+02  0.81754554421E+00  0.54367121597E+02  0.40000085304E+02 0.  0.
         12    1    3    3    0    0 -0.24080866891E+01  0.36732952837E+02 -0.81754554421E+00  0.36820878403E+02  0.00000000000E+00 0. -1.
         11    1    4    4    0    0  0.44953437601E+01  0.27898490458E+01 -0.15360596009E+01  0.55091607872E+01  0.51100000000E-03 0. -1.
        -11    1    4    4    0    0  0.54271734957E+01 -0.13177830520E+02 -0.11356601272E+02  0.18223112305E+02  0.51100000000E-03 0.  1.
        -12    1    4    4    0    0 -0.75144305667E+01 -0.26344971364E+02  0.13710206418E+02  0.30634848505E+02  0.00000000000E+00 0.  1.
</event>
<event>
 8    1  0.1261983E-006  0.9118800E+02  0.7816164E-02  0.1184000E+00
        -11   -1    0    0    0    0  0.00000000000E+00  0.00000000000E+00  0.45593999997E+02  0.45594000000E+02  0.51100000000E-03 0.  1.
         11   -1    0    0    0    0 -0.00000000000E+00 -0.00000000000E+00 -0.45593999997E+02  0.45594000000E+02  0.51100000000E-03 0. -1.
         23    2    1    2    0    0  0.35527136788E-14  0.00000000000E+00 -0.17763568394E-14  0.91188000000E+02  0.91188000000E+02 0.  0.
    9900012    2    3    3    0    0 -0.22022409381E+02 -0.27433170823E+02  0.10872652593E+02  0.54367082700E+02  0.39999996631E+02 0.  0.
        -12    1    3    3    0    0  0.22022409381E+02  0.27433170823E+02 -0.10872652593E+02  0.36820917300E+02  0.00000000000E+00 0.  1.
         11    1    4    4    0    0 -0.74329971733E+01 -0.71881297808E+01  0.19704638772E+02  0.22252897477E+02  0.51100000000E-03 0.  1.
        -11    1    4    4    0    0  0.22521199604E+01 -0.79081788367E+01 -0.76068700069E+01  0.11201598475E+02  0.51100000000E-03 0. -1.
        -12    1    4    4    0    0 -0.16841532169E+02 -0.12336862206E+02 -0.12251161717E+01  0.20912586748E+02  0.00000000000E+00 0.  1.
</event>
<event>
 8    1  0.1261983E-006  0.9118800E+02  0.7816164E-02  0.1184000E+00
        -11   -1    0    0    0    0  0.00000000000E+00  0.00000000000E+00  0.45593999997E+02  0.45594000000E+02  0.51100000000E-03 0.  1.
         11   -1    0    0    0    0 -0.00000000000E+00 -0.00000000000E+00 -0.45593999997E+02  0.45594000000E+02  0.51100000000E-03 0. -1.
         23    2    1    2    0    0  0.00000000000E+00  0.35527136788E-14  0.17763568394E-14  0.91188000000E+02  0.91188000000E+02 0.  0.
    9900012    2    3    3    0    0 -0.18650623314E+02  0.27616098290E+02  0.15661577003E+02  0.54367087070E+02  0.40000006593E+02 0.  0.
         12    1    3    3    0    0  0.18650623314E+02 -0.27616098290E+02 -0.15661577003E+02  0.36820912930E+02  0.00000000000E+00 0. -1.
         11    1    4    4    0    0 -0.34323251139E+01  0.26302374769E+02  0.30293255366E+01  0.26697801176E+02  0.51100000000E-03 0. -1.
        -11    1    4    4    0    0 -0.45438742941E+01 -0.16300180537E+01 -0.49350247712E+01  0.69034934787E+01  0.51100000000E-03 0.  1.
        -12    1    4    4    0    0 -0.10674423906E+02  0.29437415751E+01  0.17567276238E+02  0.20765792415E+02  0.00000000000E+00 0.  1.
</event>
<event>
 8    1  0.1261983E-006  0.9118800E+02  0.7816164E-02  0.1184000E+00
        -11   -1    0    0    0    0  0.00000000000E+00  0.00000000000E+00  0.45593999997E+02  0.45594000000E+02  0.51100000000E-03 0. -1.
         11   -1    0    0    0    0 -0.00000000000E+00 -0.00000000000E+00 -0.45593999997E+02  0.45594000000E+02  0.51100000000E-03 0.  1.
         23    2    1    2    0    0  0.00000000000E+00  0.00000000000E+00  0.00000000000E+00  0.91188000000E+02  0.91188000000E+02 0.  0.
    9900012    2    3    3    0    0  0.19065185857E+02  0.27142902358E+02  0.15986278749E+02  0.54367087892E+02  0.40000008468E+02 0.  0.
        -12    1    3    3    0    0 -0.19065185857E+02 -0.27142902358E+02 -0.15986278749E+02  0.36820912108E+02  0.00000000000E+00 0.  1.
         11    1    4    4    0    0 -0.38722714069E+00  0.31772041369E+02  0.11283896752E+02  0.33718524341E+02  0.51100000000E-03 0. -1.
        -11    1    4    4    0    0  0.15051212124E+02 -0.37616195063E+01  0.45191251834E+01  0.16158937477E+02  0.51100000000E-03 0.  1.
         12    1    4    4    0    0  0.44012008739E+01 -0.86751950431E+00  0.18325681408E+00  0.44896260739E+01  0.00000000000E+00 0. -1.
</event>
<event>
 8    1  0.1261983E-006  0.9118800E+02  0.7816164E-02  0.1184000E+00
        -11   -1    0    0    0    0  0.00000000000E+00  0.00000000000E+00  0.45593999997E+02  0.45594000000E+02  0.51100000000E-03 0. -1.
         11   -1    0    0    0    0 -0.00000000000E+00 -0.00000000000E+00 -0.45593999997E+02  0.45594000000E+02  0.51100000000E-03 0.  1.
         23    2    1    2    0    0  0.24980018054E-15  0.00000000000E+00  0.00000000000E+00  0.91188000000E+02  0.91188000000E+02 0.  0.
    9900012    2    3    3    0    0 -0.24043926245E+00 -0.31758703773E+02 -0.18630676688E+02  0.54367147345E+02  0.40000144003E+02 0.  0.
         12    1    3    3    0    0  0.24043926245E+00  0.31758703773E+02  0.18630676688E+02  0.36820852655E+02  0.00000000000E+00 0. -1.
         11    1    4    4    0    0  0.83652698955E+01 -0.12256519745E+01  0.74555331519E+01  0.11272308460E+02  0.51100000000E-03 0. -1.
        -11    1    4    4    0    0 -0.73118049606E+01 -0.19030285203E+02 -0.86041132766E+01  0.22127923812E+02  0.51100000000E-03 0.  1.
        -12    1    4    4    0    0 -0.12939041974E+01 -0.11502766596E+02 -0.17482096563E+02  0.20966915073E+02  0.00000000000E+00 0.  1.
</event>
<event>
 8    1  0.1261983E-006  0.9118800E+02  0.7816164E-02  0.1184000E+00
        -11   -1    0    0    0    0  0.00000000000E+00  0.00000000000E+00  0.45593999997E+02  0.45594000000E+02  0.51100000000E-03 0. -1.
         11   -1    0    0    0    0 -0.00000000000E+00 -0.00000000000E+00 -0.45593999997E+02  0.45594000000E+02  0.51100000000E-03 0.  1.
         23    2    1    2    0    0 -0.44408920985E-15  0.17763568394E-14  0.00000000000E+00  0.91188000000E+02  0.91188000000E+02 0.  0.
    9900012    2    3    3    0    0  0.19774948648E+01 -0.98348712133E+01  0.35428028003E+02  0.54367077335E+02  0.39999984400E+02 0.  0.
        -12    1    3    3    0    0 -0.19774948648E+01  0.98348712133E+01 -0.35428028003E+02  0.36820922665E+02  0.00000000000E+00 0.  1.
         11    1    4    4    0    0  0.95278929802E+01 -0.15080549096E+02  0.18217658336E+02  0.25496799430E+02  0.51100000000E-03 0. -1.
        -11    1    4    4    0    0 -0.13115702482E+02 -0.24178228561E+01  0.74780637975E+01  0.15290158841E+02  0.51100000000E-03 0.  1.
         12    1    4    4    0    0  0.55653043661E+01  0.76635007387E+01  0.97323058697E+01  0.13580119064E+02  0.00000000000E+00 0. -1.
</event>
<event>
 8    1  0.1261983E-006  0.9118800E+02  0.7816164E-02  0.1184000E+00
        -11   -1    0    0    0    0  0.00000000000E+00  0.00000000000E+00  0.45593999997E+02  0.45594000000E+02  0.51100000000E-03 0. -1.
         11   -1    0    0    0    0 -0.00000000000E+00 -0.00000000000E+00 -0.45593999997E+02  0.45594000000E+02  0.51100000000E-03 0.  1.
         23    2    1    2    0    0  0.71054273576E-14  0.00000000000E+00  0.35527136788E-14  0.91188000000E+02  0.91188000000E+02 0.  0.
    9900012    2    3    3    0    0 -0.26270221522E+02  0.30780336924E+01 -0.25616067732E+02  0.54367058183E+02  0.39999940741E+02 0.  0.
         12    1    3    3    0    0  0.26270221522E+02 -0.30780336924E+01  0.25616067732E+02  0.36820941817E+02  0.00000000000E+00 0. -1.
         11    1    4    4    0    0 -0.87020806886E-01 -0.19381552031E+01  0.62428913083E+01  0.65374085356E+01  0.51100000000E-03 0. -1.
        -11    1    4    4    0    0 -0.87524224494E+01 -0.53478131198E+00 -0.27720123382E+02  0.29073976858E+02  0.51100000000E-03 0.  1.
         12    1    4    4    0    0 -0.17430778266E+02  0.55509702074E+01 -0.41388356584E+01  0.18755672790E+02  0.00000000000E+00 0. -1.
</event>
<event>
 8    1  0.1261983E-006  0.9118800E+02  0.7816164E-02  0.1184000E+00
        -11   -1    0    0    0    0  0.00000000000E+00  0.00000000000E+00  0.45593999997E+02  0.45594000000E+02  0.51100000000E-03 0. -1.
         11   -1    0    0    0    0 -0.00000000000E+00 -0.00000000000E+00 -0.45593999997E+02  0.45594000000E+02  0.51100000000E-03 0.  1.
         23    2    1    2    0    0  0.00000000000E+00 -0.35527136788E-14  0.00000000000E+00  0.91188000000E+02  0.91188000000E+02 0.  0.
    9900012    2    3    3    0    0  0.29085135423E+02  0.20844875673E+02 -0.86786496230E+01  0.54367178394E+02  0.40000214785E+02 0.  0.
         12    1    3    3    0    0 -0.29085135423E+02 -0.20844875673E+02  0.86786496230E+01  0.36820821606E+02  0.00000000000E+00 0. -1.
         11    1    4    4    0    0  0.52069904284E+01 -0.19171944560E+01  0.28702875553E+01  0.62471541373E+01  0.51100000000E-03 0. -1.
        -11    1    4    4    0    0  0.21356917383E+02  0.49129861269E+01  0.62486908640E+01  0.22788187523E+02  0.51100000000E-03 0.  1.
        -12    1    4    4    0    0  0.25212276116E+01  0.17849084002E+02 -0.17797628042E+02  0.25331836734E+02  0.00000000000E+00 0.  1.
</event>
<event>
 8    1  0.1261983E-006  0.9118800E+02  0.7816164E-02  0.1184000E+00
        -11   -1    0    0    0    0  0.00000000000E+00  0.00000000000E+00  0.45593999997E+02  0.45594000000E+02  0.51100000000E-03 0.  1.
         11   -1    0    0    0    0 -0.00000000000E+00 -0.00000000000E+00 -0.45593999997E+02  0.45594000000E+02  0.51100000000E-03 0. -1.
         23    2    1    2    0    0  0.00000000000E+00  0.26645352591E-14 -0.35527136788E-14  0.91188000000E+02  0.91188000000E+02 0.  0.
    9900012    2    3    3    0    0  0.20366730591E+02 -0.68352160567E+01 -0.29904104909E+02  0.54367090398E+02  0.40000014181E+02 0.  0.
        -12    1    3    3    0    0 -0.20366730591E+02  0.68352160567E+01  0.29904104909E+02  0.36820909602E+02  0.00000000000E+00 0.  1.
         11    1    4    4    0    0  0.59458346840E+01  0.15837348572E+01 -0.34605228246E+01  0.70594889806E+01  0.51100000000E-03 0. -1.
        -11    1    4    4    0    0  0.14189227215E+02 -0.16641256508E+02 -0.30974400802E+02  0.37916738948E+02  0.51100000000E-03 0.  1.
        -12    1    4    4    0    0  0.23166869178E+00  0.82223055945E+01  0.45308187179E+01  0.93908624698E+01  0.00000000000E+00 0.  1.
</event>
<event>
 8    1  0.1261983E-006  0.9118800E+02  0.7816164E-02  0.1184000E+00
        -11   -1    0    0    0    0  0.00000000000E+00  0.00000000000E+00  0.45593999997E+02  0.45594000000E+02  0.51100000000E-03 0. -1.
         11   -1    0    0    0    0 -0.00000000000E+00 -0.00000000000E+00 -0.45593999997E+02  0.45594000000E+02  0.51100000000E-03 0.  1.
         23    2    1    2    0    0  0.00000000000E+00  0.00000000000E+00  0.00000000000E+00  0.91188000000E+02  0.91188000000E+02 0.  0.
    9900012    2    3    3    0    0  0.97093249787E+01 -0.31047319784E+02  0.17250308681E+02  0.54367079222E+02  0.39999988702E+02 0.  0.
        -12    1    3    3    0    0 -0.97093249787E+01  0.31047319784E+02 -0.17250308681E+02  0.36820920778E+02  0.00000000000E+00 0.  1.
         11    1    4    4    0    0  0.42086197444E+01 -0.10223732474E+02  0.17100759925E+02  0.20363525631E+02  0.51100000000E-03 0. -1.
        -11    1    4    4    0    0 -0.85286679830E+01 -0.17053603510E+02  0.26895277910E+01  0.19256093328E+02  0.51100000000E-03 0.  1.
        -12    1    4    4    0    0  0.14029373217E+02 -0.37699838003E+01 -0.25399790344E+01  0.14747460263E+02  0.00000000000E+00 0.  1.
</event>
<event>
 8    1  0.1261983E-006  0.9118800E+02  0.7816164E-02  0.1184000E+00
        -11   -1    0    0    0    0  0.00000000000E+00  0.00000000000E+00  0.45593999997E+02  0.45594000000E+02  0.51100000000E-03 0.  1.
         11   -1    0    0    0    0 -0.00000000000E+00 -0.00000000000E+00 -0.45593999997E+02  0.45594000000E+02  0.51100000000E-03 0. -1.
         23    2    1    2    0    0 -0.88817841970E-15 -0.35527136788E-14 -0.35527136788E-14  0.91188000000E+02  0.91188000000E+02 0.  0.
    9900012    2    3    3    0    0 -0.79174029321E+01 -0.23178450775E+02  0.27492808134E+02  0.54367077299E+02  0.39999984317E+02 0.  0.
         12    1    3    3    0    0  0.79174029321E+01  0.23178450775E+02 -0.27492808134E+02  0.36820922701E+02  0.00000000000E+00 0. -1.
         11    1    4    4    0    0 -0.78375525699E+01 -0.31441741777E+01  0.16187286096E+01  0.85984500998E+01  0.51100000000E-03 0. -1.
        -11    1    4    4    0    0  0.25192222518E+01 -0.88324541087E+01 -0.66055822630E+01  0.11313374547E+02  0.51100000000E-03 0.  1.
        -12    1    4    4    0    0 -0.25990726141E+01 -0.11201822488E+02  0.32479661787E+02  0.34455252652E+02  0.00000000000E+00 0.  1.
</event>
<event>
 8    1  0.1261983E-006  0.9118800E+02  0.7816164E-02  0.1184000E+00
        -11   -1    0    0    0    0  0.00000000000E+00  0.00000000000E+00  0.45593999997E+02  0.45594000000E+02  0.51100000000E-03 0. -1.
         11   -1    0    0    0    0 -0.00000000000E+00 -0.00000000000E+00 -0.45593999997E+02  0.45594000000E+02  0.51100000000E-03 0.  1.
         23    2    1    2    0    0  0.88817841970E-15  0.00000000000E+00  0.00000000000E+00  0.91188000000E+02  0.91188000000E+02 0.  0.
    9900012    2    3    3    0    0 -0.73869804300E+01 -0.36010530775E+02  0.21105817871E+01  0.54367077116E+02  0.39999983902E+02 0.  0.
         12    1    3    3    0    0  0.73869804300E+01  0.36010530775E+02 -0.21105817871E+01  0.36820922884E+02  0.00000000000E+00 0. -1.
         11    1    4    4    0    0 -0.13496610729E+01  0.29172180562E+00  0.10762122801E+02  0.10850344422E+02  0.51100000000E-03 0. -1.
        -11    1    4    4    0    0  0.34482379298E+01 -0.18773748938E+01 -0.66876305075E+01  0.77549521841E+01  0.51100000000E-03 0.  1.
        -12    1    4    4    0    0 -0.94855572870E+01 -0.34424877686E+02 -0.19639105067E+01  0.35761780510E+02  0.00000000000E+00 0.  1.
</event>
<event>
 8    1  0.1261983E-006  0.9118800E+02  0.7816164E-02  0.1184000E+00
        -11   -1    0    0    0    0  0.00000000000E+00  0.00000000000E+00  0.45593999997E+02  0.45594000000E+02  0.51100000000E-03 0. -1.
         11   -1    0    0    0    0 -0.00000000000E+00 -0.00000000000E+00 -0.45593999997E+02  0.45594000000E+02  0.51100000000E-03 0.  1.
         23    2    1    2    0    0  0.17763568394E-14  0.00000000000E+00  0.00000000000E+00  0.91188000000E+02  0.91188000000E+02 0.  0.
    9900012    2    3    3    0    0  0.33132164002E+01 -0.29398418004E+02 -0.21921120031E+02  0.54367083561E+02  0.39999998593E+02 0.  0.
         12    1    3    3    0    0 -0.33132164002E+01  0.29398418004E+02  0.21921120031E+02  0.36820916439E+02  0.00000000000E+00 0. -1.
         11    1    4    4    0    0  0.11296673491E+02 -0.73177993511E+01  0.32967514170E+01  0.13857618463E+02  0.51100000000E-03 0. -1.
        -11    1    4    4    0    0 -0.59628278232E+01 -0.23152645265E+02 -0.28058095546E+02  0.36862677933E+02  0.51100000000E-03 0.  1.
        -12    1    4    4    0    0 -0.20206292677E+01  0.10720266126E+01  0.28402240985E+01  0.36467871648E+01  0.00000000000E+00 0.  1.
</event>
<event>
 8    1  0.1261983E-006  0.9118800E+02  0.7816164E-02  0.1184000E+00
        -11   -1    0    0    0    0  0.00000000000E+00  0.00000000000E+00  0.45593999997E+02  0.45594000000E+02  0.51100000000E-03 0.  1.
         11   -1    0    0    0    0 -0.00000000000E+00 -0.00000000000E+00 -0.45593999997E+02  0.45594000000E+02  0.51100000000E-03 0. -1.
         23    2    1    2    0    0 -0.35527136788E-14  0.00000000000E+00  0.00000000000E+00  0.91188000000E+02  0.91188000000E+02 0.  0.
    9900012    2    3    3    0    0  0.27849932238E+02 -0.17984963413E+02  0.16021935480E+02  0.54367081338E+02  0.39999993525E+02 0.  0.
         12    1    3    3    0    0 -0.27849932238E+02  0.17984963413E+02 -0.16021935480E+02  0.36820918662E+02  0.00000000000E+00 0. -1.
         11    1    4    4    0    0  0.42857726370E+01  0.44606793564E+01  0.71012123953E+01  0.94176815172E+01  0.51100000000E-03 0. -1.
        -11    1    4    4    0    0 -0.63441635982E+01  0.18170563713E+00  0.28521999912E+01  0.69581947192E+01  0.51100000000E-03 0.  1.
        -12    1    4    4    0    0  0.29908323199E+02 -0.22627348407E+02  0.60685230935E+01  0.37991205101E+02  0.00000000000E+00 0.  1.
</event>
<event>
 8    1  0.1261983E-006  0.9118800E+02  0.7816164E-02  0.1184000E+00
        -11   -1    0    0    0    0  0.00000000000E+00  0.00000000000E+00  0.45593999997E+02  0.45594000000E+02  0.51100000000E-03 0.  1.
         11   -1    0    0    0    0 -0.00000000000E+00 -0.00000000000E+00 -0.45593999997E+02  0.45594000000E+02  0.51100000000E-03 0. -1.
         23    2    1    2    0    0  0.00000000000E+00  0.00000000000E+00  0.17763568394E-14  0.91188000000E+02  0.91188000000E+02 0.  0.
    9900012    2    3    3    0    0 -0.18021372349E+02  0.29872882431E+02 -0.11773655454E+02  0.54367110157E+02  0.40000059225E+02 0.  0.
        -12    1    3    3    0    0  0.18021372349E+02 -0.29872882431E+02  0.11773655454E+02  0.36820889843E+02  0.00000000000E+00 0.  1.
         11    1    4    4    0    0 -0.62029863371E+00  0.18320697113E+02 -0.37801188667E+01  0.18716891088E+02  0.51100000000E-03 0. -1.
        -11    1    4    4    0    0 -0.14463743740E+02  0.20009610105E+02 -0.17830383250E+01  0.24754062403E+02  0.51100000000E-03 0.  1.
        -12    1    4    4    0    0 -0.29373299756E+01 -0.84574247873E+01 -0.62104982621E+01  0.10896156666E+02  0.00000000000E+00 0.  1.
</event>
<event>
 8    1  0.1261983E-006  0.9118800E+02  0.7816164E-02  0.1184000E+00
        -11   -1    0    0    0    0  0.00000000000E+00  0.00000000000E+00  0.45593999997E+02  0.45594000000E+02  0.51100000000E-03 0. -1.
         11   -1    0    0    0    0 -0.00000000000E+00 -0.00000000000E+00 -0.45593999997E+02  0.45594000000E+02  0.51100000000E-03 0.  1.
         23    2    1    2    0    0  0.00000000000E+00  0.00000000000E+00  0.35527136788E-14  0.91188000000E+02  0.91188000000E+02 0.  0.
    9900012    2    3    3    0    0  0.23663136368E+02  0.17136847161E+02  0.22409032575E+02  0.54367078035E+02  0.39999985997E+02 0.  0.
        -12    1    3    3    0    0 -0.23663136368E+02 -0.17136847161E+02 -0.22409032575E+02  0.36820921965E+02  0.00000000000E+00 0.  1.
         11    1    4    4    0    0  0.42602587863E+01  0.13255662950E+01  0.12892893315E+02  0.13643079902E+02  0.51100000000E-03 0. -1.
        -11    1    4    4    0    0  0.67187949856E+01 -0.83990507903E+01  0.78985153340E+01  0.13344392267E+02  0.51100000000E-03 0.  1.
        -12    1    4    4    0    0  0.12684082596E+02  0.24210331656E+02  0.16176239258E+01  0.27379605866E+02  0.00000000000E+00 0.  1.
</event>
<event>
 8    1  0.1261983E-006  0.9118800E+02  0.7816164E-02  0.1184000E+00
        -11   -1    0    0    0    0  0.00000000000E+00  0.00000000000E+00  0.45593999997E+02  0.45594000000E+02  0.51100000000E-03 0.  1.
         11   -1    0    0    0    0 -0.00000000000E+00 -0.00000000000E+00 -0.45593999997E+02  0.45594000000E+02  0.51100000000E-03 0. -1.
         23    2    1    2    0    0  0.33306690739E-15 -0.71054273576E-14  0.71054273576E-14  0.91188000000E+02  0.91188000000E+02 0.  0.
    9900012    2    3    3    0    0 -0.51369403896E+00  0.28664134776E+02 -0.23105820758E+02  0.54367143723E+02  0.40000135745E+02 0.  0.
        -12    1    3    3    0    0  0.51369403896E+00 -0.28664134776E+02  0.23105820758E+02  0.36820856277E+02  0.00000000000E+00 0.  1.
         11    1    4    4    0    0  0.33787949087E+01  0.31542569813E+02 -0.15305323835E+02  0.35222193336E+02  0.51100000000E-03 0. -1.
        -11    1    4    4    0    0  0.99881479649E+00  0.14694256762E+01  0.47056876514E+01  0.50299442690E+01  0.51100000000E-03 0.  1.
        -12    1    4    4    0    0 -0.48913037441E+01 -0.43478607127E+01 -0.12506184575E+02  0.14115006118E+02  0.00000000000E+00 0.  1.
</event>
<event>
 8    1  0.1261983E-006  0.9118800E+02  0.7816164E-02  0.1184000E+00
        -11   -1    0    0    0    0  0.00000000000E+00  0.00000000000E+00  0.45593999997E+02  0.45594000000E+02  0.51100000000E-03 0. -1.
         11   -1    0    0    0    0 -0.00000000000E+00 -0.00000000000E+00 -0.45593999997E+02  0.45594000000E+02  0.51100000000E-03 0.  1.
         23    2    1    2    0    0  0.00000000000E+00  0.00000000000E+00  0.00000000000E+00  0.91188000000E+02  0.91188000000E+02 0.  0.
    9900012    2    3    3    0    0 -0.46326788640E+01  0.28611865475E+02  0.22708591867E+02  0.54367072472E+02  0.39999973315E+02 0.  0.
        -12    1    3    3    0    0  0.46326788640E+01 -0.28611865475E+02 -0.22708591867E+02  0.36820927528E+02  0.00000000000E+00 0.  1.
         11    1    4    4    0    0 -0.31310869614E+01 -0.19940530923E+01  0.15693706821E+02  0.16126759976E+02  0.51100000000E-03 0. -1.
        -11    1    4    4    0    0 -0.47601188582E+01  0.41361215834E+01  0.95568069668E+01  0.11449838119E+02  0.51100000000E-03 0.  1.
        -12    1    4    4    0    0  0.32585269557E+01  0.26469796984E+02 -0.25419219207E+01  0.26790474377E+02  0.00000000000E+00 0.  1.
</event>
<event>
 8    1  0.1261983E-006  0.9118800E+02  0.7816164E-02  0.1184000E+00
        -11   -1    0    0    0    0  0.00000000000E+00  0.00000000000E+00  0.45593999997E+02  0.45594000000E+02  0.51100000000E-03 0.  1.
         11   -1    0    0    0    0 -0.00000000000E+00 -0.00000000000E+00 -0.45593999997E+02  0.45594000000E+02  0.51100000000E-03 0. -1.
         23    2    1    2    0    0  0.35527136788E-14 -0.35527136788E-14 -0.71054273576E-14  0.91188000000E+02  0.91188000000E+02 0.  0.
    9900012    2    3    3    0    0 -0.22646422102E+02  0.17786802398E+02  0.22946671958E+02  0.54367074868E+02  0.39999978777E+02 0.  0.
         12    1    3    3    0    0  0.22646422102E+02 -0.17786802398E+02 -0.22946671958E+02  0.36820925132E+02  0.00000000000E+00 0. -1.
         11    1    4    4    0    0 -0.28014561263E+01 -0.45618157845E+01 -0.78776866154E+01  0.95245087197E+01  0.51100000000E-03 0. -1.
        -11    1    4    4    0    0 -0.84123688915E+01  0.32155130996E+01  0.37024631433E+01  0.97373357983E+01  0.51100000000E-03 0.  1.
        -12    1    4    4    0    0 -0.11432597085E+02  0.19133105083E+02  0.27121895430E+02  0.35105230350E+02  0.00000000000E+00 0.  1.
</event>
<event>
 8    1  0.1261983E-006  0.9118800E+02  0.7816164E-02  0.1184000E+00
        -11   -1    0    0    0    0  0.00000000000E+00  0.00000000000E+00  0.45593999997E+02  0.45594000000E+02  0.51100000000E-03 0.  1.
         11   -1    0    0    0    0 -0.00000000000E+00 -0.00000000000E+00 -0.45593999997E+02  0.45594000000E+02  0.51100000000E-03 0. -1.
         23    2    1    2    0    0  0.88817841970E-15 -0.71054273576E-14  0.00000000000E+00  0.91188000000E+02  0.91188000000E+02 0.  0.
    9900012    2    3    3    0    0 -0.38087680682E+01  0.29894183675E+02 -0.21156846438E+02  0.54367067326E+02  0.39999961582E+02 0.  0.
        -12    1    3    3    0    0  0.38087680682E+01 -0.29894183675E+02  0.21156846438E+02  0.36820932674E+02  0.00000000000E+00 0.  1.
         11    1    4    4    0    0 -0.72113819055E+01  0.43427063831E+01 -0.42760044494E+01  0.94417870146E+01  0.51100000000E-03 0. -1.
        -11    1    4    4    0    0  0.23255368809E+01 -0.77369616706E+01 -0.14076115498E+01  0.82006138924E+01  0.51100000000E-03 0.  1.
         12    1    4    4    0    0  0.10770769564E+01  0.33288438963E+02 -0.15473230439E+02  0.36724666419E+02  0.00000000000E+00 0. -1.
</event>
<event>
 8    1  0.1261983E-006  0.9118800E+02  0.7816164E-02  0.1184000E+00
        -11   -1    0    0    0    0  0.00000000000E+00  0.00000000000E+00  0.45593999997E+02  0.45594000000E+02  0.51100000000E-03 0.  1.
         11   -1    0    0    0    0 -0.00000000000E+00 -0.00000000000E+00 -0.45593999997E+02  0.45594000000E+02  0.51100000000E-03 0. -1.
         23    2    1    2    0    0  0.00000000000E+00  0.17763568394E-14  0.00000000000E+00  0.91188000000E+02  0.91188000000E+02 0.  0.
    9900012    2    3    3    0    0  0.22131997778E+02  0.10404865030E+02  0.27526216287E+02  0.54367093913E+02  0.40000022194E+02 0.  0.
         12    1    3    3    0    0 -0.22131997778E+02 -0.10404865030E+02 -0.27526216287E+02  0.36820906087E+02  0.00000000000E+00 0. -1.
         11    1    4    4    0    0 -0.24179419589E+01  0.48040097216E+01  0.23850780495E+02  0.24449635646E+02  0.51100000000E-03 0.  1.
        -11    1    4    4    0    0  0.21991653286E+02  0.33642177299E+01  0.86694382752E+01  0.23876975006E+02  0.51100000000E-03 0. -1.
        -12    1    4    4    0    0  0.25582864511E+01  0.22366375787E+01 -0.49940024832E+01  0.60404832610E+01  0.00000000000E+00 0.  1.
</event>
<event>
 8    1  0.1261983E-006  0.9118800E+02  0.7816164E-02  0.1184000E+00
        -11   -1    0    0    0    0  0.00000000000E+00  0.00000000000E+00  0.45593999997E+02  0.45594000000E+02  0.51100000000E-03 0. -1.
         11   -1    0    0    0    0 -0.00000000000E+00 -0.00000000000E+00 -0.45593999997E+02  0.45594000000E+02  0.51100000000E-03 0.  1.
         23    2    1    2    0    0  0.00000000000E+00  0.00000000000E+00  0.00000000000E+00  0.91188000000E+02  0.91188000000E+02 0.  0.
    9900012    2    3    3    0    0 -0.24517690111E+02  0.25593683458E+02  0.99810755078E+01  0.54367141379E+02  0.40000130401E+02 0.  0.
        -12    1    3    3    0    0  0.24517690111E+02 -0.25593683458E+02 -0.99810755078E+01  0.36820858621E+02  0.00000000000E+00 0.  1.
         11    1    4    4    0    0 -0.18062806293E+02  0.73094303038E+01 -0.34630957102E+01  0.19791052895E+02  0.51100000000E-03 0.  1.
        -11    1    4    4    0    0 -0.11674454354E+02  0.22064284352E+02  0.12926248038E+02  0.28110734908E+02  0.51100000000E-03 0. -1.
         12    1    4    4    0    0  0.52195705364E+01 -0.37800311984E+01  0.51792317999E+00  0.64653535762E+01  0.00000000000E+00 0. -1.
</event>
<event>
 8    1  0.1261983E-006  0.9118800E+02  0.7816164E-02  0.1184000E+00
        -11   -1    0    0    0    0  0.00000000000E+00  0.00000000000E+00  0.45593999997E+02  0.45594000000E+02  0.51100000000E-03 0.  1.
         11   -1    0    0    0    0 -0.00000000000E+00 -0.00000000000E+00 -0.45593999997E+02  0.45594000000E+02  0.51100000000E-03 0. -1.
         23    2    1    2    0    0  0.00000000000E+00  0.00000000000E+00 -0.13322676296E-14  0.91188000000E+02  0.91188000000E+02 0.  0.
    9900012    2    3    3    0    0  0.18001039075E+02 -0.32026154485E+02 -0.24632482107E+01  0.54367087863E+02  0.40000008401E+02 0.  0.
        -12    1    3    3    0    0 -0.18001039075E+02  0.32026154485E+02  0.24632482107E+01  0.36820912137E+02  0.00000000000E+00 0.  1.
         11    1    4    4    0    0  0.12118981877E+02 -0.27946406295E+02 -0.98492405353E-01  0.30461139958E+02  0.51100000000E-03 0. -1.
        -11    1    4    4    0    0  0.11371658899E+02 -0.83868405468E+00  0.63939449932E+01  0.13072893707E+02  0.51100000000E-03 0.  1.
         12    1    4    4    0    0 -0.54896017015E+01 -0.32410641357E+01 -0.87587007985E+01  0.10833054198E+02  0.00000000000E+00 0. -1.
</event>
<event>
 8    1  0.1261983E-006  0.9118800E+02  0.7816164E-02  0.1184000E+00
        -11   -1    0    0    0    0  0.00000000000E+00  0.00000000000E+00  0.45593999997E+02  0.45594000000E+02  0.51100000000E-03 0.  1.
         11   -1    0    0    0    0 -0.00000000000E+00 -0.00000000000E+00 -0.45593999997E+02  0.45594000000E+02  0.51100000000E-03 0. -1.
         23    2    1    2    0    0  0.00000000000E+00  0.00000000000E+00  0.00000000000E+00  0.91188000000E+02  0.91188000000E+02 0.  0.
    9900012    2    3    3    0    0 -0.16964355437E+02 -0.45526219095E+01  0.32361457581E+02  0.54367086670E+02  0.40000005682E+02 0.  0.
         12    1    3    3    0    0  0.16964355437E+02  0.45526219095E+01 -0.32361457581E+02  0.36820913330E+02  0.00000000000E+00 0. -1.
         11    1    4    4    0    0  0.66736537229E+01 -0.86919420275E+01  0.89415572747E+01  0.14143512894E+02  0.51100000000E-03 0. -1.
        -11    1    4    4    0    0 -0.48083549633E+01  0.11476810156E+02  0.78514111909E+01  0.14713330920E+02  0.51100000000E-03 0.  1.
         12    1    4    4    0    0 -0.18829654197E+02 -0.73374900384E+01  0.15568489116E+02  0.25510242856E+02  0.00000000000E+00 0. -1.
</event>
<event>
 8    1  0.1261983E-006  0.9118800E+02  0.7816164E-02  0.1184000E+00
        -11   -1    0    0    0    0  0.00000000000E+00  0.00000000000E+00  0.45593999997E+02  0.45594000000E+02  0.51100000000E-03 0. -1.
         11   -1    0    0    0    0 -0.00000000000E+00 -0.00000000000E+00 -0.45593999997E+02  0.45594000000E+02  0.51100000000E-03 0.  1.
         23    2    1    2    0    0  0.00000000000E+00  0.00000000000E+00 -0.35527136788E-14  0.91188000000E+02  0.91188000000E+02 0.  0.
    9900012    2    3    3    0    0 -0.14779211072E+02 -0.29757416794E+02 -0.15869808784E+02  0.54367085223E+02  0.40000002384E+02 0.  0.
         12    1    3    3    0    0  0.14779211072E+02  0.29757416794E+02  0.15869808784E+02  0.36820914777E+02  0.00000000000E+00 0. -1.
         11    1    4    4    0    0 -0.69271418689E+01 -0.54649381450E+01 -0.10251767724E+02  0.13525885743E+02  0.51100000000E-03 0. -1.
        -11    1    4    4    0    0 -0.25180363905E+00 -0.11400255078E+02 -0.18073712530E+02  0.21370266863E+02  0.51100000000E-03 0.  1.
         12    1    4    4    0    0 -0.76002655640E+01 -0.12892223571E+02  0.12455671470E+02  0.19470932618E+02  0.00000000000E+00 0. -1.
</event>
<event>
 8    1  0.1261983E-006  0.9118800E+02  0.7816164E-02  0.1184000E+00
        -11   -1    0    0    0    0  0.00000000000E+00  0.00000000000E+00  0.45593999997E+02  0.45594000000E+02  0.51100000000E-03 0.  1.
         11   -1    0    0    0    0 -0.00000000000E+00 -0.00000000000E+00 -0.45593999997E+02  0.45594000000E+02  0.51100000000E-03 0. -1.
         23    2    1    2    0    0  0.00000000000E+00 -0.17763568394E-14  0.17763568394E-14  0.91188000000E+02  0.91188000000E+02 0.  0.
    9900012    2    3    3    0    0  0.32850797640E+02  0.14726332194E+02 -0.77291728311E+01  0.54367083687E+02  0.39999998882E+02 0.  0.
        -12    1    3    3    0    0 -0.32850797640E+02 -0.14726332194E+02  0.77291728311E+01  0.36820916313E+02  0.00000000000E+00 0.  1.
         11    1    4    4    0    0  0.16772907506E+02  0.88724122581E+01 -0.18427059547E+02  0.26450078436E+02  0.51100000000E-03 0. -1.
        -11    1    4    4    0    0  0.59548910009E+01 -0.49929841494E+01  0.10520146091E+02  0.13079147204E+02  0.51100000000E-03 0.  1.
         12    1    4    4    0    0  0.10122999133E+02  0.10846904086E+02  0.17774062428E+00  0.14837858047E+02  0.00000000000E+00 0. -1.
</event>
<event>
 8    1  0.1261983E-006  0.9118800E+02  0.7816164E-02  0.1184000E+00
        -11   -1    0    0    0    0  0.00000000000E+00  0.00000000000E+00  0.45593999997E+02  0.45594000000E+02  0.51100000000E-03 0. -1.
         11   -1    0    0    0    0 -0.00000000000E+00 -0.00000000000E+00 -0.45593999997E+02  0.45594000000E+02  0.51100000000E-03 0.  1.
         23    2    1    2    0    0  0.00000000000E+00  0.00000000000E+00  0.17763568394E-14  0.91188000000E+02  0.91188000000E+02 0.  0.
    9900012    2    3    3    0    0  0.28004987410E+02  0.21443895749E+02 -0.10566785334E+02  0.54367123625E+02  0.40000089928E+02 0.  0.
         12    1    3    3    0    0 -0.28004987410E+02 -0.21443895749E+02  0.10566785334E+02  0.36820876375E+02  0.00000000000E+00 0. -1.
         11    1    4    4    0    0  0.16237010572E+02  0.99867771601E+01  0.82174890767E+01  0.20758211805E+02  0.51100000000E-03 0. -1.
        -11    1    4    4    0    0  0.35160577755E+01  0.17343036551E+02 -0.11095741616E+02  0.20886815491E+02  0.51100000000E-03 0.  1.
         12    1    4    4    0    0  0.82519190625E+01 -0.58859179622E+01 -0.76885327941E+01  0.12722096329E+02  0.00000000000E+00 0. -1.
</event>
<event>
 8    1  0.1261983E-006  0.9118800E+02  0.7816164E-02  0.1184000E+00
        -11   -1    0    0    0    0  0.00000000000E+00  0.00000000000E+00  0.45593999997E+02  0.45594000000E+02  0.51100000000E-03 0. -1.
         11   -1    0    0    0    0 -0.00000000000E+00 -0.00000000000E+00 -0.45593999997E+02  0.45594000000E+02  0.51100000000E-03 0.  1.
         23    2    1    2    0    0  0.00000000000E+00 -0.88817841970E-15  0.35527136788E-14  0.91188000000E+02  0.91188000000E+02 0.  0.
    9900012    2    3    3    0    0 -0.21129239821E+02  0.57516299950E+01 -0.29601584050E+02  0.54367084731E+02  0.40000001261E+02 0.  0.
        -12    1    3    3    0    0  0.21129239821E+02 -0.57516299950E+01  0.29601584050E+02  0.36820915269E+02  0.00000000000E+00 0.  1.
         11    1    4    4    0    0  0.13642613423E+01 -0.17004859541E+01 -0.81677707852E+01  0.84537176053E+01  0.51100000000E-03 0. -1.
        -11    1    4    4    0    0  0.44700516548E+01 -0.66973569097E+01  0.96815761320E+00  0.81100727986E+01  0.51100000000E-03 0.  1.
         12    1    4    4    0    0 -0.26963552818E+02  0.14149472859E+02 -0.22401970878E+02  0.37803294327E+02  0.00000000000E+00 0. -1.
</event>
<event>
 8    1  0.1261983E-006  0.9118800E+02  0.7816164E-02  0.1184000E+00
        -11   -1    0    0    0    0  0.00000000000E+00  0.00000000000E+00  0.45593999997E+02  0.45594000000E+02  0.51100000000E-03 0. -1.
         11   -1    0    0    0    0 -0.00000000000E+00 -0.00000000000E+00 -0.45593999997E+02  0.45594000000E+02  0.51100000000E-03 0.  1.
         23    2    1    2    0    0  0.00000000000E+00  0.71054273576E-14  0.00000000000E+00  0.91188000000E+02  0.91188000000E+02 0.  0.
    9900012    2    3    3    0    0  0.11286230944E+02 -0.32094563213E+02 -0.14083304044E+02  0.54367089507E+02  0.40000012149E+02 0.  0.
         12    1    3    3    0    0 -0.11286230944E+02  0.32094563213E+02  0.14083304044E+02  0.36820910493E+02  0.00000000000E+00 0. -1.
         11    1    4    4    0    0  0.11844480609E+02 -0.12329524168E+02  0.26883811529E+01  0.17307116473E+02  0.51100000000E-03 0. -1.
        -11    1    4    4    0    0  0.11645892062E+02 -0.75052978940E+01 -0.14123484430E+01  0.13926630130E+02  0.51100000000E-03 0.  1.
         12    1    4    4    0    0 -0.12204141728E+02 -0.12259741150E+02 -0.15359336754E+02  0.23133342904E+02  0.00000000000E+00 0. -1.
</event>
<event>
 8    1  0.1261983E-006  0.9118800E+02  0.7816164E-02  0.1184000E+00
        -11   -1    0    0    0    0  0.00000000000E+00  0.00000000000E+00  0.45593999997E+02  0.45594000000E+02  0.51100000000E-03 0. -1.
         11   -1    0    0    0    0 -0.00000000000E+00 -0.00000000000E+00 -0.45593999997E+02  0.45594000000E+02  0.51100000000E-03 0.  1.
         23    2    1    2    0    0  0.00000000000E+00  0.00000000000E+00 -0.71054273576E-14  0.91188000000E+02  0.91188000000E+02 0.  0.
    9900012    2    3    3    0    0 -0.26292139598E+02 -0.11108320904E+02  0.23261723740E+02  0.54367093040E+02  0.40000020204E+02 0.  0.
        -12    1    3    3    0    0  0.26292139598E+02  0.11108320904E+02 -0.23261723740E+02  0.36820906960E+02  0.00000000000E+00 0.  1.
         11    1    4    4    0    0  0.61183817896E+01 -0.66469477768E+01  0.18645320829E+01  0.92245862032E+01  0.51100000000E-03 0. -1.
        -11    1    4    4    0    0  0.16891258194E+01  0.42328929403E+01  0.23397687004E+01  0.51229919491E+01  0.51100000000E-03 0.  1.
         12    1    4    4    0    0 -0.34099647207E+02 -0.86942660675E+01  0.19057422957E+02  0.40019514888E+02  0.00000000000E+00 0. -1.
</event>
<event>
 8    1  0.1261983E-006  0.9118800E+02  0.7816164E-02  0.1184000E+00
        -11   -1    0    0    0    0  0.00000000000E+00  0.00000000000E+00  0.45593999997E+02  0.45594000000E+02  0.51100000000E-03 0. -1.
         11   -1    0    0    0    0 -0.00000000000E+00 -0.00000000000E+00 -0.45593999997E+02  0.45594000000E+02  0.51100000000E-03 0.  1.
         23    2    1    2    0    0  0.00000000000E+00  0.17763568394E-14  0.88817841970E-15  0.91188000000E+02  0.91188000000E+02 0.  0.
    9900012    2    3    3    0    0  0.33291405389E+02 -0.13651707503E+02 -0.78162006737E+01  0.54367084972E+02  0.40000001810E+02 0.  0.
        -12    1    3    3    0    0 -0.33291405389E+02  0.13651707503E+02  0.78162006737E+01  0.36820915028E+02  0.00000000000E+00 0.  1.
         11    1    4    4    0    0  0.10597582600E+02  0.48163497524E+01  0.15908697668E+01  0.11748908408E+02  0.51100000000E-03 0. -1.
        -11    1    4    4    0    0 -0.60706645342E+00 -0.37558506816E+01  0.88017070612E+01  0.95887951002E+01  0.51100000000E-03 0.  1.
        -12    1    4    4    0    0  0.23300889243E+02 -0.14712206574E+02 -0.18208777502E+02  0.33029381464E+02  0.00000000000E+00 0.  1.
</event>
<event>
 8    1  0.1261983E-006  0.9118800E+02  0.7816164E-02  0.1184000E+00
        -11   -1    0    0    0    0  0.00000000000E+00  0.00000000000E+00  0.45593999997E+02  0.45594000000E+02  0.51100000000E-03 0.  1.
         11   -1    0    0    0    0 -0.00000000000E+00 -0.00000000000E+00 -0.45593999997E+02  0.45594000000E+02  0.51100000000E-03 0. -1.
         23    2    1    2    0    0  0.00000000000E+00 -0.35527136788E-14 -0.35527136788E-14  0.91188000000E+02  0.91188000000E+02 0.  0.
    9900012    2    3    3    0    0 -0.10429873138E+02 -0.19547563129E+02 -0.29409061074E+02  0.54367050104E+02  0.39999922322E+02 0.  0.
        -12    1    3    3    0    0  0.10429873138E+02  0.19547563129E+02  0.29409061074E+02  0.36820949896E+02  0.00000000000E+00 0.  1.
         11    1    4    4    0    0 -0.64588161597E+01 -0.14403658105E+02 -0.22426532717E+02  0.27425007620E+02  0.51100000000E-03 0. -1.
        -11    1    4    4    0    0 -0.14155876752E+02 -0.39791226450E+01 -0.78238342912E+01  0.16656369560E+02  0.51100000000E-03 0.  1.
        -12    1    4    4    0    0  0.10184819774E+02 -0.11647823793E+01  0.84130593451E+00  0.10285672924E+02  0.00000000000E+00 0.  1.
</event>
<event>
 8    1  0.1261983E-006  0.9118800E+02  0.7816164E-02  0.1184000E+00
        -11   -1    0    0    0    0  0.00000000000E+00  0.00000000000E+00  0.45593999997E+02  0.45594000000E+02  0.51100000000E-03 0. -1.
         11   -1    0    0    0    0 -0.00000000000E+00 -0.00000000000E+00 -0.45593999997E+02  0.45594000000E+02  0.51100000000E-03 0.  1.
         23    2    1    2    0    0  0.35527136788E-14  0.13322676296E-14  0.35527136788E-14  0.91188000000E+02  0.91188000000E+02 0.  0.
    9900012    2    3    3    0    0 -0.26484552948E+02 -0.21291218641E+01 -0.25491443800E+02  0.54367103599E+02  0.40000044273E+02 0.  0.
         12    1    3    3    0    0  0.26484552948E+02  0.21291218641E+01  0.25491443800E+02  0.36820896401E+02  0.00000000000E+00 0. -1.
         11    1    4    4    0    0  0.44430745131E+00  0.15516754413E+01  0.16120666710E+01  0.22811981499E+01  0.51100000000E-03 0. -1.
        -11    1    4    4    0    0 -0.73698808589E+01 -0.18514347185E+02 -0.11814112256E+02  0.23166127087E+02  0.51100000000E-03 0.  1.
         12    1    4    4    0    0 -0.19558979541E+02  0.14833549879E+02 -0.15289398216E+02  0.28919778362E+02  0.00000000000E+00 0. -1.
</event>
<event>
 8    1  0.1261983E-006  0.9118800E+02  0.7816164E-02  0.1184000E+00
        -11   -1    0    0    0    0  0.00000000000E+00  0.00000000000E+00  0.45593999997E+02  0.45594000000E+02  0.51100000000E-03 0. -1.
         11   -1    0    0    0    0 -0.00000000000E+00 -0.00000000000E+00 -0.45593999997E+02  0.45594000000E+02  0.51100000000E-03 0.  1.
         23    2    1    2    0    0 -0.35527136788E-14  0.00000000000E+00  0.00000000000E+00  0.91188000000E+02  0.91188000000E+02 0.  0.
    9900012    2    3    3    0    0 -0.13658080976E+02  0.18346441301E+02  0.28855391407E+02  0.54367235510E+02  0.40000344992E+02 0.  0.
        -12    1    3    3    0    0  0.13658080976E+02 -0.18346441301E+02 -0.28855391407E+02  0.36820764490E+02  0.00000000000E+00 0.  1.
         11    1    4    4    0    0 -0.98526409327E+00  0.79739498281E+01  0.95214936019E+01  0.12458469483E+02  0.51100000000E-03 0. -1.
        -11    1    4    4    0    0  0.54860044630E+01 -0.77558122501E+01 -0.44673504384E+00  0.95104385328E+01  0.51100000000E-03 0.  1.
         12    1    4    4    0    0 -0.18158821346E+02  0.18128303723E+02  0.19780632849E+02  0.32398327494E+02  0.00000000000E+00 0. -1.
</event>
<event>
 8    1  0.1261983E-006  0.9118800E+02  0.7816164E-02  0.1184000E+00
        -11   -1    0    0    0    0  0.00000000000E+00  0.00000000000E+00  0.45593999997E+02  0.45594000000E+02  0.51100000000E-03 0.  1.
         11   -1    0    0    0    0 -0.00000000000E+00 -0.00000000000E+00 -0.45593999997E+02  0.45594000000E+02  0.51100000000E-03 0. -1.
         23    2    1    2    0    0  0.00000000000E+00  0.00000000000E+00  0.88817841970E-15  0.91188000000E+02  0.91188000000E+02 0.  0.
    9900012    2    3    3    0    0  0.12263464820E+02 -0.33931150776E+02  0.73528145831E+01  0.54367089573E+02  0.40000012299E+02 0.  0.
        -12    1    3    3    0    0 -0.12263464820E+02  0.33931150776E+02 -0.73528145831E+01  0.36820910427E+02  0.00000000000E+00 0.  1.
         11    1    4    4    0    0  0.15763322647E+02 -0.21818506331E+02 -0.63849565998E+01  0.27664006045E+02  0.51100000000E-03 0. -1.
        -11    1    4    4    0    0 -0.66209049018E+01  0.16901392594E+01  0.99203136634E+01  0.12045977581E+02  0.51100000000E-03 0.  1.
         12    1    4    4    0    0  0.31210470753E+01 -0.13802783704E+02  0.38174575196E+01  0.14657105947E+02  0.00000000000E+00 0. -1.
</event>
<event>
 8    1  0.1261983E-006  0.9118800E+02  0.7816164E-02  0.1184000E+00
        -11   -1    0    0    0    0  0.00000000000E+00  0.00000000000E+00  0.45593999997E+02  0.45594000000E+02  0.51100000000E-03 0.  1.
         11   -1    0    0    0    0 -0.00000000000E+00 -0.00000000000E+00 -0.45593999997E+02  0.45594000000E+02  0.51100000000E-03 0. -1.
         23    2    1    2    0    0  0.71054273576E-14  0.00000000000E+00 -0.17763568394E-14  0.91188000000E+02  0.91188000000E+02 0.  0.
    9900012    2    3    3    0    0  0.35288723253E+02  0.54233795790E+01  0.90040334605E+01  0.54367086738E+02  0.40000005836E+02 0.  0.
        -12    1    3    3    0    0 -0.35288723253E+02 -0.54233795790E+01 -0.90040334605E+01  0.36820913262E+02  0.00000000000E+00 0.  1.
         11    1    4    4    0    0  0.63810760144E+01  0.77330970935E+01 -0.26748970812E+01  0.10376608136E+02  0.51100000000E-03 0. -1.
        -11    1    4    4    0    0 -0.62030302068E+01 -0.34430038312E+01  0.35506082511E+01  0.79333900913E+01  0.51100000000E-03 0.  1.
         12    1    4    4    0    0  0.35110677446E+02  0.11332863167E+01  0.81283222907E+01  0.36057088510E+02  0.00000000000E+00 0. -1.
</event>
<event>
 8    1  0.1261983E-006  0.9118800E+02  0.7816164E-02  0.1184000E+00
        -11   -1    0    0    0    0  0.00000000000E+00  0.00000000000E+00  0.45593999997E+02  0.45594000000E+02  0.51100000000E-03 0. -1.
         11   -1    0    0    0    0 -0.00000000000E+00 -0.00000000000E+00 -0.45593999997E+02  0.45594000000E+02  0.51100000000E-03 0.  1.
         23    2    1    2    0    0  0.00000000000E+00  0.00000000000E+00  0.00000000000E+00  0.91188000000E+02  0.91188000000E+02 0.  0.
    9900012    2    3    3    0    0  0.92978718133E+01 -0.30466764034E+02 -0.18469103525E+02  0.54367056015E+02  0.39999935797E+02 0.  0.
         12    1    3    3    0    0 -0.92978718133E+01  0.30466764034E+02  0.18469103525E+02  0.36820943985E+02  0.00000000000E+00 0. -1.
         11    1    4    4    0    0  0.74922410851E+01 -0.25202005582E+02 -0.62003951368E+01  0.27013323785E+02  0.51100000000E-03 0. -1.
        -11    1    4    4    0    0 -0.38163857473E+01 -0.13594344151E+02 -0.91749400675E+01  0.16838958357E+02  0.51100000000E-03 0.  1.
         12    1    4    4    0    0  0.56220164754E+01  0.83295856984E+01 -0.30937683208E+01  0.10514773872E+02  0.00000000000E+00 0. -1.
</event>
<event>
 8    1  0.1261983E-006  0.9118800E+02  0.7816164E-02  0.1184000E+00
        -11   -1    0    0    0    0  0.00000000000E+00  0.00000000000E+00  0.45593999997E+02  0.45594000000E+02  0.51100000000E-03 0.  1.
         11   -1    0    0    0    0 -0.00000000000E+00 -0.00000000000E+00 -0.45593999997E+02  0.45594000000E+02  0.51100000000E-03 0. -1.
         23    2    1    2    0    0  0.00000000000E+00 -0.88817841970E-15  0.00000000000E+00  0.91188000000E+02  0.91188000000E+02 0.  0.
    9900012    2    3    3    0    0  0.33601743261E+02 -0.77011501625E+01 -0.12938156986E+02  0.54367071574E+02  0.39999971267E+02 0.  0.
        -12    1    3    3    0    0 -0.33601743261E+02  0.77011501625E+01  0.12938156986E+02  0.36820928426E+02  0.00000000000E+00 0.  1.
         11    1    4    4    0    0  0.25412053043E+02 -0.14935926628E+02 -0.14758675336E+02  0.32964721173E+02  0.51100000000E-03 0. -1.
        -11    1    4    4    0    0 -0.53421537518E+01  0.32462514451E+01 -0.23705884117E+01  0.66855399805E+01  0.51100000000E-03 0.  1.
        -12    1    4    4    0    0  0.13531843969E+02  0.39885250201E+01  0.41911067624E+01  0.14716810420E+02  0.00000000000E+00 0.  1.
</event>
<event>
 8    1  0.1261983E-006  0.9118800E+02  0.7816164E-02  0.1184000E+00
        -11   -1    0    0    0    0  0.00000000000E+00  0.00000000000E+00  0.45593999997E+02  0.45594000000E+02  0.51100000000E-03 0.  1.
         11   -1    0    0    0    0 -0.00000000000E+00 -0.00000000000E+00 -0.45593999997E+02  0.45594000000E+02  0.51100000000E-03 0. -1.
         23    2    1    2    0    0 -0.17763568394E-14  0.00000000000E+00  0.00000000000E+00  0.91188000000E+02  0.91188000000E+02 0.  0.
    9900012    2    3    3    0    0 -0.57460778639E+01 -0.31163344653E+02  0.18750974280E+02  0.54367211073E+02  0.40000289282E+02 0.  0.
         12    1    3    3    0    0  0.57460778639E+01  0.31163344653E+02 -0.18750974280E+02  0.36820788927E+02  0.00000000000E+00 0. -1.
         11    1    4    4    0    0 -0.16677357573E+02 -0.13408035699E+02  0.10149332859E+02  0.23683720879E+02  0.51100000000E-03 0. -1.
        -11    1    4    4    0    0 -0.33765499482E+00 -0.11075689979E+02  0.12797467167E+02  0.16928085702E+02  0.51100000000E-03 0.  1.
        -12    1    4    4    0    0  0.11268934704E+02 -0.66796189754E+01 -0.41958257462E+01  0.13755404491E+02  0.00000000000E+00 0.  1.
</event>
<event>
 8    1  0.1261983E-006  0.9118800E+02  0.7816164E-02  0.1184000E+00
        -11   -1    0    0    0    0  0.00000000000E+00  0.00000000000E+00  0.45593999997E+02  0.45594000000E+02  0.51100000000E-03 0. -1.
         11   -1    0    0    0    0 -0.00000000000E+00 -0.00000000000E+00 -0.45593999997E+02  0.45594000000E+02  0.51100000000E-03 0.  1.
         23    2    1    2    0    0 -0.35527136788E-14 -0.88817841970E-15 -0.35527136788E-14  0.91188000000E+02  0.91188000000E+02 0.  0.
    9900012    2    3    3    0    0  0.25051823713E+02 -0.71486096857E+01 -0.26020835910E+02  0.54367076693E+02  0.39999982936E+02 0.  0.
        -12    1    3    3    0    0 -0.25051823713E+02  0.71486096857E+01  0.26020835910E+02  0.36820923307E+02  0.00000000000E+00 0.  1.
         11    1    4    4    0    0 -0.93729678866E+01 -0.72652268402E+00 -0.27504624945E+01  0.97951726074E+01  0.51100000000E-03 0. -1.
        -11    1    4    4    0    0  0.19834196608E+02 -0.47559608901E+01 -0.21734982903E+02  0.29806442275E+02  0.51100000000E-03 0.  1.
         12    1    4    4    0    0  0.14590594992E+02 -0.16661261116E+01 -0.15353905124E+01  0.14765461810E+02  0.00000000000E+00 0. -1.
</event>
<event>
 8    1  0.1261983E-006  0.9118800E+02  0.7816164E-02  0.1184000E+00
        -11   -1    0    0    0    0  0.00000000000E+00  0.00000000000E+00  0.45593999997E+02  0.45594000000E+02  0.51100000000E-03 0.  1.
         11   -1    0    0    0    0 -0.00000000000E+00 -0.00000000000E+00 -0.45593999997E+02  0.45594000000E+02  0.51100000000E-03 0. -1.
         23    2    1    2    0    0  0.00000000000E+00  0.35527136788E-14  0.00000000000E+00  0.91188000000E+02  0.91188000000E+02 0.  0.
    9900012    2    3    3    0    0  0.49966652778E+01  0.19522999400E+02 -0.30816635061E+02  0.54367093357E+02  0.40000020927E+02 0.  0.
        -12    1    3    3    0    0 -0.49966652778E+01 -0.19522999400E+02  0.30816635061E+02  0.36820906643E+02  0.00000000000E+00 0.  1.
         11    1    4    4    0    0  0.84118761354E+01 -0.23082484760E+01  0.11593977959E+01  0.87995383206E+01  0.51100000000E-03 0. -1.
        -11    1    4    4    0    0 -0.45084640640E+00 -0.44152003934E+01 -0.48304273408E+00  0.44643686609E+01  0.51100000000E-03 0.  1.
         12    1    4    4    0    0 -0.29643644512E+01  0.26246448269E+02 -0.31492990123E+02  0.41103186376E+02  0.00000000000E+00 0. -1.
</event>
<event>
 8    1  0.1261983E-006  0.9118800E+02  0.7816164E-02  0.1184000E+00
        -11   -1    0    0    0    0  0.00000000000E+00  0.00000000000E+00  0.45593999997E+02  0.45594000000E+02  0.51100000000E-03 0. -1.
         11   -1    0    0    0    0 -0.00000000000E+00 -0.00000000000E+00 -0.45593999997E+02  0.45594000000E+02  0.51100000000E-03 0.  1.
         23    2    1    2    0    0  0.00000000000E+00  0.17763568394E-14  0.00000000000E+00  0.91188000000E+02  0.91188000000E+02 0.  0.
    9900012    2    3    3    0    0 -0.24659977245E+02 -0.15511318193E+02  0.22518090341E+02  0.54367083901E+02  0.39999999368E+02 0.  0.
        -12    1    3    3    0    0  0.24659977245E+02  0.15511318193E+02 -0.22518090341E+02  0.36820916099E+02  0.00000000000E+00 0.  1.
         11    1    4    4    0    0 -0.14383508720E+02 -0.18244342243E+02  0.10788460267E+02  0.25615078024E+02  0.51100000000E-03 0. -1.
        -11    1    4    4    0    0 -0.11620782500E+01  0.97423635891E+01  0.13936905501E+02  0.17044101893E+02  0.51100000000E-03 0.  1.
         12    1    4    4    0    0 -0.91143902752E+01 -0.70093395394E+01 -0.22072754273E+01  0.11707903983E+02  0.00000000000E+00 0. -1.
</event>
<event>
 8    1  0.1261983E-006  0.9118800E+02  0.7816164E-02  0.1184000E+00
        -11   -1    0    0    0    0  0.00000000000E+00  0.00000000000E+00  0.45593999997E+02  0.45594000000E+02  0.51100000000E-03 0.  1.
         11   -1    0    0    0    0 -0.00000000000E+00 -0.00000000000E+00 -0.45593999997E+02  0.45594000000E+02  0.51100000000E-03 0. -1.
         23    2    1    2    0    0 -0.35527136788E-14 -0.44408920985E-15  0.35527136788E-14  0.91188000000E+02  0.91188000000E+02 0.  0.
    9900012    2    3    3    0    0  0.25684081461E+02 -0.23347437889E+01 -0.26280345094E+02  0.54367087365E+02  0.40000007266E+02 0.  0.
        -12    1    3    3    0    0 -0.25684081461E+02  0.23347437889E+01  0.26280345094E+02  0.36820912635E+02  0.00000000000E+00 0.  1.
         11    1    4    4    0    0  0.24446277618E+01  0.56613166724E+01 -0.46807584797E+01  0.77418480717E+01  0.51100000000E-03 0. -1.
        -11    1    4    4    0    0  0.21174999573E+02  0.59699768778E+00  0.21426868864E+01  0.21291503482E+02  0.51100000000E-03 0.  1.
         12    1    4    4    0    0  0.20644541258E+01 -0.85930581491E+01 -0.23742273500E+02  0.25333735811E+02  0.00000000000E+00 0. -1.
</event>
<event>
 8    1  0.1261983E-006  0.9118800E+02  0.7816164E-02  0.1184000E+00
        -11   -1    0    0    0    0  0.00000000000E+00  0.00000000000E+00  0.45593999997E+02  0.45594000000E+02  0.51100000000E-03 0.  1.
         11   -1    0    0    0    0 -0.00000000000E+00 -0.00000000000E+00 -0.45593999997E+02  0.45594000000E+02  0.51100000000E-03 0. -1.
         23    2    1    2    0    0  0.00000000000E+00  0.35527136788E-14 -0.35527136788E-14  0.91188000000E+02  0.91188000000E+02 0.  0.
    9900012    2    3    3    0    0 -0.48395293344E+01  0.26271978225E+02 -0.25340537893E+02  0.54367071919E+02  0.39999972054E+02 0.  0.
        -12    1    3    3    0    0  0.48395293344E+01 -0.26271978225E+02  0.25340537893E+02  0.36820928081E+02  0.00000000000E+00 0.  1.
         11    1    4    4    0    0 -0.23266741816E+01 -0.64692542035E+01  0.11229258431E+00  0.68758470447E+01  0.51100000000E-03 0.  1.
        -11    1    4    4    0    0 -0.40847570071E+01  0.24003104445E+01 -0.14403582458E+02  0.15162780679E+02  0.51100000000E-03 0. -1.
         12    1    4    4    0    0  0.15719018543E+01  0.30340921984E+02 -0.11049248019E+02  0.32328444195E+02  0.00000000000E+00 0. -1.
</event>
<event>
 8    1  0.1261983E-006  0.9118800E+02  0.7816164E-02  0.1184000E+00
        -11   -1    0    0    0    0  0.00000000000E+00  0.00000000000E+00  0.45593999997E+02  0.45594000000E+02  0.51100000000E-03 0.  1.
         11   -1    0    0    0    0 -0.00000000000E+00 -0.00000000000E+00 -0.45593999997E+02  0.45594000000E+02  0.51100000000E-03 0. -1.
         23    2    1    2    0    0  0.00000000000E+00  0.00000000000E+00  0.00000000000E+00  0.91188000000E+02  0.91188000000E+02 0.  0.
    9900012    2    3    3    0    0 -0.29949727212E+02  0.62660086161E+00 -0.21410313236E+02  0.54367077937E+02  0.39999985773E+02 0.  0.
        -12    1    3    3    0    0  0.29949727212E+02 -0.62660086161E+00  0.21410313236E+02  0.36820922063E+02  0.00000000000E+00 0.  1.
         11    1    4    4    0    0 -0.44673388457E+01  0.12758489101E+02 -0.56985744090E+01  0.14670034460E+02  0.51100000000E-03 0. -1.
        -11    1    4    4    0    0 -0.16633505285E+02  0.36870753999E+01 -0.23937939422E+01  0.17204600337E+02  0.51100000000E-03 0.  1.
        -12    1    4    4    0    0 -0.88488830810E+01 -0.15818963640E+02 -0.13317944885E+02  0.22492443139E+02  0.00000000000E+00 0.  1.
</event>
<event>
 8    1  0.1261983E-006  0.9118800E+02  0.7816164E-02  0.1184000E+00
        -11   -1    0    0    0    0  0.00000000000E+00  0.00000000000E+00  0.45593999997E+02  0.45594000000E+02  0.51100000000E-03 0.  1.
         11   -1    0    0    0    0 -0.00000000000E+00 -0.00000000000E+00 -0.45593999997E+02  0.45594000000E+02  0.51100000000E-03 0. -1.
         23    2    1    2    0    0 -0.35527136788E-14 -0.17763568394E-14  0.00000000000E+00  0.91188000000E+02  0.91188000000E+02 0.  0.
    9900012    2    3    3    0    0 -0.30995121005E+02 -0.89299812353E+01  0.17757702235E+02  0.54367108109E+02  0.40000054557E+02 0.  0.
         12    1    3    3    0    0  0.30995121005E+02  0.89299812353E+01 -0.17757702235E+02  0.36820891891E+02  0.00000000000E+00 0. -1.
         11    1    4    4    0    0 -0.65389361232E+01 -0.19888275392E+02  0.37310216190E+01  0.21265505079E+02  0.51100000000E-03 0. -1.
        -11    1    4    4    0    0 -0.18772356112E+02  0.32483565491E+01  0.44653444612E+01  0.19567638480E+02  0.51100000000E-03 0.  1.
         12    1    4    4    0    0 -0.56838287694E+01  0.77099376074E+01  0.95613361543E+01  0.13533964550E+02  0.00000000000E+00 0. -1.
</event>
<event>
 8    1  0.1261983E-006  0.9118800E+02  0.7816164E-02  0.1184000E+00
        -11   -1    0    0    0    0  0.00000000000E+00  0.00000000000E+00  0.45593999997E+02  0.45594000000E+02  0.51100000000E-03 0. -1.
         11   -1    0    0    0    0 -0.00000000000E+00 -0.00000000000E+00 -0.45593999997E+02  0.45594000000E+02  0.51100000000E-03 0.  1.
         23    2    1    2    0    0 -0.44408920985E-15  0.00000000000E+00  0.71054273576E-14  0.91188000000E+02  0.91188000000E+02 0.  0.
    9900012    2    3    3    0    0 -0.21268745974E+01 -0.16939704980E+02 -0.32623536583E+02  0.54367186055E+02  0.40000232249E+02 0.  0.
         12    1    3    3    0    0  0.21268745974E+01  0.16939704980E+02  0.32623536583E+02  0.36820813945E+02  0.00000000000E+00 0. -1.
         11    1    4    4    0    0 -0.22459723116E+01 -0.36641703726E+01  0.96151896948E+00  0.44039817363E+01  0.51100000000E-03 0. -1.
        -11    1    4    4    0    0 -0.15183605465E+02 -0.45364969179E+01 -0.26690250388E+02  0.31040153757E+02  0.51100000000E-03 0.  1.
         12    1    4    4    0    0  0.15302703179E+02 -0.87390376899E+01 -0.68948051645E+01  0.18923050562E+02  0.00000000000E+00 0. -1.
</event>
<event>
 8    1  0.1261983E-006  0.9118800E+02  0.7816164E-02  0.1184000E+00
        -11   -1    0    0    0    0  0.00000000000E+00  0.00000000000E+00  0.45593999997E+02  0.45594000000E+02  0.51100000000E-03 0.  1.
         11   -1    0    0    0    0 -0.00000000000E+00 -0.00000000000E+00 -0.45593999997E+02  0.45594000000E+02  0.51100000000E-03 0. -1.
         23    2    1    2    0    0  0.00000000000E+00  0.00000000000E+00 -0.17763568394E-14  0.91188000000E+02  0.91188000000E+02 0.  0.
    9900012    2    3    3    0    0  0.30511401106E+02 -0.17603987805E+02 -0.10720716748E+02  0.54367085404E+02  0.40000002795E+02 0.  0.
        -12    1    3    3    0    0 -0.30511401106E+02  0.17603987805E+02  0.10720716748E+02  0.36820914596E+02  0.00000000000E+00 0.  1.
         11    1    4    4    0    0  0.24883942565E+02  0.16775921324E+01  0.26596060340E+01  0.25081834412E+02  0.51100000000E-03 0.  1.
        -11    1    4    4    0    0  0.10680484883E+02 -0.17842916827E+02 -0.10769149564E+02  0.23418305251E+02  0.51100000000E-03 0. -1.
        -12    1    4    4    0    0 -0.50530263416E+01 -0.14386631111E+01 -0.26111732180E+01  0.58669457412E+01  0.00000000000E+00 0.  1.
</event>
<event>
 8    1  0.1261983E-006  0.9118800E+02  0.7816164E-02  0.1184000E+00
        -11   -1    0    0    0    0  0.00000000000E+00  0.00000000000E+00  0.45593999997E+02  0.45594000000E+02  0.51100000000E-03 0.  1.
         11   -1    0    0    0    0 -0.00000000000E+00 -0.00000000000E+00 -0.45593999997E+02  0.45594000000E+02  0.51100000000E-03 0. -1.
         23    2    1    2    0    0 -0.35527136788E-14  0.17763568394E-14  0.00000000000E+00  0.91188000000E+02  0.91188000000E+02 0.  0.
    9900012    2    3    3    0    0  0.28785438502E+02  0.95848736255E+01 -0.20864059600E+02  0.54367078567E+02  0.39999987210E+02 0.  0.
        -12    1    3    3    0    0 -0.28785438502E+02 -0.95848736255E+01  0.20864059600E+02  0.36820921433E+02  0.00000000000E+00 0.  1.
         11    1    4    4    0    0  0.24587877128E+02 -0.50916996583E+01 -0.21417305573E+02  0.33002879955E+02  0.51100000000E-03 0. -1.
        -11    1    4    4    0    0  0.72597328027E+01  0.64258781104E+01  0.56230043315E+01  0.11207756592E+02  0.51100000000E-03 0.  1.
         12    1    4    4    0    0 -0.30621714280E+01  0.82506951734E+01 -0.50697583579E+01  0.10156442020E+02  0.00000000000E+00 0. -1.
</event>
<event>
 8    1  0.1261983E-006  0.9118800E+02  0.7816164E-02  0.1184000E+00
        -11   -1    0    0    0    0  0.00000000000E+00  0.00000000000E+00  0.45593999997E+02  0.45594000000E+02  0.51100000000E-03 0. -1.
         11   -1    0    0    0    0 -0.00000000000E+00 -0.00000000000E+00 -0.45593999997E+02  0.45594000000E+02  0.51100000000E-03 0.  1.
         23    2    1    2    0    0  0.00000000000E+00  0.00000000000E+00  0.00000000000E+00  0.91188000000E+02  0.91188000000E+02 0.  0.
    9900012    2    3    3    0    0 -0.31303150644E+02 -0.56138612558E+01 -0.18557440875E+02  0.54367064511E+02  0.39999955166E+02 0.  0.
         12    1    3    3    0    0  0.31303150644E+02  0.56138612558E+01  0.18557440875E+02  0.36820935489E+02  0.00000000000E+00 0. -1.
         11    1    4    4    0    0 -0.12877744406E+01 -0.11304972776E+01  0.85863256433E+01  0.87556482009E+01  0.51100000000E-03 0. -1.
        -11    1    4    4    0    0 -0.22289352531E+02  0.12730038210E+01 -0.71925974392E+01  0.23455686585E+02  0.51100000000E-03 0.  1.
        -12    1    4    4    0    0 -0.77260236718E+01 -0.57563677992E+01 -0.19951169079E+02  0.22155729725E+02  0.00000000000E+00 0.  1.
</event>
<event>
 8    1  0.1261983E-006  0.9118800E+02  0.7816164E-02  0.1184000E+00
        -11   -1    0    0    0    0  0.00000000000E+00  0.00000000000E+00  0.45593999997E+02  0.45594000000E+02  0.51100000000E-03 0.  1.
         11   -1    0    0    0    0 -0.00000000000E+00 -0.00000000000E+00 -0.45593999997E+02  0.45594000000E+02  0.51100000000E-03 0. -1.
         23    2    1    2    0    0  0.17763568394E-14  0.00000000000E+00  0.00000000000E+00  0.91188000000E+02  0.91188000000E+02 0.  0.
    9900012    2    3    3    0    0 -0.97467861226E+01 -0.10393714731E+02 -0.33952188946E+02  0.54367078232E+02  0.39999986445E+02 0.  0.
        -12    1    3    3    0    0  0.97467861226E+01  0.10393714731E+02  0.33952188946E+02  0.36820921768E+02  0.00000000000E+00 0.  1.
         11    1    4    4    0    0  0.79502300696E+01  0.23773809052E+01 -0.23284945061E+02  0.24719360123E+02  0.51100000000E-03 0. -1.
        -11    1    4    4    0    0 -0.14953401058E+02 -0.44520872260E+01 -0.13299234679E+02  0.20501095755E+02  0.51100000000E-03 0.  1.
         12    1    4    4    0    0 -0.27436151347E+01 -0.83190084105E+01  0.26319907939E+01  0.91466223537E+01  0.00000000000E+00 0. -1.
</event>
<event>
 8    1  0.1261983E-006  0.9118800E+02  0.7816164E-02  0.1184000E+00
        -11   -1    0    0    0    0  0.00000000000E+00  0.00000000000E+00  0.45593999997E+02  0.45594000000E+02  0.51100000000E-03 0.  1.
         11   -1    0    0    0    0 -0.00000000000E+00 -0.00000000000E+00 -0.45593999997E+02  0.45594000000E+02  0.51100000000E-03 0. -1.
         23    2    1    2    0    0  0.35527136788E-14  0.35527136788E-14  0.97144514655E-15  0.91188000000E+02  0.91188000000E+02 0.  0.
    9900012    2    3    3    0    0  0.22667384570E+02 -0.29016094188E+02  0.19237381570E+00  0.54367067735E+02  0.39999962516E+02 0.  0.
         12    1    3    3    0    0 -0.22667384570E+02  0.29016094188E+02 -0.19237381570E+00  0.36820932265E+02  0.00000000000E+00 0. -1.
         11    1    4    4    0    0 -0.36580989645E+01 -0.19802944310E+02 -0.50525112185E+01  0.20762132868E+02  0.51100000000E-03 0. -1.
        -11    1    4    4    0    0  0.60016325948E+01 -0.46137308745E+01 -0.62412080527E+01  0.98111561298E+01  0.51100000000E-03 0.  1.
        -12    1    4    4    0    0  0.20323850940E+02 -0.45994190036E+01  0.11486093087E+02  0.23793778737E+02  0.00000000000E+00 0.  1.
</event>
<event>
 8    1  0.1261983E-006  0.9118800E+02  0.7816164E-02  0.1184000E+00
        -11   -1    0    0    0    0  0.00000000000E+00  0.00000000000E+00  0.45593999997E+02  0.45594000000E+02  0.51100000000E-03 0. -1.
         11   -1    0    0    0    0 -0.00000000000E+00 -0.00000000000E+00 -0.45593999997E+02  0.45594000000E+02  0.51100000000E-03 0.  1.
         23    2    1    2    0    0  0.00000000000E+00  0.35527136788E-14 -0.35527136788E-14  0.91188000000E+02  0.91188000000E+02 0.  0.
    9900012    2    3    3    0    0  0.89371488920E+01  0.21005990460E+02 -0.28890384595E+02  0.54367101212E+02  0.40000038832E+02 0.  0.
         12    1    3    3    0    0 -0.89371488920E+01 -0.21005990460E+02  0.28890384595E+02  0.36820898788E+02  0.00000000000E+00 0. -1.
         11    1    4    4    0    0 -0.80652164859E+01  0.10262353253E+02  0.35793307179E+01  0.13534224023E+02  0.51100000000E-03 0. -1.
        -11    1    4    4    0    0  0.14142966672E+02  0.18311074776E+01 -0.13301481931E+02  0.19501432837E+02  0.51100000000E-03 0.  1.
        -12    1    4    4    0    0  0.28593987058E+01  0.89125297289E+01 -0.19168233382E+02  0.21331444351E+02  0.00000000000E+00 0.  1.
</event>
<event>
 8    1  0.1261983E-006  0.9118800E+02  0.7816164E-02  0.1184000E+00
        -11   -1    0    0    0    0  0.00000000000E+00  0.00000000000E+00  0.45593999997E+02  0.45594000000E+02  0.51100000000E-03 0. -1.
         11   -1    0    0    0    0 -0.00000000000E+00 -0.00000000000E+00 -0.45593999997E+02  0.45594000000E+02  0.51100000000E-03 0.  1.
         23    2    1    2    0    0  0.00000000000E+00  0.00000000000E+00  0.00000000000E+00  0.91188000000E+02  0.91188000000E+02 0.  0.
    9900012    2    3    3    0    0  0.30830701634E+02 -0.47038043624E+01 -0.19573466800E+02  0.54367101841E+02  0.40000040266E+02 0.  0.
         12    1    3    3    0    0 -0.30830701634E+02  0.47038043624E+01  0.19573466800E+02  0.36820898159E+02  0.00000000000E+00 0. -1.
         11    1    4    4    0    0  0.10125380216E+02  0.10722650665E+02 -0.13762700636E+02  0.20172022478E+02  0.51100000000E-03 0. -1.
        -11    1    4    4    0    0  0.60488409211E+01 -0.17135528935E+02 -0.68089091857E+01  0.19405568091E+02  0.51100000000E-03 0.  1.
         12    1    4    4    0    0  0.14656480496E+02  0.17090739070E+01  0.99814302163E+00  0.14789511272E+02  0.00000000000E+00 0. -1.
</event>
<event>
 8    1  0.1261983E-006  0.9118800E+02  0.7816164E-02  0.1184000E+00
        -11   -1    0    0    0    0  0.00000000000E+00  0.00000000000E+00  0.45593999997E+02  0.45594000000E+02  0.51100000000E-03 0. -1.
         11   -1    0    0    0    0 -0.00000000000E+00 -0.00000000000E+00 -0.45593999997E+02  0.45594000000E+02  0.51100000000E-03 0.  1.
         23    2    1    2    0    0  0.17763568394E-14  0.17763568394E-14 -0.71054273576E-14  0.91188000000E+02  0.91188000000E+02 0.  0.
    9900012    2    3    3    0    0 -0.11460333047E+02  0.11831764052E+02  0.32930949608E+02  0.54367118476E+02  0.40000078190E+02 0.  0.
        -12    1    3    3    0    0  0.11460333047E+02 -0.11831764052E+02 -0.32930949608E+02  0.36820881524E+02  0.00000000000E+00 0.  1.
         11    1    4    4    0    0  0.66446822251E+00 -0.15012022420E+01 -0.69007071925E+01  0.70932986831E+01  0.51100000000E-03 0. -1.
        -11    1    4    4    0    0  0.25265084287E+01  0.51926900293E+01  0.23860565769E+01  0.62482430194E+01  0.51100000000E-03 0.  1.
         12    1    4    4    0    0 -0.14651309699E+02  0.81402762647E+01  0.37445600223E+02  0.41025576774E+02  0.00000000000E+00 0. -1.
</event>
<event>
 8    1  0.1261983E-006  0.9118800E+02  0.7816164E-02  0.1184000E+00
        -11   -1    0    0    0    0  0.00000000000E+00  0.00000000000E+00  0.45593999997E+02  0.45594000000E+02  0.51100000000E-03 0.  1.
         11   -1    0    0    0    0 -0.00000000000E+00 -0.00000000000E+00 -0.45593999997E+02  0.45594000000E+02  0.51100000000E-03 0. -1.
         23    2    1    2    0    0 -0.71054273576E-14  0.17763568394E-14  0.88817841970E-15  0.91188000000E+02  0.91188000000E+02 0.  0.
    9900012    2    3    3    0    0 -0.35248655166E+02 -0.96517552749E+01 -0.44897276422E+01  0.54367058605E+02  0.39999941701E+02 0.  0.
         12    1    3    3    0    0  0.35248655166E+02  0.96517552749E+01  0.44897276422E+01  0.36820941395E+02  0.00000000000E+00 0. -1.
         11    1    4    4    0    0  0.34280680607E+01 -0.10355070224E+02 -0.73424932827E+01  0.13148815073E+02  0.51100000000E-03 0. -1.
        -11    1    4    4    0    0 -0.11845007160E+02 -0.33020456122E+01 -0.45268411634E+01  0.13103434322E+02  0.51100000000E-03 0.  1.
         12    1    4    4    0    0 -0.26831716067E+02  0.40053605608E+01  0.73796068038E+01  0.28114809210E+02  0.00000000000E+00 0. -1.
</event>
<event>
 8    1  0.1261983E-006  0.9118800E+02  0.7816164E-02  0.1184000E+00
        -11   -1    0    0    0    0  0.00000000000E+00  0.00000000000E+00  0.45593999997E+02  0.45594000000E+02  0.51100000000E-03 0.  1.
         11   -1    0    0    0    0 -0.00000000000E+00 -0.00000000000E+00 -0.45593999997E+02  0.45594000000E+02  0.51100000000E-03 0. -1.
         23    2    1    2    0    0  0.44408920985E-15 -0.35527136788E-14  0.35527136788E-14  0.91188000000E+02  0.91188000000E+02 0.  0.
    9900012    2    3    3    0    0  0.12133392083E+01  0.24939223760E+02 -0.27061822423E+02  0.54367091448E+02  0.40000016574E+02 0.  0.
        -12    1    3    3    0    0 -0.12133392083E+01 -0.24939223760E+02  0.27061822423E+02  0.36820908552E+02  0.00000000000E+00 0.  1.
         11    1    4    4    0    0 -0.99533612819E+01  0.45663063475E+01 -0.16712189921E+02  0.19980436599E+02  0.51100000000E-03 0. -1.
        -11    1    4    4    0    0  0.26530320643E+01  0.17749244716E+02  0.31416887623E+01  0.18219343448E+02  0.51100000000E-03 0.  1.
        -12    1    4    4    0    0  0.85136684258E+01  0.26236726956E+01 -0.13491321264E+02  0.16167311401E+02  0.00000000000E+00 0.  1.
</event>
<event>
 8    1  0.1261983E-006  0.9118800E+02  0.7816164E-02  0.1184000E+00
        -11   -1    0    0    0    0  0.00000000000E+00  0.00000000000E+00  0.45593999997E+02  0.45594000000E+02  0.51100000000E-03 0.  1.
         11   -1    0    0    0    0 -0.00000000000E+00 -0.00000000000E+00 -0.45593999997E+02  0.45594000000E+02  0.51100000000E-03 0. -1.
         23    2    1    2    0    0 -0.88817841970E-15  0.00000000000E+00  0.00000000000E+00  0.91188000000E+02  0.91188000000E+02 0.  0.
    9900012    2    3    3    0    0 -0.45056117453E+01  0.28897887081E+02 -0.22369434015E+02  0.54367082126E+02  0.39999995323E+02 0.  0.
        -12    1    3    3    0    0  0.45056117453E+01 -0.28897887081E+02  0.22369434015E+02  0.36820917874E+02  0.00000000000E+00 0.  1.
         11    1    4    4    0    0  0.66866601366E-01  0.12303930826E+02 -0.19561349913E+02  0.23109253462E+02  0.51100000000E-03 0. -1.
        -11    1    4    4    0    0  0.89178975311E+01  0.12044764596E+02 -0.68213646964E+01  0.16466215933E+02  0.51100000000E-03 0.  1.
        -12    1    4    4    0    0 -0.13490375878E+02  0.45491916581E+01  0.40132805944E+01  0.14791612731E+02  0.00000000000E+00 0.  1.
</event>
<event>
 8    1  0.1261983E-006  0.9118800E+02  0.7816164E-02  0.1184000E+00
        -11   -1    0    0    0    0  0.00000000000E+00  0.00000000000E+00  0.45593999997E+02  0.45594000000E+02  0.51100000000E-03 0.  1.
         11   -1    0    0    0    0 -0.00000000000E+00 -0.00000000000E+00 -0.45593999997E+02  0.45594000000E+02  0.51100000000E-03 0. -1.
         23    2    1    2    0    0  0.35527136788E-14 -0.35527136788E-14  0.00000000000E+00  0.91188000000E+02  0.91188000000E+02 0.  0.
    9900012    2    3    3    0    0 -0.24148065980E+02  0.17272268247E+02  0.21778882660E+02  0.54367081069E+02  0.39999992914E+02 0.  0.
         12    1    3    3    0    0  0.24148065980E+02 -0.17272268247E+02 -0.21778882660E+02  0.36820918931E+02  0.00000000000E+00 0. -1.
         11    1    4    4    0    0 -0.16041025387E+02  0.16055486237E+02 -0.22826806046E+01  0.22810168012E+02  0.51100000000E-03 0. -1.
        -11    1    4    4    0    0 -0.85925408449E+01  0.84667584329E+01  0.97661504770E+01  0.15520807064E+02  0.51100000000E-03 0.  1.
        -12    1    4    4    0    0  0.48550025172E+00 -0.72499764226E+01  0.14295412788E+02  0.16036105993E+02  0.00000000000E+00 0.  1.
</event>
<event>
 8    1  0.1261983E-006  0.9118800E+02  0.7816164E-02  0.1184000E+00
        -11   -1    0    0    0    0  0.00000000000E+00  0.00000000000E+00  0.45593999997E+02  0.45594000000E+02  0.51100000000E-03 0. -1.
         11   -1    0    0    0    0 -0.00000000000E+00 -0.00000000000E+00 -0.45593999997E+02  0.45594000000E+02  0.51100000000E-03 0.  1.
         23    2    1    2    0    0  0.00000000000E+00  0.00000000000E+00  0.00000000000E+00  0.91188000000E+02  0.91188000000E+02 0.  0.
    9900012    2    3    3    0    0 -0.83934405844E+01  0.20931169019E+02  0.29106987358E+02  0.54367076676E+02  0.39999982899E+02 0.  0.
        -12    1    3    3    0    0  0.83934405844E+01 -0.20931169019E+02 -0.29106987358E+02  0.36820923324E+02  0.00000000000E+00 0.  1.
         11    1    4    4    0    0  0.40595636897E+01  0.99617907130E+01  0.14720760938E+02  0.18232337601E+02  0.51100000000E-03 0. -1.
        -11    1    4    4    0    0  0.89870244130E+01 -0.50994003937E-01  0.48333167639E+01  0.10204418621E+02  0.51100000000E-03 0.  1.
        -12    1    4    4    0    0 -0.21440028687E+02  0.11020372310E+02  0.95529096565E+01  0.25930320454E+02  0.00000000000E+00 0.  1.
</event>
<event>
 8    1  0.1261983E-006  0.9118800E+02  0.7816164E-02  0.1184000E+00
        -11   -1    0    0    0    0  0.00000000000E+00  0.00000000000E+00  0.45593999997E+02  0.45594000000E+02  0.51100000000E-03 0.  1.
         11   -1    0    0    0    0 -0.00000000000E+00 -0.00000000000E+00 -0.45593999997E+02  0.45594000000E+02  0.51100000000E-03 0. -1.
         23    2    1    2    0    0  0.00000000000E+00  0.00000000000E+00  0.17763568394E-14  0.91188000000E+02  0.91188000000E+02 0.  0.
    9900012    2    3    3    0    0 -0.10702446474E+01 -0.34605475142E+02  0.12533639942E+02  0.54367130053E+02  0.40000104583E+02 0.  0.
         12    1    3    3    0    0  0.10702446474E+01  0.34605475142E+02 -0.12533639942E+02  0.36820869947E+02  0.00000000000E+00 0. -1.
         11    1    4    4    0    0 -0.13742473376E+02 -0.72471931659E+01 -0.49269566028E+01  0.16298843054E+02  0.51100000000E-03 0. -1.
        -11    1    4    4    0    0  0.69529465396E+01 -0.19876507019E+02  0.36791484015E+01  0.21376508837E+02  0.51100000000E-03 0.  1.
         12    1    4    4    0    0  0.57192821894E+01 -0.74817749574E+01  0.13781448143E+02  0.16691778162E+02  0.00000000000E+00 0. -1.
</event>
<event>
 8    1  0.1261983E-006  0.9118800E+02  0.7816164E-02  0.1184000E+00
        -11   -1    0    0    0    0  0.00000000000E+00  0.00000000000E+00  0.45593999997E+02  0.45594000000E+02  0.51100000000E-03 0.  1.
         11   -1    0    0    0    0 -0.00000000000E+00 -0.00000000000E+00 -0.45593999997E+02  0.45594000000E+02  0.51100000000E-03 0. -1.
         23    2    1    2    0    0  0.00000000000E+00  0.00000000000E+00 -0.35527136788E-14  0.91188000000E+02  0.91188000000E+02 0.  0.
    9900012    2    3    3    0    0  0.14241099224E+02 -0.11758563665E+02 -0.31854474334E+02  0.54367078479E+02  0.39999987009E+02 0.  0.
        -12    1    3    3    0    0 -0.14241099224E+02  0.11758563665E+02  0.31854474334E+02  0.36820921521E+02  0.00000000000E+00 0.  1.
         11    1    4    4    0    0  0.10570402420E+02 -0.43695366005E+01 -0.94188923427E+01  0.14816942689E+02  0.51100000000E-03 0. -1.
        -11    1    4    4    0    0  0.18186820424E+01 -0.16445346702E+02 -0.24979994524E+02  0.29962596003E+02  0.51100000000E-03 0.  1.
        -12    1    4    4    0    0  0.18520147617E+01  0.90563196369E+01  0.25444125334E+01  0.95875397878E+01  0.00000000000E+00 0.  1.
</event>
<event>
 8    1  0.1261983E-006  0.9118800E+02  0.7816164E-02  0.1184000E+00
        -11   -1    0    0    0    0  0.00000000000E+00  0.00000000000E+00  0.45593999997E+02  0.45594000000E+02  0.51100000000E-03 0.  1.
         11   -1    0    0    0    0 -0.00000000000E+00 -0.00000000000E+00 -0.45593999997E+02  0.45594000000E+02  0.51100000000E-03 0. -1.
         23    2    1    2    0    0 -0.31086244690E-14  0.35527136788E-14 -0.35527136788E-14  0.91188000000E+02  0.91188000000E+02 0.  0.
    9900012    2    3    3    0    0  0.35057863775E+01 -0.30009716305E+02 -0.21045321518E+02  0.54367093321E+02  0.40000020845E+02 0.  0.
        -12    1    3    3    0    0 -0.35057863775E+01  0.30009716305E+02  0.21045321518E+02  0.36820906679E+02  0.00000000000E+00 0.  1.
         11    1    4    4    0    0 -0.12582936416E+02 -0.22113455799E+02 -0.16008810080E+02  0.30060226490E+02  0.51100000000E-03 0. -1.
        -11    1    4    4    0    0  0.17787698155E+02 -0.28592681183E+01 -0.58218847279E+01  0.18933355801E+02  0.51100000000E-03 0.  1.
        -12    1    4    4    0    0 -0.16989753619E+01 -0.50369923874E+01  0.78537328922E+00  0.53735110304E+01  0.00000000000E+00 0.  1.
</event>
<event>
 8    1  0.1261983E-006  0.9118800E+02  0.7816164E-02  0.1184000E+00
        -11   -1    0    0    0    0  0.00000000000E+00  0.00000000000E+00  0.45593999997E+02  0.45594000000E+02  0.51100000000E-03 0. -1.
         11   -1    0    0    0    0 -0.00000000000E+00 -0.00000000000E+00 -0.45593999997E+02  0.45594000000E+02  0.51100000000E-03 0.  1.
         23    2    1    2    0    0 -0.35527136788E-14  0.71054273576E-14  0.00000000000E+00  0.91188000000E+02  0.91188000000E+02 0.  0.
    9900012    2    3    3    0    0  0.18952512317E+02  0.31566289566E+02 -0.38942390122E+00  0.54367081882E+02  0.39999994766E+02 0.  0.
         12    1    3    3    0    0 -0.18952512317E+02 -0.31566289566E+02  0.38942390122E+00  0.36820918118E+02  0.00000000000E+00 0. -1.
         11    1    4    4    0    0  0.83513006886E+01  0.44252956710E+01  0.10574133882E+02  0.14182375421E+02  0.51100000000E-03 0. -1.
        -11    1    4    4    0    0 -0.86628627023E+00 -0.23110355919E+01  0.43982536312E+01  0.50434088348E+01  0.51100000000E-03 0.  1.
        -12    1    4    4    0    0  0.11467497899E+02  0.29452029487E+02 -0.15361811414E+02  0.35141297626E+02  0.00000000000E+00 0.  1.
</event>
<event>
 8    1  0.1261983E-006  0.9118800E+02  0.7816164E-02  0.1184000E+00
        -11   -1    0    0    0    0  0.00000000000E+00  0.00000000000E+00  0.45593999997E+02  0.45594000000E+02  0.51100000000E-03 0.  1.
         11   -1    0    0    0    0 -0.00000000000E+00 -0.00000000000E+00 -0.45593999997E+02  0.45594000000E+02  0.51100000000E-03 0. -1.
         23    2    1    2    0    0  0.00000000000E+00  0.17763568394E-14 -0.35527136788E-14  0.91188000000E+02  0.91188000000E+02 0.  0.
    9900012    2    3    3    0    0 -0.28616998362E+02 -0.68270401446E+01 -0.22141350687E+02  0.54367075479E+02  0.39999980169E+02 0.  0.
        -12    1    3    3    0    0  0.28616998362E+02  0.68270401446E+01  0.22141350687E+02  0.36820924521E+02  0.00000000000E+00 0.  1.
         11    1    4    4    0    0 -0.13457060979E+02  0.13578037131E+02 -0.16866112405E+02  0.25493554684E+02  0.51100000000E-03 0. -1.
        -11    1    4    4    0    0 -0.27741713288E+01 -0.10468228722E+02 -0.70092078457E+01  0.12899954807E+02  0.51100000000E-03 0.  1.
        -12    1    4    4    0    0 -0.12385766054E+02 -0.99368485537E+01  0.17339695637E+01  0.15973565988E+02  0.00000000000E+00 0.  1.
</event>
<event>
 8    1  0.1261983E-006  0.9118800E+02  0.7816164E-02  0.1184000E+00
        -11   -1    0    0    0    0  0.00000000000E+00  0.00000000000E+00  0.45593999997E+02  0.45594000000E+02  0.51100000000E-03 0.  1.
         11   -1    0    0    0    0 -0.00000000000E+00 -0.00000000000E+00 -0.45593999997E+02  0.45594000000E+02  0.51100000000E-03 0. -1.
         23    2    1    2    0    0 -0.17763568394E-14  0.00000000000E+00  0.00000000000E+00  0.91188000000E+02  0.91188000000E+02 0.  0.
    9900012    2    3    3    0    0  0.12237808098E+02 -0.19465802809E+02  0.28759324625E+02  0.54367079602E+02  0.39999989569E+02 0.  0.
         12    1    3    3    0    0 -0.12237808098E+02  0.19465802809E+02 -0.28759324625E+02  0.36820920398E+02  0.00000000000E+00 0. -1.
         11    1    4    4    0    0 -0.40068682767E+01  0.75300984878E+01  0.63233184230E+01  0.10617990995E+02  0.51100000000E-03 0. -1.
        -11    1    4    4    0    0  0.19154661782E+02 -0.14244915389E+02  0.18145042552E+02  0.29984350116E+02  0.51100000000E-03 0.  1.
        -12    1    4    4    0    0 -0.29099854074E+01 -0.12750985908E+02  0.42909636502E+01  0.13764738491E+02  0.00000000000E+00 0.  1.
</event>
<event>
 8    1  0.1261983E-006  0.9118800E+02  0.7816164E-02  0.1184000E+00
        -11   -1    0    0    0    0  0.00000000000E+00  0.00000000000E+00  0.45593999997E+02  0.45594000000E+02  0.51100000000E-03 0.  1.
         11   -1    0    0    0    0 -0.00000000000E+00 -0.00000000000E+00 -0.45593999997E+02  0.45594000000E+02  0.51100000000E-03 0. -1.
         23    2    1    2    0    0 -0.71054273576E-14  0.17763568394E-14  0.88817841970E-15  0.91188000000E+02  0.91188000000E+02 0.  0.
    9900012    2    3    3    0    0  0.33456663953E+02 -0.14598358653E+02 -0.48291435181E+01  0.54367067565E+02  0.39999962128E+02 0.  0.
         12    1    3    3    0    0 -0.33456663953E+02  0.14598358653E+02  0.48291435181E+01  0.36820932435E+02  0.00000000000E+00 0. -1.
         11    1    4    4    0    0  0.44601740980E+01  0.10311576342E+02  0.35183087310E+01  0.11772861004E+02  0.51100000000E-03 0. -1.
        -11    1    4    4    0    0  0.22586880821E+02 -0.26312631563E+02 -0.94475736249E+01  0.35941319017E+02  0.51100000000E-03 0.  1.
        -12    1    4    4    0    0  0.64096090343E+01  0.14026965683E+01  0.11001213758E+01  0.66528875443E+01  0.00000000000E+00 0.  1.
</event>
<event>
 8    1  0.1261983E-006  0.9118800E+02  0.7816164E-02  0.1184000E+00
        -11   -1    0    0    0    0  0.00000000000E+00  0.00000000000E+00  0.45593999997E+02  0.45594000000E+02  0.51100000000E-03 0.  1.
         11   -1    0    0    0    0 -0.00000000000E+00 -0.00000000000E+00 -0.45593999997E+02  0.45594000000E+02  0.51100000000E-03 0. -1.
         23    2    1    2    0    0  0.00000000000E+00 -0.66613381478E-15  0.71054273576E-14  0.91188000000E+02  0.91188000000E+02 0.  0.
    9900012    2    3    3    0    0 -0.12658570170E+02  0.19732432985E+01 -0.34520238586E+02  0.54367082576E+02  0.39999996349E+02 0.  0.
        -12    1    3    3    0    0  0.12658570170E+02 -0.19732432985E+01  0.34520238586E+02  0.36820917424E+02  0.00000000000E+00 0.  1.
         11    1    4    4    0    0 -0.10240877071E+02  0.36721101809E+01 -0.36145696898E+02  0.37747468271E+02  0.51100000000E-03 0. -1.
        -11    1    4    4    0    0 -0.61158870937E+01  0.56402868027E+01  0.68835312435E+00  0.83480980135E+01  0.51100000000E-03 0.  1.
        -12    1    4    4    0    0  0.36981939945E+01 -0.73391536850E+01  0.93710518753E+00  0.82715162918E+01  0.00000000000E+00 0.  1.
</event>
<event>
 8    1  0.1261983E-006  0.9118800E+02  0.7816164E-02  0.1184000E+00
        -11   -1    0    0    0    0  0.00000000000E+00  0.00000000000E+00  0.45593999997E+02  0.45594000000E+02  0.51100000000E-03 0.  1.
         11   -1    0    0    0    0 -0.00000000000E+00 -0.00000000000E+00 -0.45593999997E+02  0.45594000000E+02  0.51100000000E-03 0. -1.
         23    2    1    2    0    0 -0.17763568394E-14 -0.35527136788E-14 -0.35527136788E-14  0.91188000000E+02  0.91188000000E+02 0.  0.
    9900012    2    3    3    0    0 -0.95597559160E+01 -0.17811593687E+02 -0.30775608823E+02  0.54367083373E+02  0.39999998166E+02 0.  0.
        -12    1    3    3    0    0  0.95597559160E+01  0.17811593687E+02  0.30775608823E+02  0.36820916627E+02  0.00000000000E+00 0.  1.
         11    1    4    4    0    0 -0.94206551024E+01 -0.44089155589E+01  0.32643048844E+01  0.10901512079E+02  0.51100000000E-03 0. -1.
        -11    1    4    4    0    0  0.44857184335E+01  0.57674084770E+01 -0.89714627553E+01  0.11570298814E+02  0.51100000000E-03 0.  1.
         12    1    4    4    0    0 -0.46248192470E+01 -0.19170086605E+02 -0.25068450952E+02  0.31895272481E+02  0.00000000000E+00 0. -1.
</event>
<event>
 8    1  0.1261983E-006  0.9118800E+02  0.7816164E-02  0.1184000E+00
        -11   -1    0    0    0    0  0.00000000000E+00  0.00000000000E+00  0.45593999997E+02  0.45594000000E+02  0.51100000000E-03 0. -1.
         11   -1    0    0    0    0 -0.00000000000E+00 -0.00000000000E+00 -0.45593999997E+02  0.45594000000E+02  0.51100000000E-03 0.  1.
         23    2    1    2    0    0  0.00000000000E+00 -0.88817841970E-15  0.71054273576E-14  0.91188000000E+02  0.91188000000E+02 0.  0.
    9900012    2    3    3    0    0  0.17944398960E+02  0.25454511233E+01  0.32051496808E+02  0.54367092582E+02  0.40000019158E+02 0.  0.
        -12    1    3    3    0    0 -0.17944398960E+02 -0.25454511233E+01 -0.32051496808E+02  0.36820907418E+02  0.00000000000E+00 0.  1.
         11    1    4    4    0    0  0.13987939307E+02  0.10956798860E+02  0.12641224529E+02  0.21806293706E+02  0.51100000000E-03 0. -1.
        -11    1    4    4    0    0  0.61248787009E+01 -0.86714083458E+01 -0.21987640619E+01  0.10841680011E+02  0.51100000000E-03 0.  1.
         12    1    4    4    0    0 -0.21684190480E+01  0.26006060957E+00  0.21609036341E+02  0.21719118865E+02  0.00000000000E+00 0. -1.
</event>
<event>
 8    1  0.1261983E-006  0.9118800E+02  0.7816164E-02  0.1184000E+00
        -11   -1    0    0    0    0  0.00000000000E+00  0.00000000000E+00  0.45593999997E+02  0.45594000000E+02  0.51100000000E-03 0. -1.
         11   -1    0    0    0    0 -0.00000000000E+00 -0.00000000000E+00 -0.45593999997E+02  0.45594000000E+02  0.51100000000E-03 0.  1.
         23    2    1    2    0    0  0.00000000000E+00 -0.35527136788E-14 -0.38857805862E-15  0.91188000000E+02  0.91188000000E+02 0.  0.
    9900012    2    3    3    0    0 -0.33299852031E+02 -0.15706777205E+02 -0.44274564331E+00  0.54367095351E+02  0.40000025471E+02 0.  0.
        -12    1    3    3    0    0  0.33299852031E+02  0.15706777205E+02  0.44274564331E+00  0.36820904649E+02  0.00000000000E+00 0.  1.
         11    1    4    4    0    0 -0.39207890911E+02 -0.88221292597E+01 -0.32207244687E+01  0.40317015523E+02  0.51100000000E-03 0. -1.
        -11    1    4    4    0    0 -0.22320649416E+01 -0.31416432472E+01 -0.14826203793E+01  0.41291887396E+01  0.51100000000E-03 0.  1.
        -12    1    4    4    0    0  0.81401038211E+01 -0.37430046985E+01  0.42605992047E+01  0.99208910877E+01  0.00000000000E+00 0.  1.
</event>
<event>
 8    1  0.1261983E-006  0.9118800E+02  0.7816164E-02  0.1184000E+00
        -11   -1    0    0    0    0  0.00000000000E+00  0.00000000000E+00  0.45593999997E+02  0.45594000000E+02  0.51100000000E-03 0.  1.
         11   -1    0    0    0    0 -0.00000000000E+00 -0.00000000000E+00 -0.45593999997E+02  0.45594000000E+02  0.51100000000E-03 0. -1.
         23    2    1    2    0    0  0.00000000000E+00  0.00000000000E+00  0.61062266354E-15  0.91188000000E+02  0.91188000000E+02 0.  0.
    9900012    2    3    3    0    0  0.80219293051E+01  0.35933185440E+02 -0.48474681994E+00  0.54367080061E+02  0.39999990615E+02 0.  0.
        -12    1    3    3    0    0 -0.80219293051E+01 -0.35933185440E+02  0.48474681994E+00  0.36820919939E+02  0.00000000000E+00 0.  1.
         11    1    4    4    0    0  0.19853526668E+01  0.29292619706E+02 -0.12391918748E+02  0.31867834017E+02  0.51100000000E-03 0. -1.
        -11    1    4    4    0    0 -0.20933686348E+01  0.93295931867E+01  0.27216930779E+01  0.99413839450E+01  0.51100000000E-03 0.  1.
        -12    1    4    4    0    0  0.81299452731E+01 -0.26890274520E+01  0.91854788502E+01  0.12557862099E+02  0.00000000000E+00 0.  1.
</event>
<event>
 8    1  0.1261983E-006  0.9118800E+02  0.7816164E-02  0.1184000E+00
        -11   -1    0    0    0    0  0.00000000000E+00  0.00000000000E+00  0.45593999997E+02  0.45594000000E+02  0.51100000000E-03 0. -1.
         11   -1    0    0    0    0 -0.00000000000E+00 -0.00000000000E+00 -0.45593999997E+02  0.45594000000E+02  0.51100000000E-03 0.  1.
         23    2    1    2    0    0  0.00000000000E+00 -0.17763568394E-14  0.00000000000E+00  0.91188000000E+02  0.91188000000E+02 0.  0.
    9900012    2    3    3    0    0 -0.10366011021E+02  0.13781117508E+02  0.32533143279E+02  0.54367098384E+02  0.40000032385E+02 0.  0.
        -12    1    3    3    0    0  0.10366011021E+02 -0.13781117508E+02 -0.32533143279E+02  0.36820901616E+02  0.00000000000E+00 0.  1.
         11    1    4    4    0    0 -0.79823506449E+01 -0.52727415066E+01  0.17405749518E+02  0.19861516592E+02  0.51100000000E-03 0. -1.
        -11    1    4    4    0    0 -0.12980883449E+02  0.64394761204E+01  0.61272373973E+01  0.15732553073E+02  0.51100000000E-03 0.  1.
        -12    1    4    4    0    0  0.10597223073E+02  0.12614382894E+02  0.90001563636E+01  0.18773028718E+02  0.00000000000E+00 0.  1.
</event>
<event>
 8    1  0.1261983E-006  0.9118800E+02  0.7816164E-02  0.1184000E+00
        -11   -1    0    0    0    0  0.00000000000E+00  0.00000000000E+00  0.45593999997E+02  0.45594000000E+02  0.51100000000E-03 0.  1.
         11   -1    0    0    0    0 -0.00000000000E+00 -0.00000000000E+00 -0.45593999997E+02  0.45594000000E+02  0.51100000000E-03 0. -1.
         23    2    1    2    0    0  0.00000000000E+00  0.35527136788E-14 -0.88817841970E-15  0.91188000000E+02  0.91188000000E+02 0.  0.
    9900012    2    3    3    0    0  0.19679109102E+02 -0.30747824591E+02  0.48045669006E+01  0.54367083183E+02  0.39999997733E+02 0.  0.
         12    1    3    3    0    0 -0.19679109102E+02  0.30747824591E+02 -0.48045669006E+01  0.36820916817E+02  0.00000000000E+00 0. -1.
         11    1    4    4    0    0  0.46742406645E+01 -0.22786299853E+01 -0.32378786512E+01  0.61257276156E+01  0.51100000000E-03 0. -1.
        -11    1    4    4    0    0  0.66631453307E+01  0.32390314886E+01 -0.86998133367E+01  0.11426967360E+02  0.51100000000E-03 0.  1.
        -12    1    4    4    0    0  0.83417231068E+01 -0.31708226094E+02  0.16742258889E+02  0.36814388208E+02  0.00000000000E+00 0.  1.
</event>
<event>
 8    1  0.1261983E-006  0.9118800E+02  0.7816164E-02  0.1184000E+00
        -11   -1    0    0    0    0  0.00000000000E+00  0.00000000000E+00  0.45593999997E+02  0.45594000000E+02  0.51100000000E-03 0.  1.
         11   -1    0    0    0    0 -0.00000000000E+00 -0.00000000000E+00 -0.45593999997E+02  0.45594000000E+02  0.51100000000E-03 0. -1.
         23    2    1    2    0    0  0.71054273576E-14  0.26645352591E-14  0.17763568394E-14  0.91188000000E+02  0.91188000000E+02 0.  0.
    9900012    2    3    3    0    0  0.33745643386E+02  0.22218883720E+01  0.14562811462E+02  0.54367072348E+02  0.39999973032E+02 0.  0.
        -12    1    3    3    0    0 -0.33745643386E+02 -0.22218883720E+01 -0.14562811462E+02  0.36820927652E+02  0.00000000000E+00 0.  1.
         11    1    4    4    0    0  0.11500582891E+02  0.14128474350E+02  0.19526763498E+01  0.18321848692E+02  0.51100000000E-03 0. -1.
        -11    1    4    4    0    0  0.25653434851E+02 -0.82496142615E+01  0.14619407361E+02  0.30657493814E+02  0.51100000000E-03 0.  1.
        -12    1    4    4    0    0 -0.34083743558E+01 -0.36569717166E+01 -0.20092722487E+01  0.53877298424E+01  0.00000000000E+00 0.  1.
</event>
<event>
 8    1  0.1261983E-006  0.9118800E+02  0.7816164E-02  0.1184000E+00
        -11   -1    0    0    0    0  0.00000000000E+00  0.00000000000E+00  0.45593999997E+02  0.45594000000E+02  0.51100000000E-03 0.  1.
         11   -1    0    0    0    0 -0.00000000000E+00 -0.00000000000E+00 -0.45593999997E+02  0.45594000000E+02  0.51100000000E-03 0. -1.
         23    2    1    2    0    0 -0.88817841970E-15 -0.35527136788E-14 -0.35527136788E-14  0.91188000000E+02  0.91188000000E+02 0.  0.
    9900012    2    3    3    0    0 -0.77891641517E+01 -0.25471739512E+02 -0.25422361999E+02  0.54367121663E+02  0.40000085455E+02 0.  0.
        -12    1    3    3    0    0  0.77891641517E+01  0.25471739512E+02  0.25422361999E+02  0.36820878337E+02  0.00000000000E+00 0.  1.
         11    1    4    4    0    0 -0.64221501008E+01 -0.14309369673E+02 -0.13394090957E+02  0.20625318063E+02  0.51100000000E-03 0. -1.
        -11    1    4    4    0    0  0.12569855845E+01  0.73424501584E+01  0.45751488742E+01  0.87420577995E+01  0.51100000000E-03 0.  1.
        -12    1    4    4    0    0 -0.26239996353E+01 -0.18504819997E+02 -0.16603419916E+02  0.24999745801E+02  0.00000000000E+00 0.  1.
</event>
<event>
 8    1  0.1261983E-006  0.9118800E+02  0.7816164E-02  0.1184000E+00
        -11   -1    0    0    0    0  0.00000000000E+00  0.00000000000E+00  0.45593999997E+02  0.45594000000E+02  0.51100000000E-03 0.  1.
         11   -1    0    0    0    0 -0.00000000000E+00 -0.00000000000E+00 -0.45593999997E+02  0.45594000000E+02  0.51100000000E-03 0. -1.
         23    2    1    2    0    0 -0.44408920985E-15  0.00000000000E+00  0.00000000000E+00  0.91188000000E+02  0.91188000000E+02 0.  0.
    9900012    2    3    3    0    0  0.15137177269E+01 -0.32706802216E+02  0.16844943052E+02  0.54367104315E+02  0.40000045908E+02 0.  0.
        -12    1    3    3    0    0 -0.15137177269E+01  0.32706802216E+02 -0.16844943052E+02  0.36820895685E+02  0.00000000000E+00 0.  1.
         11    1    4    4    0    0  0.34624886336E+01  0.56250966968E-02 -0.68877919652E+01  0.77091204165E+01  0.51100000000E-03 0. -1.
        -11    1    4    4    0    0 -0.60544704002E+01 -0.11429244562E+02  0.21201360445E+02  0.24835094686E+02  0.51100000000E-03 0.  1.
         12    1    4    4    0    0  0.41056994934E+01 -0.21283182752E+02  0.25313745725E+01  0.21822889213E+02  0.00000000000E+00 0. -1.
</event>
<event>
 8    1  0.1261983E-006  0.9118800E+02  0.7816164E-02  0.1184000E+00
        -11   -1    0    0    0    0  0.00000000000E+00  0.00000000000E+00  0.45593999997E+02  0.45594000000E+02  0.51100000000E-03 0.  1.
         11   -1    0    0    0    0 -0.00000000000E+00 -0.00000000000E+00 -0.45593999997E+02  0.45594000000E+02  0.51100000000E-03 0. -1.
         23    2    1    2    0    0 -0.35527136788E-14  0.17763568394E-14  0.35527136788E-14  0.91188000000E+02  0.91188000000E+02 0.  0.
    9900012    2    3    3    0    0  0.23312308946E+02 -0.96642857311E+01  0.26812644070E+02  0.54367081365E+02  0.39999993588E+02 0.  0.
        -12    1    3    3    0    0 -0.23312308946E+02  0.96642857311E+01 -0.26812644070E+02  0.36820918635E+02  0.00000000000E+00 0.  1.
         11    1    4    4    0    0  0.77876071386E+01  0.12700462101E+02  0.63001439249E+01  0.16175301427E+02  0.51100000000E-03 0. -1.
        -11    1    4    4    0    0 -0.44872164771E-01 -0.63314025169E+00  0.91035874305E+01  0.91256881634E+01  0.51100000000E-03 0.  1.
         12    1    4    4    0    0  0.15569573972E+02 -0.21731607581E+02  0.11408912715E+02  0.29066091774E+02  0.00000000000E+00 0. -1.
</event>
<event>
 8    1  0.1261983E-006  0.9118800E+02  0.7816164E-02  0.1184000E+00
        -11   -1    0    0    0    0  0.00000000000E+00  0.00000000000E+00  0.45593999997E+02  0.45594000000E+02  0.51100000000E-03 0.  1.
         11   -1    0    0    0    0 -0.00000000000E+00 -0.00000000000E+00 -0.45593999997E+02  0.45594000000E+02  0.51100000000E-03 0. -1.
         23    2    1    2    0    0  0.00000000000E+00  0.00000000000E+00  0.00000000000E+00  0.91188000000E+02  0.91188000000E+02 0.  0.
    9900012    2    3    3    0    0 -0.28281309408E+02 -0.95070839446E+01 -0.21576898651E+02  0.54367086617E+02  0.40000005560E+02 0.  0.
        -12    1    3    3    0    0  0.28281309408E+02  0.95070839446E+01  0.21576898651E+02  0.36820913383E+02  0.00000000000E+00 0.  1.
         11    1    4    4    0    0 -0.24821634126E+02 -0.11308635132E+02 -0.14847345472E+02  0.31055473222E+02  0.51100000000E-03 0. -1.
        -11    1    4    4    0    0  0.10751984415E+01 -0.45099527560E+01 -0.12694484447E+02  0.13514646173E+02  0.51100000000E-03 0.  1.
         12    1    4    4    0    0 -0.45348737236E+01  0.63115039435E+01  0.59649312673E+01  0.97969672216E+01  0.00000000000E+00 0. -1.
</event>
<event>
 8    1  0.1261983E-006  0.9118800E+02  0.7816164E-02  0.1184000E+00
        -11   -1    0    0    0    0  0.00000000000E+00  0.00000000000E+00  0.45593999997E+02  0.45594000000E+02  0.51100000000E-03 0.  1.
         11   -1    0    0    0    0 -0.00000000000E+00 -0.00000000000E+00 -0.45593999997E+02  0.45594000000E+02  0.51100000000E-03 0. -1.
         23    2    1    2    0    0  0.88817841970E-15 -0.88817841970E-15 -0.71054273576E-14  0.91188000000E+02  0.91188000000E+02 0.  0.
    9900012    2    3    3    0    0  0.40222336018E+01 -0.78425541567E+01 -0.35750491332E+02  0.54367059636E+02  0.39999944051E+02 0.  0.
        -12    1    3    3    0    0 -0.40222336018E+01  0.78425541567E+01  0.35750491332E+02  0.36820940364E+02  0.00000000000E+00 0.  1.
         11    1    4    4    0    0 -0.48765298046E+01  0.15446656637E+01 -0.99128466979E+01  0.11154867317E+02  0.51100000000E-03 0. -1.
        -11    1    4    4    0    0  0.10586171331E+02  0.71857895884E+01 -0.39465212701E+00  0.12800716621E+02  0.51100000000E-03 0.  1.
         12    1    4    4    0    0 -0.16874079243E+01 -0.16573009409E+02 -0.25442992507E+02  0.30411475697E+02  0.00000000000E+00 0. -1.
</event>
<event>
 8    1  0.1261983E-006  0.9118800E+02  0.7816164E-02  0.1184000E+00
        -11   -1    0    0    0    0  0.00000000000E+00  0.00000000000E+00  0.45593999997E+02  0.45594000000E+02  0.51100000000E-03 0. -1.
         11   -1    0    0    0    0 -0.00000000000E+00 -0.00000000000E+00 -0.45593999997E+02  0.45594000000E+02  0.51100000000E-03 0.  1.
         23    2    1    2    0    0  0.00000000000E+00  0.00000000000E+00  0.00000000000E+00  0.91188000000E+02  0.91188000000E+02 0.  0.
    9900012    2    3    3    0    0 -0.20762183070E+02 -0.25508543340E+02  0.16553737453E+02  0.54367078599E+02  0.39999987282E+02 0.  0.
        -12    1    3    3    0    0  0.20762183070E+02  0.25508543340E+02 -0.16553737453E+02  0.36820921401E+02  0.00000000000E+00 0.  1.
         11    1    4    4    0    0 -0.10909457924E+02 -0.21819284861E+01  0.67846725458E+01  0.13031073092E+02  0.51100000000E-03 0. -1.
        -11    1    4    4    0    0 -0.12780230842E+02 -0.28531356460E+02  0.17154045532E+01  0.31309985865E+02  0.51100000000E-03 0.  1.
        -12    1    4    4    0    0  0.29275056960E+01  0.52047416054E+01  0.80536603534E+01  0.10026019642E+02  0.00000000000E+00 0.  1.
</event>
<event>
 8    1  0.1261983E-006  0.9118800E+02  0.7816164E-02  0.1184000E+00
        -11   -1    0    0    0    0  0.00000000000E+00  0.00000000000E+00  0.45593999997E+02  0.45594000000E+02  0.51100000000E-03 0. -1.
         11   -1    0    0    0    0 -0.00000000000E+00 -0.00000000000E+00 -0.45593999997E+02  0.45594000000E+02  0.51100000000E-03 0.  1.
         23    2    1    2    0    0  0.35527136788E-14  0.00000000000E+00 -0.71054273576E-14  0.91188000000E+02  0.91188000000E+02 0.  0.
    9900012    2    3    3    0    0  0.27469007007E+02  0.82570275036E+01 -0.23087983616E+02  0.54367084251E+02  0.40000000166E+02 0.  0.
         12    1    3    3    0    0 -0.27469007007E+02 -0.82570275036E+01  0.23087983616E+02  0.36820915749E+02  0.00000000000E+00 0. -1.
         11    1    4    4    0    0 -0.55667123208E+01  0.93829379505E+01  0.17867301713E+01  0.11055325215E+02  0.51100000000E-03 0. -1.
        -11    1    4    4    0    0  0.18937395978E+02 -0.16060902159E+01 -0.21711975323E+02  0.28855057874E+02  0.51100000000E-03 0.  1.
         12    1    4    4    0    0  0.14098323350E+02  0.48017976897E+00 -0.31627384647E+01  0.14456701162E+02  0.00000000000E+00 0. -1.
</event>
<event>
 8    1  0.1261983E-006  0.9118800E+02  0.7816164E-02  0.1184000E+00
        -11   -1    0    0    0    0  0.00000000000E+00  0.00000000000E+00  0.45593999997E+02  0.45594000000E+02  0.51100000000E-03 0.  1.
         11   -1    0    0    0    0 -0.00000000000E+00 -0.00000000000E+00 -0.45593999997E+02  0.45594000000E+02  0.51100000000E-03 0. -1.
         23    2    1    2    0    0  0.35527136788E-14  0.00000000000E+00  0.00000000000E+00  0.91188000000E+02  0.91188000000E+02 0.  0.
    9900012    2    3    3    0    0 -0.30850228633E+02  0.12004619847E+02  0.16122400334E+02  0.54367091580E+02  0.40000016875E+02 0.  0.
         12    1    3    3    0    0  0.30850228633E+02 -0.12004619847E+02 -0.16122400334E+02  0.36820908420E+02  0.00000000000E+00 0. -1.
         11    1    4    4    0    0 -0.19139252924E+02 -0.77257416249E+00  0.51671905881E+01  0.19839549696E+02  0.51100000000E-03 0.  1.
        -11    1    4    4    0    0 -0.19488831383E+01  0.20283820657E+01  0.18119198321E+02  0.18336243546E+02  0.51100000000E-03 0. -1.
        -12    1    4    4    0    0 -0.97620925710E+01  0.10748811944E+02 -0.71639885760E+01  0.16191298338E+02  0.00000000000E+00 0.  1.
</event>
<event>
 8    1  0.1261983E-006  0.9118800E+02  0.7816164E-02  0.1184000E+00
        -11   -1    0    0    0    0  0.00000000000E+00  0.00000000000E+00  0.45593999997E+02  0.45594000000E+02  0.51100000000E-03 0. -1.
         11   -1    0    0    0    0 -0.00000000000E+00 -0.00000000000E+00 -0.45593999997E+02  0.45594000000E+02  0.51100000000E-03 0.  1.
         23    2    1    2    0    0 -0.35527136788E-14 -0.35527136788E-14  0.44408920985E-15  0.91188000000E+02  0.91188000000E+02 0.  0.
    9900012    2    3    3    0    0 -0.22024119885E+02 -0.29325996964E+02 -0.32717410734E+01  0.54367078715E+02  0.39999987546E+02 0.  0.
         12    1    3    3    0    0  0.22024119885E+02  0.29325996964E+02  0.32717410734E+01  0.36820921285E+02  0.00000000000E+00 0. -1.
         11    1    4    4    0    0 -0.21018752847E+02 -0.23405420404E+02  0.17705260434E+01  0.31507720296E+02  0.51100000000E-03 0. -1.
        -11    1    4    4    0    0 -0.25548283653E+01 -0.11059936947E+02 -0.10312969229E+02  0.15336449649E+02  0.51100000000E-03 0.  1.
        -12    1    4    4    0    0  0.15494613272E+01  0.51393603875E+01  0.52707021121E+01  0.75229087693E+01  0.00000000000E+00 0.  1.
</event>
<event>
 8    1  0.1261983E-006  0.9118800E+02  0.7816164E-02  0.1184000E+00
        -11   -1    0    0    0    0  0.00000000000E+00  0.00000000000E+00  0.45593999997E+02  0.45594000000E+02  0.51100000000E-03 0. -1.
         11   -1    0    0    0    0 -0.00000000000E+00 -0.00000000000E+00 -0.45593999997E+02  0.45594000000E+02  0.51100000000E-03 0.  1.
         23    2    1    2    0    0  0.71054273576E-14  0.44408920985E-15 -0.35527136788E-14  0.91188000000E+02  0.91188000000E+02 0.  0.
    9900012    2    3    3    0    0  0.22483367638E+02 -0.20134758373E+01 -0.29089928467E+02  0.54367084158E+02  0.39999999954E+02 0.  0.
         12    1    3    3    0    0 -0.22483367638E+02  0.20134758373E+01  0.29089928467E+02  0.36820915842E+02  0.00000000000E+00 0. -1.
         11    1    4    4    0    0  0.12553358476E+02 -0.76863683694E+00  0.51043338909E+01  0.13573202878E+02  0.51100000000E-03 0. -1.
        -11    1    4    4    0    0 -0.34527363615E+01 -0.56447422474E+01 -0.18781403631E+02  0.19912951213E+02  0.51100000000E-03 0.  1.
        -12    1    4    4    0    0  0.13382745523E+02  0.43999032471E+01 -0.15412858727E+02  0.20880930067E+02  0.00000000000E+00 0.  1.
</event>
<event>
 8    1  0.1261983E-006  0.9118800E+02  0.7816164E-02  0.1184000E+00
        -11   -1    0    0    0    0  0.00000000000E+00  0.00000000000E+00  0.45593999997E+02  0.45594000000E+02  0.51100000000E-03 0.  1.
         11   -1    0    0    0    0 -0.00000000000E+00 -0.00000000000E+00 -0.45593999997E+02  0.45594000000E+02  0.51100000000E-03 0. -1.
         23    2    1    2    0    0  0.00000000000E+00  0.00000000000E+00  0.00000000000E+00  0.91188000000E+02  0.91188000000E+02 0.  0.
    9900012    2    3    3    0    0 -0.35438978107E+02  0.90329950456E+01  0.42737754394E+01  0.54367064035E+02  0.39999954082E+02 0.  0.
        -12    1    3    3    0    0  0.35438978107E+02 -0.90329950456E+01 -0.42737754394E+01  0.36820935965E+02  0.00000000000E+00 0.  1.
         11    1    4    4    0    0  0.28659166958E+00 -0.25876853957E+00 -0.21036975912E+01  0.21388407511E+01  0.51100000000E-03 0. -1.
        -11    1    4    4    0    0 -0.34437559093E+01 -0.10109475741E+02 -0.64069306125E+01  0.12454305065E+02  0.51100000000E-03 0.  1.
         12    1    4    4    0    0 -0.32281813868E+02  0.19401239326E+02  0.12784403643E+02  0.39773918219E+02  0.00000000000E+00 0. -1.
</event>
<event>
 8    1  0.1261983E-006  0.9118800E+02  0.7816164E-02  0.1184000E+00
        -11   -1    0    0    0    0  0.00000000000E+00  0.00000000000E+00  0.45593999997E+02  0.45594000000E+02  0.51100000000E-03 0. -1.
         11   -1    0    0    0    0 -0.00000000000E+00 -0.00000000000E+00 -0.45593999997E+02  0.45594000000E+02  0.51100000000E-03 0.  1.
         23    2    1    2    0    0  0.22204460493E-15  0.00000000000E+00  0.00000000000E+00  0.91188000000E+02  0.91188000000E+02 0.  0.
    9900012    2    3    3    0    0  0.54892945267E+00 -0.49644402745E+01 -0.36480603497E+02  0.54367062719E+02  0.39999951080E+02 0.  0.
         12    1    3    3    0    0 -0.54892945267E+00  0.49644402745E+01  0.36480603497E+02  0.36820937281E+02  0.00000000000E+00 0. -1.
         11    1    4    4    0    0  0.73262176869E+00  0.58084663825E+01  0.62091895457E+00  0.58873217155E+01  0.51100000000E-03 0. -1.
        -11    1    4    4    0    0 -0.71298732810E+01 -0.61750042265E+01  0.99373690088E+00  0.94843704847E+01  0.51100000000E-03 0.  1.
        -12    1    4    4    0    0  0.69461809650E+01 -0.45979024304E+01 -0.38095259352E+02  0.38995370519E+02  0.00000000000E+00 0.  1.
</event>
<event>
 8    1  0.1261983E-006  0.9118800E+02  0.7816164E-02  0.1184000E+00
        -11   -1    0    0    0    0  0.00000000000E+00  0.00000000000E+00  0.45593999997E+02  0.45594000000E+02  0.51100000000E-03 0. -1.
         11   -1    0    0    0    0 -0.00000000000E+00 -0.00000000000E+00 -0.45593999997E+02  0.45594000000E+02  0.51100000000E-03 0.  1.
         23    2    1    2    0    0  0.00000000000E+00  0.00000000000E+00  0.26645352591E-14  0.91188000000E+02  0.91188000000E+02 0.  0.
    9900012    2    3    3    0    0  0.35127026572E+02 -0.89336801877E+01 -0.64853550645E+01  0.54367102838E+02  0.40000042540E+02 0.  0.
        -12    1    3    3    0    0 -0.35127026572E+02  0.89336801877E+01  0.64853550645E+01  0.36820897162E+02  0.00000000000E+00 0.  1.
         11    1    4    4    0    0  0.11160863802E+01 -0.34267025408E+01  0.11306908751E+02  0.11867355429E+02  0.51100000000E-03 0. -1.
        -11    1    4    4    0    0  0.24215396501E+02 -0.12613547778E+01 -0.20195155052E+02  0.31556627377E+02  0.51100000000E-03 0.  1.
        -12    1    4    4    0    0  0.97955436906E+01 -0.42456228691E+01  0.24028912362E+01  0.10943120032E+02  0.00000000000E+00 0.  1.
</event>
<event>
 8    1  0.1261983E-006  0.9118800E+02  0.7816164E-02  0.1184000E+00
        -11   -1    0    0    0    0  0.00000000000E+00  0.00000000000E+00  0.45593999997E+02  0.45594000000E+02  0.51100000000E-03 0. -1.
         11   -1    0    0    0    0 -0.00000000000E+00 -0.00000000000E+00 -0.45593999997E+02  0.45594000000E+02  0.51100000000E-03 0.  1.
         23    2    1    2    0    0  0.00000000000E+00  0.71054273576E-14  0.00000000000E+00  0.91188000000E+02  0.91188000000E+02 0.  0.
    9900012    2    3    3    0    0 -0.23968114312E+02 -0.20071888358E+02 -0.19453166992E+02  0.54367123966E+02  0.40000090704E+02 0.  0.
         12    1    3    3    0    0  0.23968114312E+02  0.20071888358E+02  0.19453166992E+02  0.36820876034E+02  0.00000000000E+00 0. -1.
         11    1    4    4    0    0 -0.19282353788E+02 -0.23163194705E+02 -0.10585551124E+02  0.31943648029E+02  0.51100000000E-03 0. -1.
        -11    1    4    4    0    0  0.41026291218E+01  0.86547539492E+01 -0.15417315767E+01  0.97011993149E+01  0.51100000000E-03 0.  1.
        -12    1    4    4    0    0 -0.87883896456E+01 -0.55634476016E+01 -0.73258842919E+01  0.12722276622E+02  0.00000000000E+00 0.  1.
</event>
<event>
 8    1  0.1261983E-006  0.9118800E+02  0.7816164E-02  0.1184000E+00
        -11   -1    0    0    0    0  0.00000000000E+00  0.00000000000E+00  0.45593999997E+02  0.45594000000E+02  0.51100000000E-03 0.  1.
         11   -1    0    0    0    0 -0.00000000000E+00 -0.00000000000E+00 -0.45593999997E+02  0.45594000000E+02  0.51100000000E-03 0. -1.
         23    2    1    2    0    0 -0.71054273576E-14  0.00000000000E+00  0.88817841970E-15  0.91188000000E+02  0.91188000000E+02 0.  0.
    9900012    2    3    3    0    0 -0.33338309223E+02  0.14977220288E+02  0.44742937848E+01  0.54367091615E+02  0.40000016955E+02 0.  0.
         12    1    3    3    0    0  0.33338309223E+02 -0.14977220288E+02 -0.44742937848E+01  0.36820908385E+02  0.00000000000E+00 0. -1.
         11    1    4    4    0    0 -0.35593632664E+02  0.49622617941E+01 -0.91482652041E+01  0.37083978816E+02  0.51100000000E-03 0. -1.
        -11    1    4    4    0    0  0.17270894245E+01  0.59946661328E+01  0.60340627844E+01  0.86792150493E+01  0.51100000000E-03 0.  1.
         12    1    4    4    0    0  0.52823401642E+00  0.40202923609E+01  0.75884962045E+01  0.86038977498E+01  0.00000000000E+00 0. -1.
</event>
<event>
 8    1  0.1261983E-006  0.9118800E+02  0.7816164E-02  0.1184000E+00
        -11   -1    0    0    0    0  0.00000000000E+00  0.00000000000E+00  0.45593999997E+02  0.45594000000E+02  0.51100000000E-03 0.  1.
         11   -1    0    0    0    0 -0.00000000000E+00 -0.00000000000E+00 -0.45593999997E+02  0.45594000000E+02  0.51100000000E-03 0. -1.
         23    2    1    2    0    0  0.00000000000E+00 -0.88817841970E-15  0.00000000000E+00  0.91188000000E+02  0.91188000000E+02 0.  0.
    9900012    2    3    3    0    0 -0.16062912911E+02 -0.47726859613E+01 -0.32786941322E+02  0.54367092573E+02  0.40000019138E+02 0.  0.
        -12    1    3    3    0    0  0.16062912911E+02  0.47726859613E+01  0.32786941322E+02  0.36820907427E+02  0.00000000000E+00 0.  1.
         11    1    4    4    0    0 -0.23214628375E+02 -0.13642157353E+01 -0.95313723512E+01  0.25132192788E+02  0.51100000000E-03 0.  1.
        -11    1    4    4    0    0 -0.45540314559E+01 -0.15780865836E+01 -0.27405611683E+01  0.55443877520E+01  0.51100000000E-03 0. -1.
         12    1    4    4    0    0  0.11705746920E+02 -0.18303836424E+01 -0.20515007803E+02  0.23690512033E+02  0.00000000000E+00 0. -1.
</event>
<event>
 8    1  0.1261983E-006  0.9118800E+02  0.7816164E-02  0.1184000E+00
        -11   -1    0    0    0    0  0.00000000000E+00  0.00000000000E+00  0.45593999997E+02  0.45594000000E+02  0.51100000000E-03 0.  1.
         11   -1    0    0    0    0 -0.00000000000E+00 -0.00000000000E+00 -0.45593999997E+02  0.45594000000E+02  0.51100000000E-03 0. -1.
         23    2    1    2    0    0 -0.17763568394E-14  0.00000000000E+00  0.00000000000E+00  0.91188000000E+02  0.91188000000E+02 0.  0.
    9900012    2    3    3    0    0  0.12053444868E+02  0.33705989850E+02 -0.86255334635E+01  0.54367094084E+02  0.40000022583E+02 0.  0.
        -12    1    3    3    0    0 -0.12053444868E+02 -0.33705989850E+02  0.86255334635E+01  0.36820905916E+02  0.00000000000E+00 0.  1.
         11    1    4    4    0    0  0.41630241379E+01  0.30237526693E+02 -0.17980096154E+02  0.35424887417E+02  0.51100000000E-03 0. -1.
        -11    1    4    4    0    0  0.10621443954E+02 -0.11724538120E+01  0.81111075619E+01  0.13415654503E+02  0.51100000000E-03 0.  1.
         12    1    4    4    0    0 -0.27310232243E+01  0.46409169685E+01  0.12434551290E+01  0.55265521637E+01  0.00000000000E+00 0. -1.
</event>
<event>
 8    1  0.1261983E-006  0.9118800E+02  0.7816164E-02  0.1184000E+00
        -11   -1    0    0    0    0  0.00000000000E+00  0.00000000000E+00  0.45593999997E+02  0.45594000000E+02  0.51100000000E-03 0.  1.
         11   -1    0    0    0    0 -0.00000000000E+00 -0.00000000000E+00 -0.45593999997E+02  0.45594000000E+02  0.51100000000E-03 0. -1.
         23    2    1    2    0    0  0.00000000000E+00 -0.44408920985E-15  0.00000000000E+00  0.91188000000E+02  0.91188000000E+02 0.  0.
    9900012    2    3    3    0    0 -0.32380470688E+02 -0.23341064530E+01  0.17373506604E+02  0.54367059400E+02  0.39999943515E+02 0.  0.
         12    1    3    3    0    0  0.32380470688E+02  0.23341064530E+01 -0.17373506604E+02  0.36820940600E+02  0.00000000000E+00 0. -1.
         11    1    4    4    0    0  0.20770960562E+01  0.38217643726E+01  0.12229364737E+01  0.45183829880E+01  0.51100000000E-03 0. -1.
        -11    1    4    4    0    0 -0.31097430507E+02  0.74799528526E+01  0.60541111299E+01  0.32552298547E+02  0.51100000000E-03 0.  1.
         12    1    4    4    0    0 -0.33601362372E+01 -0.13635823678E+02  0.10096459000E+02  0.17296377865E+02  0.00000000000E+00 0. -1.
</event>
<event>
 8    1  0.1261983E-006  0.9118800E+02  0.7816164E-02  0.1184000E+00
        -11   -1    0    0    0    0  0.00000000000E+00  0.00000000000E+00  0.45593999997E+02  0.45594000000E+02  0.51100000000E-03 0.  1.
         11   -1    0    0    0    0 -0.00000000000E+00 -0.00000000000E+00 -0.45593999997E+02  0.45594000000E+02  0.51100000000E-03 0. -1.
         23    2    1    2    0    0  0.00000000000E+00  0.44408920985E-15  0.00000000000E+00  0.91188000000E+02  0.91188000000E+02 0.  0.
    9900012    2    3    3    0    0 -0.27134187681E+02 -0.19681244213E+01  0.24812148504E+02  0.54367077032E+02  0.39999983709E+02 0.  0.
         12    1    3    3    0    0  0.27134187681E+02  0.19681244213E+01 -0.24812148504E+02  0.36820922968E+02  0.00000000000E+00 0. -1.
         11    1    4    4    0    0  0.48765557483E+00  0.89271733561E+01  0.14010617941E+02  0.16620157865E+02  0.51100000000E-03 0. -1.
        -11    1    4    4    0    0 -0.24396093406E+02 -0.77758079089E+01  0.16524492475E+02  0.30474438697E+02  0.51100000000E-03 0.  1.
        -12    1    4    4    0    0 -0.32257498498E+01 -0.31194898685E+01 -0.57229619120E+01  0.72724804695E+01  0.00000000000E+00 0.  1.
</event>
<event>
 8    1  0.1261983E-006  0.9118800E+02  0.7816164E-02  0.1184000E+00
        -11   -1    0    0    0    0  0.00000000000E+00  0.00000000000E+00  0.45593999997E+02  0.45594000000E+02  0.51100000000E-03 0.  1.
         11   -1    0    0    0    0 -0.00000000000E+00 -0.00000000000E+00 -0.45593999997E+02  0.45594000000E+02  0.51100000000E-03 0. -1.
         23    2    1    2    0    0  0.00000000000E+00  0.17763568394E-14 -0.35527136788E-14  0.91188000000E+02  0.91188000000E+02 0.  0.
    9900012    2    3    3    0    0 -0.26707817431E+02 -0.15386370360E+02  0.20142789445E+02  0.54367083778E+02  0.39999999089E+02 0.  0.
         12    1    3    3    0    0  0.26707817431E+02  0.15386370360E+02 -0.20142789445E+02  0.36820916222E+02  0.00000000000E+00 0. -1.
         11    1    4    4    0    0 -0.16689044258E+02 -0.12914416697E+02  0.10881410676E+02  0.23742608437E+02  0.51100000000E-03 0.  1.
        -11    1    4    4    0    0 -0.14745983338E+02 -0.59547055021E+01  0.15394703167E+02  0.22133671817E+02  0.51100000000E-03 0. -1.
         12    1    4    4    0    0  0.47272101650E+01  0.34827518392E+01 -0.61333243977E+01  0.84908035241E+01  0.00000000000E+00 0. -1.
</event>
<event>
 8    1  0.1261983E-006  0.9118800E+02  0.7816164E-02  0.1184000E+00
        -11   -1    0    0    0    0  0.00000000000E+00  0.00000000000E+00  0.45593999997E+02  0.45594000000E+02  0.51100000000E-03 0. -1.
         11   -1    0    0    0    0 -0.00000000000E+00 -0.00000000000E+00 -0.45593999997E+02  0.45594000000E+02  0.51100000000E-03 0.  1.
         23    2    1    2    0    0  0.00000000000E+00  0.66613381478E-15  0.00000000000E+00  0.91188000000E+02  0.91188000000E+02 0.  0.
    9900012    2    3    3    0    0  0.17740944422E+02 -0.15747681798E+01  0.32226679403E+02  0.54367083809E+02  0.39999999159E+02 0.  0.
        -12    1    3    3    0    0 -0.17740944422E+02  0.15747681798E+01 -0.32226679403E+02  0.36820916191E+02  0.00000000000E+00 0.  1.
         11    1    4    4    0    0  0.54855722242E+00 -0.50144762859E+01  0.25590313150E+02  0.26082753206E+02  0.51100000000E-03 0. -1.
        -11    1    4    4    0    0 -0.77714316944E+00 -0.47582647452E+01 -0.36198670071E+01  0.60289694228E+01  0.51100000000E-03 0.  1.
         12    1    4    4    0    0  0.17969530369E+02  0.81979728513E+01  0.10256233261E+02  0.22255361180E+02  0.00000000000E+00 0. -1.
</event>
<event>
 8    1  0.1261983E-006  0.9118800E+02  0.7816164E-02  0.1184000E+00
        -11   -1    0    0    0    0  0.00000000000E+00  0.00000000000E+00  0.45593999997E+02  0.45594000000E+02  0.51100000000E-03 0.  1.
         11   -1    0    0    0    0 -0.00000000000E+00 -0.00000000000E+00 -0.45593999997E+02  0.45594000000E+02  0.51100000000E-03 0. -1.
         23    2    1    2    0    0 -0.17763568394E-14 -0.44408920985E-15 -0.71054273576E-14  0.91188000000E+02  0.91188000000E+02 0.  0.
    9900012    2    3    3    0    0  0.15935448504E+02 -0.39405888540E+01  0.32959247538E+02  0.54367098900E+02  0.40000033563E+02 0.  0.
         12    1    3    3    0    0 -0.15935448504E+02  0.39405888540E+01 -0.32959247538E+02  0.36820901100E+02  0.00000000000E+00 0. -1.
         11    1    4    4    0    0 -0.30852108597E+00  0.27499249497E+01 -0.45793284524E+01  0.53504693089E+01  0.51100000000E-03 0. -1.
        -11    1    4    4    0    0  0.78543360741E+01 -0.74123708404E+00 -0.20193228009E+01  0.81435675484E+01  0.51100000000E-03 0.  1.
        -12    1    4    4    0    0  0.83896335157E+01 -0.59492767197E+01  0.39557898791E+02  0.40873062043E+02  0.00000000000E+00 0.  1.
</event>
<event>
 8    1  0.1261983E-006  0.9118800E+02  0.7816164E-02  0.1184000E+00
        -11   -1    0    0    0    0  0.00000000000E+00  0.00000000000E+00  0.45593999997E+02  0.45594000000E+02  0.51100000000E-03 0.  1.
         11   -1    0    0    0    0 -0.00000000000E+00 -0.00000000000E+00 -0.45593999997E+02  0.45594000000E+02  0.51100000000E-03 0. -1.
         23    2    1    2    0    0  0.00000000000E+00  0.44408920985E-15  0.35527136788E-14  0.91188000000E+02  0.91188000000E+02 0.  0.
    9900012    2    3    3    0    0  0.28814218891E+02 -0.25096078563E+01 -0.22786460305E+02  0.54367080469E+02  0.39999991544E+02 0.  0.
        -12    1    3    3    0    0 -0.28814218891E+02  0.25096078563E+01  0.22786460305E+02  0.36820919531E+02  0.00000000000E+00 0.  1.
         11    1    4    4    0    0  0.20228886516E+02  0.14953953683E+01 -0.13625318700E+02  0.24435493998E+02  0.51100000000E-03 0. -1.
        -11    1    4    4    0    0 -0.12180010839E+00  0.82562509118E+01  0.46816639242E+01  0.94920225318E+01  0.51100000000E-03 0.  1.
        -12    1    4    4    0    0  0.87071324831E+01 -0.12261254136E+02 -0.13842805529E+02  0.20439563939E+02  0.00000000000E+00 0.  1.
</event>
<event>
 8    1  0.1261983E-006  0.9118800E+02  0.7816164E-02  0.1184000E+00
        -11   -1    0    0    0    0  0.00000000000E+00  0.00000000000E+00  0.45593999997E+02  0.45594000000E+02  0.51100000000E-03 0. -1.
         11   -1    0    0    0    0 -0.00000000000E+00 -0.00000000000E+00 -0.45593999997E+02  0.45594000000E+02  0.51100000000E-03 0.  1.
         23    2    1    2    0    0  0.22204460493E-15  0.44408920985E-15 -0.71054273576E-14  0.91188000000E+02  0.91188000000E+02 0.  0.
    9900012    2    3    3    0    0 -0.16685937266E+01  0.35732292170E+01  0.36608902524E+02  0.54367300440E+02  0.40000493011E+02 0.  0.
        -12    1    3    3    0    0  0.16685937266E+01 -0.35732292170E+01 -0.36608902524E+02  0.36820699560E+02  0.00000000000E+00 0.  1.
         11    1    4    4    0    0  0.32456887997E+01  0.12425059223E+02  0.65137639560E+01  0.14399503936E+02  0.51100000000E-03 0. -1.
        -11    1    4    4    0    0  0.22456608380E+01  0.19815119456E+01 -0.31077134853E+01  0.43159315979E+01  0.51100000000E-03 0.  1.
         12    1    4    4    0    0 -0.71599433643E+01 -0.10833341951E+02  0.33202852053E+02  0.35651864906E+02  0.00000000000E+00 0. -1.
</event>
<event>
 8    1  0.1261983E-006  0.9118800E+02  0.7816164E-02  0.1184000E+00
        -11   -1    0    0    0    0  0.00000000000E+00  0.00000000000E+00  0.45593999997E+02  0.45594000000E+02  0.51100000000E-03 0. -1.
         11   -1    0    0    0    0 -0.00000000000E+00 -0.00000000000E+00 -0.45593999997E+02  0.45594000000E+02  0.51100000000E-03 0.  1.
         23    2    1    2    0    0 -0.71054273576E-14  0.17763568394E-14 -0.88817841970E-15  0.91188000000E+02  0.91188000000E+02 0.  0.
    9900012    2    3    3    0    0 -0.36220750997E+02 -0.41076102616E+01  0.51926625567E+01  0.54367095485E+02  0.40000025777E+02 0.  0.
        -12    1    3    3    0    0  0.36220750997E+02  0.41076102616E+01 -0.51926625567E+01  0.36820904515E+02  0.00000000000E+00 0.  1.
         11    1    4    4    0    0 -0.22152563100E+02  0.14534943627E+02  0.76490743064E+01  0.27577327212E+02  0.51100000000E-03 0. -1.
        -11    1    4    4    0    0 -0.11346205092E+02 -0.18425558583E+02  0.18207711707E+01  0.21715266220E+02  0.51100000000E-03 0.  1.
        -12    1    4    4    0    0 -0.27219828049E+01 -0.21699530539E+00 -0.42771829205E+01  0.50745020532E+01  0.00000000000E+00 0.  1.
</event>
<event>
 8    1  0.1261983E-006  0.9118800E+02  0.7816164E-02  0.1184000E+00
        -11   -1    0    0    0    0  0.00000000000E+00  0.00000000000E+00  0.45593999997E+02  0.45594000000E+02  0.51100000000E-03 0. -1.
         11   -1    0    0    0    0 -0.00000000000E+00 -0.00000000000E+00 -0.45593999997E+02  0.45594000000E+02  0.51100000000E-03 0.  1.
         23    2    1    2    0    0 -0.17763568394E-14  0.35527136788E-14  0.00000000000E+00  0.91188000000E+02  0.91188000000E+02 0.  0.
    9900012    2    3    3    0    0 -0.15000153264E+02  0.31889086814E+02  0.10670585520E+02  0.54367084054E+02  0.39999999718E+02 0.  0.
        -12    1    3    3    0    0  0.15000153264E+02 -0.31889086814E+02 -0.10670585520E+02  0.36820915946E+02  0.00000000000E+00 0.  1.
         11    1    4    4    0    0  0.48723566191E+01  0.13984285670E+02  0.71926366087E+01  0.16463114115E+02  0.51100000000E-03 0. -1.
        -11    1    4    4    0    0 -0.74943291112E+00  0.35023449940E+01 -0.98661662166E+01  0.10496156736E+02  0.51100000000E-03 0.  1.
         12    1    4    4    0    0 -0.19123076972E+02  0.14402456150E+02  0.13344115128E+02  0.27407813203E+02  0.00000000000E+00 0. -1.
</event>
<event>
 8    1  0.1261983E-006  0.9118800E+02  0.7816164E-02  0.1184000E+00
        -11   -1    0    0    0    0  0.00000000000E+00  0.00000000000E+00  0.45593999997E+02  0.45594000000E+02  0.51100000000E-03 0.  1.
         11   -1    0    0    0    0 -0.00000000000E+00 -0.00000000000E+00 -0.45593999997E+02  0.45594000000E+02  0.51100000000E-03 0. -1.
         23    2    1    2    0    0  0.00000000000E+00  0.00000000000E+00  0.00000000000E+00  0.91188000000E+02  0.91188000000E+02 0.  0.
    9900012    2    3    3    0    0  0.33126227946E+02 -0.69540422696E+01 -0.14493883799E+02  0.54367104446E+02  0.40000046206E+02 0.  0.
        -12    1    3    3    0    0 -0.33126227946E+02  0.69540422696E+01  0.14493883799E+02  0.36820895554E+02  0.00000000000E+00 0.  1.
         11    1    4    4    0    0  0.24965054143E+01 -0.91226135768E+01  0.21045926321E+01  0.96893719179E+01  0.51100000000E-03 0. -1.
        -11    1    4    4    0    0  0.23679800750E+02  0.95795450576E+01 -0.38862967970E+00  0.25547048369E+02  0.51100000000E-03 0.  1.
        -12    1    4    4    0    0  0.69499217819E+01 -0.74109737504E+01 -0.16209846752E+02  0.19130684160E+02  0.00000000000E+00 0.  1.
</event>
<event>
 8    1  0.1261983E-006  0.9118800E+02  0.7816164E-02  0.1184000E+00
        -11   -1    0    0    0    0  0.00000000000E+00  0.00000000000E+00  0.45593999997E+02  0.45594000000E+02  0.51100000000E-03 0. -1.
         11   -1    0    0    0    0 -0.00000000000E+00 -0.00000000000E+00 -0.45593999997E+02  0.45594000000E+02  0.51100000000E-03 0.  1.
         23    2    1    2    0    0  0.35527136788E-14 -0.17763568394E-14 -0.35527136788E-14  0.91188000000E+02  0.91188000000E+02 0.  0.
    9900012    2    3    3    0    0  0.25955238240E+02  0.12915730197E+02 -0.22699876711E+02  0.54367151540E+02  0.40000153566E+02 0.  0.
         12    1    3    3    0    0 -0.25955238240E+02 -0.12915730197E+02  0.22699876711E+02  0.36820848460E+02  0.00000000000E+00 0. -1.
         11    1    4    4    0    0  0.16539737416E+01 -0.59970160833E-01  0.36940279637E+01  0.40478473805E+01  0.51100000000E-03 0. -1.
        -11    1    4    4    0    0  0.46908395362E+01 -0.42915224535E+01 -0.23129219319E+02  0.23987120025E+02  0.51100000000E-03 0.  1.
         12    1    4    4    0    0  0.19610424962E+02  0.17267222812E+02 -0.32646853551E+01  0.26332184135E+02  0.00000000000E+00 0. -1.
</event>
<event>
 8    1  0.1261983E-006  0.9118800E+02  0.7816164E-02  0.1184000E+00
        -11   -1    0    0    0    0  0.00000000000E+00  0.00000000000E+00  0.45593999997E+02  0.45594000000E+02  0.51100000000E-03 0.  1.
         11   -1    0    0    0    0 -0.00000000000E+00 -0.00000000000E+00 -0.45593999997E+02  0.45594000000E+02  0.51100000000E-03 0. -1.
         23    2    1    2    0    0  0.00000000000E+00 -0.16653345369E-15  0.71054273576E-14  0.91188000000E+02  0.91188000000E+02 0.  0.
    9900012    2    3    3    0    0 -0.43194953253E+01  0.48561522650E+00 -0.36563461215E+02  0.54367074454E+02  0.39999977833E+02 0.  0.
        -12    1    3    3    0    0  0.43194953253E+01 -0.48561522650E+00  0.36563461215E+02  0.36820925546E+02  0.00000000000E+00 0.  1.
         11    1    4    4    0    0 -0.24685416011E+01  0.10087470320E+02  0.76235931221E+00  0.10413066170E+02  0.51100000000E-03 0. -1.
        -11    1    4    4    0    0  0.31616933438E+01  0.48124549875E+01 -0.32384077865E+01  0.66063085804E+01  0.51100000000E-03 0.  1.
         12    1    4    4    0    0 -0.50126470681E+01 -0.14414310081E+02 -0.34087412741E+02  0.37347699703E+02  0.00000000000E+00 0. -1.
</event>
<event>
 8    1  0.1261983E-006  0.9118800E+02  0.7816164E-02  0.1184000E+00
        -11   -1    0    0    0    0  0.00000000000E+00  0.00000000000E+00  0.45593999997E+02  0.45594000000E+02  0.51100000000E-03 0.  1.
         11   -1    0    0    0    0 -0.00000000000E+00 -0.00000000000E+00 -0.45593999997E+02  0.45594000000E+02  0.51100000000E-03 0. -1.
         23    2    1    2    0    0 -0.17763568394E-14 -0.88817841970E-15  0.71054273576E-14  0.91188000000E+02  0.91188000000E+02 0.  0.
    9900012    2    3    3    0    0 -0.12477757179E+02 -0.32571644973E+01  0.34488834052E+02  0.54367038320E+02  0.39999895457E+02 0.  0.
         12    1    3    3    0    0  0.12477757179E+02  0.32571644973E+01 -0.34488834052E+02  0.36820961680E+02  0.00000000000E+00 0. -1.
         11    1    4    4    0    0 -0.18819875745E+02  0.75396297205E+01  0.20859974255E+02  0.29089040299E+02  0.51100000000E-03 0. -1.
        -11    1    4    4    0    0  0.21532277532E+01 -0.19298254786E+01  0.15088750565E+02  0.15363300753E+02  0.51100000000E-03 0.  1.
         12    1    4    4    0    0  0.41888908120E+01 -0.88669687391E+01 -0.14598907680E+01  0.99146972677E+01  0.00000000000E+00 0. -1.
</event>
<event>
 8    1  0.1261983E-006  0.9118800E+02  0.7816164E-02  0.1184000E+00
        -11   -1    0    0    0    0  0.00000000000E+00  0.00000000000E+00  0.45593999997E+02  0.45594000000E+02  0.51100000000E-03 0.  1.
         11   -1    0    0    0    0 -0.00000000000E+00 -0.00000000000E+00 -0.45593999997E+02  0.45594000000E+02  0.51100000000E-03 0. -1.
         23    2    1    2    0    0  0.17763568394E-14  0.35527136788E-14 -0.71054273576E-14  0.91188000000E+02  0.91188000000E+02 0.  0.
    9900012    2    3    3    0    0  0.13077924526E+02  0.14117735057E+02 -0.31391804283E+02  0.54366974360E+02  0.39999749648E+02 0.  0.
        -12    1    3    3    0    0 -0.13077924526E+02 -0.14117735057E+02  0.31391804283E+02  0.36821025640E+02  0.00000000000E+00 0.  1.
         11    1    4    4    0    0  0.53905056762E+01 -0.99109914094E+01 -0.81267489508E+01  0.13904292536E+02  0.51100000000E-03 0. -1.
        -11    1    4    4    0    0  0.14048820356E+02  0.13686243646E+02 -0.85800896836E+01  0.21407955479E+02  0.51100000000E-03 0.  1.
         12    1    4    4    0    0 -0.63614015060E+01  0.10342482820E+02 -0.14684965648E+02  0.19054726345E+02  0.00000000000E+00 0. -1.
</event>
<event>
 8    1  0.1261983E-006  0.9118800E+02  0.7816164E-02  0.1184000E+00
        -11   -1    0    0    0    0  0.00000000000E+00  0.00000000000E+00  0.45593999997E+02  0.45594000000E+02  0.51100000000E-03 0.  1.
         11   -1    0    0    0    0 -0.00000000000E+00 -0.00000000000E+00 -0.45593999997E+02  0.45594000000E+02  0.51100000000E-03 0. -1.
         23    2    1    2    0    0  0.00000000000E+00 -0.88817841970E-15 -0.17763568394E-14  0.91188000000E+02  0.91188000000E+02 0.  0.
    9900012    2    3    3    0    0 -0.33966805710E+02  0.46174727763E+01 -0.13443000412E+02  0.54367092827E+02  0.40000019718E+02 0.  0.
        -12    1    3    3    0    0  0.33966805710E+02 -0.46174727763E+01  0.13443000412E+02  0.36820907173E+02  0.00000000000E+00 0.  1.
         11    1    4    4    0    0 -0.22758503813E+02  0.71046994515E+01 -0.54682126558E+01  0.24460735884E+02  0.51100000000E-03 0. -1.
        -11    1    4    4    0    0 -0.42461862239E+01  0.65439197277E+01  0.74080402946E+01  0.10757882883E+02  0.51100000000E-03 0.  1.
         12    1    4    4    0    0 -0.69621156731E+01 -0.90311464029E+01 -0.15382828051E+02  0.19148474060E+02  0.00000000000E+00 0. -1.
</event>
<event>
 8    1  0.1261983E-006  0.9118800E+02  0.7816164E-02  0.1184000E+00
        -11   -1    0    0    0    0  0.00000000000E+00  0.00000000000E+00  0.45593999997E+02  0.45594000000E+02  0.51100000000E-03 0. -1.
         11   -1    0    0    0    0 -0.00000000000E+00 -0.00000000000E+00 -0.45593999997E+02  0.45594000000E+02  0.51100000000E-03 0.  1.
         23    2    1    2    0    0  0.71054273576E-14  0.17763568394E-14  0.00000000000E+00  0.91188000000E+02  0.91188000000E+02 0.  0.
    9900012    2    3    3    0    0 -0.30233166229E+02 -0.44472047925E+01  0.20541620545E+02  0.54367080058E+02  0.39999990609E+02 0.  0.
        -12    1    3    3    0    0  0.30233166229E+02  0.44472047925E+01 -0.20541620545E+02  0.36820919942E+02  0.00000000000E+00 0.  1.
         11    1    4    4    0    0  0.15066104249E+01  0.66230437085E+01  0.60385744577E+01  0.90883972559E+01  0.51100000000E-03 0. -1.
        -11    1    4    4    0    0 -0.60370290138E+01  0.85693546755E+01  0.46201589503E+01  0.11455366771E+02  0.51100000000E-03 0.  1.
         12    1    4    4    0    0 -0.25702747641E+02 -0.19639603177E+02  0.98828871372E+01  0.33823316032E+02  0.00000000000E+00 0. -1.
</event>
<event>
 8    1  0.1261983E-006  0.9118800E+02  0.7816164E-02  0.1184000E+00
        -11   -1    0    0    0    0  0.00000000000E+00  0.00000000000E+00  0.45593999997E+02  0.45594000000E+02  0.51100000000E-03 0.  1.
         11   -1    0    0    0    0 -0.00000000000E+00 -0.00000000000E+00 -0.45593999997E+02  0.45594000000E+02  0.51100000000E-03 0. -1.
         23    2    1    2    0    0  0.00000000000E+00  0.00000000000E+00  0.17763568394E-14  0.91188000000E+02  0.91188000000E+02 0.  0.
    9900012    2    3    3    0    0  0.14076596736E+02 -0.30279363881E+02 -0.15517450689E+02  0.54367058559E+02  0.39999941596E+02 0.  0.
        -12    1    3    3    0    0 -0.14076596736E+02  0.30279363881E+02  0.15517450689E+02  0.36820941441E+02  0.00000000000E+00 0.  1.
         11    1    4    4    0    0  0.16990642070E+02 -0.15880198810E+02 -0.45770680744E+01  0.23702577595E+02  0.51100000000E-03 0.  1.
        -11    1    4    4    0    0 -0.20122000167E+01 -0.13090400476E+02 -0.18604584922E+02  0.22837208978E+02  0.51100000000E-03 0. -1.
        -12    1    4    4    0    0 -0.90184531813E+00 -0.13087645952E+01  0.76642023068E+01  0.78272719861E+01  0.00000000000E+00 0.  1.
</event>
<event>
 8    1  0.1261983E-006  0.9118800E+02  0.7816164E-02  0.1184000E+00
        -11   -1    0    0    0    0  0.00000000000E+00  0.00000000000E+00  0.45593999997E+02  0.45594000000E+02  0.51100000000E-03 0.  1.
         11   -1    0    0    0    0 -0.00000000000E+00 -0.00000000000E+00 -0.45593999997E+02  0.45594000000E+02  0.51100000000E-03 0. -1.
         23    2    1    2    0    0  0.00000000000E+00  0.00000000000E+00  0.00000000000E+00  0.91188000000E+02  0.91188000000E+02 0.  0.
    9900012    2    3    3    0    0  0.20350053072E+02  0.24842833706E+02  0.18013573961E+02  0.54367083479E+02  0.39999998407E+02 0.  0.
         12    1    3    3    0    0 -0.20350053072E+02 -0.24842833706E+02 -0.18013573961E+02  0.36820916521E+02  0.00000000000E+00 0. -1.
         11    1    4    4    0    0  0.10959210499E+02 -0.88822579293E+00 -0.58075076088E+01  0.12434644534E+02  0.51100000000E-03 0. -1.
        -11    1    4    4    0    0 -0.10803743160E+01  0.23818700481E+02  0.17148550230E+02  0.29369550158E+02  0.51100000000E-03 0.  1.
        -12    1    4    4    0    0  0.10471216890E+02  0.19123590180E+01  0.66725313403E+01  0.12562888786E+02  0.00000000000E+00 0.  1.
</event>
<event>
 8    1  0.1261983E-006  0.9118800E+02  0.7816164E-02  0.1184000E+00
        -11   -1    0    0    0    0  0.00000000000E+00  0.00000000000E+00  0.45593999997E+02  0.45594000000E+02  0.51100000000E-03 0.  1.
         11   -1    0    0    0    0 -0.00000000000E+00 -0.00000000000E+00 -0.45593999997E+02  0.45594000000E+02  0.51100000000E-03 0. -1.
         23    2    1    2    0    0 -0.17763568394E-14  0.00000000000E+00 -0.44408920985E-15  0.91188000000E+02  0.91188000000E+02 0.  0.
    9900012    2    3    3    0    0  0.12902390816E+02 -0.34385318134E+02  0.26377535659E+01  0.54367088335E+02  0.40000009478E+02 0.  0.
         12    1    3    3    0    0 -0.12902390816E+02  0.34385318134E+02 -0.26377535659E+01  0.36820911665E+02  0.00000000000E+00 0. -1.
         11    1    4    4    0    0  0.17554892959E+02 -0.14848183615E+02  0.98872149890E+01  0.25027981221E+02  0.51100000000E-03 0.  1.
        -11    1    4    4    0    0  0.51009841946E+01 -0.55710013506E+01 -0.95211492450E+01  0.12153533602E+02  0.51100000000E-03 0. -1.
        -12    1    4    4    0    0 -0.97534863375E+01 -0.13966133168E+02  0.22716878219E+01  0.17185573513E+02  0.00000000000E+00 0.  1.
</event>
<event>
 8    1  0.1261983E-006  0.9118800E+02  0.7816164E-02  0.1184000E+00
        -11   -1    0    0    0    0  0.00000000000E+00  0.00000000000E+00  0.45593999997E+02  0.45594000000E+02  0.51100000000E-03 0.  1.
         11   -1    0    0    0    0 -0.00000000000E+00 -0.00000000000E+00 -0.45593999997E+02  0.45594000000E+02  0.51100000000E-03 0. -1.
         23    2    1    2    0    0 -0.35527136788E-14  0.00000000000E+00  0.00000000000E+00  0.91188000000E+02  0.91188000000E+02 0.  0.
    9900012    2    3    3    0    0  0.18813186154E+02 -0.30606190436E+02  0.80687124772E+01  0.54367095783E+02  0.40000026457E+02 0.  0.
         12    1    3    3    0    0 -0.18813186154E+02  0.30606190436E+02 -0.80687124772E+01  0.36820904217E+02  0.00000000000E+00 0. -1.
         11    1    4    4    0    0 -0.58196524615E+01 -0.89598252201E+01 -0.10250018071E+01  0.10733007580E+02  0.51100000000E-03 0. -1.
        -11    1    4    4    0    0  0.19020060866E+02 -0.70847735453E+00  0.10810494458E+02  0.21889071387E+02  0.51100000000E-03 0.  1.
         12    1    4    4    0    0  0.56127777498E+01 -0.20937887861E+02 -0.17167801738E+01  0.21745016816E+02  0.00000000000E+00 0. -1.
</event>
<event>
 8    1  0.1261983E-006  0.9118800E+02  0.7816164E-02  0.1184000E+00
        -11   -1    0    0    0    0  0.00000000000E+00  0.00000000000E+00  0.45593999997E+02  0.45594000000E+02  0.51100000000E-03 0.  1.
         11   -1    0    0    0    0 -0.00000000000E+00 -0.00000000000E+00 -0.45593999997E+02  0.45594000000E+02  0.51100000000E-03 0. -1.
         23    2    1    2    0    0 -0.35527136788E-14  0.71054273576E-14 -0.35527136788E-14  0.91188000000E+02  0.91188000000E+02 0.  0.
    9900012    2    3    3    0    0 -0.17198198596E+02  0.28134423564E+02 -0.16384635543E+02  0.54367080591E+02  0.39999991823E+02 0.  0.
        -12    1    3    3    0    0  0.17198198596E+02 -0.28134423564E+02  0.16384635543E+02  0.36820919409E+02  0.00000000000E+00 0.  1.
         11    1    4    4    0    0 -0.30246751579E+01  0.24288425266E+02 -0.22560889531E+01  0.24579792500E+02  0.51100000000E-03 0. -1.
        -11    1    4    4    0    0 -0.50326231097E+01  0.11228107247E+02 -0.13131711656E+02  0.17995542197E+02  0.51100000000E-03 0.  1.
        -12    1    4    4    0    0 -0.91409003287E+01 -0.73821089481E+01 -0.99683493443E+00  0.11791745894E+02  0.00000000000E+00 0.  1.
</event>
<event>
 8    1  0.1261983E-006  0.9118800E+02  0.7816164E-02  0.1184000E+00
        -11   -1    0    0    0    0  0.00000000000E+00  0.00000000000E+00  0.45593999997E+02  0.45594000000E+02  0.51100000000E-03 0.  1.
         11   -1    0    0    0    0 -0.00000000000E+00 -0.00000000000E+00 -0.45593999997E+02  0.45594000000E+02  0.51100000000E-03 0. -1.
         23    2    1    2    0    0  0.00000000000E+00  0.00000000000E+00  0.00000000000E+00  0.91188000000E+02  0.91188000000E+02 0.  0.
    9900012    2    3    3    0    0 -0.27894016528E+02 -0.17688355948E+02 -0.16273457214E+02  0.54367088769E+02  0.40000010466E+02 0.  0.
        -12    1    3    3    0    0  0.27894016528E+02  0.17688355948E+02  0.16273457214E+02  0.36820911231E+02  0.00000000000E+00 0.  1.
         11    1    4    4    0    0 -0.22723816491E+01 -0.20800959545E+01  0.68135097509E+01  0.74775953973E+01  0.51100000000E-03 0. -1.
        -11    1    4    4    0    0 -0.44821626400E+01  0.79667446350E+01 -0.55127699719E+01  0.10674710068E+02  0.51100000000E-03 0.  1.
         12    1    4    4    0    0 -0.21139472239E+02 -0.23575004628E+02 -0.17574196993E+02  0.36214783303E+02  0.00000000000E+00 0. -1.
</event>
<event>
 8    1  0.1261983E-006  0.9118800E+02  0.7816164E-02  0.1184000E+00
        -11   -1    0    0    0    0  0.00000000000E+00  0.00000000000E+00  0.45593999997E+02  0.45594000000E+02  0.51100000000E-03 0.  1.
         11   -1    0    0    0    0 -0.00000000000E+00 -0.00000000000E+00 -0.45593999997E+02  0.45594000000E+02  0.51100000000E-03 0. -1.
         23    2    1    2    0    0  0.55511151231E-15 -0.71054273576E-14  0.35527136788E-14  0.91188000000E+02  0.91188000000E+02 0.  0.
    9900012    2    3    3    0    0  0.61468588335E+00  0.32721674701E+02 -0.16872980653E+02  0.54367037084E+02  0.39999892639E+02 0.  0.
        -12    1    3    3    0    0 -0.61468588335E+00 -0.32721674701E+02  0.16872980653E+02  0.36820962916E+02  0.00000000000E+00 0.  1.
         11    1    4    4    0    0 -0.51772093645E+01  0.29805241465E+02 -0.32460110085E+01  0.30425195206E+02  0.51100000000E-03 0. -1.
        -11    1    4    4    0    0  0.61819457953E+01  0.11195609607E+01  0.31752425040E+01  0.70393206903E+01  0.51100000000E-03 0.  1.
        -12    1    4    4    0    0 -0.39005054742E+00  0.17968722751E+01 -0.16802212148E+02  0.16902521187E+02  0.00000000000E+00 0.  1.
</event>
<event>
 8    1  0.1261983E-006  0.9118800E+02  0.7816164E-02  0.1184000E+00
        -11   -1    0    0    0    0  0.00000000000E+00  0.00000000000E+00  0.45593999997E+02  0.45594000000E+02  0.51100000000E-03 0. -1.
         11   -1    0    0    0    0 -0.00000000000E+00 -0.00000000000E+00 -0.45593999997E+02  0.45594000000E+02  0.51100000000E-03 0.  1.
         23    2    1    2    0    0  0.00000000000E+00  0.00000000000E+00  0.00000000000E+00  0.91188000000E+02  0.91188000000E+02 0.  0.
    9900012    2    3    3    0    0 -0.32640641398E+02  0.16774104293E+02 -0.29991826837E+01  0.54367120836E+02  0.40000083569E+02 0.  0.
        -12    1    3    3    0    0  0.32640641398E+02 -0.16774104293E+02  0.29991826837E+01  0.36820879164E+02  0.00000000000E+00 0.  1.
         11    1    4    4    0    0 -0.35023967592E+01 -0.78122952934E+01  0.26261124837E+01  0.89551777117E+01  0.51100000000E-03 0. -1.
        -11    1    4    4    0    0  0.21416732920E+01  0.32285681693E+01 -0.64532137958E+01  0.75269107520E+01  0.51100000000E-03 0.  1.
        -12    1    4    4    0    0 -0.31279917931E+02  0.21357831417E+02  0.82791862842E+00  0.37885032372E+02  0.00000000000E+00 0.  1.
</event>
<event>
 8    1  0.1261983E-006  0.9118800E+02  0.7816164E-02  0.1184000E+00
        -11   -1    0    0    0    0  0.00000000000E+00  0.00000000000E+00  0.45593999997E+02  0.45594000000E+02  0.51100000000E-03 0. -1.
         11   -1    0    0    0    0 -0.00000000000E+00 -0.00000000000E+00 -0.45593999997E+02  0.45594000000E+02  0.51100000000E-03 0.  1.
         23    2    1    2    0    0  0.17763568394E-14 -0.35527136788E-14  0.35527136788E-14  0.91188000000E+02  0.91188000000E+02 0.  0.
    9900012    2    3    3    0    0 -0.12460172841E+02  0.27293139062E+02 -0.21344928249E+02  0.54367118573E+02  0.40000078411E+02 0.  0.
         12    1    3    3    0    0  0.12460172841E+02 -0.27293139062E+02  0.21344928249E+02  0.36820881427E+02  0.00000000000E+00 0. -1.
         11    1    4    4    0    0  0.69376059030E+00 -0.79067679931E+01 -0.95182187429E+01  0.12393335796E+02  0.51100000000E-03 0. -1.
        -11    1    4    4    0    0 -0.14908657974E+02  0.19880582025E+02 -0.70100936043E+01  0.25819508842E+02  0.51100000000E-03 0.  1.
         12    1    4    4    0    0  0.17547245431E+01  0.15319325031E+02 -0.48166159019E+01  0.16154273935E+02  0.00000000000E+00 0. -1.
</event>
<event>
 8    1  0.1261983E-006  0.9118800E+02  0.7816164E-02  0.1184000E+00
        -11   -1    0    0    0    0  0.00000000000E+00  0.00000000000E+00  0.45593999997E+02  0.45594000000E+02  0.51100000000E-03 0. -1.
         11   -1    0    0    0    0 -0.00000000000E+00 -0.00000000000E+00 -0.45593999997E+02  0.45594000000E+02  0.51100000000E-03 0.  1.
         23    2    1    2    0    0  0.00000000000E+00  0.00000000000E+00  0.00000000000E+00  0.91188000000E+02  0.91188000000E+02 0.  0.
    9900012    2    3    3    0    0  0.32241415597E+02  0.10746236928E+02  0.14169986575E+02  0.54367095512E+02  0.40000025838E+02 0.  0.
         12    1    3    3    0    0 -0.32241415597E+02 -0.10746236928E+02 -0.14169986575E+02  0.36820904488E+02  0.00000000000E+00 0. -1.
         11    1    4    4    0    0  0.11661085709E+01  0.16107125432E+02  0.59933402162E+01  0.17225545742E+02  0.51100000000E-03 0. -1.
        -11    1    4    4    0    0  0.62210644765E+01  0.33684865173E+00 -0.54077646484E+01  0.82497896330E+01  0.51100000000E-03 0.  1.
         12    1    4    4    0    0  0.24854242549E+02 -0.56977371558E+01  0.13584411007E+02  0.28891760137E+02  0.00000000000E+00 0. -1.
</event>
<event>
 8    1  0.1261983E-006  0.9118800E+02  0.7816164E-02  0.1184000E+00
        -11   -1    0    0    0    0  0.00000000000E+00  0.00000000000E+00  0.45593999997E+02  0.45594000000E+02  0.51100000000E-03 0.  1.
         11   -1    0    0    0    0 -0.00000000000E+00 -0.00000000000E+00 -0.45593999997E+02  0.45594000000E+02  0.51100000000E-03 0. -1.
         23    2    1    2    0    0 -0.71054273576E-14  0.17763568394E-14  0.00000000000E+00  0.91188000000E+02  0.91188000000E+02 0.  0.
    9900012    2    3    3    0    0 -0.23738195228E+02  0.14185130355E+02  0.24311792704E+02  0.54367039932E+02  0.39999899134E+02 0.  0.
         12    1    3    3    0    0  0.23738195228E+02 -0.14185130355E+02 -0.24311792704E+02  0.36820960068E+02  0.00000000000E+00 0. -1.
         11    1    4    4    0    0 -0.23623284081E+01 -0.38393610020E+01 -0.92909210947E+01  0.10326785727E+02  0.51100000000E-03 0. -1.
        -11    1    4    4    0    0 -0.20810320097E+01  0.25177734142E+01  0.17684694277E+01  0.37144799863E+01  0.51100000000E-03 0.  1.
        -12    1    4    4    0    0 -0.19294834810E+02  0.15506717942E+02  0.31834244371E+02  0.40325774219E+02  0.00000000000E+00 0.  1.
</event>
<event>
 8    1  0.1261983E-006  0.9118800E+02  0.7816164E-02  0.1184000E+00
        -11   -1    0    0    0    0  0.00000000000E+00  0.00000000000E+00  0.45593999997E+02  0.45594000000E+02  0.51100000000E-03 0. -1.
         11   -1    0    0    0    0 -0.00000000000E+00 -0.00000000000E+00 -0.45593999997E+02  0.45594000000E+02  0.51100000000E-03 0.  1.
         23    2    1    2    0    0  0.00000000000E+00  0.00000000000E+00  0.00000000000E+00  0.91188000000E+02  0.91188000000E+02 0.  0.
    9900012    2    3    3    0    0 -0.10286081307E+02 -0.20960217080E+02 -0.28471844596E+02  0.54367080628E+02  0.39999991908E+02 0.  0.
         12    1    3    3    0    0  0.10286081307E+02  0.20960217080E+02  0.28471844596E+02  0.36820919372E+02  0.00000000000E+00 0. -1.
         11    1    4    4    0    0  0.81060031303E+01 -0.16629776015E+02 -0.39120429679E+01  0.18909278608E+02  0.51100000000E-03 0. -1.
        -11    1    4    4    0    0 -0.11599918899E+02 -0.22281709089E+01 -0.22264554093E+01  0.12019982031E+02  0.51100000000E-03 0.  1.
        -12    1    4    4    0    0 -0.67921655374E+01 -0.21022701561E+01 -0.22333346219E+02  0.23437819989E+02  0.00000000000E+00 0.  1.
</event>
<event>
 8    1  0.1261983E-006  0.9118800E+02  0.7816164E-02  0.1184000E+00
        -11   -1    0    0    0    0  0.00000000000E+00  0.00000000000E+00  0.45593999997E+02  0.45594000000E+02  0.51100000000E-03 0.  1.
         11   -1    0    0    0    0 -0.00000000000E+00 -0.00000000000E+00 -0.45593999997E+02  0.45594000000E+02  0.51100000000E-03 0. -1.
         23    2    1    2    0    0  0.00000000000E+00  0.00000000000E+00  0.17763568394E-14  0.91188000000E+02  0.91188000000E+02 0.  0.
    9900012    2    3    3    0    0  0.27849468841E+02  0.20057340608E+02  0.13337502534E+02  0.54367098316E+02  0.40000032231E+02 0.  0.
        -12    1    3    3    0    0 -0.27849468841E+02 -0.20057340608E+02 -0.13337502534E+02  0.36820901684E+02  0.00000000000E+00 0.  1.
         11    1    4    4    0    0  0.15806345554E+02  0.98595668894E+01 -0.76729094723E+01  0.20147584447E+02  0.51100000000E-03 0. -1.
        -11    1    4    4    0    0  0.12128930431E+01 -0.16323817039E+01 -0.40120130930E+01  0.44980027657E+01  0.51100000000E-03 0.  1.
         12    1    4    4    0    0  0.10830230244E+02  0.11830155422E+02  0.25022425099E+02  0.29721511104E+02  0.00000000000E+00 0. -1.
</event>
<event>
 8    1  0.1261983E-006  0.9118800E+02  0.7816164E-02  0.1184000E+00
        -11   -1    0    0    0    0  0.00000000000E+00  0.00000000000E+00  0.45593999997E+02  0.45594000000E+02  0.51100000000E-03 0.  1.
         11   -1    0    0    0    0 -0.00000000000E+00 -0.00000000000E+00 -0.45593999997E+02  0.45594000000E+02  0.51100000000E-03 0. -1.
         23    2    1    2    0    0 -0.35527136788E-14  0.88817841970E-15  0.00000000000E+00  0.91188000000E+02  0.91188000000E+02 0.  0.
    9900012    2    3    3    0    0  0.31656760007E+02 -0.50004465262E+01  0.18127988848E+02  0.54367096979E+02  0.40000029184E+02 0.  0.
         12    1    3    3    0    0 -0.31656760007E+02  0.50004465262E+01 -0.18127988848E+02  0.36820903021E+02  0.00000000000E+00 0. -1.
         11    1    4    4    0    0 -0.71775863817E+01 -0.92653360777E-01  0.10712577194E+02  0.12895178995E+02  0.51100000000E-03 0. -1.
        -11    1    4    4    0    0  0.13013369508E+02 -0.53779275041E+01  0.68061214672E+01  0.15639475051E+02  0.51100000000E-03 0.  1.
        -12    1    4    4    0    0  0.25820976881E+02  0.47013433866E+00  0.60929018650E+00  0.25832442933E+02  0.00000000000E+00 0.  1.
</event>
<event>
 8    1  0.1261983E-006  0.9118800E+02  0.7816164E-02  0.1184000E+00
        -11   -1    0    0    0    0  0.00000000000E+00  0.00000000000E+00  0.45593999997E+02  0.45594000000E+02  0.51100000000E-03 0. -1.
         11   -1    0    0    0    0 -0.00000000000E+00 -0.00000000000E+00 -0.45593999997E+02  0.45594000000E+02  0.51100000000E-03 0.  1.
         23    2    1    2    0    0  0.00000000000E+00  0.00000000000E+00  0.00000000000E+00  0.91188000000E+02  0.91188000000E+02 0.  0.
    9900012    2    3    3    0    0  0.22159109159E+02 -0.26810959197E+02  0.12079941925E+02  0.54367100382E+02  0.40000036941E+02 0.  0.
        -12    1    3    3    0    0 -0.22159109159E+02  0.26810959197E+02 -0.12079941925E+02  0.36820899618E+02  0.00000000000E+00 0.  1.
         11    1    4    4    0    0  0.13165668129E+02 -0.14415536712E+02  0.12495011847E+02  0.23179038748E+02  0.51100000000E-03 0. -1.
        -11    1    4    4    0    0  0.15236498442E+02 -0.94018148023E+01 -0.90978630579E+01  0.20082731857E+02  0.51100000000E-03 0.  1.
         12    1    4    4    0    0 -0.62430574119E+01 -0.29936076824E+01  0.86827931364E+01  0.11105329777E+02  0.00000000000E+00 0. -1.
</event>
<event>
 8    1  0.1261983E-006  0.9118800E+02  0.7816164E-02  0.1184000E+00
        -11   -1    0    0    0    0  0.00000000000E+00  0.00000000000E+00  0.45593999997E+02  0.45594000000E+02  0.51100000000E-03 0. -1.
         11   -1    0    0    0    0 -0.00000000000E+00 -0.00000000000E+00 -0.45593999997E+02  0.45594000000E+02  0.51100000000E-03 0.  1.
         23    2    1    2    0    0  0.00000000000E+00  0.00000000000E+00  0.00000000000E+00  0.91188000000E+02  0.91188000000E+02 0.  0.
    9900012    2    3    3    0    0  0.17442125209E+02 -0.21912036149E+02  0.23904301750E+02  0.54367072497E+02  0.39999973372E+02 0.  0.
        -12    1    3    3    0    0 -0.17442125209E+02  0.21912036149E+02 -0.23904301750E+02  0.36820927503E+02  0.00000000000E+00 0.  1.
         11    1    4    4    0    0  0.88612296573E+01  0.62357940647E+01  0.11930719833E+01  0.10900914626E+02  0.51100000000E-03 0. -1.
        -11    1    4    4    0    0  0.55079462290E+01 -0.38873391490E+01 -0.35190128559E+01  0.76047570022E+01  0.51100000000E-03 0.  1.
         12    1    4    4    0    0  0.30729493225E+01 -0.24260491065E+02  0.26230242623E+02  0.35861400869E+02  0.00000000000E+00 0. -1.
</event>
<event>
 8    1  0.1261983E-006  0.9118800E+02  0.7816164E-02  0.1184000E+00
        -11   -1    0    0    0    0  0.00000000000E+00  0.00000000000E+00  0.45593999997E+02  0.45594000000E+02  0.51100000000E-03 0.  1.
         11   -1    0    0    0    0 -0.00000000000E+00 -0.00000000000E+00 -0.45593999997E+02  0.45594000000E+02  0.51100000000E-03 0. -1.
         23    2    1    2    0    0  0.17763568394E-14 -0.35527136788E-14  0.71054273576E-14  0.91188000000E+02  0.91188000000E+02 0.  0.
    9900012    2    3    3    0    0  0.80122321435E+01 -0.13781075340E+02  0.33191352056E+02  0.54367085390E+02  0.40000002763E+02 0.  0.
         12    1    3    3    0    0 -0.80122321435E+01  0.13781075340E+02 -0.33191352056E+02  0.36820914610E+02  0.00000000000E+00 0. -1.
         11    1    4    4    0    0 -0.62677803791E+01 -0.63868946632E-01 -0.49218996835E+01  0.79695826037E+01  0.51100000000E-03 0. -1.
        -11    1    4    4    0    0  0.17958996717E+02 -0.13989779631E+02  0.32461159875E+02  0.39648031450E+02  0.51100000000E-03 0.  1.
         12    1    4    4    0    0 -0.36789841940E+01  0.27257323723E+00  0.56520918641E+01  0.67494713355E+01  0.00000000000E+00 0. -1.
</event>
<event>
 8    1  0.1261983E-006  0.9118800E+02  0.7816164E-02  0.1184000E+00
        -11   -1    0    0    0    0  0.00000000000E+00  0.00000000000E+00  0.45593999997E+02  0.45594000000E+02  0.51100000000E-03 0.  1.
         11   -1    0    0    0    0 -0.00000000000E+00 -0.00000000000E+00 -0.45593999997E+02  0.45594000000E+02  0.51100000000E-03 0. -1.
         23    2    1    2    0    0  0.00000000000E+00  0.17763568394E-14  0.00000000000E+00  0.91188000000E+02  0.91188000000E+02 0.  0.
    9900012    2    3    3    0    0  0.27165934046E+01  0.15895468307E+02  0.33101849893E+02  0.54367105677E+02  0.40000049011E+02 0.  0.
         12    1    3    3    0    0 -0.27165934046E+01 -0.15895468307E+02 -0.33101849893E+02  0.36820894323E+02  0.00000000000E+00 0. -1.
         11    1    4    4    0    0 -0.64253707021E+01 -0.24750206033E+01  0.88430622671E+01  0.11207625358E+02  0.51100000000E-03 0. -1.
        -11    1    4    4    0    0  0.31876412778E-01  0.11278919326E+02  0.28663578257E+02  0.30802853050E+02  0.51100000000E-03 0.  1.
         12    1    4    4    0    0  0.91100876939E+01  0.70915695841E+01 -0.44047906308E+01  0.12356627269E+02  0.00000000000E+00 0. -1.
</event>
<event>
 8    1  0.1261983E-006  0.9118800E+02  0.7816164E-02  0.1184000E+00
        -11   -1    0    0    0    0  0.00000000000E+00  0.00000000000E+00  0.45593999997E+02  0.45594000000E+02  0.51100000000E-03 0.  1.
         11   -1    0    0    0    0 -0.00000000000E+00 -0.00000000000E+00 -0.45593999997E+02  0.45594000000E+02  0.51100000000E-03 0. -1.
         23    2    1    2    0    0  0.17763568394E-14 -0.88817841970E-15 -0.71054273576E-14  0.91188000000E+02  0.91188000000E+02 0.  0.
    9900012    2    3    3    0    0 -0.15145206752E+02  0.42766506569E+01 -0.33288358792E+02  0.54367056782E+02  0.39999937547E+02 0.  0.
        -12    1    3    3    0    0  0.15145206752E+02 -0.42766506569E+01  0.33288358792E+02  0.36820943218E+02  0.00000000000E+00 0.  1.
         11    1    4    4    0    0 -0.24934628085E+01  0.25923254880E+01 -0.85569481403E-01  0.35978925235E+01  0.51100000000E-03 0. -1.
        -11    1    4    4    0    0 -0.47803158832E+01  0.59456579523E+01  0.65291189930E+01  0.10041497075E+02  0.51100000000E-03 0.  1.
         12    1    4    4    0    0 -0.78714280601E+01 -0.42613327834E+01 -0.39731908303E+02  0.40727667184E+02  0.00000000000E+00 0. -1.
</event>
<event>
 8    1  0.1261983E-006  0.9118800E+02  0.7816164E-02  0.1184000E+00
        -11   -1    0    0    0    0  0.00000000000E+00  0.00000000000E+00  0.45593999997E+02  0.45594000000E+02  0.51100000000E-03 0. -1.
         11   -1    0    0    0    0 -0.00000000000E+00 -0.00000000000E+00 -0.45593999997E+02  0.45594000000E+02  0.51100000000E-03 0.  1.
         23    2    1    2    0    0 -0.17763568394E-14 -0.71054273576E-14  0.35527136788E-14  0.91188000000E+02  0.91188000000E+02 0.  0.
    9900012    2    3    3    0    0  0.15799606034E+02  0.28078541117E+02 -0.17825587947E+02  0.54367033042E+02  0.39999883426E+02 0.  0.
         12    1    3    3    0    0 -0.15799606034E+02 -0.28078541117E+02  0.17825587947E+02  0.36820966958E+02  0.00000000000E+00 0. -1.
         11    1    4    4    0    0  0.37619381415E+00  0.12753644420E+01 -0.89539732761E+01  0.90521662565E+01  0.51100000000E-03 0. -1.
        -11    1    4    4    0    0 -0.63896004956E+01  0.19944660561E+02 -0.80415274365E+01  0.22433961825E+02  0.51100000000E-03 0.  1.
         12    1    4    4    0    0  0.21813012715E+02  0.68585161132E+01 -0.83008723417E+00  0.22880904960E+02  0.00000000000E+00 0. -1.
</event>
<event>
 8    1  0.1261983E-006  0.9118800E+02  0.7816164E-02  0.1184000E+00
        -11   -1    0    0    0    0  0.00000000000E+00  0.00000000000E+00  0.45593999997E+02  0.45594000000E+02  0.51100000000E-03 0. -1.
         11   -1    0    0    0    0 -0.00000000000E+00 -0.00000000000E+00 -0.45593999997E+02  0.45594000000E+02  0.51100000000E-03 0.  1.
         23    2    1    2    0    0  0.00000000000E+00  0.00000000000E+00 -0.22204460493E-15  0.91188000000E+02  0.91188000000E+02 0.  0.
    9900012    2    3    3    0    0  0.29203180634E+02  0.22367463030E+02 -0.16279232957E+01  0.54367091594E+02  0.40000016907E+02 0.  0.
        -12    1    3    3    0    0 -0.29203180634E+02 -0.22367463030E+02  0.16279232957E+01  0.36820908406E+02  0.00000000000E+00 0.  1.
         11    1    4    4    0    0  0.11363114471E+02  0.10098333686E+02  0.24085905633E+01  0.15391491886E+02  0.51100000000E-03 0. -1.
        -11    1    4    4    0    0 -0.68097849831E+01  0.92556221677E+01  0.50237749906E+01  0.12541053729E+02  0.51100000000E-03 0.  1.
        -12    1    4    4    0    0  0.24649851146E+02  0.30135071759E+01 -0.90602888497E+01  0.26434545978E+02  0.00000000000E+00 0.  1.
</event>
<event>
 8    1  0.1261983E-006  0.9118800E+02  0.7816164E-02  0.1184000E+00
        -11   -1    0    0    0    0  0.00000000000E+00  0.00000000000E+00  0.45593999997E+02  0.45594000000E+02  0.51100000000E-03 0.  1.
         11   -1    0    0    0    0 -0.00000000000E+00 -0.00000000000E+00 -0.45593999997E+02  0.45594000000E+02  0.51100000000E-03 0. -1.
         23    2    1    2    0    0  0.00000000000E+00  0.00000000000E+00  0.35527136788E-14  0.91188000000E+02  0.91188000000E+02 0.  0.
    9900012    2    3    3    0    0  0.32758035148E+02  0.11526287711E+02  0.12240772735E+02  0.54367072631E+02  0.39999973677E+02 0.  0.
         12    1    3    3    0    0 -0.32758035148E+02 -0.11526287711E+02 -0.12240772735E+02  0.36820927369E+02  0.00000000000E+00 0. -1.
         11    1    4    4    0    0 -0.24802020392E+01 -0.44390218402E+01 -0.15506709707E+01  0.53160979838E+01  0.51100000000E-03 0. -1.
        -11    1    4    4    0    0  0.78747879012E+01  0.75940631798E+01 -0.76026301001E+01  0.13322239480E+02  0.51100000000E-03 0.  1.
         12    1    4    4    0    0  0.27363449286E+02  0.83712463709E+01  0.21394073806E+02  0.35728735167E+02  0.00000000000E+00 0. -1.
</event>
<event>
 8    1  0.1261983E-006  0.9118800E+02  0.7816164E-02  0.1184000E+00
        -11   -1    0    0    0    0  0.00000000000E+00  0.00000000000E+00  0.45593999997E+02  0.45594000000E+02  0.51100000000E-03 0. -1.
         11   -1    0    0    0    0 -0.00000000000E+00 -0.00000000000E+00 -0.45593999997E+02  0.45594000000E+02  0.51100000000E-03 0.  1.
         23    2    1    2    0    0  0.00000000000E+00  0.71054273576E-14  0.00000000000E+00  0.91188000000E+02  0.91188000000E+02 0.  0.
    9900012    2    3    3    0    0 -0.10018354516E+02  0.30359908866E+02  0.18267170585E+02  0.54367068252E+02  0.39999963695E+02 0.  0.
        -12    1    3    3    0    0  0.10018354516E+02 -0.30359908866E+02 -0.18267170585E+02  0.36820931748E+02  0.00000000000E+00 0.  1.
         11    1    4    4    0    0  0.60174879715E+01 -0.23650761460E+01 -0.40283073674E+01  0.76178085544E+01  0.51100000000E-03 0. -1.
        -11    1    4    4    0    0 -0.11687644419E+01  0.24171126003E+01  0.10736691902E+02  0.11067294019E+02  0.51100000000E-03 0.  1.
         12    1    4    4    0    0 -0.14867078046E+02  0.30307872412E+02  0.11558786050E+02  0.35681965679E+02  0.00000000000E+00 0. -1.
</event>
<event>
 8    1  0.1261983E-006  0.9118800E+02  0.7816164E-02  0.1184000E+00
        -11   -1    0    0    0    0  0.00000000000E+00  0.00000000000E+00  0.45593999997E+02  0.45594000000E+02  0.51100000000E-03 0.  1.
         11   -1    0    0    0    0 -0.00000000000E+00 -0.00000000000E+00 -0.45593999997E+02  0.45594000000E+02  0.51100000000E-03 0. -1.
         23    2    1    2    0    0  0.00000000000E+00 -0.35527136788E-14  0.00000000000E+00  0.91188000000E+02  0.91188000000E+02 0.  0.
    9900012    2    3    3    0    0  0.12856974648E+02  0.19658755473E+02  0.28355092306E+02  0.54367085786E+02  0.40000003667E+02 0.  0.
         12    1    3    3    0    0 -0.12856974648E+02 -0.19658755473E+02 -0.28355092306E+02  0.36820914214E+02  0.00000000000E+00 0. -1.
         11    1    4    4    0    0  0.15682126711E+02  0.32236234743E+01  0.29339068337E+02  0.33423072534E+02  0.51100000000E-03 0. -1.
        -11    1    4    4    0    0 -0.18131611736E+01  0.90797445093E+01 -0.68204880767E+01  0.11499929202E+02  0.51100000000E-03 0.  1.
        -12    1    4    4    0    0 -0.10119908894E+01  0.73553874896E+01  0.58365120453E+01  0.94440840497E+01  0.00000000000E+00 0.  1.
</event>
<event>
 8    1  0.1261983E-006  0.9118800E+02  0.7816164E-02  0.1184000E+00
        -11   -1    0    0    0    0  0.00000000000E+00  0.00000000000E+00  0.45593999997E+02  0.45594000000E+02  0.51100000000E-03 0.  1.
         11   -1    0    0    0    0 -0.00000000000E+00 -0.00000000000E+00 -0.45593999997E+02  0.45594000000E+02  0.51100000000E-03 0. -1.
         23    2    1    2    0    0  0.17763568394E-14  0.00000000000E+00  0.00000000000E+00  0.91188000000E+02  0.91188000000E+02 0.  0.
    9900012    2    3    3    0    0  0.87753768990E+01 -0.19343710667E+02  0.30076456070E+02  0.54367087575E+02  0.40000007745E+02 0.  0.
         12    1    3    3    0    0 -0.87753768990E+01  0.19343710667E+02 -0.30076456070E+02  0.36820912425E+02  0.00000000000E+00 0. -1.
         11    1    4    4    0    0 -0.33768614355E+01  0.49512227582E+01  0.10094613752E+02  0.11739634876E+02  0.51100000000E-03 0. -1.
        -11    1    4    4    0    0  0.18163973269E+02 -0.99176989965E+01  0.56427118873E+01  0.21450661435E+02  0.51100000000E-03 0.  1.
        -12    1    4    4    0    0 -0.60117349343E+01 -0.14377234429E+02  0.14339130431E+02  0.21176791264E+02  0.00000000000E+00 0.  1.
</event>
<event>
 8    1  0.1261983E-006  0.9118800E+02  0.7816164E-02  0.1184000E+00
        -11   -1    0    0    0    0  0.00000000000E+00  0.00000000000E+00  0.45593999997E+02  0.45594000000E+02  0.51100000000E-03 0. -1.
         11   -1    0    0    0    0 -0.00000000000E+00 -0.00000000000E+00 -0.45593999997E+02  0.45594000000E+02  0.51100000000E-03 0.  1.
         23    2    1    2    0    0  0.00000000000E+00  0.35527136788E-14  0.00000000000E+00  0.91188000000E+02  0.91188000000E+02 0.  0.
    9900012    2    3    3    0    0  0.10490764677E+02  0.19789604700E+02  0.29224913711E+02  0.54367079600E+02  0.39999989565E+02 0.  0.
        -12    1    3    3    0    0 -0.10490764677E+02 -0.19789604700E+02 -0.29224913711E+02  0.36820920400E+02  0.00000000000E+00 0.  1.
         11    1    4    4    0    0  0.13405006394E+02  0.23315354334E+02  0.30478719632E+02  0.40647906401E+02  0.51100000000E-03 0. -1.
        -11    1    4    4    0    0 -0.79230133659E+01 -0.12845015362E+01  0.24709408136E+00  0.80302640516E+01  0.51100000000E-03 0.  1.
         12    1    4    4    0    0  0.50087716492E+01 -0.22412480979E+01 -0.15009000030E+01  0.56889091475E+01  0.00000000000E+00 0. -1.
</event>
<event>
 8    1  0.1261983E-006  0.9118800E+02  0.7816164E-02  0.1184000E+00
        -11   -1    0    0    0    0  0.00000000000E+00  0.00000000000E+00  0.45593999997E+02  0.45594000000E+02  0.51100000000E-03 0.  1.
         11   -1    0    0    0    0 -0.00000000000E+00 -0.00000000000E+00 -0.45593999997E+02  0.45594000000E+02  0.51100000000E-03 0. -1.
         23    2    1    2    0    0 -0.35527136788E-14  0.00000000000E+00  0.17763568394E-14  0.91188000000E+02  0.91188000000E+02 0.  0.
    9900012    2    3    3    0    0 -0.29761403192E+02  0.17227878973E+02 -0.13162033761E+02  0.54367081128E+02  0.39999993048E+02 0.  0.
        -12    1    3    3    0    0  0.29761403192E+02 -0.17227878973E+02  0.13162033761E+02  0.36820918872E+02  0.00000000000E+00 0.  1.
         11    1    4    4    0    0 -0.72612037410E+01  0.11702858575E+02  0.39156342583E+00  0.13778073188E+02  0.51100000000E-03 0. -1.
        -11    1    4    4    0    0 -0.67926219830E+01  0.68858038692E+01  0.89059235800E+01  0.13147984005E+02  0.51100000000E-03 0.  1.
        -12    1    4    4    0    0 -0.15707577468E+02 -0.13607834711E+01 -0.22459520767E+02  0.27441023935E+02  0.00000000000E+00 0.  1.
</event>
<event>
 8    1  0.1261983E-006  0.9118800E+02  0.7816164E-02  0.1184000E+00
        -11   -1    0    0    0    0  0.00000000000E+00  0.00000000000E+00  0.45593999997E+02  0.45594000000E+02  0.51100000000E-03 0.  1.
         11   -1    0    0    0    0 -0.00000000000E+00 -0.00000000000E+00 -0.45593999997E+02  0.45594000000E+02  0.51100000000E-03 0. -1.
         23    2    1    2    0    0 -0.44408920985E-15  0.13322676296E-14  0.00000000000E+00  0.91188000000E+02  0.91188000000E+02 0.  0.
    9900012    2    3    3    0    0  0.15435211464E+01 -0.29149297528E+01 -0.36672888905E+02  0.54367081303E+02  0.39999993448E+02 0.  0.
        -12    1    3    3    0    0 -0.15435211464E+01  0.29149297528E+01  0.36672888905E+02  0.36820918697E+02  0.00000000000E+00 0.  1.
         11    1    4    4    0    0 -0.41210425136E+01 -0.64661242247E+01 -0.11605202188E+02  0.13909510127E+02  0.51100000000E-03 0.  1.
        -11    1    4    4    0    0  0.86423416233E+01 -0.11842783057E+02 -0.61806541946E+01  0.15910438894E+02  0.51100000000E-03 0. -1.
         12    1    4    4    0    0 -0.29777779633E+01  0.15393977529E+02 -0.18887032522E+02  0.24547132282E+02  0.00000000000E+00 0. -1.
</event>
<event>
 8    1  0.1261983E-006  0.9118800E+02  0.7816164E-02  0.1184000E+00
        -11   -1    0    0    0    0  0.00000000000E+00  0.00000000000E+00  0.45593999997E+02  0.45594000000E+02  0.51100000000E-03 0. -1.
         11   -1    0    0    0    0 -0.00000000000E+00 -0.00000000000E+00 -0.45593999997E+02  0.45594000000E+02  0.51100000000E-03 0.  1.
         23    2    1    2    0    0  0.00000000000E+00 -0.17763568394E-14  0.71054273576E-14  0.91188000000E+02  0.91188000000E+02 0.  0.
    9900012    2    3    3    0    0 -0.75083014340E+01  0.10235849594E+02 -0.34563455254E+02  0.54367086833E+02  0.40000006054E+02 0.  0.
         12    1    3    3    0    0  0.75083014340E+01 -0.10235849594E+02  0.34563455254E+02  0.36820913167E+02  0.00000000000E+00 0. -1.
         11    1    4    4    0    0 -0.14701306070E+02  0.72069874784E+01 -0.84160196450E+01  0.18409194866E+02  0.51100000000E-03 0. -1.
        -11    1    4    4    0    0 -0.52849200431E+01  0.93127965442E+01 -0.10992789249E+02  0.15346008441E+02  0.51100000000E-03 0.  1.
         12    1    4    4    0    0  0.12477924680E+02 -0.62839344285E+01 -0.15154646360E+02  0.20611883526E+02  0.00000000000E+00 0. -1.
</event>
<event>
 8    1  0.1261983E-006  0.9118800E+02  0.7816164E-02  0.1184000E+00
        -11   -1    0    0    0    0  0.00000000000E+00  0.00000000000E+00  0.45593999997E+02  0.45594000000E+02  0.51100000000E-03 0.  1.
         11   -1    0    0    0    0 -0.00000000000E+00 -0.00000000000E+00 -0.45593999997E+02  0.45594000000E+02  0.51100000000E-03 0. -1.
         23    2    1    2    0    0  0.35527136788E-14  0.00000000000E+00 -0.88817841970E-15  0.91188000000E+02  0.91188000000E+02 0.  0.
    9900012    2    3    3    0    0  0.29997244089E+01 -0.36678370340E+02 -0.12157788282E+01  0.54367091327E+02  0.40000016299E+02 0.  0.
        -12    1    3    3    0    0 -0.29997244089E+01  0.36678370340E+02  0.12157788282E+01  0.36820908673E+02  0.00000000000E+00 0.  1.
         11    1    4    4    0    0 -0.11918755060E+02 -0.67491542559E+01  0.34593207344E+01  0.14127091192E+02  0.51100000000E-03 0. -1.
        -11    1    4    4    0    0  0.19303567232E+02 -0.28515377552E+02 -0.69067341393E+01  0.35120612773E+02  0.51100000000E-03 0.  1.
        -12    1    4    4    0    0 -0.43850877629E+01 -0.14138385321E+01  0.22316345767E+01  0.51193873624E+01  0.00000000000E+00 0.  1.
</event>
<event>
 8    1  0.1261983E-006  0.9118800E+02  0.7816164E-02  0.1184000E+00
        -11   -1    0    0    0    0  0.00000000000E+00  0.00000000000E+00  0.45593999997E+02  0.45594000000E+02  0.51100000000E-03 0. -1.
         11   -1    0    0    0    0 -0.00000000000E+00 -0.00000000000E+00 -0.45593999997E+02  0.45594000000E+02  0.51100000000E-03 0.  1.
         23    2    1    2    0    0  0.44408920985E-15  0.71054273576E-14  0.00000000000E+00  0.91188000000E+02  0.91188000000E+02 0.  0.
    9900012    2    3    3    0    0 -0.37409856844E+01  0.35483592302E+02  0.90940034582E+01  0.54367065799E+02  0.39999958103E+02 0.  0.
         12    1    3    3    0    0  0.37409856844E+01 -0.35483592302E+02 -0.90940034582E+01  0.36820934201E+02  0.00000000000E+00 0. -1.
         11    1    4    4    0    0  0.80534039966E+01  0.10544172293E+02  0.23534812191E+01  0.13475004986E+02  0.51100000000E-03 0. -1.
        -11    1    4    4    0    0  0.36281582653E+01  0.24541146813E+02  0.27731021300E+01  0.24962402028E+02  0.51100000000E-03 0.  1.
        -12    1    4    4    0    0 -0.15422547946E+02  0.39827319548E+00  0.39674201090E+01  0.15929658785E+02  0.00000000000E+00 0.  1.
</event>
<event>
 8    1  0.1261983E-006  0.9118800E+02  0.7816164E-02  0.1184000E+00
        -11   -1    0    0    0    0  0.00000000000E+00  0.00000000000E+00  0.45593999997E+02  0.45594000000E+02  0.51100000000E-03 0.  1.
         11   -1    0    0    0    0 -0.00000000000E+00 -0.00000000000E+00 -0.45593999997E+02  0.45594000000E+02  0.51100000000E-03 0. -1.
         23    2    1    2    0    0  0.35527136788E-14 -0.71054273576E-14  0.00000000000E+00  0.91188000000E+02  0.91188000000E+02 0.  0.
    9900012    2    3    3    0    0 -0.50752867141E+01  0.34748648698E+02  0.11070371494E+02  0.54367078684E+02  0.39999987476E+02 0.  0.
         12    1    3    3    0    0  0.50752867141E+01 -0.34748648698E+02 -0.11070371494E+02  0.36820921316E+02  0.00000000000E+00 0. -1.
         11    1    4    4    0    0  0.93317687900E+01  0.91064139645E+01  0.59900893982E+01  0.14348862509E+02  0.51100000000E-03 0. -1.
        -11    1    4    4    0    0  0.26044995715E+01  0.79227916427E+01  0.11894460944E+02  0.14526948986E+02  0.51100000000E-03 0.  1.
         12    1    4    4    0    0 -0.17011555076E+02  0.17719443091E+02 -0.68141788480E+01  0.25491267189E+02  0.00000000000E+00 0. -1.
</event>
<event>
 8    1  0.1261983E-006  0.9118800E+02  0.7816164E-02  0.1184000E+00
        -11   -1    0    0    0    0  0.00000000000E+00  0.00000000000E+00  0.45593999997E+02  0.45594000000E+02  0.51100000000E-03 0.  1.
         11   -1    0    0    0    0 -0.00000000000E+00 -0.00000000000E+00 -0.45593999997E+02  0.45594000000E+02  0.51100000000E-03 0. -1.
         23    2    1    2    0    0  0.00000000000E+00  0.66613381478E-15  0.00000000000E+00  0.91188000000E+02  0.91188000000E+02 0.  0.
    9900012    2    3    3    0    0 -0.29575846763E+02 -0.56843901997E+00 -0.21925468383E+02  0.54367082053E+02  0.39999995155E+02 0.  0.
        -12    1    3    3    0    0  0.29575846763E+02  0.56843901997E+00  0.21925468383E+02  0.36820917947E+02  0.00000000000E+00 0.  1.
         11    1    4    4    0    0 -0.63502469900E+01 -0.14090233282E+02  0.24085847194E+01  0.15641662040E+02  0.51100000000E-03 0.  1.
        -11    1    4    4    0    0 -0.29734503223E+01 -0.23795557510E+01 -0.60363605413E+01  0.71373203121E+01  0.51100000000E-03 0. -1.
        -12    1    4    4    0    0 -0.20252149450E+02  0.15901350013E+02 -0.18297692562E+02  0.31588099700E+02  0.00000000000E+00 0.  1.
</event>
<event>
 8    1  0.1261983E-006  0.9118800E+02  0.7816164E-02  0.1184000E+00
        -11   -1    0    0    0    0  0.00000000000E+00  0.00000000000E+00  0.45593999997E+02  0.45594000000E+02  0.51100000000E-03 0.  1.
         11   -1    0    0    0    0 -0.00000000000E+00 -0.00000000000E+00 -0.45593999997E+02  0.45594000000E+02  0.51100000000E-03 0. -1.
         23    2    1    2    0    0  0.00000000000E+00  0.00000000000E+00  0.00000000000E+00  0.91188000000E+02  0.91188000000E+02 0.  0.
    9900012    2    3    3    0    0  0.17448957290E+02 -0.24895148957E+02  0.20773669297E+02  0.54367083551E+02  0.39999998571E+02 0.  0.
         12    1    3    3    0    0 -0.17448957290E+02  0.24895148957E+02 -0.20773669297E+02  0.36820916449E+02  0.00000000000E+00 0. -1.
         11    1    4    4    0    0  0.13630659975E+00 -0.22125482447E+02  0.70724261367E+01  0.23228748669E+02  0.51100000000E-03 0. -1.
        -11    1    4    4    0    0  0.12130928041E+02 -0.12180906600E+02  0.90995187463E+01  0.19450839119E+02  0.51100000000E-03 0.  1.
        -12    1    4    4    0    0  0.51817226489E+01  0.94112400902E+01  0.46017244137E+01  0.11687495764E+02  0.00000000000E+00 0.  1.
</event>
<event>
 8    1  0.1261983E-006  0.9118800E+02  0.7816164E-02  0.1184000E+00
        -11   -1    0    0    0    0  0.00000000000E+00  0.00000000000E+00  0.45593999997E+02  0.45594000000E+02  0.51100000000E-03 0.  1.
         11   -1    0    0    0    0 -0.00000000000E+00 -0.00000000000E+00 -0.45593999997E+02  0.45594000000E+02  0.51100000000E-03 0. -1.
         23    2    1    2    0    0  0.00000000000E+00  0.00000000000E+00  0.88817841970E-15  0.91188000000E+02  0.91188000000E+02 0.  0.
    9900012    2    3    3    0    0 -0.35786735886E+02 -0.77257063176E+01 -0.39246932859E+01  0.54367079033E+02  0.39999988272E+02 0.  0.
         12    1    3    3    0    0  0.35786735886E+02  0.77257063176E+01  0.39246932859E+01  0.36820920967E+02  0.00000000000E+00 0. -1.
         11    1    4    4    0    0 -0.20093547894E+02  0.60653236778E+01 -0.56179116799E+01  0.21727856549E+02  0.51100000000E-03 0. -1.
        -11    1    4    4    0    0 -0.11466543964E+02 -0.64180254248E+00  0.11065271152E+02  0.15947845212E+02  0.51100000000E-03 0.  1.
         12    1    4    4    0    0 -0.42266440280E+01 -0.13149227453E+02 -0.93720527584E+01  0.16691377272E+02  0.00000000000E+00 0. -1.
</event>
<event>
 8    1  0.1261983E-006  0.9118800E+02  0.7816164E-02  0.1184000E+00
        -11   -1    0    0    0    0  0.00000000000E+00  0.00000000000E+00  0.45593999997E+02  0.45594000000E+02  0.51100000000E-03 0.  1.
         11   -1    0    0    0    0 -0.00000000000E+00 -0.00000000000E+00 -0.45593999997E+02  0.45594000000E+02  0.51100000000E-03 0. -1.
         23    2    1    2    0    0  0.00000000000E+00 -0.17763568394E-14  0.00000000000E+00  0.91188000000E+02  0.91188000000E+02 0.  0.
    9900012    2    3    3    0    0  0.12610863039E+02 -0.10165788548E+02 -0.33066629158E+02  0.54367094426E+02  0.40000023363E+02 0.  0.
        -12    1    3    3    0    0 -0.12610863039E+02  0.10165788548E+02  0.33066629158E+02  0.36820905574E+02  0.00000000000E+00 0.  1.
         11    1    4    4    0    0 -0.76236495547E+01  0.58993342684E+01 -0.26171983157E+01  0.99885887205E+01  0.51100000000E-03 0. -1.
        -11    1    4    4    0    0  0.24234766687E+01  0.21970390337E+01  0.14122777777E+01  0.35629690515E+01  0.51100000000E-03 0.  1.
         12    1    4    4    0    0  0.17811035925E+02 -0.18262161850E+02 -0.31861708620E+02  0.40815536654E+02  0.00000000000E+00 0. -1.
</event>
<event>
 8    1  0.1261983E-006  0.9118800E+02  0.7816164E-02  0.1184000E+00
        -11   -1    0    0    0    0  0.00000000000E+00  0.00000000000E+00  0.45593999997E+02  0.45594000000E+02  0.51100000000E-03 0.  1.
         11   -1    0    0    0    0 -0.00000000000E+00 -0.00000000000E+00 -0.45593999997E+02  0.45594000000E+02  0.51100000000E-03 0. -1.
         23    2    1    2    0    0 -0.77715611724E-15 -0.71054273576E-14  0.00000000000E+00  0.91188000000E+02  0.91188000000E+02 0.  0.
    9900012    2    3    3    0    0  0.54166414196E+00  0.17603353864E+02 -0.32335867502E+02  0.54367084824E+02  0.40000001473E+02 0.  0.
        -12    1    3    3    0    0 -0.54166414196E+00 -0.17603353864E+02  0.32335867502E+02  0.36820915176E+02  0.00000000000E+00 0.  1.
         11    1    4    4    0    0  0.12028293431E+02  0.58175947109E+01 -0.15634318864E+02  0.20565898416E+02  0.51100000000E-03 0. -1.
        -11    1    4    4    0    0 -0.13169772046E+01 -0.61330186139E+01  0.13407711446E+01  0.64145158663E+01  0.51100000000E-03 0.  1.
        -12    1    4    4    0    0 -0.10169652085E+02  0.17918777767E+02 -0.18042319783E+02  0.27386670541E+02  0.00000000000E+00 0.  1.
</event>
<event>
 8    1  0.1261983E-006  0.9118800E+02  0.7816164E-02  0.1184000E+00
        -11   -1    0    0    0    0  0.00000000000E+00  0.00000000000E+00  0.45593999997E+02  0.45594000000E+02  0.51100000000E-03 0.  1.
         11   -1    0    0    0    0 -0.00000000000E+00 -0.00000000000E+00 -0.45593999997E+02  0.45594000000E+02  0.51100000000E-03 0. -1.
         23    2    1    2    0    0  0.17763568394E-14  0.00000000000E+00  0.00000000000E+00  0.91188000000E+02  0.91188000000E+02 0.  0.
    9900012    2    3    3    0    0  0.10416673192E+02  0.30441760536E+02 -0.17904520088E+02  0.54367086045E+02  0.40000004256E+02 0.  0.
        -12    1    3    3    0    0 -0.10416673192E+02 -0.30441760536E+02  0.17904520088E+02  0.36820913955E+02  0.00000000000E+00 0.  1.
         11    1    4    4    0    0 -0.49516450942E+00  0.10410601827E+02 -0.14998047560E+02  0.18263823509E+02  0.51100000000E-03 0. -1.
        -11    1    4    4    0    0 -0.11050278669E+00  0.21765252187E+02 -0.88086997910E+01  0.23480451570E+02  0.51100000000E-03 0.  1.
        -12    1    4    4    0    0  0.11022340489E+02 -0.17340934784E+01  0.59022272628E+01  0.12622810967E+02  0.00000000000E+00 0.  1.
</event>
<event>
 8    1  0.1261983E-006  0.9118800E+02  0.7816164E-02  0.1184000E+00
        -11   -1    0    0    0    0  0.00000000000E+00  0.00000000000E+00  0.45593999997E+02  0.45594000000E+02  0.51100000000E-03 0.  1.
         11   -1    0    0    0    0 -0.00000000000E+00 -0.00000000000E+00 -0.45593999997E+02  0.45594000000E+02  0.51100000000E-03 0. -1.
         23    2    1    2    0    0  0.71054273576E-14  0.35527136788E-14 -0.44408920985E-15  0.91188000000E+02  0.91188000000E+02 0.  0.
    9900012    2    3    3    0    0 -0.34485590126E+02 -0.12875144650E+02  0.86887588583E+00  0.54367079025E+02  0.39999988254E+02 0.  0.
        -12    1    3    3    0    0  0.34485590126E+02  0.12875144650E+02 -0.86887588583E+00  0.36820920975E+02  0.00000000000E+00 0.  1.
         11    1    4    4    0    0 -0.16133573532E+02 -0.42620486956E+01 -0.13328747035E+02  0.21356796384E+02  0.51100000000E-03 0. -1.
        -11    1    4    4    0    0 -0.43975878317E+01  0.67913396137E+01  0.47690456272E+00  0.81048448911E+01  0.51100000000E-03 0.  1.
        -12    1    4    4    0    0 -0.13954428762E+02 -0.15404435568E+02  0.13720718358E+02  0.24905437750E+02  0.00000000000E+00 0.  1.
</event>
<event>
 8    1  0.1261983E-006  0.9118800E+02  0.7816164E-02  0.1184000E+00
        -11   -1    0    0    0    0  0.00000000000E+00  0.00000000000E+00  0.45593999997E+02  0.45594000000E+02  0.51100000000E-03 0.  1.
         11   -1    0    0    0    0 -0.00000000000E+00 -0.00000000000E+00 -0.45593999997E+02  0.45594000000E+02  0.51100000000E-03 0. -1.
         23    2    1    2    0    0  0.00000000000E+00  0.00000000000E+00 -0.35527136788E-14  0.91188000000E+02  0.91188000000E+02 0.  0.
    9900012    2    3    3    0    0 -0.15322601445E+02  0.15972294973E+02  0.29425859553E+02  0.54367115543E+02  0.40000071503E+02 0.  0.
         12    1    3    3    0    0  0.15322601445E+02 -0.15972294973E+02 -0.29425859553E+02  0.36820884457E+02  0.00000000000E+00 0. -1.
         11    1    4    4    0    0  0.67264948602E+01  0.76903186958E+01  0.12087039880E+02  0.15826663201E+02  0.51100000000E-03 0.  1.
        -11    1    4    4    0    0 -0.14545731737E+02 -0.68781654098E+01  0.30039938597E+01  0.16368000810E+02  0.51100000000E-03 0. -1.
        -12    1    4    4    0    0 -0.75033645685E+01  0.15160141687E+02  0.14334825813E+02  0.22172451532E+02  0.00000000000E+00 0.  1.
</event>
<event>
 8    1  0.1261983E-006  0.9118800E+02  0.7816164E-02  0.1184000E+00
        -11   -1    0    0    0    0  0.00000000000E+00  0.00000000000E+00  0.45593999997E+02  0.45594000000E+02  0.51100000000E-03 0.  1.
         11   -1    0    0    0    0 -0.00000000000E+00 -0.00000000000E+00 -0.45593999997E+02  0.45594000000E+02  0.51100000000E-03 0. -1.
         23    2    1    2    0    0  0.35527136788E-14 -0.35527136788E-14  0.00000000000E+00  0.91188000000E+02  0.91188000000E+02 0.  0.
    9900012    2    3    3    0    0 -0.21861409901E+02 -0.28583658684E+02  0.77995139078E+01  0.54367092844E+02  0.40000019756E+02 0.  0.
         12    1    3    3    0    0  0.21861409901E+02  0.28583658684E+02 -0.77995139078E+01  0.36820907156E+02  0.00000000000E+00 0. -1.
         11    1    4    4    0    0  0.99323183854E+01 -0.57673562267E+00  0.22884851174E+01  0.10208855807E+02  0.51100000000E-03 0. -1.
        -11    1    4    4    0    0 -0.32102206749E+02 -0.28115913207E+02  0.42839887982E+01  0.42888329577E+02  0.51100000000E-03 0.  1.
        -12    1    4    4    0    0  0.30847846305E+00  0.10899014612E+00  0.12270399923E+01  0.12699074599E+01  0.00000000000E+00 0.  1.
</event>
<event>
 8    1  0.1261983E-006  0.9118800E+02  0.7816164E-02  0.1184000E+00
        -11   -1    0    0    0    0  0.00000000000E+00  0.00000000000E+00  0.45593999997E+02  0.45594000000E+02  0.51100000000E-03 0. -1.
         11   -1    0    0    0    0 -0.00000000000E+00 -0.00000000000E+00 -0.45593999997E+02  0.45594000000E+02  0.51100000000E-03 0.  1.
         23    2    1    2    0    0  0.00000000000E+00  0.71054273576E-14  0.88817841970E-15  0.91188000000E+02  0.91188000000E+02 0.  0.
    9900012    2    3    3    0    0 -0.20723014256E+02 -0.29739145628E+02 -0.64745795218E+01  0.54367078196E+02  0.39999986362E+02 0.  0.
         12    1    3    3    0    0  0.20723014256E+02  0.29739145628E+02  0.64745795218E+01  0.36820921804E+02  0.00000000000E+00 0. -1.
         11    1    4    4    0    0 -0.11741149069E+02  0.98066161980E-01  0.81014611328E+01  0.14265268003E+02  0.51100000000E-03 0. -1.
        -11    1    4    4    0    0 -0.13239281385E+01 -0.28858301379E+02 -0.80405932019E+01  0.29986755135E+02  0.51100000000E-03 0.  1.
         12    1    4    4    0    0 -0.76579370480E+01 -0.97891041110E+00 -0.65354474526E+01  0.10115055058E+02  0.00000000000E+00 0. -1.
</event>
<event>
 8    1  0.1261983E-006  0.9118800E+02  0.7816164E-02  0.1184000E+00
        -11   -1    0    0    0    0  0.00000000000E+00  0.00000000000E+00  0.45593999997E+02  0.45594000000E+02  0.51100000000E-03 0.  1.
         11   -1    0    0    0    0 -0.00000000000E+00 -0.00000000000E+00 -0.45593999997E+02  0.45594000000E+02  0.51100000000E-03 0. -1.
         23    2    1    2    0    0  0.17763568394E-14 -0.35527136788E-14  0.00000000000E+00  0.91188000000E+02  0.91188000000E+02 0.  0.
    9900012    2    3    3    0    0 -0.11225601543E+02 -0.22236638588E+02 -0.27116307071E+02  0.54367131802E+02  0.40000108568E+02 0.  0.
        -12    1    3    3    0    0  0.11225601543E+02  0.22236638588E+02  0.27116307071E+02  0.36820868198E+02  0.00000000000E+00 0.  1.
         11    1    4    4    0    0 -0.27714545989E+01 -0.27944889522E+02 -0.30403596022E+02  0.41388119821E+02  0.51100000000E-03 0. -1.
        -11    1    4    4    0    0 -0.31968976783E+01  0.35478470496E+01 -0.20360254602E+01  0.51916060510E+01  0.51100000000E-03 0.  1.
         12    1    4    4    0    0 -0.52572492658E+01  0.21604038840E+01  0.53233144117E+01  0.77874059295E+01  0.00000000000E+00 0. -1.
</event>
<event>
 8    1  0.1261983E-006  0.9118800E+02  0.7816164E-02  0.1184000E+00
        -11   -1    0    0    0    0  0.00000000000E+00  0.00000000000E+00  0.45593999997E+02  0.45594000000E+02  0.51100000000E-03 0.  1.
         11   -1    0    0    0    0 -0.00000000000E+00 -0.00000000000E+00 -0.45593999997E+02  0.45594000000E+02  0.51100000000E-03 0. -1.
         23    2    1    2    0    0  0.00000000000E+00  0.00000000000E+00  0.44408920985E-15  0.91188000000E+02  0.91188000000E+02 0.  0.
    9900012    2    3    3    0    0  0.22527765154E+02  0.28986446404E+02  0.28401055131E+01  0.54367075551E+02  0.39999980334E+02 0.  0.
         12    1    3    3    0    0 -0.22527765154E+02 -0.28986446404E+02 -0.28401055131E+01  0.36820924449E+02  0.00000000000E+00 0. -1.
         11    1    4    4    0    0 -0.89895617991E+00  0.19631171438E+00 -0.16292678057E+01  0.18711425244E+01  0.51100000000E-03 0. -1.
        -11    1    4    4    0    0  0.14166425446E+01  0.22403580638E+02  0.15281011154E+02  0.27155783982E+02  0.51100000000E-03 0.  1.
        -12    1    4    4    0    0  0.22010078789E+02  0.63865540519E+01 -0.10811637835E+02  0.25340149045E+02  0.00000000000E+00 0.  1.
</event>
<event>
 8    1  0.1261983E-006  0.9118800E+02  0.7816164E-02  0.1184000E+00
        -11   -1    0    0    0    0  0.00000000000E+00  0.00000000000E+00  0.45593999997E+02  0.45594000000E+02  0.51100000000E-03 0.  1.
         11   -1    0    0    0    0 -0.00000000000E+00 -0.00000000000E+00 -0.45593999997E+02  0.45594000000E+02  0.51100000000E-03 0. -1.
         23    2    1    2    0    0  0.00000000000E+00  0.00000000000E+00  0.00000000000E+00  0.91188000000E+02  0.91188000000E+02 0.  0.
    9900012    2    3    3    0    0 -0.25332968628E+02 -0.25744510739E+02 -0.71581177469E+01  0.54367112146E+02  0.40000063759E+02 0.  0.
        -12    1    3    3    0    0  0.25332968628E+02  0.25744510739E+02  0.71581177469E+01  0.36820887854E+02  0.00000000000E+00 0.  1.
         11    1    4    4    0    0 -0.23967792917E+02 -0.13859491355E+02 -0.14068304811E+02  0.31055720865E+02  0.51100000000E-03 0. -1.
        -11    1    4    4    0    0 -0.72063580001E+01 -0.67168629824E+00 -0.23831501812E+01  0.76198532240E+01  0.51100000000E-03 0.  1.
        -12    1    4    4    0    0  0.58411822892E+01 -0.11213333086E+02  0.92933372453E+01  0.15691538056E+02  0.00000000000E+00 0.  1.
</event>
<event>
 8    1  0.1261983E-006  0.9118800E+02  0.7816164E-02  0.1184000E+00
        -11   -1    0    0    0    0  0.00000000000E+00  0.00000000000E+00  0.45593999997E+02  0.45594000000E+02  0.51100000000E-03 0.  1.
         11   -1    0    0    0    0 -0.00000000000E+00 -0.00000000000E+00 -0.45593999997E+02  0.45594000000E+02  0.51100000000E-03 0. -1.
         23    2    1    2    0    0  0.00000000000E+00  0.00000000000E+00  0.00000000000E+00  0.91188000000E+02  0.91188000000E+02 0.  0.
    9900012    2    3    3    0    0 -0.30192366532E+02  0.64730431009E+01  0.20057432016E+02  0.54367083894E+02  0.39999999353E+02 0.  0.
         12    1    3    3    0    0  0.30192366532E+02 -0.64730431009E+01 -0.20057432016E+02  0.36820916106E+02  0.00000000000E+00 0. -1.
         11    1    4    4    0    0  0.31358491900E+01  0.71529115386E+01 -0.34407726122E+01  0.85344367155E+01  0.51100000000E-03 0. -1.
        -11    1    4    4    0    0 -0.11663933108E+02  0.36832334582E+01  0.20020616641E+02  0.23461428669E+02  0.51100000000E-03 0.  1.
         12    1    4    4    0    0 -0.21664282615E+02 -0.43631018959E+01  0.34775879873E+01  0.22371218509E+02  0.00000000000E+00 0. -1.
</event>
<event>
 8    1  0.1261983E-006  0.9118800E+02  0.7816164E-02  0.1184000E+00
        -11   -1    0    0    0    0  0.00000000000E+00  0.00000000000E+00  0.45593999997E+02  0.45594000000E+02  0.51100000000E-03 0.  1.
         11   -1    0    0    0    0 -0.00000000000E+00 -0.00000000000E+00 -0.45593999997E+02  0.45594000000E+02  0.51100000000E-03 0. -1.
         23    2    1    2    0    0  0.17763568394E-14 -0.35527136788E-14  0.00000000000E+00  0.91188000000E+02  0.91188000000E+02 0.  0.
    9900012    2    3    3    0    0 -0.68254086556E+01  0.23965515648E+02  0.27108047639E+02  0.54367103890E+02  0.40000044937E+02 0.  0.
         12    1    3    3    0    0  0.68254086556E+01 -0.23965515648E+02 -0.27108047639E+02  0.36820896110E+02  0.00000000000E+00 0. -1.
         11    1    4    4    0    0 -0.86380369929E+01  0.14391424125E+02  0.12611921082E+02  0.20994983331E+02  0.51100000000E-03 0. -1.
        -11    1    4    4    0    0  0.14606529619E+02  0.87264056958E+01  0.10258707236E+02  0.19868113606E+02  0.51100000000E-03 0.  1.
         12    1    4    4    0    0 -0.12793901281E+02  0.84768582663E+00  0.42374193214E+01  0.13504006952E+02  0.00000000000E+00 0. -1.
</event>
<event>
 8    1  0.1261983E-006  0.9118800E+02  0.7816164E-02  0.1184000E+00
        -11   -1    0    0    0    0  0.00000000000E+00  0.00000000000E+00  0.45593999997E+02  0.45594000000E+02  0.51100000000E-03 0.  1.
         11   -1    0    0    0    0 -0.00000000000E+00 -0.00000000000E+00 -0.45593999997E+02  0.45594000000E+02  0.51100000000E-03 0. -1.
         23    2    1    2    0    0 -0.17763568394E-14  0.00000000000E+00  0.00000000000E+00  0.91188000000E+02  0.91188000000E+02 0.  0.
    9900012    2    3    3    0    0 -0.12778300030E+02 -0.34336105215E+02  0.36783258351E+01  0.54367039204E+02  0.39999897474E+02 0.  0.
        -12    1    3    3    0    0  0.12778300030E+02  0.34336105215E+02 -0.36783258351E+01  0.36820960796E+02  0.00000000000E+00 0.  1.
         11    1    4    4    0    0 -0.17464016366E+02 -0.22829920240E+02 -0.12149034047E+02  0.31205707080E+02  0.51100000000E-03 0. -1.
        -11    1    4    4    0    0  0.62225551295E+01 -0.20795123445E+01  0.10040131097E+02  0.11993698205E+02  0.51100000000E-03 0.  1.
         12    1    4    4    0    0 -0.15368387936E+01 -0.94266726298E+01  0.57872287851E+01  0.11167633919E+02  0.00000000000E+00 0. -1.
</event>
<event>
 8    1  0.1261983E-006  0.9118800E+02  0.7816164E-02  0.1184000E+00
        -11   -1    0    0    0    0  0.00000000000E+00  0.00000000000E+00  0.45593999997E+02  0.45594000000E+02  0.51100000000E-03 0.  1.
         11   -1    0    0    0    0 -0.00000000000E+00 -0.00000000000E+00 -0.45593999997E+02  0.45594000000E+02  0.51100000000E-03 0. -1.
         23    2    1    2    0    0  0.17763568394E-14 -0.17763568394E-14  0.00000000000E+00  0.91188000000E+02  0.91188000000E+02 0.  0.
    9900012    2    3    3    0    0 -0.86447733802E+01  0.10008209369E+02 -0.34363975345E+02  0.54367093397E+02  0.40000021018E+02 0.  0.
        -12    1    3    3    0    0  0.86447733802E+01 -0.10008209369E+02  0.34363975345E+02  0.36820906603E+02  0.00000000000E+00 0.  1.
         11    1    4    4    0    0 -0.75406720863E+01  0.41012501632E+01 -0.98278022578E+01  0.13048666058E+02  0.51100000000E-03 0. -1.
        -11    1    4    4    0    0 -0.12274006793E+02 -0.96089708682E+00  0.12651271020E+01  0.12376393369E+02  0.51100000000E-03 0.  1.
        -12    1    4    4    0    0  0.11169905500E+02  0.68678562921E+01 -0.25801300189E+02  0.28942033970E+02  0.00000000000E+00 0.  1.
</event>
<event>
 8    1  0.1261983E-006  0.9118800E+02  0.7816164E-02  0.1184000E+00
        -11   -1    0    0    0    0  0.00000000000E+00  0.00000000000E+00  0.45593999997E+02  0.45594000000E+02  0.51100000000E-03 0. -1.
         11   -1    0    0    0    0 -0.00000000000E+00 -0.00000000000E+00 -0.45593999997E+02  0.45594000000E+02  0.51100000000E-03 0.  1.
         23    2    1    2    0    0 -0.17763568394E-14  0.35527136788E-14  0.17763568394E-14  0.91188000000E+02  0.91188000000E+02 0.  0.
    9900012    2    3    3    0    0 -0.12554815528E+02 -0.31143797379E+02  0.15106936121E+02  0.54367095243E+02  0.40000025227E+02 0.  0.
        -12    1    3    3    0    0  0.12554815528E+02  0.31143797379E+02 -0.15106936121E+02  0.36820904757E+02  0.00000000000E+00 0.  1.
         11    1    4    4    0    0 -0.91560803418E+01  0.18893487616E+01  0.88481854221E+01  0.12872211601E+02  0.51100000000E-03 0. -1.
        -11    1    4    4    0    0 -0.63408770112E+00 -0.35218590225E+02  0.97349702888E+01  0.36544778169E+02  0.51100000000E-03 0.  1.
        -12    1    4    4    0    0 -0.27646474848E+01  0.21854440842E+01 -0.34762195902E+01  0.49501054736E+01  0.00000000000E+00 0.  1.
</event>
<event>
 8    1  0.1261983E-006  0.9118800E+02  0.7816164E-02  0.1184000E+00
        -11   -1    0    0    0    0  0.00000000000E+00  0.00000000000E+00  0.45593999997E+02  0.45594000000E+02  0.51100000000E-03 0. -1.
         11   -1    0    0    0    0 -0.00000000000E+00 -0.00000000000E+00 -0.45593999997E+02  0.45594000000E+02  0.51100000000E-03 0.  1.
         23    2    1    2    0    0  0.71054273576E-14  0.00000000000E+00 -0.17763568394E-14  0.91188000000E+02  0.91188000000E+02 0.  0.
    9900012    2    3    3    0    0  0.34061024952E+02 -0.53378275945E+01 -0.12928015609E+02  0.54367090020E+02  0.40000013318E+02 0.  0.
        -12    1    3    3    0    0 -0.34061024952E+02  0.53378275945E+01  0.12928015609E+02  0.36820909980E+02  0.00000000000E+00 0.  1.
         11    1    4    4    0    0  0.12768829378E+02  0.17130332365E+01 -0.46835589858E+01  0.13708143988E+02  0.51100000000E-03 0. -1.
        -11    1    4    4    0    0  0.17385745604E+02  0.16166820061E+01 -0.19334283993E+02  0.26051724486E+02  0.51100000000E-03 0.  1.
        -12    1    4    4    0    0  0.39064499688E+01 -0.86675428371E+01  0.11089827370E+02  0.14607221546E+02  0.00000000000E+00 0.  1.
</event>
<event>
 8    1  0.1261983E-006  0.9118800E+02  0.7816164E-02  0.1184000E+00
        -11   -1    0    0    0    0  0.00000000000E+00  0.00000000000E+00  0.45593999997E+02  0.45594000000E+02  0.51100000000E-03 0. -1.
         11   -1    0    0    0    0 -0.00000000000E+00 -0.00000000000E+00 -0.45593999997E+02  0.45594000000E+02  0.51100000000E-03 0.  1.
         23    2    1    2    0    0 -0.35527136788E-14  0.00000000000E+00  0.00000000000E+00  0.91188000000E+02  0.91188000000E+02 0.  0.
    9900012    2    3    3    0    0 -0.19674657150E+02 -0.29253815521E+02  0.10625536237E+02  0.54367083705E+02  0.39999998922E+02 0.  0.
        -12    1    3    3    0    0  0.19674657150E+02  0.29253815521E+02 -0.10625536237E+02  0.36820916295E+02  0.00000000000E+00 0.  1.
         11    1    4    4    0    0 -0.14137513562E+02 -0.20602113702E+02 -0.70261805268E+01  0.25955415461E+02  0.51100000000E-03 0. -1.
        -11    1    4    4    0    0  0.29188691534E+01  0.42821175586E+01  0.97829941359E+01  0.11070831154E+02  0.51100000000E-03 0.  1.
         12    1    4    4    0    0 -0.84560127414E+01 -0.12933819378E+02  0.78687226279E+01  0.17340837090E+02  0.00000000000E+00 0. -1.
</event>
<event>
 8    1  0.1261983E-006  0.9118800E+02  0.7816164E-02  0.1184000E+00
        -11   -1    0    0    0    0  0.00000000000E+00  0.00000000000E+00  0.45593999997E+02  0.45594000000E+02  0.51100000000E-03 0. -1.
         11   -1    0    0    0    0 -0.00000000000E+00 -0.00000000000E+00 -0.45593999997E+02  0.45594000000E+02  0.51100000000E-03 0.  1.
         23    2    1    2    0    0  0.00000000000E+00  0.00000000000E+00  0.00000000000E+00  0.91188000000E+02  0.91188000000E+02 0.  0.
    9900012    2    3    3    0    0 -0.26804349713E+02 -0.14502657576E+02  0.20663581116E+02  0.54367030094E+02  0.39999876705E+02 0.  0.
         12    1    3    3    0    0  0.26804349713E+02  0.14502657576E+02 -0.20663581116E+02  0.36820969906E+02  0.00000000000E+00 0. -1.
         11    1    4    4    0    0 -0.88998070556E+01 -0.15386721602E+01  0.32223017102E+01  0.95894372210E+01  0.51100000000E-03 0. -1.
        -11    1    4    4    0    0 -0.13728101710E+02 -0.23226977231E+02  0.38686997593E+01  0.27256560420E+02  0.51100000000E-03 0.  1.
        -12    1    4    4    0    0 -0.41764409473E+01  0.10262991814E+02  0.13572579646E+02  0.17521032453E+02  0.00000000000E+00 0.  1.
</event>
<event>
 8    1  0.1261983E-006  0.9118800E+02  0.7816164E-02  0.1184000E+00
        -11   -1    0    0    0    0  0.00000000000E+00  0.00000000000E+00  0.45593999997E+02  0.45594000000E+02  0.51100000000E-03 0. -1.
         11   -1    0    0    0    0 -0.00000000000E+00 -0.00000000000E+00 -0.45593999997E+02  0.45594000000E+02  0.51100000000E-03 0.  1.
         23    2    1    2    0    0 -0.35527136788E-14  0.00000000000E+00 -0.35527136788E-14  0.91188000000E+02  0.91188000000E+02 0.  0.
    9900012    2    3    3    0    0  0.14516628894E+02 -0.15483050349E+02  0.30088542343E+02  0.54367112682E+02  0.40000064980E+02 0.  0.
        -12    1    3    3    0    0 -0.14516628894E+02  0.15483050349E+02 -0.30088542343E+02  0.36820887318E+02  0.00000000000E+00 0.  1.
         11    1    4    4    0    0 -0.84233212565E-01 -0.48509299098E+01  0.90592897437E+01  0.10276640849E+02  0.51100000000E-03 0. -1.
        -11    1    4    4    0    0 -0.88772699416E+01  0.21264216067E+01  0.13558289551E+02  0.16344870947E+02  0.51100000000E-03 0.  1.
         12    1    4    4    0    0  0.23478132048E+02 -0.12758542046E+02  0.74709630486E+01  0.27745600886E+02  0.00000000000E+00 0. -1.
</event>
<event>
 8    1  0.1261983E-006  0.9118800E+02  0.7816164E-02  0.1184000E+00
        -11   -1    0    0    0    0  0.00000000000E+00  0.00000000000E+00  0.45593999997E+02  0.45594000000E+02  0.51100000000E-03 0.  1.
         11   -1    0    0    0    0 -0.00000000000E+00 -0.00000000000E+00 -0.45593999997E+02  0.45594000000E+02  0.51100000000E-03 0. -1.
         23    2    1    2    0    0  0.00000000000E+00  0.00000000000E+00 -0.35527136788E-14  0.91188000000E+02  0.91188000000E+02 0.  0.
    9900012    2    3    3    0    0 -0.32088649434E+02  0.36253140999E+01 -0.17690537974E+02  0.54367089383E+02  0.40000011866E+02 0.  0.
        -12    1    3    3    0    0  0.32088649434E+02 -0.36253140999E+01  0.17690537974E+02  0.36820910617E+02  0.00000000000E+00 0.  1.
         11    1    4    4    0    0 -0.11692099918E+02  0.45017183452E+01  0.22789639150E+01  0.12734376519E+02  0.51100000000E-03 0.  1.
        -11    1    4    4    0    0  0.39477073666E+01 -0.67310274060E+01 -0.13787379407E+02  0.15842441560E+02  0.51100000000E-03 0. -1.
         12    1    4    4    0    0 -0.24344256883E+02  0.58546231607E+01 -0.61821224822E+01  0.25790271304E+02  0.00000000000E+00 0. -1.
</event>
<event>
 8    1  0.1261983E-006  0.9118800E+02  0.7816164E-02  0.1184000E+00
        -11   -1    0    0    0    0  0.00000000000E+00  0.00000000000E+00  0.45593999997E+02  0.45594000000E+02  0.51100000000E-03 0. -1.
         11   -1    0    0    0    0 -0.00000000000E+00 -0.00000000000E+00 -0.45593999997E+02  0.45594000000E+02  0.51100000000E-03 0.  1.
         23    2    1    2    0    0 -0.22204460493E-14  0.00000000000E+00  0.00000000000E+00  0.91188000000E+02  0.91188000000E+02 0.  0.
    9900012    2    3    3    0    0  0.34841420489E+01  0.36653981996E+02  0.35517069637E+00  0.54367084909E+02  0.40000001666E+02 0.  0.
        -12    1    3    3    0    0 -0.34841420489E+01 -0.36653981996E+02 -0.35517069637E+00  0.36820915091E+02  0.00000000000E+00 0.  1.
         11    1    4    4    0    0 -0.77107698438E+01  0.17103638825E+02 -0.16203361589E+01  0.18831248556E+02  0.51100000000E-03 0. -1.
        -11    1    4    4    0    0 -0.23107120059E+01  0.21655622969E+02  0.19659495078E+01  0.21867106665E+02  0.51100000000E-03 0.  1.
         12    1    4    4    0    0  0.13505623899E+02 -0.21052797992E+01  0.95573474954E-02  0.13668729687E+02  0.00000000000E+00 0. -1.
</event>
<event>
 8    1  0.1261983E-006  0.9118800E+02  0.7816164E-02  0.1184000E+00
        -11   -1    0    0    0    0  0.00000000000E+00  0.00000000000E+00  0.45593999997E+02  0.45594000000E+02  0.51100000000E-03 0.  1.
         11   -1    0    0    0    0 -0.00000000000E+00 -0.00000000000E+00 -0.45593999997E+02  0.45594000000E+02  0.51100000000E-03 0. -1.
         23    2    1    2    0    0  0.00000000000E+00 -0.16653345369E-14  0.00000000000E+00  0.91188000000E+02  0.91188000000E+02 0.  0.
    9900012    2    3    3    0    0 -0.34035059350E+02 -0.71294509163E+00  0.14031647554E+02  0.54367072680E+02  0.39999973788E+02 0.  0.
        -12    1    3    3    0    0  0.34035059350E+02  0.71294509163E+00 -0.14031647554E+02  0.36820927320E+02  0.00000000000E+00 0.  1.
         11    1    4    4    0    0 -0.26152850205E+02 -0.14106946444E+02  0.14680542426E+02  0.33143564051E+02  0.51100000000E-03 0. -1.
        -11    1    4    4    0    0  0.39482394230E+01  0.21287417183E+01  0.15376979060E+01  0.47417982829E+01  0.51100000000E-03 0.  1.
         12    1    4    4    0    0 -0.11830448568E+02  0.11265259634E+02 -0.21865927782E+01  0.16481710346E+02  0.00000000000E+00 0. -1.
</event>
<event>
 8    1  0.1261983E-006  0.9118800E+02  0.7816164E-02  0.1184000E+00
        -11   -1    0    0    0    0  0.00000000000E+00  0.00000000000E+00  0.45593999997E+02  0.45594000000E+02  0.51100000000E-03 0.  1.
         11   -1    0    0    0    0 -0.00000000000E+00 -0.00000000000E+00 -0.45593999997E+02  0.45594000000E+02  0.51100000000E-03 0. -1.
         23    2    1    2    0    0  0.88817841970E-15  0.00000000000E+00  0.00000000000E+00  0.91188000000E+02  0.91188000000E+02 0.  0.
    9900012    2    3    3    0    0 -0.52584621275E+01 -0.76525235357E+00 -0.36435461607E+02  0.54367083422E+02  0.39999998277E+02 0.  0.
        -12    1    3    3    0    0  0.52584621275E+01  0.76525235357E+00  0.36435461607E+02  0.36820916578E+02  0.00000000000E+00 0.  1.
         11    1    4    4    0    0  0.79171261987E+01 -0.10631539256E+01  0.13843953831E+01  0.81072642952E+01  0.51100000000E-03 0. -1.
        -11    1    4    4    0    0  0.36454191134E+01  0.21453016447E+01  0.60584526686E+00  0.42729905696E+01  0.51100000000E-03 0.  1.
         12    1    4    4    0    0 -0.16821007440E+02 -0.18474000728E+01 -0.38425702257E+02  0.41986828557E+02  0.00000000000E+00 0. -1.
</event>
<event>
 8    1  0.1261983E-006  0.9118800E+02  0.7816164E-02  0.1184000E+00
        -11   -1    0    0    0    0  0.00000000000E+00  0.00000000000E+00  0.45593999997E+02  0.45594000000E+02  0.51100000000E-03 0.  1.
         11   -1    0    0    0    0 -0.00000000000E+00 -0.00000000000E+00 -0.45593999997E+02  0.45594000000E+02  0.51100000000E-03 0. -1.
         23    2    1    2    0    0  0.00000000000E+00 -0.35527136788E-14  0.00000000000E+00  0.91188000000E+02  0.91188000000E+02 0.  0.
    9900012    2    3    3    0    0  0.81266012724E+01 -0.17433723551E+02  0.31397485941E+02  0.54367102557E+02  0.40000041899E+02 0.  0.
         12    1    3    3    0    0 -0.81266012724E+01  0.17433723551E+02 -0.31397485941E+02  0.36820897443E+02  0.00000000000E+00 0. -1.
         11    1    4    4    0    0  0.21483286143E+01 -0.59326901271E+01 -0.34809468521E+01  0.72061861777E+01  0.51100000000E-03 0. -1.
        -11    1    4    4    0    0  0.12341736203E+02  0.92332250628E+00  0.29866575117E+02  0.32329294555E+02  0.51100000000E-03 0.  1.
        -12    1    4    4    0    0 -0.63634635446E+01 -0.12424355931E+02  0.50118576760E+01  0.14831621824E+02  0.00000000000E+00 0.  1.
</event>
<event>
 8    1  0.1261983E-006  0.9118800E+02  0.7816164E-02  0.1184000E+00
        -11   -1    0    0    0    0  0.00000000000E+00  0.00000000000E+00  0.45593999997E+02  0.45594000000E+02  0.51100000000E-03 0. -1.
         11   -1    0    0    0    0 -0.00000000000E+00 -0.00000000000E+00 -0.45593999997E+02  0.45594000000E+02  0.51100000000E-03 0.  1.
         23    2    1    2    0    0 -0.71054273576E-14  0.00000000000E+00  0.35527136788E-14  0.91188000000E+02  0.91188000000E+02 0.  0.
    9900012    2    3    3    0    0 -0.34441210271E+02 -0.63070595748E+01  0.11393163149E+02  0.54367080240E+02  0.39999991023E+02 0.  0.
        -12    1    3    3    0    0  0.34441210271E+02  0.63070595748E+01 -0.11393163149E+02  0.36820919760E+02  0.00000000000E+00 0.  1.
         11    1    4    4    0    0 -0.64534498840E+00 -0.90241224318E+01  0.46305608545E+01  0.10163333602E+02  0.51100000000E-03 0. -1.
        -11    1    4    4    0    0  0.31519709551E+01 -0.43755849779E+01 -0.16749284632E+01  0.56467734520E+01  0.51100000000E-03 0.  1.
         12    1    4    4    0    0 -0.36947836238E+02  0.70926478349E+01  0.84375307578E+01  0.38556973186E+02  0.00000000000E+00 0. -1.
</event>
<event>
 8    1  0.1261983E-006  0.9118800E+02  0.7816164E-02  0.1184000E+00
        -11   -1    0    0    0    0  0.00000000000E+00  0.00000000000E+00  0.45593999997E+02  0.45594000000E+02  0.51100000000E-03 0.  1.
         11   -1    0    0    0    0 -0.00000000000E+00 -0.00000000000E+00 -0.45593999997E+02  0.45594000000E+02  0.51100000000E-03 0. -1.
         23    2    1    2    0    0  0.00000000000E+00  0.00000000000E+00  0.44408920985E-15  0.91188000000E+02  0.91188000000E+02 0.  0.
    9900012    2    3    3    0    0  0.24093683567E+01 -0.36708273946E+02 -0.15749528385E+01  0.54367042538E+02  0.39999905073E+02 0.  0.
         12    1    3    3    0    0 -0.24093683567E+01  0.36708273946E+02  0.15749528385E+01  0.36820957462E+02  0.00000000000E+00 0. -1.
         11    1    4    4    0    0  0.62469090600E+01 -0.32366000813E+01  0.98852267677E+01  0.12133307933E+02  0.51100000000E-03 0. -1.
        -11    1    4    4    0    0 -0.21825078649E+01 -0.60345535402E+01  0.67094900666E+01  0.92842034782E+01  0.51100000000E-03 0.  1.
         12    1    4    4    0    0 -0.16550328383E+01 -0.27437120325E+02 -0.18169669673E+02  0.32949531126E+02  0.00000000000E+00 0. -1.
</event>
<event>
 8    1  0.1261983E-006  0.9118800E+02  0.7816164E-02  0.1184000E+00
        -11   -1    0    0    0    0  0.00000000000E+00  0.00000000000E+00  0.45593999997E+02  0.45594000000E+02  0.51100000000E-03 0.  1.
         11   -1    0    0    0    0 -0.00000000000E+00 -0.00000000000E+00 -0.45593999997E+02  0.45594000000E+02  0.51100000000E-03 0. -1.
         23    2    1    2    0    0  0.00000000000E+00 -0.35527136788E-14 -0.17763568394E-14  0.91188000000E+02  0.91188000000E+02 0.  0.
    9900012    2    3    3    0    0 -0.22923116147E+02 -0.26706757203E+02  0.10819475684E+02  0.54367065896E+02  0.39999958323E+02 0.  0.
         12    1    3    3    0    0  0.22923116147E+02  0.26706757203E+02 -0.10819475684E+02  0.36820934104E+02  0.00000000000E+00 0. -1.
         11    1    4    4    0    0 -0.13945017647E+02  0.20353800454E+01  0.16416029762E+02  0.21635441353E+02  0.51100000000E-03 0. -1.
        -11    1    4    4    0    0 -0.11537695565E+02 -0.21796881235E+02 -0.28064762718E+01  0.24821336786E+02  0.51100000000E-03 0.  1.
         12    1    4    4    0    0  0.25595970649E+01 -0.69452560144E+01 -0.27900778067E+01  0.79102877576E+01  0.00000000000E+00 0. -1.
</event>
<event>
 8    1  0.1261983E-006  0.9118800E+02  0.7816164E-02  0.1184000E+00
        -11   -1    0    0    0    0  0.00000000000E+00  0.00000000000E+00  0.45593999997E+02  0.45594000000E+02  0.51100000000E-03 0. -1.
         11   -1    0    0    0    0 -0.00000000000E+00 -0.00000000000E+00 -0.45593999997E+02  0.45594000000E+02  0.51100000000E-03 0.  1.
         23    2    1    2    0    0  0.00000000000E+00  0.00000000000E+00  0.00000000000E+00  0.91188000000E+02  0.91188000000E+02 0.  0.
    9900012    2    3    3    0    0 -0.29370822715E+02 -0.20870133713E+02 -0.75876663481E+01  0.54367076753E+02  0.39999983073E+02 0.  0.
        -12    1    3    3    0    0  0.29370822715E+02  0.20870133713E+02  0.75876663481E+01  0.36820923247E+02  0.00000000000E+00 0.  1.
         11    1    4    4    0    0 -0.17885248072E+02  0.38720639661E+01 -0.12822166962E+01  0.18344455781E+02  0.51100000000E-03 0. -1.
        -11    1    4    4    0    0 -0.12318859726E+02 -0.27254302391E+02 -0.80655150118E+00  0.29919923619E+02  0.51100000000E-03 0.  1.
        -12    1    4    4    0    0  0.83328508276E+00  0.25121047121E+01 -0.54988981507E+01  0.61026973533E+01  0.00000000000E+00 0.  1.
</event>
<event>
 8    1  0.1261983E-006  0.9118800E+02  0.7816164E-02  0.1184000E+00
        -11   -1    0    0    0    0  0.00000000000E+00  0.00000000000E+00  0.45593999997E+02  0.45594000000E+02  0.51100000000E-03 0.  1.
         11   -1    0    0    0    0 -0.00000000000E+00 -0.00000000000E+00 -0.45593999997E+02  0.45594000000E+02  0.51100000000E-03 0. -1.
         23    2    1    2    0    0 -0.71054273576E-14 -0.17763568394E-14  0.00000000000E+00  0.91188000000E+02  0.91188000000E+02 0.  0.
    9900012    2    3    3    0    0  0.33634729266E+02  0.12647210542E+02  0.80331671335E+01  0.54367099394E+02  0.40000034688E+02 0.  0.
        -12    1    3    3    0    0 -0.33634729266E+02 -0.12647210542E+02 -0.80331671335E+01  0.36820900606E+02  0.00000000000E+00 0.  1.
         11    1    4    4    0    0 -0.47387325721E+01 -0.11046808200E+01 -0.98213303538E+00  0.49639189824E+01  0.51100000000E-03 0. -1.
        -11    1    4    4    0    0  0.88177894094E+01  0.10811620157E+02  0.13442079029E+02  0.19373539413E+02  0.51100000000E-03 0.  1.
         12    1    4    4    0    0  0.29555672428E+02  0.29402712044E+01 -0.44267788599E+01  0.30029640999E+02  0.00000000000E+00 0. -1.
</event>
<event>
 8    1  0.1261983E-006  0.9118800E+02  0.7816164E-02  0.1184000E+00
        -11   -1    0    0    0    0  0.00000000000E+00  0.00000000000E+00  0.45593999997E+02  0.45594000000E+02  0.51100000000E-03 0.  1.
         11   -1    0    0    0    0 -0.00000000000E+00 -0.00000000000E+00 -0.45593999997E+02  0.45594000000E+02  0.51100000000E-03 0. -1.
         23    2    1    2    0    0  0.00000000000E+00  0.00000000000E+00  0.00000000000E+00  0.91188000000E+02  0.91188000000E+02 0.  0.
    9900012    2    3    3    0    0 -0.32496770285E+02  0.13784892865E+02  0.10474558855E+02  0.54367085651E+02  0.40000003360E+02 0.  0.
         12    1    3    3    0    0  0.32496770285E+02 -0.13784892865E+02 -0.10474558855E+02  0.36820914349E+02  0.00000000000E+00 0. -1.
         11    1    4    4    0    0 -0.23143239190E+02  0.79227300633E+01  0.59879392840E+01  0.25184014552E+02  0.51100000000E-03 0. -1.
        -11    1    4    4    0    0 -0.17720184911E+02 -0.11950165032E+01  0.14255107744E+01  0.17817550307E+02  0.51100000000E-03 0.  1.
         12    1    4    4    0    0  0.83666538154E+01  0.70571793051E+01  0.30611087966E+01  0.11365520792E+02  0.00000000000E+00 0. -1.
</event>
<event>
 8    1  0.1261983E-006  0.9118800E+02  0.7816164E-02  0.1184000E+00
        -11   -1    0    0    0    0  0.00000000000E+00  0.00000000000E+00  0.45593999997E+02  0.45594000000E+02  0.51100000000E-03 0. -1.
         11   -1    0    0    0    0 -0.00000000000E+00 -0.00000000000E+00 -0.45593999997E+02  0.45594000000E+02  0.51100000000E-03 0.  1.
         23    2    1    2    0    0  0.00000000000E+00  0.00000000000E+00 -0.17763568394E-14  0.91188000000E+02  0.91188000000E+02 0.  0.
    9900012    2    3    3    0    0 -0.95041952534E+01 -0.33802144807E+02 -0.11084410751E+02  0.54367097204E+02  0.40000029697E+02 0.  0.
         12    1    3    3    0    0  0.95041952534E+01  0.33802144807E+02  0.11084410751E+02  0.36820902796E+02  0.00000000000E+00 0. -1.
         11    1    4    4    0    0 -0.45781917132E+01  0.65926654893E+01  0.63679398701E+00  0.80516199898E+01  0.51100000000E-03 0. -1.
        -11    1    4    4    0    0  0.19938686469E+01 -0.15938462691E+01 -0.59597590154E+01  0.64834085089E+01  0.51100000000E-03 0.  1.
        -12    1    4    4    0    0 -0.69198721871E+01 -0.38800964028E+02 -0.57614457228E+01  0.39832068706E+02  0.00000000000E+00 0.  1.
</event>
<event>
 8    1  0.1261983E-006  0.9118800E+02  0.7816164E-02  0.1184000E+00
        -11   -1    0    0    0    0  0.00000000000E+00  0.00000000000E+00  0.45593999997E+02  0.45594000000E+02  0.51100000000E-03 0. -1.
         11   -1    0    0    0    0 -0.00000000000E+00 -0.00000000000E+00 -0.45593999997E+02  0.45594000000E+02  0.51100000000E-03 0.  1.
         23    2    1    2    0    0  0.71054273576E-14  0.17763568394E-14 -0.35527136788E-14  0.91188000000E+02  0.91188000000E+02 0.  0.
    9900012    2    3    3    0    0  0.23198684619E+02  0.91593649114E+01 -0.27087241981E+02  0.54366924354E+02  0.39999635647E+02 0.  0.
         12    1    3    3    0    0 -0.23198684619E+02 -0.91593649114E+01  0.27087241981E+02  0.36821075646E+02  0.00000000000E+00 0. -1.
         11    1    4    4    0    0  0.61132886583E+01  0.18064354478E+02 -0.67485093533E+01  0.20229571910E+02  0.51100000000E-03 0. -1.
        -11    1    4    4    0    0  0.94455906462E+01  0.54724921823E+01 -0.10308940619E+02  0.15014713127E+02  0.51100000000E-03 0.  1.
         12    1    4    4    0    0  0.76398053142E+01 -0.14377481749E+02 -0.10029792009E+02  0.19122639316E+02  0.00000000000E+00 0. -1.
</event>
<event>
 8    1  0.1261983E-006  0.9118800E+02  0.7816164E-02  0.1184000E+00
        -11   -1    0    0    0    0  0.00000000000E+00  0.00000000000E+00  0.45593999997E+02  0.45594000000E+02  0.51100000000E-03 0.  1.
         11   -1    0    0    0    0 -0.00000000000E+00 -0.00000000000E+00 -0.45593999997E+02  0.45594000000E+02  0.51100000000E-03 0. -1.
         23    2    1    2    0    0 -0.17763568394E-14  0.00000000000E+00  0.71054273576E-14  0.91188000000E+02  0.91188000000E+02 0.  0.
    9900012    2    3    3    0    0 -0.10221501827E+02  0.20288277278E+02  0.28977334425E+02  0.54367092828E+02  0.40000019721E+02 0.  0.
         12    1    3    3    0    0  0.10221501827E+02 -0.20288277278E+02 -0.28977334425E+02  0.36820907172E+02  0.00000000000E+00 0. -1.
         11    1    4    4    0    0  0.57693860334E+00  0.10715240293E+02  0.30953079179E+01  0.11168265938E+02  0.51100000000E-03 0. -1.
        -11    1    4    4    0    0 -0.41597065081E+01 -0.21530639931E+01  0.28993423669E+02  0.29369328543E+02  0.51100000000E-03 0.  1.
         12    1    4    4    0    0 -0.66387339227E+01  0.11726100979E+02 -0.31113971611E+01  0.13829498348E+02  0.00000000000E+00 0. -1.
</event>
<event>
 8    1  0.1261983E-006  0.9118800E+02  0.7816164E-02  0.1184000E+00
        -11   -1    0    0    0    0  0.00000000000E+00  0.00000000000E+00  0.45593999997E+02  0.45594000000E+02  0.51100000000E-03 0. -1.
         11   -1    0    0    0    0 -0.00000000000E+00 -0.00000000000E+00 -0.45593999997E+02  0.45594000000E+02  0.51100000000E-03 0.  1.
         23    2    1    2    0    0  0.88817841970E-15 -0.35527136788E-14  0.00000000000E+00  0.91188000000E+02  0.91188000000E+02 0.  0.
    9900012    2    3    3    0    0 -0.16930142336E+01 -0.29442669253E+02 -0.22046388310E+02  0.54367077857E+02  0.39999985590E+02 0.  0.
         12    1    3    3    0    0  0.16930142336E+01  0.29442669253E+02  0.22046388310E+02  0.36820922143E+02  0.00000000000E+00 0. -1.
         11    1    4    4    0    0  0.82311591996E+01 -0.11339685674E+01  0.58538060161E+01  0.10163902381E+02  0.51100000000E-03 0. -1.
        -11    1    4    4    0    0 -0.85702513292E+01 -0.28732436224E+02 -0.19688312949E+02  0.35869649653E+02  0.51100000000E-03 0.  1.
        -12    1    4    4    0    0 -0.13539221039E+01  0.42373553778E+00 -0.82118813776E+01  0.83335258222E+01  0.00000000000E+00 0.  1.
</event>
<event>
 8    1  0.1261983E-006  0.9118800E+02  0.7816164E-02  0.1184000E+00
        -11   -1    0    0    0    0  0.00000000000E+00  0.00000000000E+00  0.45593999997E+02  0.45594000000E+02  0.51100000000E-03 0.  1.
         11   -1    0    0    0    0 -0.00000000000E+00 -0.00000000000E+00 -0.45593999997E+02  0.45594000000E+02  0.51100000000E-03 0. -1.
         23    2    1    2    0    0 -0.35527136788E-14 -0.88817841970E-15  0.35527136788E-14  0.91188000000E+02  0.91188000000E+02 0.  0.
    9900012    2    3    3    0    0  0.22007913193E+02  0.61299242658E+01 -0.28876561180E+02  0.54367082030E+02  0.39999995103E+02 0.  0.
         12    1    3    3    0    0 -0.22007913193E+02 -0.61299242658E+01  0.28876561180E+02  0.36820917970E+02  0.00000000000E+00 0. -1.
         11    1    4    4    0    0  0.24342033361E+02 -0.63592217397E+01 -0.23106560927E+02  0.34159734300E+02  0.51100000000E-03 0. -1.
        -11    1    4    4    0    0 -0.15159795413E+01  0.17384617766E+01  0.46641963727E+01  0.52033807647E+01  0.51100000000E-03 0.  1.
         12    1    4    4    0    0 -0.81814062748E+00  0.10750684229E+02 -0.10434196626E+02  0.15003966965E+02  0.00000000000E+00 0. -1.
</event>
<event>
 8    1  0.1261983E-006  0.9118800E+02  0.7816164E-02  0.1184000E+00
        -11   -1    0    0    0    0  0.00000000000E+00  0.00000000000E+00  0.45593999997E+02  0.45594000000E+02  0.51100000000E-03 0.  1.
         11   -1    0    0    0    0 -0.00000000000E+00 -0.00000000000E+00 -0.45593999997E+02  0.45594000000E+02  0.51100000000E-03 0. -1.
         23    2    1    2    0    0  0.00000000000E+00  0.88817841970E-15  0.00000000000E+00  0.91188000000E+02  0.91188000000E+02 0.  0.
    9900012    2    3    3    0    0 -0.19935344348E+02 -0.29379983180E+01  0.30817690570E+02  0.54367084198E+02  0.40000000047E+02 0.  0.
         12    1    3    3    0    0  0.19935344348E+02  0.29379983180E+01 -0.30817690570E+02  0.36820915802E+02  0.00000000000E+00 0. -1.
         11    1    4    4    0    0 -0.59588015225E+01  0.84430609884E+01  0.16060715716E+02  0.19098146088E+02  0.51100000000E-03 0. -1.
        -11    1    4    4    0    0 -0.14360578499E+01  0.73711675516E+00  0.17535910308E+02  0.17610046958E+02  0.51100000000E-03 0.  1.
        -12    1    4    4    0    0 -0.12540484975E+02 -0.12118176062E+02 -0.27789354540E+01  0.17658891152E+02  0.00000000000E+00 0.  1.
</event>
<event>
 8    1  0.1261983E-006  0.9118800E+02  0.7816164E-02  0.1184000E+00
        -11   -1    0    0    0    0  0.00000000000E+00  0.00000000000E+00  0.45593999997E+02  0.45594000000E+02  0.51100000000E-03 0. -1.
         11   -1    0    0    0    0 -0.00000000000E+00 -0.00000000000E+00 -0.45593999997E+02  0.45594000000E+02  0.51100000000E-03 0.  1.
         23    2    1    2    0    0 -0.88817841970E-15  0.17763568394E-14  0.00000000000E+00  0.91188000000E+02  0.91188000000E+02 0.  0.
    9900012    2    3    3    0    0  0.56011595287E+01 -0.93389009730E+01  0.35173729975E+02  0.54367090997E+02  0.40000015546E+02 0.  0.
        -12    1    3    3    0    0 -0.56011595287E+01  0.93389009730E+01 -0.35173729975E+02  0.36820909003E+02  0.00000000000E+00 0.  1.
         11    1    4    4    0    0  0.10064828013E+02 -0.98006578249E+01  0.36508394250E+01  0.14514898742E+02  0.51100000000E-03 0. -1.
        -11    1    4    4    0    0  0.68952560533E+01 -0.61272909191E+00  0.66711955189E+00  0.69544979502E+01  0.51100000000E-03 0.  1.
         12    1    4    4    0    0 -0.11358924538E+02  0.10744859438E+01  0.30855770998E+02  0.32897694305E+02  0.00000000000E+00 0. -1.
</event>
<event>
 8    1  0.1261983E-006  0.9118800E+02  0.7816164E-02  0.1184000E+00
        -11   -1    0    0    0    0  0.00000000000E+00  0.00000000000E+00  0.45593999997E+02  0.45594000000E+02  0.51100000000E-03 0.  1.
         11   -1    0    0    0    0 -0.00000000000E+00 -0.00000000000E+00 -0.45593999997E+02  0.45594000000E+02  0.51100000000E-03 0. -1.
         23    2    1    2    0    0 -0.35527136788E-14  0.00000000000E+00  0.00000000000E+00  0.91188000000E+02  0.91188000000E+02 0.  0.
    9900012    2    3    3    0    0 -0.17949729549E+02 -0.22074239699E+02  0.23373393165E+02  0.54367077181E+02  0.39999984050E+02 0.  0.
        -12    1    3    3    0    0  0.17949729549E+02  0.22074239699E+02 -0.23373393165E+02  0.36820922819E+02  0.00000000000E+00 0.  1.
         11    1    4    4    0    0 -0.30490971731E+02 -0.16177462715E+02  0.16408410903E+02  0.38218393551E+02  0.51100000000E-03 0.  1.
        -11    1    4    4    0    0  0.10705000790E+01  0.20939735331E-02 -0.56759896158E+00  0.12116697760E+01  0.51100000000E-03 0. -1.
        -12    1    4    4    0    0  0.11470742104E+02 -0.58988709576E+01  0.75325812242E+01  0.14937013854E+02  0.00000000000E+00 0.  1.
</event>
<event>
 8    1  0.1261983E-006  0.9118800E+02  0.7816164E-02  0.1184000E+00
        -11   -1    0    0    0    0  0.00000000000E+00  0.00000000000E+00  0.45593999997E+02  0.45594000000E+02  0.51100000000E-03 0.  1.
         11   -1    0    0    0    0 -0.00000000000E+00 -0.00000000000E+00 -0.45593999997E+02  0.45594000000E+02  0.51100000000E-03 0. -1.
         23    2    1    2    0    0  0.17763568394E-14  0.00000000000E+00  0.35527136788E-14  0.91188000000E+02  0.91188000000E+02 0.  0.
    9900012    2    3    3    0    0  0.14561451391E+02  0.28897643406E+02  0.17569032410E+02  0.54367074416E+02  0.39999977746E+02 0.  0.
         12    1    3    3    0    0 -0.14561451391E+02 -0.28897643406E+02 -0.17569032410E+02  0.36820925584E+02  0.00000000000E+00 0. -1.
         11    1    4    4    0    0  0.49082990863E+01  0.24640501062E+02  0.15034764696E+01  0.25169547757E+02  0.51100000000E-03 0. -1.
        -11    1    4    4    0    0 -0.25038660452E+00  0.11486537005E+02  0.11079081918E+02  0.15960867214E+02  0.51100000000E-03 0.  1.
         12    1    4    4    0    0  0.99035389089E+01 -0.72293946613E+01  0.49864740221E+01  0.13236659445E+02  0.00000000000E+00 0. -1.
</event>
<event>
 8    1  0.1261983E-006  0.9118800E+02  0.7816164E-02  0.1184000E+00
        -11   -1    0    0    0    0  0.00000000000E+00  0.00000000000E+00  0.45593999997E+02  0.45594000000E+02  0.51100000000E-03 0.  1.
         11   -1    0    0    0    0 -0.00000000000E+00 -0.00000000000E+00 -0.45593999997E+02  0.45594000000E+02  0.51100000000E-03 0. -1.
         23    2    1    2    0    0  0.00000000000E+00  0.88817841970E-15  0.71054273576E-14  0.91188000000E+02  0.91188000000E+02 0.  0.
    9900012    2    3    3    0    0  0.13793985165E+02  0.49660281703E+01  0.33776371246E+02  0.54367099453E+02  0.40000034824E+02 0.  0.
         12    1    3    3    0    0 -0.13793985165E+02 -0.49660281703E+01 -0.33776371246E+02  0.36820900547E+02  0.00000000000E+00 0. -1.
         11    1    4    4    0    0 -0.55041577070E+01  0.10413007097E+02  0.21114254664E+02  0.24177225216E+02  0.51100000000E-03 0. -1.
        -11    1    4    4    0    0  0.10058649403E+02 -0.31821948711E+01  0.16782308647E+02  0.19822933077E+02  0.51100000000E-03 0.  1.
         12    1    4    4    0    0  0.92394934692E+01 -0.22647840557E+01 -0.41201920643E+01  0.10366941161E+02  0.00000000000E+00 0. -1.
</event>
<event>
 8    1  0.1261983E-006  0.9118800E+02  0.7816164E-02  0.1184000E+00
        -11   -1    0    0    0    0  0.00000000000E+00  0.00000000000E+00  0.45593999997E+02  0.45594000000E+02  0.51100000000E-03 0.  1.
         11   -1    0    0    0    0 -0.00000000000E+00 -0.00000000000E+00 -0.45593999997E+02  0.45594000000E+02  0.51100000000E-03 0. -1.
         23    2    1    2    0    0  0.17763568394E-14  0.00000000000E+00  0.00000000000E+00  0.91188000000E+02  0.91188000000E+02 0.  0.
    9900012    2    3    3    0    0 -0.94583265724E+01  0.35368013181E+02 -0.39271759962E+01  0.54367095486E+02  0.40000025779E+02 0.  0.
         12    1    3    3    0    0  0.94583265724E+01 -0.35368013181E+02  0.39271759962E+01  0.36820904514E+02  0.00000000000E+00 0. -1.
         11    1    4    4    0    0 -0.39152620841E+00  0.11305273019E+02  0.59704223634E+01  0.12790951265E+02  0.51100000000E-03 0. -1.
        -11    1    4    4    0    0 -0.11322539154E+01  0.19012440893E+02  0.85438692785E+01  0.20874688265E+02  0.51100000000E-03 0.  1.
        -12    1    4    4    0    0 -0.79345464486E+01  0.50502992690E+01 -0.18441467638E+02  0.20701455956E+02  0.00000000000E+00 0.  1.
</event>
<event>
 8    1  0.1261983E-006  0.9118800E+02  0.7816164E-02  0.1184000E+00
        -11   -1    0    0    0    0  0.00000000000E+00  0.00000000000E+00  0.45593999997E+02  0.45594000000E+02  0.51100000000E-03 0.  1.
         11   -1    0    0    0    0 -0.00000000000E+00 -0.00000000000E+00 -0.45593999997E+02  0.45594000000E+02  0.51100000000E-03 0. -1.
         23    2    1    2    0    0  0.00000000000E+00 -0.88817841970E-15  0.00000000000E+00  0.91188000000E+02  0.91188000000E+02 0.  0.
    9900012    2    3    3    0    0 -0.46907286731E+01 -0.73097157127E+01 -0.35781906869E+02  0.54367085583E+02  0.40000003205E+02 0.  0.
        -12    1    3    3    0    0  0.46907286731E+01  0.73097157127E+01  0.35781906869E+02  0.36820914417E+02  0.00000000000E+00 0.  1.
         11    1    4    4    0    0  0.66405849392E+01 -0.14907772620E+01 -0.12702802092E+02  0.14411140358E+02  0.51100000000E-03 0. -1.
        -11    1    4    4    0    0 -0.76400336842E+00  0.53475472366E+01  0.53710255671E+01  0.76176031990E+01  0.51100000000E-03 0.  1.
         12    1    4    4    0    0 -0.10567310244E+02 -0.11166485687E+02 -0.28450130345E+02  0.32338342026E+02  0.00000000000E+00 0. -1.
</event>
<event>
 8    1  0.1261983E-006  0.9118800E+02  0.7816164E-02  0.1184000E+00
        -11   -1    0    0    0    0  0.00000000000E+00  0.00000000000E+00  0.45593999997E+02  0.45594000000E+02  0.51100000000E-03 0.  1.
         11   -1    0    0    0    0 -0.00000000000E+00 -0.00000000000E+00 -0.45593999997E+02  0.45594000000E+02  0.51100000000E-03 0. -1.
         23    2    1    2    0    0  0.00000000000E+00  0.17763568394E-14  0.71054273576E-14  0.91188000000E+02  0.91188000000E+02 0.  0.
    9900012    2    3    3    0    0  0.20349306865E+01 -0.10538446492E+02 -0.35221859357E+02  0.54367093250E+02  0.40000020682E+02 0.  0.
        -12    1    3    3    0    0 -0.20349306865E+01  0.10538446492E+02  0.35221859357E+02  0.36820906750E+02  0.00000000000E+00 0.  1.
         11    1    4    4    0    0  0.14895113527E+02 -0.75123711913E+01 -0.21751561746E+02  0.27412233885E+02  0.51100000000E-03 0. -1.
        -11    1    4    4    0    0 -0.96552167120E+00 -0.83173878516E+01 -0.21538743647E+00  0.83760112692E+01  0.51100000000E-03 0.  1.
         12    1    4    4    0    0 -0.11894661170E+02  0.52913125510E+01 -0.13254910174E+02  0.18578848096E+02  0.00000000000E+00 0. -1.
</event>
<event>
 8    1  0.1261983E-006  0.9118800E+02  0.7816164E-02  0.1184000E+00
        -11   -1    0    0    0    0  0.00000000000E+00  0.00000000000E+00  0.45593999997E+02  0.45594000000E+02  0.51100000000E-03 0. -1.
         11   -1    0    0    0    0 -0.00000000000E+00 -0.00000000000E+00 -0.45593999997E+02  0.45594000000E+02  0.51100000000E-03 0.  1.
         23    2    1    2    0    0  0.00000000000E+00 -0.71054273576E-14 -0.17763568394E-14  0.91188000000E+02  0.91188000000E+02 0.  0.
    9900012    2    3    3    0    0  0.23276834177E+01 -0.35776141245E+02 -0.83922456087E+01  0.54367079604E+02  0.39999989573E+02 0.  0.
         12    1    3    3    0    0 -0.23276834177E+01  0.35776141245E+02  0.83922456087E+01  0.36820920396E+02  0.00000000000E+00 0. -1.
         11    1    4    4    0    0  0.79608434010E+01  0.29897607967E+01 -0.77473282132E+01  0.11503686017E+02  0.51100000000E-03 0.  1.
        -11    1    4    4    0    0  0.13917564762E+01 -0.34584487555E+01  0.51940308152E+01  0.63934192928E+01  0.51100000000E-03 0. -1.
        -12    1    4    4    0    0 -0.70249164594E+01 -0.35307453286E+02 -0.58389482107E+01  0.36469974294E+02  0.00000000000E+00 0.  1.
</event>
<event>
 8    1  0.1261983E-006  0.9118800E+02  0.7816164E-02  0.1184000E+00
        -11   -1    0    0    0    0  0.00000000000E+00  0.00000000000E+00  0.45593999997E+02  0.45594000000E+02  0.51100000000E-03 0.  1.
         11   -1    0    0    0    0 -0.00000000000E+00 -0.00000000000E+00 -0.45593999997E+02  0.45594000000E+02  0.51100000000E-03 0. -1.
         23    2    1    2    0    0 -0.35527136788E-14  0.00000000000E+00  0.00000000000E+00  0.91188000000E+02  0.91188000000E+02 0.  0.
    9900012    2    3    3    0    0  0.17783702151E+02 -0.16711471408E+02  0.27572585243E+02  0.54367071226E+02  0.39999970473E+02 0.  0.
         12    1    3    3    0    0 -0.17783702151E+02  0.16711471408E+02 -0.27572585243E+02  0.36820928774E+02  0.00000000000E+00 0. -1.
         11    1    4    4    0    0 -0.87259825376E+01  0.14726017001E+01 -0.19136675591E+01  0.90539190852E+01  0.51100000000E-03 0. -1.
        -11    1    4    4    0    0  0.15082518373E+02 -0.47358311836E+01  0.19259140468E+02  0.24916359069E+02  0.51100000000E-03 0.  1.
         12    1    4    4    0    0  0.11427166316E+02 -0.13448241925E+02  0.10227112334E+02  0.20396793071E+02  0.00000000000E+00 0. -1.
</event>
<event>
 8    1  0.1261983E-006  0.9118800E+02  0.7816164E-02  0.1184000E+00
        -11   -1    0    0    0    0  0.00000000000E+00  0.00000000000E+00  0.45593999997E+02  0.45594000000E+02  0.51100000000E-03 0.  1.
         11   -1    0    0    0    0 -0.00000000000E+00 -0.00000000000E+00 -0.45593999997E+02  0.45594000000E+02  0.51100000000E-03 0. -1.
         23    2    1    2    0    0  0.00000000000E+00  0.22204460493E-15  0.00000000000E+00  0.91188000000E+02  0.91188000000E+02 0.  0.
    9900012    2    3    3    0    0  0.36231274588E+02  0.15668785806E+01 -0.63733471329E+01  0.54367083113E+02  0.39999997572E+02 0.  0.
         12    1    3    3    0    0 -0.36231274588E+02 -0.15668785806E+01  0.63733471329E+01  0.36820916887E+02  0.00000000000E+00 0. -1.
         11    1    4    4    0    0  0.29102958794E+01 -0.25794698920E+01  0.96904694289E+01  0.10441680183E+02  0.51100000000E-03 0.  1.
        -11    1    4    4    0    0  0.10039845685E+02  0.10404170357E+02 -0.13326164459E+02  0.19662958110E+02  0.51100000000E-03 0. -1.
        -12    1    4    4    0    0  0.23281133024E+02 -0.62578218841E+01 -0.27376521032E+01  0.24262444820E+02  0.00000000000E+00 0.  1.
</event>
<event>
 8    1  0.1261983E-006  0.9118800E+02  0.7816164E-02  0.1184000E+00
        -11   -1    0    0    0    0  0.00000000000E+00  0.00000000000E+00  0.45593999997E+02  0.45594000000E+02  0.51100000000E-03 0. -1.
         11   -1    0    0    0    0 -0.00000000000E+00 -0.00000000000E+00 -0.45593999997E+02  0.45594000000E+02  0.51100000000E-03 0.  1.
         23    2    1    2    0    0  0.00000000000E+00  0.17763568394E-14 -0.35527136788E-14  0.91188000000E+02  0.91188000000E+02 0.  0.
    9900012    2    3    3    0    0  0.16827689976E+02 -0.75260349530E+01  0.31874243049E+02  0.54367085807E+02  0.40000003715E+02 0.  0.
        -12    1    3    3    0    0 -0.16827689976E+02  0.75260349530E+01 -0.31874243049E+02  0.36820914193E+02  0.00000000000E+00 0.  1.
         11    1    4    4    0    0  0.10490382373E+02 -0.30268447603E+01  0.10058966304E+02  0.14845629488E+02  0.51100000000E-03 0. -1.
        -11    1    4    4    0    0  0.56321818137E+01  0.13616542369E+02  0.83335031269E+01  0.16928643557E+02  0.51100000000E-03 0.  1.
         12    1    4    4    0    0  0.70512578974E+00 -0.18115732562E+02  0.13481773618E+02  0.22592812762E+02  0.00000000000E+00 0. -1.
</event>
<event>
 8    1  0.1261983E-006  0.9118800E+02  0.7816164E-02  0.1184000E+00
        -11   -1    0    0    0    0  0.00000000000E+00  0.00000000000E+00  0.45593999997E+02  0.45594000000E+02  0.51100000000E-03 0. -1.
         11   -1    0    0    0    0 -0.00000000000E+00 -0.00000000000E+00 -0.45593999997E+02  0.45594000000E+02  0.51100000000E-03 0.  1.
         23    2    1    2    0    0  0.00000000000E+00  0.88817841970E-15  0.00000000000E+00  0.91188000000E+02  0.91188000000E+02 0.  0.
    9900012    2    3    3    0    0  0.34217537103E+02  0.39090880600E+01 -0.13025390179E+02  0.54367060249E+02  0.39999945449E+02 0.  0.
         12    1    3    3    0    0 -0.34217537103E+02 -0.39090880600E+01  0.13025390179E+02  0.36820939751E+02  0.00000000000E+00 0. -1.
         11    1    4    4    0    0  0.29982565219E+00 -0.10713387634E+02 -0.97406800624E+01  0.14482659229E+02  0.51100000000E-03 0. -1.
        -11    1    4    4    0    0  0.13814967755E+02  0.24932649277E+01  0.51262370749E+01  0.14944832247E+02  0.51100000000E-03 0.  1.
        -12    1    4    4    0    0  0.20102743696E+02  0.12129210766E+02 -0.84109471910E+01  0.24939568773E+02  0.00000000000E+00 0.  1.
</event>
<event>
 8    1  0.1261983E-006  0.9118800E+02  0.7816164E-02  0.1184000E+00
        -11   -1    0    0    0    0  0.00000000000E+00  0.00000000000E+00  0.45593999997E+02  0.45594000000E+02  0.51100000000E-03 0.  1.
         11   -1    0    0    0    0 -0.00000000000E+00 -0.00000000000E+00 -0.45593999997E+02  0.45594000000E+02  0.51100000000E-03 0. -1.
         23    2    1    2    0    0  0.00000000000E+00  0.00000000000E+00 -0.35527136788E-14  0.91188000000E+02  0.91188000000E+02 0.  0.
    9900012    2    3    3    0    0  0.23834085582E+02  0.10773902552E+01  0.28045605370E+02  0.54367076792E+02  0.39999983163E+02 0.  0.
         12    1    3    3    0    0 -0.23834085582E+02 -0.10773902552E+01 -0.28045605370E+02  0.36820923208E+02  0.00000000000E+00 0. -1.
         11    1    4    4    0    0 -0.71489521136E+01  0.34264527073E+00  0.94514434444E+01  0.11855576981E+02  0.51100000000E-03 0. -1.
        -11    1    4    4    0    0  0.29757590458E+01  0.75894647801E+01  0.89532615177E+01  0.12108509801E+02  0.51100000000E-03 0.  1.
         12    1    4    4    0    0  0.28007278650E+02 -0.68547197956E+01  0.96409004080E+01  0.30402990010E+02  0.00000000000E+00 0. -1.
</event>
<event>
 8    1  0.1261983E-006  0.9118800E+02  0.7816164E-02  0.1184000E+00
        -11   -1    0    0    0    0  0.00000000000E+00  0.00000000000E+00  0.45593999997E+02  0.45594000000E+02  0.51100000000E-03 0. -1.
         11   -1    0    0    0    0 -0.00000000000E+00 -0.00000000000E+00 -0.45593999997E+02  0.45594000000E+02  0.51100000000E-03 0.  1.
         23    2    1    2    0    0  0.00000000000E+00  0.00000000000E+00 -0.35527136788E-14  0.91188000000E+02  0.91188000000E+02 0.  0.
    9900012    2    3    3    0    0  0.26062273438E+02  0.82445022792E+01  0.24669117843E+02  0.54367091677E+02  0.40000017096E+02 0.  0.
        -12    1    3    3    0    0 -0.26062273438E+02 -0.82445022792E+01 -0.24669117843E+02  0.36820908323E+02  0.00000000000E+00 0.  1.
         11    1    4    4    0    0  0.48167915101E+01 -0.11473055742E+02  0.45959934204E+01  0.13264827338E+02  0.51100000000E-03 0. -1.
        -11    1    4    4    0    0  0.22436733192E+02  0.14515860270E+02  0.79878636206E+01  0.27891273925E+02  0.51100000000E-03 0.  1.
         12    1    4    4    0    0 -0.11912512641E+01  0.52016977519E+01  0.12085260802E+02  0.13210990414E+02  0.00000000000E+00 0. -1.
</event>
<event>
 8    1  0.1261983E-006  0.9118800E+02  0.7816164E-02  0.1184000E+00
        -11   -1    0    0    0    0  0.00000000000E+00  0.00000000000E+00  0.45593999997E+02  0.45594000000E+02  0.51100000000E-03 0. -1.
         11   -1    0    0    0    0 -0.00000000000E+00 -0.00000000000E+00 -0.45593999997E+02  0.45594000000E+02  0.51100000000E-03 0.  1.
         23    2    1    2    0    0  0.00000000000E+00 -0.35527136788E-14 -0.35527136788E-14  0.91188000000E+02  0.91188000000E+02 0.  0.
    9900012    2    3    3    0    0 -0.59649270798E+01 -0.27768202246E+02  0.23433435065E+02  0.54367091674E+02  0.40000017088E+02 0.  0.
        -12    1    3    3    0    0  0.59649270798E+01  0.27768202246E+02 -0.23433435065E+02  0.36820908326E+02  0.00000000000E+00 0.  1.
         11    1    4    4    0    0 -0.14326120210E+02 -0.10175392662E+02  0.10858119866E+02  0.20656115399E+02  0.51100000000E-03 0. -1.
        -11    1    4    4    0    0 -0.41948860925E+01 -0.61105107589E+01  0.14799316310E+02  0.16551591300E+02  0.51100000000E-03 0.  1.
         12    1    4    4    0    0  0.12556079223E+02 -0.11482298825E+02 -0.22240011111E+01  0.17159384974E+02  0.00000000000E+00 0. -1.
</event>
<event>
 8    1  0.1261983E-006  0.9118800E+02  0.7816164E-02  0.1184000E+00
        -11   -1    0    0    0    0  0.00000000000E+00  0.00000000000E+00  0.45593999997E+02  0.45594000000E+02  0.51100000000E-03 0.  1.
         11   -1    0    0    0    0 -0.00000000000E+00 -0.00000000000E+00 -0.45593999997E+02  0.45594000000E+02  0.51100000000E-03 0. -1.
         23    2    1    2    0    0 -0.71054273576E-14  0.00000000000E+00 -0.17763568394E-14  0.91188000000E+02  0.91188000000E+02 0.  0.
    9900012    2    3    3    0    0 -0.35830920390E+02  0.55198361283E+01 -0.64386413881E+01  0.54367088145E+02  0.40000009045E+02 0.  0.
        -12    1    3    3    0    0  0.35830920390E+02 -0.55198361283E+01  0.64386413881E+01  0.36820911855E+02  0.00000000000E+00 0.  1.
         11    1    4    4    0    0 -0.31906124339E+01  0.75459075021E+01  0.22619036273E+01  0.84992314955E+01  0.51100000000E-03 0. -1.
        -11    1    4    4    0    0 -0.57840049032E+01  0.12899159166E+02 -0.88398801080E+00  0.14164196235E+02  0.51100000000E-03 0.  1.
         12    1    4    4    0    0 -0.26856303053E+02 -0.14925230540E+02 -0.78165570046E+01  0.31703660415E+02  0.00000000000E+00 0. -1.
</event>
<event>
 8    1  0.1261983E-006  0.9118800E+02  0.7816164E-02  0.1184000E+00
        -11   -1    0    0    0    0  0.00000000000E+00  0.00000000000E+00  0.45593999997E+02  0.45594000000E+02  0.51100000000E-03 0.  1.
         11   -1    0    0    0    0 -0.00000000000E+00 -0.00000000000E+00 -0.45593999997E+02  0.45594000000E+02  0.51100000000E-03 0. -1.
         23    2    1    2    0    0 -0.88817841970E-15  0.00000000000E+00 -0.88817841970E-15  0.91188000000E+02  0.91188000000E+02 0.  0.
    9900012    2    3    3    0    0  0.73122300484E+01  0.35491991252E+02  0.65291074617E+01  0.54367090240E+02  0.40000013820E+02 0.  0.
         12    1    3    3    0    0 -0.73122300484E+01 -0.35491991252E+02 -0.65291074617E+01  0.36820909760E+02  0.00000000000E+00 0. -1.
         11    1    4    4    0    0  0.27361419494E+01 -0.34893342761E+01 -0.24718764299E+01  0.50766228739E+01  0.51100000000E-03 0. -1.
        -11    1    4    4    0    0  0.41483673230E+01 -0.22654241726E+01 -0.38390287923E+01  0.60892725721E+01  0.51100000000E-03 0.  1.
        -12    1    4    4    0    0  0.42772077602E+00  0.41246749701E+02  0.12840012684E+02  0.43201194794E+02  0.00000000000E+00 0.  1.
</event>
<event>
 8    1  0.1261983E-006  0.9118800E+02  0.7816164E-02  0.1184000E+00
        -11   -1    0    0    0    0  0.00000000000E+00  0.00000000000E+00  0.45593999997E+02  0.45594000000E+02  0.51100000000E-03 0.  1.
         11   -1    0    0    0    0 -0.00000000000E+00 -0.00000000000E+00 -0.45593999997E+02  0.45594000000E+02  0.51100000000E-03 0. -1.
         23    2    1    2    0    0 -0.35527136788E-14 -0.44408920985E-15  0.35527136788E-14  0.91188000000E+02  0.91188000000E+02 0.  0.
    9900012    2    3    3    0    0  0.21085519180E+02  0.28789471690E+01 -0.30048175824E+02  0.54367077602E+02  0.39999985008E+02 0.  0.
        -12    1    3    3    0    0 -0.21085519180E+02 -0.28789471690E+01  0.30048175824E+02  0.36820922398E+02  0.00000000000E+00 0.  1.
         11    1    4    4    0    0  0.69496777321E+01 -0.28924261425E+01 -0.20941311998E+02  0.22253150294E+02  0.51100000000E-03 0. -1.
        -11    1    4    4    0    0  0.14287547130E+02 -0.29323068719E+01 -0.15522794827E+02  0.21299990284E+02  0.51100000000E-03 0.  1.
        -12    1    4    4    0    0 -0.15170568191E+00  0.87036801834E+01  0.64159310004E+01  0.10813937024E+02  0.00000000000E+00 0.  1.
</event>
<event>
 8    1  0.1261983E-006  0.9118800E+02  0.7816164E-02  0.1184000E+00
        -11   -1    0    0    0    0  0.00000000000E+00  0.00000000000E+00  0.45593999997E+02  0.45594000000E+02  0.51100000000E-03 0.  1.
         11   -1    0    0    0    0 -0.00000000000E+00 -0.00000000000E+00 -0.45593999997E+02  0.45594000000E+02  0.51100000000E-03 0. -1.
         23    2    1    2    0    0  0.00000000000E+00  0.00000000000E+00  0.35527136788E-14  0.91188000000E+02  0.91188000000E+02 0.  0.
    9900012    2    3    3    0    0 -0.18192718516E+02 -0.23722054963E+02 -0.21495700987E+02  0.54367135540E+02  0.40000117090E+02 0.  0.
        -12    1    3    3    0    0  0.18192718516E+02  0.23722054963E+02  0.21495700987E+02  0.36820864460E+02  0.00000000000E+00 0.  1.
         11    1    4    4    0    0  0.12970095805E+01 -0.11681152509E+02 -0.19660056486E+02  0.22905226021E+02  0.51100000000E-03 0. -1.
        -11    1    4    4    0    0 -0.18762391746E+02 -0.16347830798E+02  0.28596421782E+01  0.25049081210E+02  0.51100000000E-03 0.  1.
        -12    1    4    4    0    0 -0.72733635093E+00  0.43069283432E+01 -0.46952866793E+01  0.64128283090E+01  0.00000000000E+00 0.  1.
</event>
<event>
 8    1  0.1261983E-006  0.9118800E+02  0.7816164E-02  0.1184000E+00
        -11   -1    0    0    0    0  0.00000000000E+00  0.00000000000E+00  0.45593999997E+02  0.45594000000E+02  0.51100000000E-03 0.  1.
         11   -1    0    0    0    0 -0.00000000000E+00 -0.00000000000E+00 -0.45593999997E+02  0.45594000000E+02  0.51100000000E-03 0. -1.
         23    2    1    2    0    0  0.66613381478E-15  0.00000000000E+00  0.18873791419E-14  0.91188000000E+02  0.91188000000E+02 0.  0.
    9900012    2    3    3    0    0  0.17966479230E+01 -0.36774459122E+02 -0.43878973050E+00  0.54367064054E+02  0.39999954125E+02 0.  0.
        -12    1    3    3    0    0 -0.17966479230E+01  0.36774459122E+02  0.43878973050E+00  0.36820935946E+02  0.00000000000E+00 0.  1.
         11    1    4    4    0    0  0.74644429225E+01 -0.71153639897E+01  0.14379030294E+02  0.17694711790E+02  0.51100000000E-03 0. -1.
        -11    1    4    4    0    0 -0.20365165648E+01  0.12711072406E+01 -0.95512852695E+00  0.25836764696E+01  0.51100000000E-03 0.  1.
         12    1    4    4    0    0 -0.36312784348E+01 -0.30930202373E+02 -0.13862691498E+02  0.34088675795E+02  0.00000000000E+00 0. -1.
</event>
<event>
 8    1  0.1261983E-006  0.9118800E+02  0.7816164E-02  0.1184000E+00
        -11   -1    0    0    0    0  0.00000000000E+00  0.00000000000E+00  0.45593999997E+02  0.45594000000E+02  0.51100000000E-03 0.  1.
         11   -1    0    0    0    0 -0.00000000000E+00 -0.00000000000E+00 -0.45593999997E+02  0.45594000000E+02  0.51100000000E-03 0. -1.
         23    2    1    2    0    0  0.88817841970E-15 -0.88817841970E-15  0.00000000000E+00  0.91188000000E+02  0.91188000000E+02 0.  0.
    9900012    2    3    3    0    0  0.35585271787E+01  0.62613590040E+01  0.36109726408E+02  0.54367081034E+02  0.39999992832E+02 0.  0.
         12    1    3    3    0    0 -0.35585271787E+01 -0.62613590040E+01 -0.36109726408E+02  0.36820918966E+02  0.00000000000E+00 0. -1.
         11    1    4    4    0    0 -0.23403741032E+01 -0.37811126951E+01 -0.71428489946E+00  0.45038169740E+01  0.51100000000E-03 0. -1.
        -11    1    4    4    0    0  0.10210243779E+02 -0.58053192121E+01  0.27876257101E+01  0.12071522959E+02  0.51100000000E-03 0.  1.
         12    1    4    4    0    0 -0.43113424973E+01  0.15847790911E+02  0.34036385597E+02  0.37791741101E+02  0.00000000000E+00 0. -1.
</event>
<event>
 8    1  0.1261983E-006  0.9118800E+02  0.7816164E-02  0.1184000E+00
        -11   -1    0    0    0    0  0.00000000000E+00  0.00000000000E+00  0.45593999997E+02  0.45594000000E+02  0.51100000000E-03 0.  1.
         11   -1    0    0    0    0 -0.00000000000E+00 -0.00000000000E+00 -0.45593999997E+02  0.45594000000E+02  0.51100000000E-03 0. -1.
         23    2    1    2    0    0  0.35527136788E-14  0.17763568394E-14 -0.17763568394E-14  0.91188000000E+02  0.91188000000E+02 0.  0.
    9900012    2    3    3    0    0  0.31448763674E+02  0.12494706384E+02 -0.14513272079E+02  0.54367116107E+02  0.40000072789E+02 0.  0.
        -12    1    3    3    0    0 -0.31448763674E+02 -0.12494706384E+02  0.14513272079E+02  0.36820883893E+02  0.00000000000E+00 0.  1.
         11    1    4    4    0    0  0.16451304272E+02 -0.92893586785E+01 -0.80470970731E+01  0.20535173934E+02  0.51100000000E-03 0. -1.
        -11    1    4    4    0    0  0.56535360355E+01 -0.15498043568E+01  0.34607890919E+01  0.68074536098E+01  0.51100000000E-03 0.  1.
         12    1    4    4    0    0  0.93439233656E+01  0.23333869419E+02 -0.99269640973E+01  0.27024488564E+02  0.00000000000E+00 0. -1.
</event>
<event>
 8    1  0.1261983E-006  0.9118800E+02  0.7816164E-02  0.1184000E+00
        -11   -1    0    0    0    0  0.00000000000E+00  0.00000000000E+00  0.45593999997E+02  0.45594000000E+02  0.51100000000E-03 0.  1.
         11   -1    0    0    0    0 -0.00000000000E+00 -0.00000000000E+00 -0.45593999997E+02  0.45594000000E+02  0.51100000000E-03 0. -1.
         23    2    1    2    0    0 -0.17763568394E-14  0.00000000000E+00 -0.35527136788E-14  0.91188000000E+02  0.91188000000E+02 0.  0.
    9900012    2    3    3    0    0 -0.98117143925E+01  0.29030066007E+02 -0.20414830500E+02  0.54367085073E+02  0.40000002041E+02 0.  0.
        -12    1    3    3    0    0  0.98117143925E+01 -0.29030066007E+02  0.20414830500E+02  0.36820914927E+02  0.00000000000E+00 0.  1.
         11    1    4    4    0    0 -0.10818130006E+02  0.30608890848E+01 -0.21719109773E+02  0.24456506463E+02  0.51100000000E-03 0. -1.
        -11    1    4    4    0    0  0.47287891592E+01  0.25149353683E+02  0.29487134121E+01  0.25759393406E+02  0.51100000000E-03 0.  1.
         12    1    4    4    0    0 -0.37223735457E+01  0.81982323914E+00 -0.16444341397E+01  0.41511852039E+01  0.00000000000E+00 0. -1.
</event>
<event>
 8    1  0.1261983E-006  0.9118800E+02  0.7816164E-02  0.1184000E+00
        -11   -1    0    0    0    0  0.00000000000E+00  0.00000000000E+00  0.45593999997E+02  0.45594000000E+02  0.51100000000E-03 0. -1.
         11   -1    0    0    0    0 -0.00000000000E+00 -0.00000000000E+00 -0.45593999997E+02  0.45594000000E+02  0.51100000000E-03 0.  1.
         23    2    1    2    0    0  0.00000000000E+00  0.00000000000E+00  0.88817841970E-15  0.91188000000E+02  0.91188000000E+02 0.  0.
    9900012    2    3    3    0    0 -0.35799398430E+02 -0.72633311290E+01 -0.46288995219E+01  0.54367087222E+02  0.40000006940E+02 0.  0.
        -12    1    3    3    0    0  0.35799398430E+02  0.72633311290E+01  0.46288995219E+01  0.36820912778E+02  0.00000000000E+00 0.  1.
         11    1    4    4    0    0 -0.12529106313E+01 -0.74421634639E+01  0.34094983090E+01  0.82813200067E+01  0.51100000000E-03 0.  1.
        -11    1    4    4    0    0 -0.33302104748E+01 -0.52204105449E+01  0.83678720928E+01  0.10409816122E+02  0.51100000000E-03 0. -1.
         12    1    4    4    0    0 -0.31216277324E+02  0.53992428798E+01 -0.16406269924E+02  0.35675951094E+02  0.00000000000E+00 0. -1.
</event>
<event>
 8    1  0.1261983E-006  0.9118800E+02  0.7816164E-02  0.1184000E+00
        -11   -1    0    0    0    0  0.00000000000E+00  0.00000000000E+00  0.45593999997E+02  0.45594000000E+02  0.51100000000E-03 0.  1.
         11   -1    0    0    0    0 -0.00000000000E+00 -0.00000000000E+00 -0.45593999997E+02  0.45594000000E+02  0.51100000000E-03 0. -1.
         23    2    1    2    0    0  0.00000000000E+00  0.00000000000E+00  0.00000000000E+00  0.91188000000E+02  0.91188000000E+02 0.  0.
    9900012    2    3    3    0    0  0.28959134254E+02  0.20279577520E+02  0.10290217340E+02  0.54367064460E+02  0.39999955049E+02 0.  0.
         12    1    3    3    0    0 -0.28959134254E+02 -0.20279577520E+02 -0.10290217340E+02  0.36820935540E+02  0.00000000000E+00 0. -1.
         11    1    4    4    0    0 -0.25298558894E+01  0.15246837103E+02  0.74607887969E+01  0.17161864182E+02  0.51100000000E-03 0. -1.
        -11    1    4    4    0    0  0.68563539242E+01  0.16113625962E+01 -0.74888383897E+01  0.10280504814E+02  0.51100000000E-03 0.  1.
        -12    1    4    4    0    0  0.24632636219E+02  0.34213778207E+01  0.10318266933E+02  0.26924695463E+02  0.00000000000E+00 0.  1.
</event>
<event>
 8    1  0.1261983E-006  0.9118800E+02  0.7816164E-02  0.1184000E+00
        -11   -1    0    0    0    0  0.00000000000E+00  0.00000000000E+00  0.45593999997E+02  0.45594000000E+02  0.51100000000E-03 0.  1.
         11   -1    0    0    0    0 -0.00000000000E+00 -0.00000000000E+00 -0.45593999997E+02  0.45594000000E+02  0.51100000000E-03 0. -1.
         23    2    1    2    0    0 -0.35527136788E-14  0.00000000000E+00  0.00000000000E+00  0.91188000000E+02  0.91188000000E+02 0.  0.
    9900012    2    3    3    0    0  0.23353024696E+02 -0.13244202719E+01  0.28436984446E+02  0.54367082903E+02  0.39999997093E+02 0.  0.
         12    1    3    3    0    0 -0.23353024696E+02  0.13244202719E+01 -0.28436984446E+02  0.36820917097E+02  0.00000000000E+00 0. -1.
         11    1    4    4    0    0  0.26711134449E+01 -0.48951503990E+01 -0.79295530376E+01  0.96940784039E+01  0.51100000000E-03 0. -1.
        -11    1    4    4    0    0  0.13492099857E+01  0.62528021655E+01  0.99340969441E+01  0.11815421485E+02  0.51100000000E-03 0.  1.
         12    1    4    4    0    0  0.19332701265E+02 -0.26820720385E+01  0.26432440540E+02  0.32857583014E+02  0.00000000000E+00 0. -1.
</event>
<event>
 8    1  0.1261983E-006  0.9118800E+02  0.7816164E-02  0.1184000E+00
        -11   -1    0    0    0    0  0.00000000000E+00  0.00000000000E+00  0.45593999997E+02  0.45594000000E+02  0.51100000000E-03 0. -1.
         11   -1    0    0    0    0 -0.00000000000E+00 -0.00000000000E+00 -0.45593999997E+02  0.45594000000E+02  0.51100000000E-03 0.  1.
         23    2    1    2    0    0 -0.17763568394E-14  0.13322676296E-14  0.00000000000E+00  0.91188000000E+02  0.91188000000E+02 0.  0.
    9900012    2    3    3    0    0 -0.70965823572E+01  0.34370989031E+01  0.35966722792E+02  0.54367078251E+02  0.39999986489E+02 0.  0.
        -12    1    3    3    0    0  0.70965823572E+01 -0.34370989031E+01 -0.35966722792E+02  0.36820921749E+02  0.00000000000E+00 0.  1.
         11    1    4    4    0    0  0.47471743174E+01  0.12105226634E+02  0.29100346815E+02  0.31873223259E+02  0.51100000000E-03 0. -1.
        -11    1    4    4    0    0 -0.10050869609E+02 -0.82756218840E+01 -0.22344614919E+01  0.13209796209E+02  0.51100000000E-03 0.  1.
         12    1    4    4    0    0 -0.17928870657E+01 -0.39250584648E+00  0.91008374686E+01  0.92840587837E+01  0.00000000000E+00 0. -1.
</event>
<event>
 8    1  0.1261983E-006  0.9118800E+02  0.7816164E-02  0.1184000E+00
        -11   -1    0    0    0    0  0.00000000000E+00  0.00000000000E+00  0.45593999997E+02  0.45594000000E+02  0.51100000000E-03 0. -1.
         11   -1    0    0    0    0 -0.00000000000E+00 -0.00000000000E+00 -0.45593999997E+02  0.45594000000E+02  0.51100000000E-03 0.  1.
         23    2    1    2    0    0  0.88817841970E-15  0.00000000000E+00 -0.71054273576E-14  0.91188000000E+02  0.91188000000E+02 0.  0.
    9900012    2    3    3    0    0 -0.71994506598E+01  0.16596443667E+02  0.32070326206E+02  0.54367083999E+02  0.39999999593E+02 0.  0.
        -12    1    3    3    0    0  0.71994506598E+01 -0.16596443667E+02 -0.32070326206E+02  0.36820916001E+02  0.00000000000E+00 0.  1.
         11    1    4    4    0    0 -0.15387627972E+01  0.68906071627E+01 -0.51563967586E+00  0.70791343082E+01  0.51100000000E-03 0. -1.
        -11    1    4    4    0    0  0.88733525740E+01  0.67182880158E+01 -0.38038493991E+00  0.11136268348E+02  0.51100000000E-03 0.  1.
         12    1    4    4    0    0 -0.14534040437E+02  0.29875484887E+01  0.32966350822E+02  0.36151681342E+02  0.00000000000E+00 0. -1.
</event>
<event>
 8    1  0.1261983E-006  0.9118800E+02  0.7816164E-02  0.1184000E+00
        -11   -1    0    0    0    0  0.00000000000E+00  0.00000000000E+00  0.45593999997E+02  0.45594000000E+02  0.51100000000E-03 0.  1.
         11   -1    0    0    0    0 -0.00000000000E+00 -0.00000000000E+00 -0.45593999997E+02  0.45594000000E+02  0.51100000000E-03 0. -1.
         23    2    1    2    0    0  0.00000000000E+00  0.00000000000E+00  0.00000000000E+00  0.91188000000E+02  0.91188000000E+02 0.  0.
    9900012    2    3    3    0    0  0.21389267582E+02 -0.76441837498E+01 -0.28980085284E+02  0.54367086703E+02  0.40000005758E+02 0.  0.
        -12    1    3    3    0    0 -0.21389267582E+02  0.76441837498E+01  0.28980085284E+02  0.36820913297E+02  0.00000000000E+00 0.  1.
         11    1    4    4    0    0  0.12394754431E+02 -0.20677381764E+02 -0.46445223021E+01  0.24551082292E+02  0.51100000000E-03 0. -1.
        -11    1    4    4    0    0  0.52309027399E+01  0.21247273913E+01 -0.89894395512E+01  0.10615405488E+02  0.51100000000E-03 0.  1.
        -12    1    4    4    0    0  0.37636104110E+01  0.10908470623E+02 -0.15346123431E+02  0.19200598924E+02  0.00000000000E+00 0.  1.
</event>
<event>
 8    1  0.1261983E-006  0.9118800E+02  0.7816164E-02  0.1184000E+00
        -11   -1    0    0    0    0  0.00000000000E+00  0.00000000000E+00  0.45593999997E+02  0.45594000000E+02  0.51100000000E-03 0.  1.
         11   -1    0    0    0    0 -0.00000000000E+00 -0.00000000000E+00 -0.45593999997E+02  0.45594000000E+02  0.51100000000E-03 0. -1.
         23    2    1    2    0    0  0.17763568394E-14  0.00000000000E+00 -0.17763568394E-14  0.91188000000E+02  0.91188000000E+02 0.  0.
    9900012    2    3    3    0    0 -0.92999853823E+01  0.34352876703E+02  0.94430083935E+01  0.54367078320E+02  0.39999986645E+02 0.  0.
         12    1    3    3    0    0  0.92999853823E+01 -0.34352876703E+02 -0.94430083935E+01  0.36820921680E+02  0.00000000000E+00 0. -1.
         11    1    4    4    0    0 -0.67429914085E+01  0.19638047439E+02  0.20535920084E+01  0.20864756906E+02  0.51100000000E-03 0. -1.
        -11    1    4    4    0    0  0.99994009956E+01  0.16098918734E+02  0.16982179321E+00  0.18952362501E+02  0.51100000000E-03 0.  1.
         12    1    4    4    0    0 -0.12556394969E+02 -0.13840894699E+01  0.72195945919E+01  0.14549958913E+02  0.00000000000E+00 0. -1.
</event>
<event>
 8    1  0.1261983E-006  0.9118800E+02  0.7816164E-02  0.1184000E+00
        -11   -1    0    0    0    0  0.00000000000E+00  0.00000000000E+00  0.45593999997E+02  0.45594000000E+02  0.51100000000E-03 0. -1.
         11   -1    0    0    0    0 -0.00000000000E+00 -0.00000000000E+00 -0.45593999997E+02  0.45594000000E+02  0.51100000000E-03 0.  1.
         23    2    1    2    0    0  0.35527136788E-14 -0.17763568394E-14  0.71054273576E-14  0.91188000000E+02  0.91188000000E+02 0.  0.
    9900012    2    3    3    0    0  0.23175742175E+02 -0.86743650717E+01  0.27265768578E+02  0.54367057984E+02  0.39999940287E+02 0.  0.
        -12    1    3    3    0    0 -0.23175742175E+02  0.86743650717E+01 -0.27265768578E+02  0.36820942016E+02  0.00000000000E+00 0.  1.
         11    1    4    4    0    0  0.20484210731E+02 -0.73741769569E+00  0.11966109098E+02  0.23734667500E+02  0.51100000000E-03 0. -1.
        -11    1    4    4    0    0 -0.39763973809E+01 -0.13339792844E+01 -0.60210716017E+01  0.73378839154E+01  0.51100000000E-03 0.  1.
         12    1    4    4    0    0  0.66679288250E+01 -0.66029680916E+01  0.21320731081E+02  0.23294506569E+02  0.00000000000E+00 0. -1.
</event>
<event>
 8    1  0.1261983E-006  0.9118800E+02  0.7816164E-02  0.1184000E+00
        -11   -1    0    0    0    0  0.00000000000E+00  0.00000000000E+00  0.45593999997E+02  0.45594000000E+02  0.51100000000E-03 0.  1.
         11   -1    0    0    0    0 -0.00000000000E+00 -0.00000000000E+00 -0.45593999997E+02  0.45594000000E+02  0.51100000000E-03 0. -1.
         23    2    1    2    0    0  0.88817841970E-15 -0.35527136788E-14  0.35527136788E-14  0.91188000000E+02  0.91188000000E+02 0.  0.
    9900012    2    3    3    0    0  0.70684863299E+01 -0.18348292404E+02  0.31131226784E+02  0.54367128008E+02  0.40000099920E+02 0.  0.
         12    1    3    3    0    0 -0.70684863299E+01  0.18348292404E+02 -0.31131226784E+02  0.36820871992E+02  0.00000000000E+00 0. -1.
         11    1    4    4    0    0 -0.61116398154E+00 -0.52912899852E+01  0.15815268998E+01  0.55563026119E+01  0.51100000000E-03 0. -1.
        -11    1    4    4    0    0 -0.11392604764E+02 -0.12654563463E+02  0.50506204024E+01  0.17760579564E+02  0.51100000000E-03 0.  1.
         12    1    4    4    0    0  0.19072255075E+02 -0.40243895658E+00  0.24499079482E+02  0.31050245832E+02  0.00000000000E+00 0. -1.
</event>
<event>
 8    1  0.1261983E-006  0.9118800E+02  0.7816164E-02  0.1184000E+00
        -11   -1    0    0    0    0  0.00000000000E+00  0.00000000000E+00  0.45593999997E+02  0.45594000000E+02  0.51100000000E-03 0.  1.
         11   -1    0    0    0    0 -0.00000000000E+00 -0.00000000000E+00 -0.45593999997E+02  0.45594000000E+02  0.51100000000E-03 0. -1.
         23    2    1    2    0    0 -0.35527136788E-14  0.22204460493E-15  0.00000000000E+00  0.91188000000E+02  0.91188000000E+02 0.  0.
    9900012    2    3    3    0    0 -0.19033321205E+02 -0.13549018122E+01  0.31490911621E+02  0.54367074024E+02  0.39999976852E+02 0.  0.
         12    1    3    3    0    0  0.19033321205E+02  0.13549018122E+01 -0.31490911621E+02  0.36820925976E+02  0.00000000000E+00 0. -1.
         11    1    4    4    0    0  0.73131904790E+01 -0.46197500551E+01  0.26927766388E+01  0.90595745949E+01  0.51100000000E-03 0. -1.
        -11    1    4    4    0    0  0.19551247590E+01 -0.24521811461E+01  0.10887472574E+02  0.11330170542E+02  0.51100000000E-03 0.  1.
         12    1    4    4    0    0 -0.28301636443E+02  0.57170293890E+01  0.17910662408E+02  0.33977328887E+02  0.00000000000E+00 0. -1.
</event>
<event>
 8    1  0.1261983E-006  0.9118800E+02  0.7816164E-02  0.1184000E+00
        -11   -1    0    0    0    0  0.00000000000E+00  0.00000000000E+00  0.45593999997E+02  0.45594000000E+02  0.51100000000E-03 0.  1.
         11   -1    0    0    0    0 -0.00000000000E+00 -0.00000000000E+00 -0.45593999997E+02  0.45594000000E+02  0.51100000000E-03 0. -1.
         23    2    1    2    0    0  0.00000000000E+00  0.00000000000E+00  0.35527136788E-14  0.91188000000E+02  0.91188000000E+02 0.  0.
    9900012    2    3    3    0    0  0.31314008612E+02  0.68438569406E+01  0.18121101339E+02  0.54367084382E+02  0.40000000466E+02 0.  0.
         12    1    3    3    0    0 -0.31314008612E+02 -0.68438569406E+01 -0.18121101339E+02  0.36820915618E+02  0.00000000000E+00 0. -1.
         11    1    4    4    0    0  0.47520692709E+01 -0.15474556930E+01 -0.66299431325E+01  0.83025856019E+01  0.51100000000E-03 0. -1.
        -11    1    4    4    0    0  0.18540129712E+02  0.11516844106E+02  0.22127284052E+01  0.21937873077E+02  0.51100000000E-03 0.  1.
        -12    1    4    4    0    0  0.80218096298E+01 -0.31255314725E+01  0.22538316066E+02  0.24126625703E+02  0.00000000000E+00 0.  1.
</event>
<event>
 8    1  0.1261983E-006  0.9118800E+02  0.7816164E-02  0.1184000E+00
        -11   -1    0    0    0    0  0.00000000000E+00  0.00000000000E+00  0.45593999997E+02  0.45594000000E+02  0.51100000000E-03 0.  1.
         11   -1    0    0    0    0 -0.00000000000E+00 -0.00000000000E+00 -0.45593999997E+02  0.45594000000E+02  0.51100000000E-03 0. -1.
         23    2    1    2    0    0 -0.88817841970E-15 -0.88817841970E-15  0.00000000000E+00  0.91188000000E+02  0.91188000000E+02 0.  0.
    9900012    2    3    3    0    0 -0.70254318095E+01 -0.25522175586E+01  0.36054267949E+02  0.54367071930E+02  0.39999972079E+02 0.  0.
         12    1    3    3    0    0  0.70254318095E+01  0.25522175586E+01 -0.36054267949E+02  0.36820928070E+02  0.00000000000E+00 0. -1.
         11    1    4    4    0    0  0.83071030076E+01  0.74796064960E+01  0.93487051435E+00  0.11217239271E+02  0.51100000000E-03 0. -1.
        -11    1    4    4    0    0  0.21816430941E+01 -0.66360772712E+01  0.12742171772E+02  0.14531346457E+02  0.51100000000E-03 0.  1.
        -12    1    4    4    0    0 -0.17514177911E+02 -0.33957467835E+01  0.22377225663E+02  0.28618486202E+02  0.00000000000E+00 0.  1.
</event>
<event>
 8    1  0.1261983E-006  0.9118800E+02  0.7816164E-02  0.1184000E+00
        -11   -1    0    0    0    0  0.00000000000E+00  0.00000000000E+00  0.45593999997E+02  0.45594000000E+02  0.51100000000E-03 0.  1.
         11   -1    0    0    0    0 -0.00000000000E+00 -0.00000000000E+00 -0.45593999997E+02  0.45594000000E+02  0.51100000000E-03 0. -1.
         23    2    1    2    0    0 -0.35527136788E-14 -0.22204460493E-15  0.00000000000E+00  0.91188000000E+02  0.91188000000E+02 0.  0.
    9900012    2    3    3    0    0  0.17489412895E+02  0.12090008197E+01 -0.32379623570E+02  0.54367064801E+02  0.39999955826E+02 0.  0.
        -12    1    3    3    0    0 -0.17489412895E+02 -0.12090008197E+01  0.32379623570E+02  0.36820935199E+02  0.00000000000E+00 0.  1.
         11    1    4    4    0    0  0.94316471655E+01 -0.17845342462E+01  0.35722193308E+01  0.10242132685E+02  0.51100000000E-03 0. -1.
        -11    1    4    4    0    0 -0.74250763798E+01  0.41412384008E+01 -0.20625616756E+02  0.22309138970E+02  0.51100000000E-03 0.  1.
         12    1    4    4    0    0  0.15482842110E+02 -0.11477033349E+01 -0.15326226145E+02  0.21815793146E+02  0.00000000000E+00 0. -1.
</event>
<event>
 8    1  0.1261983E-006  0.9118800E+02  0.7816164E-02  0.1184000E+00
        -11   -1    0    0    0    0  0.00000000000E+00  0.00000000000E+00  0.45593999997E+02  0.45594000000E+02  0.51100000000E-03 0.  1.
         11   -1    0    0    0    0 -0.00000000000E+00 -0.00000000000E+00 -0.45593999997E+02  0.45594000000E+02  0.51100000000E-03 0. -1.
         23    2    1    2    0    0  0.00000000000E+00 -0.88817841970E-15 -0.35527136788E-14  0.91188000000E+02  0.91188000000E+02 0.  0.
    9900012    2    3    3    0    0 -0.25243825171E+02  0.66385263630E+01  0.25970341871E+02  0.54367090201E+02  0.40000013731E+02 0.  0.
         12    1    3    3    0    0  0.25243825171E+02 -0.66385263630E+01 -0.25970341871E+02  0.36820909799E+02  0.00000000000E+00 0. -1.
         11    1    4    4    0    0  0.14513851084E+01 -0.24813481751E+00  0.36214770297E+00  0.15163247806E+01  0.51100000000E-03 0. -1.
        -11    1    4    4    0    0 -0.21132774994E+02 -0.69001376902E+01 -0.11279007119E+01  0.22259340497E+02  0.51100000000E-03 0.  1.
        -12    1    4    4    0    0 -0.55624352853E+01  0.13786798871E+02  0.26736094880E+02  0.30591424923E+02  0.00000000000E+00 0.  1.
</event>
<event>
 8    1  0.1261983E-006  0.9118800E+02  0.7816164E-02  0.1184000E+00
        -11   -1    0    0    0    0  0.00000000000E+00  0.00000000000E+00  0.45593999997E+02  0.45594000000E+02  0.51100000000E-03 0.  1.
         11   -1    0    0    0    0 -0.00000000000E+00 -0.00000000000E+00 -0.45593999997E+02  0.45594000000E+02  0.51100000000E-03 0. -1.
         23    2    1    2    0    0 -0.35527136788E-14 -0.35527136788E-14 -0.17763568394E-14  0.91188000000E+02  0.91188000000E+02 0.  0.
    9900012    2    3    3    0    0  0.30051803470E+02  0.17795465259E+02  0.11661509096E+02  0.54367078365E+02  0.39999986749E+02 0.  0.
         12    1    3    3    0    0 -0.30051803470E+02 -0.17795465259E+02 -0.11661509096E+02  0.36820921635E+02  0.00000000000E+00 0. -1.
         11    1    4    4    0    0  0.83700558483E+00  0.62053443761E+01 -0.67959439241E+01  0.92407646467E+01  0.51100000000E-03 0. -1.
        -11    1    4    4    0    0  0.13939266641E+02 -0.61443432402E+01 -0.13550022021E+00  0.15233990578E+02  0.51100000000E-03 0.  1.
         12    1    4    4    0    0  0.15275531244E+02  0.17734464124E+02  0.18592953241E+02  0.29892323141E+02  0.00000000000E+00 0. -1.
</event>
<event>
 8    1  0.1261983E-006  0.9118800E+02  0.7816164E-02  0.1184000E+00
        -11   -1    0    0    0    0  0.00000000000E+00  0.00000000000E+00  0.45593999997E+02  0.45594000000E+02  0.51100000000E-03 0.  1.
         11   -1    0    0    0    0 -0.00000000000E+00 -0.00000000000E+00 -0.45593999997E+02  0.45594000000E+02  0.51100000000E-03 0. -1.
         23    2    1    2    0    0 -0.22204460493E-15  0.00000000000E+00  0.00000000000E+00  0.91188000000E+02  0.91188000000E+02 0.  0.
    9900012    2    3    3    0    0 -0.18041965017E+01  0.32524580727E+02  0.17166141915E+02  0.54367083325E+02  0.39999998057E+02 0.  0.
         12    1    3    3    0    0  0.18041965017E+01 -0.32524580727E+02 -0.17166141915E+02  0.36820916675E+02  0.00000000000E+00 0. -1.
         11    1    4    4    0    0  0.47679454380E+01 -0.19333871378E+01 -0.39956499713E+01  0.65143310078E+01  0.51100000000E-03 0. -1.
        -11    1    4    4    0    0 -0.98264586249E+01  0.93599320473E+01 -0.17884987356E+01  0.13688182678E+02  0.51100000000E-03 0.  1.
        -12    1    4    4    0    0  0.32543166851E+01  0.25098035818E+02  0.22950290622E+02  0.34164569640E+02  0.00000000000E+00 0.  1.
</event>
<event>
 8    1  0.1261983E-006  0.9118800E+02  0.7816164E-02  0.1184000E+00
        -11   -1    0    0    0    0  0.00000000000E+00  0.00000000000E+00  0.45593999997E+02  0.45594000000E+02  0.51100000000E-03 0. -1.
         11   -1    0    0    0    0 -0.00000000000E+00 -0.00000000000E+00 -0.45593999997E+02  0.45594000000E+02  0.51100000000E-03 0.  1.
         23    2    1    2    0    0  0.35527136788E-14 -0.35527136788E-14 -0.35527136788E-14  0.91188000000E+02  0.91188000000E+02 0.  0.
    9900012    2    3    3    0    0 -0.25260917798E+02  0.21102782631E+02  0.16502654516E+02  0.54367095491E+02  0.40000025791E+02 0.  0.
         12    1    3    3    0    0  0.25260917798E+02 -0.21102782631E+02 -0.16502654516E+02  0.36820904509E+02  0.00000000000E+00 0. -1.
         11    1    4    4    0    0 -0.42778020825E+01 -0.16456577874E+00 -0.23187996457E+01  0.48686245091E+01  0.51100000000E-03 0. -1.
        -11    1    4    4    0    0  0.16061912239E+01  0.84640103825E+01 -0.82919928644E+01  0.11957276777E+02  0.51100000000E-03 0.  1.
         12    1    4    4    0    0 -0.22589306940E+02  0.12803338027E+02  0.27113447026E+02  0.37541194205E+02  0.00000000000E+00 0. -1.
</event>
<event>
 8    1  0.1261983E-006  0.9118800E+02  0.7816164E-02  0.1184000E+00
        -11   -1    0    0    0    0  0.00000000000E+00  0.00000000000E+00  0.45593999997E+02  0.45594000000E+02  0.51100000000E-03 0.  1.
         11   -1    0    0    0    0 -0.00000000000E+00 -0.00000000000E+00 -0.45593999997E+02  0.45594000000E+02  0.51100000000E-03 0. -1.
         23    2    1    2    0    0  0.00000000000E+00  0.17763568394E-14  0.00000000000E+00  0.91188000000E+02  0.91188000000E+02 0.  0.
    9900012    2    3    3    0    0  0.33199270028E+02  0.74636923905E+01 -0.14067048889E+02  0.54367080689E+02  0.39999992046E+02 0.  0.
        -12    1    3    3    0    0 -0.33199270028E+02 -0.74636923905E+01  0.14067048889E+02  0.36820919311E+02  0.00000000000E+00 0.  1.
         11    1    4    4    0    0  0.71397201394E+01 -0.10609114479E+02 -0.22461853945E+01  0.12983615166E+02  0.51100000000E-03 0.  1.
        -11    1    4    4    0    0  0.47654302875E+01  0.12652219568E+02 -0.13802720613E+02  0.19321052828E+02  0.51100000000E-03 0. -1.
        -12    1    4    4    0    0  0.21294119601E+02  0.54205873017E+01  0.19818571180E+01  0.22062412695E+02  0.00000000000E+00 0.  1.
</event>
<event>
 8    1  0.1261983E-006  0.9118800E+02  0.7816164E-02  0.1184000E+00
        -11   -1    0    0    0    0  0.00000000000E+00  0.00000000000E+00  0.45593999997E+02  0.45594000000E+02  0.51100000000E-03 0.  1.
         11   -1    0    0    0    0 -0.00000000000E+00 -0.00000000000E+00 -0.45593999997E+02  0.45594000000E+02  0.51100000000E-03 0. -1.
         23    2    1    2    0    0  0.00000000000E+00  0.88817841970E-15 -0.17763568394E-14  0.91188000000E+02  0.91188000000E+02 0.  0.
    9900012    2    3    3    0    0  0.32267279866E+02 -0.79202825678E+01 -0.15870380488E+02  0.54367120017E+02  0.40000081703E+02 0.  0.
        -12    1    3    3    0    0 -0.32267279866E+02  0.79202825678E+01  0.15870380488E+02  0.36820879983E+02  0.00000000000E+00 0.  1.
         11    1    4    4    0    0  0.27605798456E+02 -0.78477628004E+01 -0.25571236163E+02  0.38438985529E+02  0.51100000000E-03 0. -1.
        -11    1    4    4    0    0  0.62298936040E+01 -0.28485994451E+01  0.10594977103E+02  0.12616641122E+02  0.51100000000E-03 0.  1.
         12    1    4    4    0    0 -0.15684121938E+01  0.27760796777E+01 -0.89412142837E+00  0.33114933663E+01  0.00000000000E+00 0. -1.
</event>
<event>
 8    1  0.1261983E-006  0.9118800E+02  0.7816164E-02  0.1184000E+00
        -11   -1    0    0    0    0  0.00000000000E+00  0.00000000000E+00  0.45593999997E+02  0.45594000000E+02  0.51100000000E-03 0.  1.
         11   -1    0    0    0    0 -0.00000000000E+00 -0.00000000000E+00 -0.45593999997E+02  0.45594000000E+02  0.51100000000E-03 0. -1.
         23    2    1    2    0    0 -0.14432899320E-14  0.00000000000E+00  0.00000000000E+00  0.91188000000E+02  0.91188000000E+02 0.  0.
    9900012    2    3    3    0    0  0.55383839074E+00  0.26528927798E+02 -0.25528180301E+02  0.54367099189E+02  0.40000034221E+02 0.  0.
        -12    1    3    3    0    0 -0.55383839074E+00 -0.26528927798E+02  0.25528180301E+02  0.36820900811E+02  0.00000000000E+00 0.  1.
         11    1    4    4    0    0  0.10742407748E+02  0.81046382864E+01 -0.32353453650E+01  0.13840229256E+02  0.51100000000E-03 0. -1.
        -11    1    4    4    0    0  0.27726622699E+01 -0.17077194117E+01  0.38725610293E+01  0.50597125253E+01  0.51100000000E-03 0.  1.
        -12    1    4    4    0    0 -0.12961231627E+02  0.20132008923E+02 -0.26165395965E+02  0.35467157408E+02  0.00000000000E+00 0.  1.
</event>
<event>
 8    1  0.1261983E-006  0.9118800E+02  0.7816164E-02  0.1184000E+00
        -11   -1    0    0    0    0  0.00000000000E+00  0.00000000000E+00  0.45593999997E+02  0.45594000000E+02  0.51100000000E-03 0.  1.
         11   -1    0    0    0    0 -0.00000000000E+00 -0.00000000000E+00 -0.45593999997E+02  0.45594000000E+02  0.51100000000E-03 0. -1.
         23    2    1    2    0    0  0.00000000000E+00  0.00000000000E+00  0.00000000000E+00  0.91188000000E+02  0.91188000000E+02 0.  0.
    9900012    2    3    3    0    0 -0.81571012451E+01  0.28809290115E+02 -0.21430515083E+02  0.54367075591E+02  0.39999980424E+02 0.  0.
        -12    1    3    3    0    0  0.81571012451E+01 -0.28809290115E+02  0.21430515083E+02  0.36820924409E+02  0.00000000000E+00 0.  1.
         11    1    4    4    0    0  0.35907788929E+01  0.17369253581E+01 -0.80119127684E+01  0.89499357108E+01  0.51100000000E-03 0. -1.
        -11    1    4    4    0    0 -0.17314808098E+02  0.21776307718E+01 -0.23462254334E+01  0.17608220503E+02  0.51100000000E-03 0.  1.
        -12    1    4    4    0    0  0.55669279601E+01  0.24894733985E+02 -0.11072376881E+02  0.27808919376E+02  0.00000000000E+00 0.  1.
</event>
<event>
 8    1  0.1261983E-006  0.9118800E+02  0.7816164E-02  0.1184000E+00
        -11   -1    0    0    0    0  0.00000000000E+00  0.00000000000E+00  0.45593999997E+02  0.45594000000E+02  0.51100000000E-03 0.  1.
         11   -1    0    0    0    0 -0.00000000000E+00 -0.00000000000E+00 -0.45593999997E+02  0.45594000000E+02  0.51100000000E-03 0. -1.
         23    2    1    2    0    0 -0.88817841970E-15  0.35527136788E-14 -0.35527136788E-14  0.91188000000E+02  0.91188000000E+02 0.  0.
    9900012    2    3    3    0    0  0.32002890950E+01  0.30986678421E+02  0.19630707185E+02  0.54367071787E+02  0.39999971753E+02 0.  0.
         12    1    3    3    0    0 -0.32002890950E+01 -0.30986678421E+02 -0.19630707185E+02  0.36820928213E+02  0.00000000000E+00 0. -1.
         11    1    4    4    0    0 -0.99166520104E+00  0.59932457032E+01 -0.92315532982E+01  0.11050971473E+02  0.51100000000E-03 0. -1.
        -11    1    4    4    0    0 -0.13958709085E+01  0.62325227551E+00 -0.26684959539E+01  0.30753487460E+01  0.51100000000E-03 0.  1.
        -12    1    4    4    0    0  0.55878252046E+01  0.24370180443E+02  0.31530756437E+02  0.40240751569E+02  0.00000000000E+00 0.  1.
</event>
<event>
 8    1  0.1261983E-006  0.9118800E+02  0.7816164E-02  0.1184000E+00
        -11   -1    0    0    0    0  0.00000000000E+00  0.00000000000E+00  0.45593999997E+02  0.45594000000E+02  0.51100000000E-03 0. -1.
         11   -1    0    0    0    0 -0.00000000000E+00 -0.00000000000E+00 -0.45593999997E+02  0.45594000000E+02  0.51100000000E-03 0.  1.
         23    2    1    2    0    0  0.00000000000E+00 -0.35527136788E-14  0.00000000000E+00  0.91188000000E+02  0.91188000000E+02 0.  0.
    9900012    2    3    3    0    0  0.18185025213E+02 -0.28477963419E+02  0.14631842937E+02  0.54367077005E+02  0.39999983647E+02 0.  0.
        -12    1    3    3    0    0 -0.18185025213E+02  0.28477963419E+02 -0.14631842937E+02  0.36820922995E+02  0.00000000000E+00 0.  1.
         11    1    4    4    0    0  0.20949270231E+02 -0.91634480269E+01  0.95822035192E+01  0.24792323964E+02  0.51100000000E-03 0. -1.
        -11    1    4    4    0    0 -0.60337136247E+01  0.28935071286E+01  0.10364492954E+01  0.67714334532E+01  0.51100000000E-03 0.  1.
        -12    1    4    4    0    0  0.32694686062E+01 -0.22208022521E+02  0.40131901220E+01  0.22803319588E+02  0.00000000000E+00 0.  1.
</event>
<event>
 8    1  0.1261983E-006  0.9118800E+02  0.7816164E-02  0.1184000E+00
        -11   -1    0    0    0    0  0.00000000000E+00  0.00000000000E+00  0.45593999997E+02  0.45594000000E+02  0.51100000000E-03 0. -1.
         11   -1    0    0    0    0 -0.00000000000E+00 -0.00000000000E+00 -0.45593999997E+02  0.45594000000E+02  0.51100000000E-03 0.  1.
         23    2    1    2    0    0  0.35527136788E-14  0.00000000000E+00 -0.35527136788E-14  0.91188000000E+02  0.91188000000E+02 0.  0.
    9900012    2    3    3    0    0 -0.29121965239E+02 -0.10616195794E+02 -0.19874311169E+02  0.54367072296E+02  0.39999972914E+02 0.  0.
         12    1    3    3    0    0  0.29121965239E+02  0.10616195794E+02  0.19874311169E+02  0.36820927704E+02  0.00000000000E+00 0. -1.
         11    1    4    4    0    0 -0.51674428278E+01 -0.63709339037E+01 -0.21379656526E+02  0.22899366315E+02  0.51100000000E-03 0. -1.
        -11    1    4    4    0    0 -0.20044301513E+02 -0.67109274569E+01 -0.65935528601E+01  0.22142391697E+02  0.51100000000E-03 0.  1.
         12    1    4    4    0    0 -0.39102208983E+01  0.24656655664E+01  0.80988982178E+01  0.93253142843E+01  0.00000000000E+00 0. -1.
</event>
<event>
 8    1  0.1261983E-006  0.9118800E+02  0.7816164E-02  0.1184000E+00
        -11   -1    0    0    0    0  0.00000000000E+00  0.00000000000E+00  0.45593999997E+02  0.45594000000E+02  0.51100000000E-03 0. -1.
         11   -1    0    0    0    0 -0.00000000000E+00 -0.00000000000E+00 -0.45593999997E+02  0.45594000000E+02  0.51100000000E-03 0.  1.
         23    2    1    2    0    0 -0.17763568394E-14  0.35527136788E-14  0.00000000000E+00  0.91188000000E+02  0.91188000000E+02 0.  0.
    9900012    2    3    3    0    0 -0.15942930487E+02  0.21729834968E+02  0.25088180781E+02  0.54367087801E+02  0.40000008260E+02 0.  0.
        -12    1    3    3    0    0  0.15942930487E+02 -0.21729834968E+02 -0.25088180781E+02  0.36820912199E+02  0.00000000000E+00 0.  1.
         11    1    4    4    0    0  0.67696869403E+01  0.11919410137E+01  0.98787675929E+00  0.69444427712E+01  0.51100000000E-03 0.  1.
        -11    1    4    4    0    0  0.41799380905E+01 -0.29249879940E+01  0.38241455380E+01  0.63758549672E+01  0.51100000000E-03 0. -1.
         12    1    4    4    0    0 -0.26892555518E+02  0.23462881948E+02  0.20276158484E+02  0.41046790063E+02  0.00000000000E+00 0. -1.
</event>
<event>
 8    1  0.1261983E-006  0.9118800E+02  0.7816164E-02  0.1184000E+00
        -11   -1    0    0    0    0  0.00000000000E+00  0.00000000000E+00  0.45593999997E+02  0.45594000000E+02  0.51100000000E-03 0. -1.
         11   -1    0    0    0    0 -0.00000000000E+00 -0.00000000000E+00 -0.45593999997E+02  0.45594000000E+02  0.51100000000E-03 0.  1.
         23    2    1    2    0    0  0.00000000000E+00  0.35527136788E-14  0.00000000000E+00  0.91188000000E+02  0.91188000000E+02 0.  0.
    9900012    2    3    3    0    0  0.13625870112E+02  0.16918528232E+02 -0.29730101453E+02  0.54367083849E+02  0.39999999250E+02 0.  0.
         12    1    3    3    0    0 -0.13625870112E+02 -0.16918528232E+02  0.29730101453E+02  0.36820916151E+02  0.00000000000E+00 0. -1.
         11    1    4    4    0    0 -0.67246611420E+01 -0.48916615662E+01  0.45216526650E+00  0.83278973362E+01  0.51100000000E-03 0. -1.
        -11    1    4    4    0    0  0.20359591916E+01  0.11059037978E+02 -0.31795392312E+01  0.11685757177E+02  0.51100000000E-03 0.  1.
         12    1    4    4    0    0  0.18314572062E+02  0.10751151820E+02 -0.27002727488E+02  0.34353429335E+02  0.00000000000E+00 0. -1.
</event>
<event>
 8    1  0.1261983E-006  0.9118800E+02  0.7816164E-02  0.1184000E+00
        -11   -1    0    0    0    0  0.00000000000E+00  0.00000000000E+00  0.45593999997E+02  0.45594000000E+02  0.51100000000E-03 0.  1.
         11   -1    0    0    0    0 -0.00000000000E+00 -0.00000000000E+00 -0.45593999997E+02  0.45594000000E+02  0.51100000000E-03 0. -1.
         23    2    1    2    0    0  0.00000000000E+00  0.35527136788E-14 -0.35527136788E-14  0.91188000000E+02  0.91188000000E+02 0.  0.
    9900012    2    3    3    0    0 -0.16020923615E+02 -0.29571439129E+02  0.14987983493E+02  0.54367086720E+02  0.40000005795E+02 0.  0.
        -12    1    3    3    0    0  0.16020923615E+02  0.29571439129E+02 -0.14987983493E+02  0.36820913280E+02  0.00000000000E+00 0.  1.
         11    1    4    4    0    0  0.63136331330E+01 -0.14462139138E+02 -0.73655609890E+01  0.17414560595E+02  0.51100000000E-03 0. -1.
        -11    1    4    4    0    0 -0.11361205692E+02 -0.32178294873E+01  0.15234244296E+02  0.19274688608E+02  0.51100000000E-03 0.  1.
         12    1    4    4    0    0 -0.10973351055E+02 -0.11891470503E+02  0.71193001861E+01  0.17677837517E+02  0.00000000000E+00 0. -1.
</event>
<event>
 8    1  0.1261983E-006  0.9118800E+02  0.7816164E-02  0.1184000E+00
        -11   -1    0    0    0    0  0.00000000000E+00  0.00000000000E+00  0.45593999997E+02  0.45594000000E+02  0.51100000000E-03 0.  1.
         11   -1    0    0    0    0 -0.00000000000E+00 -0.00000000000E+00 -0.45593999997E+02  0.45594000000E+02  0.51100000000E-03 0. -1.
         23    2    1    2    0    0  0.35527136788E-14  0.00000000000E+00  0.35527136788E-14  0.91188000000E+02  0.91188000000E+02 0.  0.
    9900012    2    3    3    0    0 -0.23705425518E+02  0.15215953717E+02 -0.23712928082E+02  0.54367144433E+02  0.40000137363E+02 0.  0.
        -12    1    3    3    0    0  0.23705425518E+02 -0.15215953717E+02  0.23712928082E+02  0.36820855567E+02  0.00000000000E+00 0.  1.
         11    1    4    4    0    0 -0.92612081365E+01  0.23099838052E+00  0.17453111058E+01  0.94270593250E+01  0.51100000000E-03 0.  1.
        -11    1    4    4    0    0  0.79425500679E+01  0.61757204582E+01 -0.20685067515E+00  0.10063121396E+02  0.51100000000E-03 0. -1.
         12    1    4    4    0    0 -0.22386767449E+02  0.88092348780E+01 -0.25251388512E+02  0.34876963712E+02  0.00000000000E+00 0. -1.
</event>
<event>
 8    1  0.1261983E-006  0.9118800E+02  0.7816164E-02  0.1184000E+00
        -11   -1    0    0    0    0  0.00000000000E+00  0.00000000000E+00  0.45593999997E+02  0.45594000000E+02  0.51100000000E-03 0. -1.
         11   -1    0    0    0    0 -0.00000000000E+00 -0.00000000000E+00 -0.45593999997E+02  0.45594000000E+02  0.51100000000E-03 0.  1.
         23    2    1    2    0    0 -0.17763568394E-14  0.00000000000E+00  0.00000000000E+00  0.91188000000E+02  0.91188000000E+02 0.  0.
    9900012    2    3    3    0    0 -0.12968566148E+02 -0.35796456479E+01 -0.34275065449E+02  0.54367113503E+02  0.40000066852E+02 0.  0.
         12    1    3    3    0    0  0.12968566148E+02  0.35796456479E+01  0.34275065449E+02  0.36820886497E+02  0.00000000000E+00 0. -1.
         11    1    4    4    0    0 -0.30166928477E+01 -0.52301581807E+01  0.24536275699E+01  0.65173061034E+01  0.51100000000E-03 0. -1.
        -11    1    4    4    0    0 -0.15791076796E+00 -0.55100755693E+01  0.30237295734E+01  0.62871940788E+01  0.51100000000E-03 0.  1.
        -12    1    4    4    0    0 -0.97939625324E+01  0.71605881022E+01 -0.39752422592E+02  0.41562613320E+02  0.00000000000E+00 0.  1.
</event>
<event>
 8    1  0.1261983E-006  0.9118800E+02  0.7816164E-02  0.1184000E+00
        -11   -1    0    0    0    0  0.00000000000E+00  0.00000000000E+00  0.45593999997E+02  0.45594000000E+02  0.51100000000E-03 0.  1.
         11   -1    0    0    0    0 -0.00000000000E+00 -0.00000000000E+00 -0.45593999997E+02  0.45594000000E+02  0.51100000000E-03 0. -1.
         23    2    1    2    0    0  0.17763568394E-14  0.44408920985E-15 -0.71054273576E-14  0.91188000000E+02  0.91188000000E+02 0.  0.
    9900012    2    3    3    0    0  0.68328027224E+01  0.26116373002E+01  0.36086983029E+02  0.54367106657E+02  0.40000051246E+02 0.  0.
         12    1    3    3    0    0 -0.68328027224E+01 -0.26116373002E+01 -0.36086983029E+02  0.36820893343E+02  0.00000000000E+00 0. -1.
         11    1    4    4    0    0  0.10778995918E+02 -0.41908055770E+00  0.15435172783E+01  0.10897010019E+02  0.51100000000E-03 0. -1.
        -11    1    4    4    0    0 -0.20980446051E+01 -0.67300260619E+01 -0.47923102452E+00  0.70657416168E+01  0.51100000000E-03 0.  1.
        -12    1    4    4    0    0 -0.18481485905E+01  0.97607439198E+01  0.35022696775E+02  0.36404355021E+02  0.00000000000E+00 0.  1.
</event>
<event>
 8    1  0.1261983E-006  0.9118800E+02  0.7816164E-02  0.1184000E+00
        -11   -1    0    0    0    0  0.00000000000E+00  0.00000000000E+00  0.45593999997E+02  0.45594000000E+02  0.51100000000E-03 0. -1.
         11   -1    0    0    0    0 -0.00000000000E+00 -0.00000000000E+00 -0.45593999997E+02  0.45594000000E+02  0.51100000000E-03 0.  1.
         23    2    1    2    0    0  0.35527136788E-14  0.31086244690E-14  0.00000000000E+00  0.91188000000E+02  0.91188000000E+02 0.  0.
    9900012    2    3    3    0    0  0.16653165015E+02 -0.31792945681E+01 -0.32685522486E+02  0.54367092908E+02  0.40000019901E+02 0.  0.
         12    1    3    3    0    0 -0.16653165015E+02  0.31792945681E+01  0.32685522486E+02  0.36820907092E+02  0.00000000000E+00 0. -1.
         11    1    4    4    0    0  0.49813501328E+01 -0.58011811536E+01 -0.12872809271E+02  0.14972533877E+02  0.51100000000E-03 0. -1.
        -11    1    4    4    0    0  0.19239604927E+01  0.16680310976E+02 -0.11671114751E+02  0.20448699665E+02  0.51100000000E-03 0.  1.
        -12    1    4    4    0    0  0.97478543892E+01 -0.14058424390E+02 -0.81415984643E+01  0.18945859365E+02  0.00000000000E+00 0.  1.
</event>
<event>
 8    1  0.1261983E-006  0.9118800E+02  0.7816164E-02  0.1184000E+00
        -11   -1    0    0    0    0  0.00000000000E+00  0.00000000000E+00  0.45593999997E+02  0.45594000000E+02  0.51100000000E-03 0. -1.
         11   -1    0    0    0    0 -0.00000000000E+00 -0.00000000000E+00 -0.45593999997E+02  0.45594000000E+02  0.51100000000E-03 0.  1.
         23    2    1    2    0    0 -0.35527136788E-14  0.35527136788E-14 -0.35527136788E-14  0.91188000000E+02  0.91188000000E+02 0.  0.
    9900012    2    3    3    0    0 -0.18986872561E+02  0.24689605028E+02 -0.19639484484E+02  0.54366983218E+02  0.39999769840E+02 0.  0.
         12    1    3    3    0    0  0.18986872561E+02 -0.24689605028E+02  0.19639484484E+02  0.36821016782E+02  0.00000000000E+00 0. -1.
         11    1    4    4    0    0  0.15710570975E+01 -0.30443710900E+01 -0.18610045670E+02  0.18922743349E+02  0.51100000000E-03 0. -1.
        -11    1    4    4    0    0 -0.15431949211E+02  0.14259196033E+02 -0.75753354939E+00  0.21024832587E+02  0.51100000000E-03 0.  1.
         12    1    4    4    0    0 -0.51259804475E+01  0.13474780085E+02 -0.27190526462E+00  0.14419407282E+02  0.00000000000E+00 0. -1.
</event>
<event>
 8    1  0.1261983E-006  0.9118800E+02  0.7816164E-02  0.1184000E+00
        -11   -1    0    0    0    0  0.00000000000E+00  0.00000000000E+00  0.45593999997E+02  0.45594000000E+02  0.51100000000E-03 0. -1.
         11   -1    0    0    0    0 -0.00000000000E+00 -0.00000000000E+00 -0.45593999997E+02  0.45594000000E+02  0.51100000000E-03 0.  1.
         23    2    1    2    0    0  0.88817841970E-15 -0.35527136788E-14  0.00000000000E+00  0.91188000000E+02  0.91188000000E+02 0.  0.
    9900012    2    3    3    0    0 -0.76300027162E+01 -0.30901292036E+02 -0.18511443288E+02  0.54367077638E+02  0.39999985092E+02 0.  0.
         12    1    3    3    0    0  0.76300027162E+01  0.30901292036E+02  0.18511443288E+02  0.36820922362E+02  0.00000000000E+00 0. -1.
         11    1    4    4    0    0 -0.50948200987E+01 -0.28003422716E+02 -0.13173808505E+01  0.28493584685E+02  0.51100000000E-03 0. -1.
        -11    1    4    4    0    0  0.73633662349E+01  0.11414883115E+01 -0.28369849375E+01  0.79731199459E+01  0.51100000000E-03 0.  1.
        -12    1    4    4    0    0 -0.98985488524E+01 -0.40393576319E+01 -0.14357077500E+02  0.17900373008E+02  0.00000000000E+00 0.  1.
</event>
<event>
 8    1  0.1261983E-006  0.9118800E+02  0.7816164E-02  0.1184000E+00
        -11   -1    0    0    0    0  0.00000000000E+00  0.00000000000E+00  0.45593999997E+02  0.45594000000E+02  0.51100000000E-03 0.  1.
         11   -1    0    0    0    0 -0.00000000000E+00 -0.00000000000E+00 -0.45593999997E+02  0.45594000000E+02  0.51100000000E-03 0. -1.
         23    2    1    2    0    0  0.00000000000E+00  0.00000000000E+00  0.17763568394E-14  0.91188000000E+02  0.91188000000E+02 0.  0.
    9900012    2    3    3    0    0  0.33375836230E+02  0.90905569121E+01  0.12617340724E+02  0.54367055472E+02  0.39999934559E+02 0.  0.
         12    1    3    3    0    0 -0.33375836230E+02 -0.90905569121E+01 -0.12617340724E+02  0.36820944528E+02  0.00000000000E+00 0. -1.
         11    1    4    4    0    0  0.23102090083E+02  0.17004548123E+02  0.12616547929E+02  0.31337493598E+02  0.51100000000E-03 0. -1.
        -11    1    4    4    0    0  0.12725704001E+02 -0.51163208393E+01 -0.67765006295E+01  0.15298406528E+02  0.51100000000E-03 0.  1.
        -12    1    4    4    0    0 -0.24519578545E+01 -0.27976703717E+01  0.67772934243E+01  0.77311553463E+01  0.00000000000E+00 0.  1.
</event>
<event>
 8    1  0.1261983E-006  0.9118800E+02  0.7816164E-02  0.1184000E+00
        -11   -1    0    0    0    0  0.00000000000E+00  0.00000000000E+00  0.45593999997E+02  0.45594000000E+02  0.51100000000E-03 0.  1.
         11   -1    0    0    0    0 -0.00000000000E+00 -0.00000000000E+00 -0.45593999997E+02  0.45594000000E+02  0.51100000000E-03 0. -1.
         23    2    1    2    0    0  0.00000000000E+00  0.88817841970E-15  0.00000000000E+00  0.91188000000E+02  0.91188000000E+02 0.  0.
    9900012    2    3    3    0    0  0.48764219839E+01 -0.48338164721E+01 -0.36175040840E+02  0.54367097610E+02  0.40000030622E+02 0.  0.
        -12    1    3    3    0    0 -0.48764219839E+01  0.48338164721E+01  0.36175040840E+02  0.36820902390E+02  0.00000000000E+00 0.  1.
         11    1    4    4    0    0  0.23781023187E+01 -0.39712699465E+01 -0.12139850172E+02  0.12992394624E+02  0.51100000000E-03 0. -1.
        -11    1    4    4    0    0  0.20442156807E+01 -0.96911031742E+01  0.49492545840E+01  0.11072100961E+02  0.51100000000E-03 0.  1.
        -12    1    4    4    0    0  0.45410398444E+00  0.88285566486E+01 -0.28984445252E+02  0.30302602025E+02  0.00000000000E+00 0.  1.
</event>
<event>
 8    1  0.1261983E-006  0.9118800E+02  0.7816164E-02  0.1184000E+00
        -11   -1    0    0    0    0  0.00000000000E+00  0.00000000000E+00  0.45593999997E+02  0.45594000000E+02  0.51100000000E-03 0.  1.
         11   -1    0    0    0    0 -0.00000000000E+00 -0.00000000000E+00 -0.45593999997E+02  0.45594000000E+02  0.51100000000E-03 0. -1.
         23    2    1    2    0    0  0.44408920985E-15  0.00000000000E+00  0.00000000000E+00  0.91188000000E+02  0.91188000000E+02 0.  0.
    9900012    2    3    3    0    0  0.99901382358E+00 -0.29524748232E+02  0.21978853953E+02  0.54367098221E+02  0.40000032014E+02 0.  0.
         12    1    3    3    0    0 -0.99901382358E+00  0.29524748232E+02 -0.21978853953E+02  0.36820901779E+02  0.00000000000E+00 0. -1.
         11    1    4    4    0    0  0.82337942151E+01 -0.88573914050E+01  0.15313221903E+02  0.19512650128E+02  0.51100000000E-03 0. -1.
        -11    1    4    4    0    0 -0.21503489155E+01 -0.11589776327E+02  0.16672555766E+02  0.20418644221E+02  0.51100000000E-03 0.  1.
         12    1    4    4    0    0 -0.50844314760E+01 -0.90775805000E+01 -0.10006923717E+02  0.14435803873E+02  0.00000000000E+00 0. -1.
</event>
<event>
 8    1  0.1261983E-006  0.9118800E+02  0.7816164E-02  0.1184000E+00
        -11   -1    0    0    0    0  0.00000000000E+00  0.00000000000E+00  0.45593999997E+02  0.45594000000E+02  0.51100000000E-03 0. -1.
         11   -1    0    0    0    0 -0.00000000000E+00 -0.00000000000E+00 -0.45593999997E+02  0.45594000000E+02  0.51100000000E-03 0.  1.
         23    2    1    2    0    0  0.00000000000E+00  0.00000000000E+00  0.00000000000E+00  0.91188000000E+02  0.91188000000E+02 0.  0.
    9900012    2    3    3    0    0  0.14675861472E+02  0.15914571164E+02 -0.29784562665E+02  0.54367154566E+02  0.40000160465E+02 0.  0.
         12    1    3    3    0    0 -0.14675861472E+02 -0.15914571164E+02  0.29784562665E+02  0.36820845434E+02  0.00000000000E+00 0. -1.
         11    1    4    4    0    0 -0.84509280097E+00  0.10248251856E+02  0.36263337774E+01  0.10903721607E+02  0.51100000000E-03 0. -1.
        -11    1    4    4    0    0 -0.63961591423E+00  0.10442791262E+02 -0.16866047918E+02  0.19847533108E+02  0.51100000000E-03 0.  1.
        -12    1    4    4    0    0  0.16160570187E+02 -0.47764719536E+01 -0.16544848524E+02  0.23615899851E+02  0.00000000000E+00 0.  1.
</event>
<event>
 8    1  0.1261983E-006  0.9118800E+02  0.7816164E-02  0.1184000E+00
        -11   -1    0    0    0    0  0.00000000000E+00  0.00000000000E+00  0.45593999997E+02  0.45594000000E+02  0.51100000000E-03 0.  1.
         11   -1    0    0    0    0 -0.00000000000E+00 -0.00000000000E+00 -0.45593999997E+02  0.45594000000E+02  0.51100000000E-03 0. -1.
         23    2    1    2    0    0  0.00000000000E+00  0.35527136788E-14  0.00000000000E+00  0.91188000000E+02  0.91188000000E+02 0.  0.
    9900012    2    3    3    0    0  0.15888107173E+02  0.27625875875E+02  0.18443398722E+02  0.54367083067E+02  0.39999997467E+02 0.  0.
         12    1    3    3    0    0 -0.15888107173E+02 -0.27625875875E+02 -0.18443398722E+02  0.36820916933E+02  0.00000000000E+00 0. -1.
         11    1    4    4    0    0 -0.32721010219E+01  0.88904168939E+01  0.24072538724E+01  0.97745091494E+01  0.51100000000E-03 0. -1.
        -11    1    4    4    0    0  0.12110587126E+02 -0.23582906827E+01 -0.56131763009E+01  0.13554910694E+02  0.51100000000E-03 0.  1.
        -12    1    4    4    0    0  0.70496210687E+01  0.21093749664E+02  0.21649321150E+02  0.31037663223E+02  0.00000000000E+00 0.  1.
</event>
<event>
 8    1  0.1261983E-006  0.9118800E+02  0.7816164E-02  0.1184000E+00
        -11   -1    0    0    0    0  0.00000000000E+00  0.00000000000E+00  0.45593999997E+02  0.45594000000E+02  0.51100000000E-03 0. -1.
         11   -1    0    0    0    0 -0.00000000000E+00 -0.00000000000E+00 -0.45593999997E+02  0.45594000000E+02  0.51100000000E-03 0.  1.
         23    2    1    2    0    0  0.00000000000E+00 -0.35527136788E-14  0.17763568394E-14  0.91188000000E+02  0.91188000000E+02 0.  0.
    9900012    2    3    3    0    0  0.33669252144E+02  0.12496633393E+02 -0.81235410655E+01  0.54367132200E+02  0.40000109475E+02 0.  0.
         12    1    3    3    0    0 -0.33669252144E+02 -0.12496633393E+02  0.81235410655E+01  0.36820867800E+02  0.00000000000E+00 0. -1.
         11    1    4    4    0    0  0.17523020973E+02 -0.94553622584E+01 -0.16130005404E+02  0.25624933445E+02  0.51100000000E-03 0. -1.
        -11    1    4    4    0    0  0.67000615546E+01  0.61974607891E+01  0.38663263425E+01  0.99120040716E+01  0.51100000000E-03 0.  1.
         12    1    4    4    0    0  0.94461696164E+01  0.15754534863E+02  0.41401379961E+01  0.18830194683E+02  0.00000000000E+00 0. -1.
</event>
<event>
 8    1  0.1261983E-006  0.9118800E+02  0.7816164E-02  0.1184000E+00
        -11   -1    0    0    0    0  0.00000000000E+00  0.00000000000E+00  0.45593999997E+02  0.45594000000E+02  0.51100000000E-03 0.  1.
         11   -1    0    0    0    0 -0.00000000000E+00 -0.00000000000E+00 -0.45593999997E+02  0.45594000000E+02  0.51100000000E-03 0. -1.
         23    2    1    2    0    0  0.44408920985E-15 -0.22204460493E-14 -0.71054273576E-14  0.91188000000E+02  0.91188000000E+02 0.  0.
    9900012    2    3    3    0    0 -0.27743934666E+01 -0.35051744706E+01 -0.36548361059E+02  0.54367269382E+02  0.40000422207E+02 0.  0.
        -12    1    3    3    0    0  0.27743934666E+01  0.35051744706E+01  0.36548361059E+02  0.36820730618E+02  0.00000000000E+00 0.  1.
         11    1    4    4    0    0  0.52089306169E+00  0.74680129785E+01 -0.33975944167E+02  0.34790908722E+02  0.51100000000E-03 0. -1.
        -11    1    4    4    0    0  0.17292811251E+01 -0.76199637924E+01 -0.81955478346E+01  0.11323482944E+02  0.51100000000E-03 0.  1.
        -12    1    4    4    0    0 -0.50245676533E+01 -0.33532236568E+01  0.56231309423E+01  0.82528777157E+01  0.00000000000E+00 0.  1.
</event>
<event>
 8    1  0.1261983E-006  0.9118800E+02  0.7816164E-02  0.1184000E+00
        -11   -1    0    0    0    0  0.00000000000E+00  0.00000000000E+00  0.45593999997E+02  0.45594000000E+02  0.51100000000E-03 0. -1.
         11   -1    0    0    0    0 -0.00000000000E+00 -0.00000000000E+00 -0.45593999997E+02  0.45594000000E+02  0.51100000000E-03 0.  1.
         23    2    1    2    0    0  0.35527136788E-14  0.26645352591E-14  0.71054273576E-14  0.91188000000E+02  0.91188000000E+02 0.  0.
    9900012    2    3    3    0    0  0.17155725911E+02 -0.13858967119E+01  0.32550571868E+02  0.54367090585E+02  0.40000014607E+02 0.  0.
        -12    1    3    3    0    0 -0.17155725911E+02  0.13858967119E+01 -0.32550571868E+02  0.36820909415E+02  0.00000000000E+00 0.  1.
         11    1    4    4    0    0 -0.19457099705E+01  0.32443059220E+01  0.47626705894E+01  0.60822972312E+01  0.51100000000E-03 0. -1.
        -11    1    4    4    0    0  0.20534003123E+02 -0.14328498885E+02  0.81434142866E+01  0.26329951786E+02  0.51100000000E-03 0.  1.
        -12    1    4    4    0    0 -0.14325672420E+01  0.96982962511E+01  0.19644486992E+02  0.21954841567E+02  0.00000000000E+00 0.  1.
</event>
<event>
 8    1  0.1261983E-006  0.9118800E+02  0.7816164E-02  0.1184000E+00
        -11   -1    0    0    0    0  0.00000000000E+00  0.00000000000E+00  0.45593999997E+02  0.45594000000E+02  0.51100000000E-03 0.  1.
         11   -1    0    0    0    0 -0.00000000000E+00 -0.00000000000E+00 -0.45593999997E+02  0.45594000000E+02  0.51100000000E-03 0. -1.
         23    2    1    2    0    0  0.35527136788E-14  0.13322676296E-14  0.00000000000E+00  0.91188000000E+02  0.91188000000E+02 0.  0.
    9900012    2    3    3    0    0 -0.31225715025E+02  0.11861923983E+01 -0.19476238886E+02  0.54367133465E+02  0.40000112360E+02 0.  0.
        -12    1    3    3    0    0  0.31225715025E+02 -0.11861923983E+01  0.19476238886E+02  0.36820866535E+02  0.00000000000E+00 0.  1.
         11    1    4    4    0    0 -0.22306060231E+02 -0.13261934839E+01 -0.14812635713E+02  0.26809201577E+02  0.51100000000E-03 0. -1.
        -11    1    4    4    0    0 -0.62988312862E+01 -0.10789979050E+02 -0.61373520529E+01  0.13919986133E+02  0.51100000000E-03 0.  1.
        -12    1    4    4    0    0 -0.26208235086E+01  0.13302364932E+02  0.14737488807E+01  0.13637945755E+02  0.00000000000E+00 0.  1.
</event>
<event>
 8    1  0.1261983E-006  0.9118800E+02  0.7816164E-02  0.1184000E+00
        -11   -1    0    0    0    0  0.00000000000E+00  0.00000000000E+00  0.45593999997E+02  0.45594000000E+02  0.51100000000E-03 0. -1.
         11   -1    0    0    0    0 -0.00000000000E+00 -0.00000000000E+00 -0.45593999997E+02  0.45594000000E+02  0.51100000000E-03 0.  1.
         23    2    1    2    0    0 -0.35527136788E-14  0.88817841970E-15  0.00000000000E+00  0.91188000000E+02  0.91188000000E+02 0.  0.
    9900012    2    3    3    0    0 -0.17514927751E+02 -0.26888928545E+01 -0.32276576637E+02  0.54367078796E+02  0.39999987731E+02 0.  0.
         12    1    3    3    0    0  0.17514927751E+02  0.26888928545E+01  0.32276576637E+02  0.36820921204E+02  0.00000000000E+00 0. -1.
         11    1    4    4    0    0 -0.19079837355E+02  0.29113592452E+01 -0.37426470743E+01  0.19660203802E+02  0.51100000000E-03 0. -1.
        -11    1    4    4    0    0  0.49237284499E+01  0.13745866461E+01 -0.26093996279E+02  0.26590021293E+02  0.51100000000E-03 0.  1.
         12    1    4    4    0    0 -0.33588188458E+01 -0.69748387459E+01 -0.24399332840E+01  0.81168537008E+01  0.00000000000E+00 0. -1.
</event>
<event>
 8    1  0.1261983E-006  0.9118800E+02  0.7816164E-02  0.1184000E+00
        -11   -1    0    0    0    0  0.00000000000E+00  0.00000000000E+00  0.45593999997E+02  0.45594000000E+02  0.51100000000E-03 0.  1.
         11   -1    0    0    0    0 -0.00000000000E+00 -0.00000000000E+00 -0.45593999997E+02  0.45594000000E+02  0.51100000000E-03 0. -1.
         23    2    1    2    0    0 -0.33306690739E-14  0.00000000000E+00  0.00000000000E+00  0.91188000000E+02  0.91188000000E+02 0.  0.
    9900012    2    3    3    0    0 -0.14783727005E+01 -0.26679723901E+02 -0.25333513009E+02  0.54367080204E+02  0.39999990940E+02 0.  0.
        -12    1    3    3    0    0  0.14783727005E+01  0.26679723901E+02  0.25333513009E+02  0.36820919796E+02  0.00000000000E+00 0.  1.
         11    1    4    4    0    0  0.12659597747E+02 -0.87004812956E+01 -0.29078870246E+01  0.15633924558E+02  0.51100000000E-03 0. -1.
        -11    1    4    4    0    0 -0.18089176531E+02 -0.19706703920E+02 -0.21507638176E+02  0.34324204100E+02  0.51100000000E-03 0.  1.
        -12    1    4    4    0    0  0.39512060836E+01  0.17274613144E+01 -0.91798780831E+00  0.44089515447E+01  0.00000000000E+00 0.  1.
</event>
<event>
 8    1  0.1261983E-006  0.9118800E+02  0.7816164E-02  0.1184000E+00
        -11   -1    0    0    0    0  0.00000000000E+00  0.00000000000E+00  0.45593999997E+02  0.45594000000E+02  0.51100000000E-03 0. -1.
         11   -1    0    0    0    0 -0.00000000000E+00 -0.00000000000E+00 -0.45593999997E+02  0.45594000000E+02  0.51100000000E-03 0.  1.
         23    2    1    2    0    0  0.00000000000E+00 -0.44408920985E-15  0.00000000000E+00  0.91188000000E+02  0.91188000000E+02 0.  0.
    9900012    2    3    3    0    0  0.26738388949E+02  0.22002656998E+01  0.25218983069E+02  0.54367085837E+02  0.40000003784E+02 0.  0.
        -12    1    3    3    0    0 -0.26738388949E+02 -0.22002656998E+01 -0.25218983069E+02  0.36820914163E+02  0.00000000000E+00 0.  1.
         11    1    4    4    0    0  0.19236667261E+02  0.78413836318E+01  0.10182449199E+02  0.23134799254E+02  0.51100000000E-03 0. -1.
        -11    1    4    4    0    0  0.10989641704E+01 -0.97795104079E+01  0.19892305022E+02  0.22193475289E+02  0.51100000000E-03 0.  1.
         12    1    4    4    0    0  0.64027575175E+01  0.41383924759E+01 -0.48557711529E+01  0.90388112936E+01  0.00000000000E+00 0. -1.
</event>
<event>
 8    1  0.1261983E-006  0.9118800E+02  0.7816164E-02  0.1184000E+00
        -11   -1    0    0    0    0  0.00000000000E+00  0.00000000000E+00  0.45593999997E+02  0.45594000000E+02  0.51100000000E-03 0. -1.
         11   -1    0    0    0    0 -0.00000000000E+00 -0.00000000000E+00 -0.45593999997E+02  0.45594000000E+02  0.51100000000E-03 0.  1.
         23    2    1    2    0    0  0.00000000000E+00  0.00000000000E+00 -0.17763568394E-14  0.91188000000E+02  0.91188000000E+02 0.  0.
    9900012    2    3    3    0    0 -0.11526249310E+02  0.34326910598E+02  0.66774502927E+01  0.54367088050E+02  0.40000008828E+02 0.  0.
        -12    1    3    3    0    0  0.11526249310E+02 -0.34326910598E+02 -0.66774502927E+01  0.36820911950E+02  0.00000000000E+00 0.  1.
         11    1    4    4    0    0 -0.77483993347E+01  0.11565438423E+02  0.72478906880E+01  0.15694871068E+02  0.51100000000E-03 0. -1.
        -11    1    4    4    0    0 -0.11449806780E+02  0.12521121242E+02  0.11963569871E+02  0.20760625154E+02  0.51100000000E-03 0.  1.
        -12    1    4    4    0    0  0.76719568047E+01  0.10240350933E+02 -0.12534010267E+02  0.17911591828E+02  0.00000000000E+00 0.  1.
</event>
<event>
 8    1  0.1261983E-006  0.9118800E+02  0.7816164E-02  0.1184000E+00
        -11   -1    0    0    0    0  0.00000000000E+00  0.00000000000E+00  0.45593999997E+02  0.45594000000E+02  0.51100000000E-03 0.  1.
         11   -1    0    0    0    0 -0.00000000000E+00 -0.00000000000E+00 -0.45593999997E+02  0.45594000000E+02  0.51100000000E-03 0. -1.
         23    2    1    2    0    0  0.35527136788E-14  0.00000000000E+00  0.00000000000E+00  0.91188000000E+02  0.91188000000E+02 0.  0.
    9900012    2    3    3    0    0  0.18304091622E+02  0.91095978219E+01  0.30622803393E+02  0.54367073474E+02  0.39999975598E+02 0.  0.
         12    1    3    3    0    0 -0.18304091622E+02 -0.91095978219E+01 -0.30622803393E+02  0.36820926526E+02  0.00000000000E+00 0. -1.
         11    1    4    4    0    0  0.24583757996E+02 -0.61675029091E+01  0.19683288522E+02  0.32090981547E+02  0.51100000000E-03 0.  1.
        -11    1    4    4    0    0 -0.65678434608E-01  0.40472312761E+01 -0.15814411549E+01  0.43457279075E+01  0.51100000000E-03 0. -1.
        -12    1    4    4    0    0 -0.62139879387E+01  0.11229869455E+02  0.12520956026E+02  0.17930364020E+02  0.00000000000E+00 0.  1.
</event>
<event>
 8    1  0.1261983E-006  0.9118800E+02  0.7816164E-02  0.1184000E+00
        -11   -1    0    0    0    0  0.00000000000E+00  0.00000000000E+00  0.45593999997E+02  0.45594000000E+02  0.51100000000E-03 0. -1.
         11   -1    0    0    0    0 -0.00000000000E+00 -0.00000000000E+00 -0.45593999997E+02  0.45594000000E+02  0.51100000000E-03 0.  1.
         23    2    1    2    0    0  0.17763568394E-14  0.00000000000E+00  0.00000000000E+00  0.91188000000E+02  0.91188000000E+02 0.  0.
    9900012    2    3    3    0    0 -0.13019660977E+02 -0.33491234106E+02 -0.80377319535E+01  0.54367089245E+02  0.40000011552E+02 0.  0.
         12    1    3    3    0    0  0.13019660977E+02  0.33491234106E+02  0.80377319535E+01  0.36820910755E+02  0.00000000000E+00 0. -1.
         11    1    4    4    0    0 -0.14854308344E+02 -0.20081607076E+01  0.75190135566E+01  0.16769578138E+02  0.51100000000E-03 0. -1.
        -11    1    4    4    0    0 -0.17583402215E+01 -0.25311985699E+02 -0.67423050223E+01  0.26253515148E+02  0.51100000000E-03 0.  1.
        -12    1    4    4    0    0  0.35929875884E+01 -0.61710876993E+01 -0.88144404877E+01  0.11343995959E+02  0.00000000000E+00 0.  1.
</event>
<event>
 8    1  0.1261983E-006  0.9118800E+02  0.7816164E-02  0.1184000E+00
        -11   -1    0    0    0    0  0.00000000000E+00  0.00000000000E+00  0.45593999997E+02  0.45594000000E+02  0.51100000000E-03 0.  1.
         11   -1    0    0    0    0 -0.00000000000E+00 -0.00000000000E+00 -0.45593999997E+02  0.45594000000E+02  0.51100000000E-03 0. -1.
         23    2    1    2    0    0  0.22204460493E-14  0.00000000000E+00  0.00000000000E+00  0.91188000000E+02  0.91188000000E+02 0.  0.
    9900012    2    3    3    0    0  0.26917470316E+01  0.10404100041E+02 -0.35217703331E+02  0.54367116963E+02  0.40000074740E+02 0.  0.
        -12    1    3    3    0    0 -0.26917470316E+01 -0.10404100041E+02  0.35217703331E+02  0.36820883037E+02  0.00000000000E+00 0.  1.
         11    1    4    4    0    0  0.11263959870E+02  0.53252910511E+01 -0.22868771221E+02  0.26042584629E+02  0.51100000000E-03 0. -1.
        -11    1    4    4    0    0 -0.21316710966E+01 -0.92585992199E+01 -0.26820005445E+01  0.98721227890E+01  0.51100000000E-03 0.  1.
         12    1    4    4    0    0 -0.64405417422E+01  0.14337408210E+02 -0.96669315650E+01  0.18452409544E+02  0.00000000000E+00 0. -1.
</event>
<event>
 8    1  0.1261983E-006  0.9118800E+02  0.7816164E-02  0.1184000E+00
        -11   -1    0    0    0    0  0.00000000000E+00  0.00000000000E+00  0.45593999997E+02  0.45594000000E+02  0.51100000000E-03 0.  1.
         11   -1    0    0    0    0 -0.00000000000E+00 -0.00000000000E+00 -0.45593999997E+02  0.45594000000E+02  0.51100000000E-03 0. -1.
         23    2    1    2    0    0  0.00000000000E+00  0.13322676296E-14  0.17763568394E-14  0.91188000000E+02  0.91188000000E+02 0.  0.
    9900012    2    3    3    0    0 -0.33168979576E+02  0.23268108810E+01  0.15817384846E+02  0.54367015245E+02  0.39999842854E+02 0.  0.
         12    1    3    3    0    0  0.33168979576E+02 -0.23268108810E+01 -0.15817384846E+02  0.36820984755E+02  0.00000000000E+00 0. -1.
         11    1    4    4    0    0 -0.14231553213E+02 -0.81311391869E+01  0.66015270648E+01  0.17670107277E+02  0.51100000000E-03 0. -1.
        -11    1    4    4    0    0 -0.22687411618E+02  0.17937800237E+00  0.11625855077E+02  0.25493358526E+02  0.51100000000E-03 0.  1.
         12    1    4    4    0    0  0.37499852557E+01  0.10278572066E+02 -0.24099972962E+01  0.11203549442E+02  0.00000000000E+00 0. -1.
</event>
<event>
 8    1  0.1261983E-006  0.9118800E+02  0.7816164E-02  0.1184000E+00
        -11   -1    0    0    0    0  0.00000000000E+00  0.00000000000E+00  0.45593999997E+02  0.45594000000E+02  0.51100000000E-03 0. -1.
         11   -1    0    0    0    0 -0.00000000000E+00 -0.00000000000E+00 -0.45593999997E+02  0.45594000000E+02  0.51100000000E-03 0.  1.
         23    2    1    2    0    0  0.35527136788E-14 -0.35527136788E-14 -0.35527136788E-14  0.91188000000E+02  0.91188000000E+02 0.  0.
    9900012    2    3    3    0    0  0.22999113346E+02  0.23711678896E+02  0.16265804370E+02  0.54367091231E+02  0.40000016079E+02 0.  0.
        -12    1    3    3    0    0 -0.22999113346E+02 -0.23711678896E+02 -0.16265804370E+02  0.36820908769E+02  0.00000000000E+00 0.  1.
         11    1    4    4    0    0  0.88675917252E+01  0.19440658872E+02 -0.42664111344E+01  0.21789347503E+02  0.51100000000E-03 0. -1.
        -11    1    4    4    0    0  0.95057171618E+01  0.21794169548E+01 -0.15894421536E+01  0.98810345432E+01  0.51100000000E-03 0.  1.
        -12    1    4    4    0    0  0.46258044593E+01  0.20916030695E+01  0.22121657658E+02  0.22696709185E+02  0.00000000000E+00 0.  1.
</event>
<event>
 8    1  0.1261983E-006  0.9118800E+02  0.7816164E-02  0.1184000E+00
        -11   -1    0    0    0    0  0.00000000000E+00  0.00000000000E+00  0.45593999997E+02  0.45594000000E+02  0.51100000000E-03 0. -1.
         11   -1    0    0    0    0 -0.00000000000E+00 -0.00000000000E+00 -0.45593999997E+02  0.45594000000E+02  0.51100000000E-03 0.  1.
         23    2    1    2    0    0  0.00000000000E+00  0.00000000000E+00 -0.35527136788E-14  0.91188000000E+02  0.91188000000E+02 0.  0.
    9900012    2    3    3    0    0 -0.17541781749E+02 -0.10074452071E+02  0.30766433192E+02  0.54367053477E+02  0.39999930011E+02 0.  0.
        -12    1    3    3    0    0  0.17541781749E+02  0.10074452071E+02 -0.30766433192E+02  0.36820946523E+02  0.00000000000E+00 0.  1.
         11    1    4    4    0    0 -0.20146560196E+02  0.23108129970E+01  0.13507254027E+02  0.24365337183E+02  0.51100000000E-03 0. -1.
        -11    1    4    4    0    0  0.66356600415E+01 -0.11974758834E+02  0.15493233492E+01  0.13777780533E+02  0.51100000000E-03 0.  1.
        -12    1    4    4    0    0 -0.40308815947E+01 -0.41050623438E+00  0.15709855816E+02  0.16223935760E+02  0.00000000000E+00 0.  1.
</event>
<event>
 8    1  0.1261983E-006  0.9118800E+02  0.7816164E-02  0.1184000E+00
        -11   -1    0    0    0    0  0.00000000000E+00  0.00000000000E+00  0.45593999997E+02  0.45594000000E+02  0.51100000000E-03 0.  1.
         11   -1    0    0    0    0 -0.00000000000E+00 -0.00000000000E+00 -0.45593999997E+02  0.45594000000E+02  0.51100000000E-03 0. -1.
         23    2    1    2    0    0  0.00000000000E+00  0.00000000000E+00 -0.35527136788E-14  0.91188000000E+02  0.91188000000E+02 0.  0.
    9900012    2    3    3    0    0  0.11678005814E+02  0.25872921132E+02  0.23452010625E+02  0.54367072933E+02  0.39999974366E+02 0.  0.
         12    1    3    3    0    0 -0.11678005814E+02 -0.25872921132E+02 -0.23452010625E+02  0.36820927067E+02  0.00000000000E+00 0. -1.
         11    1    4    4    0    0  0.21639227877E+01  0.24355937820E+02  0.63038824944E+01  0.25251400034E+02  0.51100000000E-03 0. -1.
        -11    1    4    4    0    0 -0.41886543779E+01  0.27609246414E+00  0.14511584640E+02  0.15106526456E+02  0.51100000000E-03 0.  1.
         12    1    4    4    0    0  0.13702737405E+02  0.12408908475E+01  0.26365434912E+01  0.14009146443E+02  0.00000000000E+00 0. -1.
</event>
<event>
 8    1  0.1261983E-006  0.9118800E+02  0.7816164E-02  0.1184000E+00
        -11   -1    0    0    0    0  0.00000000000E+00  0.00000000000E+00  0.45593999997E+02  0.45594000000E+02  0.51100000000E-03 0. -1.
         11   -1    0    0    0    0 -0.00000000000E+00 -0.00000000000E+00 -0.45593999997E+02  0.45594000000E+02  0.51100000000E-03 0.  1.
         23    2    1    2    0    0  0.00000000000E+00 -0.17763568394E-14 -0.35527136788E-14  0.91188000000E+02  0.91188000000E+02 0.  0.
    9900012    2    3    3    0    0 -0.22904848383E+02 -0.33494555021E+01 -0.28634378443E+02  0.54367101581E+02  0.40000039674E+02 0.  0.
         12    1    3    3    0    0  0.22904848383E+02  0.33494555021E+01  0.28634378443E+02  0.36820898419E+02  0.00000000000E+00 0. -1.
         11    1    4    4    0    0 -0.78446904906E+01 -0.14477609803E+02 -0.13043917877E+02  0.21006764347E+02  0.51100000000E-03 0. -1.
        -11    1    4    4    0    0 -0.17755234145E+02  0.12138070356E+02 -0.45931876991E+01  0.21992691173E+02  0.51100000000E-03 0.  1.
        -12    1    4    4    0    0  0.26950762532E+01 -0.10099160548E+01 -0.10997272867E+02  0.11367646061E+02  0.00000000000E+00 0.  1.
</event>
<event>
 8    1  0.1261983E-006  0.9118800E+02  0.7816164E-02  0.1184000E+00
        -11   -1    0    0    0    0  0.00000000000E+00  0.00000000000E+00  0.45593999997E+02  0.45594000000E+02  0.51100000000E-03 0.  1.
         11   -1    0    0    0    0 -0.00000000000E+00 -0.00000000000E+00 -0.45593999997E+02  0.45594000000E+02  0.51100000000E-03 0. -1.
         23    2    1    2    0    0  0.15543122345E-14  0.17763568394E-14 -0.14210854715E-13  0.91188000000E+02  0.91188000000E+02 0.  0.
    9900012    2    3    3    0    0  0.15712829421E+01 -0.52275849460E+01  0.36414064034E+02  0.54367073424E+02  0.39999975484E+02 0.  0.
         12    1    3    3    0    0 -0.15712829421E+01  0.52275849460E+01 -0.36414064034E+02  0.36820926576E+02  0.00000000000E+00 0. -1.
         11    1    4    4    0    0 -0.28546942963E+01 -0.51758771976E+01 -0.14170039046E+01  0.60783949047E+01  0.51100000000E-03 0. -1.
        -11    1    4    4    0    0 -0.12335242148E+02  0.15810355027E+01  0.10959548475E+02  0.16576174925E+02  0.51100000000E-03 0.  1.
        -12    1    4    4    0    0  0.16761219387E+02 -0.16327432511E+01  0.26871519464E+02  0.31712503594E+02  0.00000000000E+00 0.  1.
</event>
<event>
 8    1  0.1261983E-006  0.9118800E+02  0.7816164E-02  0.1184000E+00
        -11   -1    0    0    0    0  0.00000000000E+00  0.00000000000E+00  0.45593999997E+02  0.45594000000E+02  0.51100000000E-03 0.  1.
         11   -1    0    0    0    0 -0.00000000000E+00 -0.00000000000E+00 -0.45593999997E+02  0.45594000000E+02  0.51100000000E-03 0. -1.
         23    2    1    2    0    0  0.00000000000E+00  0.00000000000E+00  0.17763568394E-14  0.91188000000E+02  0.91188000000E+02 0.  0.
    9900012    2    3    3    0    0  0.34420736911E+02 -0.88936962981E+01  0.95861507119E+01  0.54367092232E+02  0.40000018362E+02 0.  0.
         12    1    3    3    0    0 -0.34420736911E+02  0.88936962981E+01 -0.95861507119E+01  0.36820907768E+02  0.00000000000E+00 0. -1.
         11    1    4    4    0    0  0.21302191257E+01 -0.10151459095E+02  0.17693320103E+01  0.10522380496E+02  0.51100000000E-03 0. -1.
        -11    1    4    4    0    0  0.93758358299E+01 -0.32108909295E+01  0.16240212039E+02  0.19025262295E+02  0.51100000000E-03 0.  1.
         12    1    4    4    0    0  0.22914681956E+02  0.44686537264E+01 -0.84233933371E+01  0.24819449441E+02  0.00000000000E+00 0. -1.
</event>
<event>
 8    1  0.1261983E-006  0.9118800E+02  0.7816164E-02  0.1184000E+00
        -11   -1    0    0    0    0  0.00000000000E+00  0.00000000000E+00  0.45593999997E+02  0.45594000000E+02  0.51100000000E-03 0. -1.
         11   -1    0    0    0    0 -0.00000000000E+00 -0.00000000000E+00 -0.45593999997E+02  0.45594000000E+02  0.51100000000E-03 0.  1.
         23    2    1    2    0    0 -0.22204460493E-15  0.35527136788E-14  0.00000000000E+00  0.91188000000E+02  0.91188000000E+02 0.  0.
    9900012    2    3    3    0    0  0.15827095466E+01  0.17696105507E+02 -0.32250927074E+02  0.54367089952E+02  0.40000013163E+02 0.  0.
         12    1    3    3    0    0 -0.15827095466E+01 -0.17696105507E+02  0.32250927074E+02  0.36820910048E+02  0.00000000000E+00 0. -1.
         11    1    4    4    0    0 -0.13932324176E+01  0.37085656762E+01 -0.26273019587E+02  0.26570022853E+02  0.51100000000E-03 0. -1.
        -11    1    4    4    0    0  0.34295047838E+01 -0.46718188468E+01 -0.70199437301E+01  0.91031315840E+01  0.51100000000E-03 0.  1.
         12    1    4    4    0    0 -0.45356281952E+00  0.18659358678E+02  0.10420362426E+01  0.18693935515E+02  0.00000000000E+00 0. -1.
</event>
<event>
 8    1  0.1261983E-006  0.9118800E+02  0.7816164E-02  0.1184000E+00
        -11   -1    0    0    0    0  0.00000000000E+00  0.00000000000E+00  0.45593999997E+02  0.45594000000E+02  0.51100000000E-03 0. -1.
         11   -1    0    0    0    0 -0.00000000000E+00 -0.00000000000E+00 -0.45593999997E+02  0.45594000000E+02  0.51100000000E-03 0.  1.
         23    2    1    2    0    0  0.00000000000E+00 -0.35527136788E-14  0.17763568394E-14  0.91188000000E+02  0.91188000000E+02 0.  0.
    9900012    2    3    3    0    0  0.13255637169E+02  0.31546671653E+02 -0.13596834253E+02  0.54367104970E+02  0.40000047399E+02 0.  0.
         12    1    3    3    0    0 -0.13255637169E+02 -0.31546671653E+02  0.13596834253E+02  0.36820895030E+02  0.00000000000E+00 0. -1.
         11    1    4    4    0    0  0.61561016972E+00 -0.46307225725E+01 -0.28429505332E-01  0.46715496275E+01  0.51100000000E-03 0. -1.
        -11    1    4    4    0    0  0.93153427219E+01  0.23755476484E+02  0.60634199146E+01  0.26227148803E+02  0.51100000000E-03 0.  1.
         12    1    4    4    0    0  0.33246842772E+01  0.12421917742E+02 -0.19631824662E+02  0.23468406539E+02  0.00000000000E+00 0. -1.
</event>
<event>
 8    1  0.1261983E-006  0.9118800E+02  0.7816164E-02  0.1184000E+00
        -11   -1    0    0    0    0  0.00000000000E+00  0.00000000000E+00  0.45593999997E+02  0.45594000000E+02  0.51100000000E-03 0. -1.
         11   -1    0    0    0    0 -0.00000000000E+00 -0.00000000000E+00 -0.45593999997E+02  0.45594000000E+02  0.51100000000E-03 0.  1.
         23    2    1    2    0    0  0.00000000000E+00  0.00000000000E+00 -0.35527136788E-14  0.91188000000E+02  0.91188000000E+02 0.  0.
    9900012    2    3    3    0    0 -0.25601212198E+02 -0.74928266303E+01  0.25381373094E+02  0.54367100811E+02  0.40000037920E+02 0.  0.
        -12    1    3    3    0    0  0.25601212198E+02  0.74928266303E+01 -0.25381373094E+02  0.36820899189E+02  0.00000000000E+00 0.  1.
         11    1    4    4    0    0  0.57976468817E+01  0.57169895106E+01  0.85128473564E+01  0.11779866247E+02  0.51100000000E-03 0.  1.
        -11    1    4    4    0    0 -0.28006115727E+02 -0.67146821216E+01  0.19523069339E+02  0.34793386020E+02  0.51100000000E-03 0. -1.
        -12    1    4    4    0    0 -0.33927433533E+01 -0.64951340192E+01 -0.26545436015E+01  0.77938485436E+01  0.00000000000E+00 0.  1.
</event>
<event>
 8    1  0.1261983E-006  0.9118800E+02  0.7816164E-02  0.1184000E+00
        -11   -1    0    0    0    0  0.00000000000E+00  0.00000000000E+00  0.45593999997E+02  0.45594000000E+02  0.51100000000E-03 0. -1.
         11   -1    0    0    0    0 -0.00000000000E+00 -0.00000000000E+00 -0.45593999997E+02  0.45594000000E+02  0.51100000000E-03 0.  1.
         23    2    1    2    0    0 -0.71054273576E-14  0.17763568394E-14 -0.17763568394E-14  0.91188000000E+02  0.91188000000E+02 0.  0.
    9900012    2    3    3    0    0 -0.33248651275E+02  0.14289363742E+02  0.67913325236E+01  0.54367069469E+02  0.39999966468E+02 0.  0.
        -12    1    3    3    0    0  0.33248651275E+02 -0.14289363742E+02 -0.67913325236E+01  0.36820930531E+02  0.00000000000E+00 0.  1.
         11    1    4    4    0    0 -0.37734816403E+01  0.76824003365E+01 -0.10025950430E+01  0.86176351571E+01  0.51100000000E-03 0. -1.
        -11    1    4    4    0    0 -0.26797167583E+02  0.75858915939E+01 -0.85699957727E+01  0.29138956220E+02  0.51100000000E-03 0.  1.
         12    1    4    4    0    0 -0.26780020513E+01 -0.97892818888E+00  0.16363923339E+02  0.16610478092E+02  0.00000000000E+00 0. -1.
</event>
<event>
 8    1  0.1261983E-006  0.9118800E+02  0.7816164E-02  0.1184000E+00
        -11   -1    0    0    0    0  0.00000000000E+00  0.00000000000E+00  0.45593999997E+02  0.45594000000E+02  0.51100000000E-03 0. -1.
         11   -1    0    0    0    0 -0.00000000000E+00 -0.00000000000E+00 -0.45593999997E+02  0.45594000000E+02  0.51100000000E-03 0.  1.
         23    2    1    2    0    0 -0.17763568394E-14 -0.17763568394E-14 -0.35527136788E-14  0.91188000000E+02  0.91188000000E+02 0.  0.
    9900012    2    3    3    0    0 -0.14366338011E+02 -0.12754268896E+02  0.31412051848E+02  0.54367081432E+02  0.39999993740E+02 0.  0.
        -12    1    3    3    0    0  0.14366338011E+02  0.12754268896E+02 -0.31412051848E+02  0.36820918568E+02  0.00000000000E+00 0.  1.
         11    1    4    4    0    0 -0.11558700118E+02 -0.11951745292E+02  0.26240353233E+02  0.31064511939E+02  0.51100000000E-03 0. -1.
        -11    1    4    4    0    0 -0.12014933762E+02  0.12838627627E+01 -0.83631052523E+00  0.12112239779E+02  0.51100000000E-03 0.  1.
        -12    1    4    4    0    0  0.92072958689E+01 -0.20863863669E+01  0.60080091399E+01  0.11190329714E+02  0.00000000000E+00 0.  1.
</event>
<event>
 8    1  0.1261983E-006  0.9118800E+02  0.7816164E-02  0.1184000E+00
        -11   -1    0    0    0    0  0.00000000000E+00  0.00000000000E+00  0.45593999997E+02  0.45594000000E+02  0.51100000000E-03 0. -1.
         11   -1    0    0    0    0 -0.00000000000E+00 -0.00000000000E+00 -0.45593999997E+02  0.45594000000E+02  0.51100000000E-03 0.  1.
         23    2    1    2    0    0 -0.17763568394E-14  0.00000000000E+00 -0.71054273576E-14  0.91188000000E+02  0.91188000000E+02 0.  0.
    9900012    2    3    3    0    0  0.66209166661E+01 -0.32015771958E+01  0.36078978103E+02  0.54367091606E+02  0.40000016934E+02 0.  0.
        -12    1    3    3    0    0 -0.66209166661E+01  0.32015771958E+01 -0.36078978103E+02  0.36820908394E+02  0.00000000000E+00 0.  1.
         11    1    4    4    0    0 -0.64608687509E+01  0.81833658887E+01  0.25037753111E+01  0.10722835136E+02  0.51100000000E-03 0. -1.
        -11    1    4    4    0    0  0.77132192937E+01 -0.10159419550E+02  0.37222749754E+01  0.13287696893E+02  0.51100000000E-03 0.  1.
         12    1    4    4    0    0  0.53685661232E+01 -0.12255235346E+01  0.29852927816E+02  0.30356559577E+02  0.00000000000E+00 0. -1.
</event>
<event>
 8    1  0.1261983E-006  0.9118800E+02  0.7816164E-02  0.1184000E+00
        -11   -1    0    0    0    0  0.00000000000E+00  0.00000000000E+00  0.45593999997E+02  0.45594000000E+02  0.51100000000E-03 0.  1.
         11   -1    0    0    0    0 -0.00000000000E+00 -0.00000000000E+00 -0.45593999997E+02  0.45594000000E+02  0.51100000000E-03 0. -1.
         23    2    1    2    0    0  0.00000000000E+00  0.00000000000E+00  0.44408920985E-15  0.91188000000E+02  0.91188000000E+02 0.  0.
    9900012    2    3    3    0    0 -0.14932802913E+02 -0.33655986385E+02  0.26887706804E+00  0.54366996249E+02  0.39999799548E+02 0.  0.
         12    1    3    3    0    0  0.14932802913E+02  0.33655986385E+02 -0.26887706804E+00  0.36821003751E+02  0.00000000000E+00 0. -1.
         11    1    4    4    0    0 -0.97512002440E+01 -0.47087740605E+00  0.60946735612E+01  0.11508808705E+02  0.51100000000E-03 0. -1.
        -11    1    4    4    0    0  0.27231329950E+01 -0.33758207425E+02 -0.16694810422E+01  0.33908983899E+02  0.51100000000E-03 0.  1.
        -12    1    4    4    0    0 -0.79047356636E+01  0.57309844637E+00 -0.41563154510E+01  0.89492036444E+01  0.00000000000E+00 0.  1.
</event>
<event>
 8    1  0.1261983E-006  0.9118800E+02  0.7816164E-02  0.1184000E+00
        -11   -1    0    0    0    0  0.00000000000E+00  0.00000000000E+00  0.45593999997E+02  0.45594000000E+02  0.51100000000E-03 0.  1.
         11   -1    0    0    0    0 -0.00000000000E+00 -0.00000000000E+00 -0.45593999997E+02  0.45594000000E+02  0.51100000000E-03 0. -1.
         23    2    1    2    0    0  0.22204460493E-15  0.00000000000E+00 -0.71054273576E-14  0.91188000000E+02  0.91188000000E+02 0.  0.
    9900012    2    3    3    0    0  0.53885102469E+00  0.47272345600E+01 -0.36512261911E+02  0.54367049756E+02  0.39999921529E+02 0.  0.
        -12    1    3    3    0    0 -0.53885102469E+00 -0.47272345600E+01  0.36512261911E+02  0.36820950244E+02  0.00000000000E+00 0.  1.
         11    1    4    4    0    0  0.53414103046E+01 -0.71208892381E+01 -0.95595126644E+01  0.13062236035E+02  0.51100000000E-03 0. -1.
        -11    1    4    4    0    0  0.94971846696E+01  0.79437195954E+01 -0.22743962477E+02  0.25895695146E+02  0.51100000000E-03 0.  1.
        -12    1    4    4    0    0 -0.14299743950E+02  0.39044042026E+01 -0.42087867692E+01  0.15409118575E+02  0.00000000000E+00 0.  1.
</event>
<event>
 8    1  0.1261983E-006  0.9118800E+02  0.7816164E-02  0.1184000E+00
        -11   -1    0    0    0    0  0.00000000000E+00  0.00000000000E+00  0.45593999997E+02  0.45594000000E+02  0.51100000000E-03 0.  1.
         11   -1    0    0    0    0 -0.00000000000E+00 -0.00000000000E+00 -0.45593999997E+02  0.45594000000E+02  0.51100000000E-03 0. -1.
         23    2    1    2    0    0  0.71054273576E-14  0.00000000000E+00 -0.88817841970E-15  0.91188000000E+02  0.91188000000E+02 0.  0.
    9900012    2    3    3    0    0  0.34817593765E+02  0.11329472585E+02 -0.38933523921E+01  0.54367082337E+02  0.39999995805E+02 0.  0.
        -12    1    3    3    0    0 -0.34817593765E+02 -0.11329472585E+02  0.38933523921E+01  0.36820917663E+02  0.00000000000E+00 0.  1.
         11    1    4    4    0    0  0.11570169272E+02  0.18750269924E+01 -0.18628824455E+01  0.11868229627E+02  0.51100000000E-03 0. -1.
        -11    1    4    4    0    0  0.20266685048E+02  0.60191674610E+01  0.14315200514E+02  0.25532212316E+02  0.51100000000E-03 0.  1.
        -12    1    4    4    0    0  0.29807394453E+01  0.34352781316E+01 -0.16345670460E+02  0.16966640395E+02  0.00000000000E+00 0.  1.
</event>
<event>
 8    1  0.1261983E-006  0.9118800E+02  0.7816164E-02  0.1184000E+00
        -11   -1    0    0    0    0  0.00000000000E+00  0.00000000000E+00  0.45593999997E+02  0.45594000000E+02  0.51100000000E-03 0. -1.
         11   -1    0    0    0    0 -0.00000000000E+00 -0.00000000000E+00 -0.45593999997E+02  0.45594000000E+02  0.51100000000E-03 0.  1.
         23    2    1    2    0    0  0.00000000000E+00  0.35527136788E-14  0.00000000000E+00  0.91188000000E+02  0.91188000000E+02 0.  0.
    9900012    2    3    3    0    0 -0.14277513502E+02 -0.64477309483E+01  0.33322048067E+02  0.54367088638E+02  0.40000010167E+02 0.  0.
        -12    1    3    3    0    0  0.14277513502E+02  0.64477309483E+01 -0.33322048067E+02  0.36820911362E+02  0.00000000000E+00 0.  1.
         11    1    4    4    0    0  0.10685635925E+01 -0.14210222398E+02  0.21912176755E+02  0.26138395880E+02  0.51100000000E-03 0. -1.
        -11    1    4    4    0    0 -0.11695683726E+02  0.13988325826E+02  0.10255730670E+02  0.20919901746E+02  0.51100000000E-03 0.  1.
        -12    1    4    4    0    0 -0.36503933686E+01 -0.62258343762E+01  0.11541406416E+01  0.73087910112E+01  0.00000000000E+00 0.  1.
</event>
<event>
 8    1  0.1261983E-006  0.9118800E+02  0.7816164E-02  0.1184000E+00
        -11   -1    0    0    0    0  0.00000000000E+00  0.00000000000E+00  0.45593999997E+02  0.45594000000E+02  0.51100000000E-03 0.  1.
         11   -1    0    0    0    0 -0.00000000000E+00 -0.00000000000E+00 -0.45593999997E+02  0.45594000000E+02  0.51100000000E-03 0. -1.
         23    2    1    2    0    0  0.00000000000E+00 -0.35527136788E-14  0.00000000000E+00  0.91188000000E+02  0.91188000000E+02 0.  0.
    9900012    2    3    3    0    0  0.26559521513E+01 -0.31156313873E+02 -0.19442485894E+02  0.54367078859E+02  0.39999987874E+02 0.  0.
        -12    1    3    3    0    0 -0.26559521513E+01  0.31156313873E+02  0.19442485894E+02  0.36820921141E+02  0.00000000000E+00 0.  1.
         11    1    4    4    0    0 -0.49681962120E+00  0.47812283141E+00 -0.67836160707E+01  0.68185686499E+01  0.51100000000E-03 0. -1.
        -11    1    4    4    0    0 -0.72364587269E+01 -0.78845007815E+01  0.88320350023E+01  0.13875753314E+02  0.51100000000E-03 0.  1.
        -12    1    4    4    0    0  0.10389230499E+02 -0.23749935922E+02 -0.21490904826E+02  0.33672756895E+02  0.00000000000E+00 0.  1.
</event>
<event>
 8    1  0.1261983E-006  0.9118800E+02  0.7816164E-02  0.1184000E+00
        -11   -1    0    0    0    0  0.00000000000E+00  0.00000000000E+00  0.45593999997E+02  0.45594000000E+02  0.51100000000E-03 0. -1.
         11   -1    0    0    0    0 -0.00000000000E+00 -0.00000000000E+00 -0.45593999997E+02  0.45594000000E+02  0.51100000000E-03 0.  1.
         23    2    1    2    0    0  0.88817841970E-15  0.00000000000E+00  0.00000000000E+00  0.91188000000E+02  0.91188000000E+02 0.  0.
    9900012    2    3    3    0    0 -0.39149686768E+01  0.11873646433E+02 -0.34633309492E+02  0.54367128395E+02  0.40000100802E+02 0.  0.
         12    1    3    3    0    0  0.39149686768E+01 -0.11873646433E+02  0.34633309492E+02  0.36820871605E+02  0.00000000000E+00 0. -1.
         11    1    4    4    0    0  0.68240516995E+01 -0.71975774070E+01 -0.14936502977E+02  0.17929638133E+02  0.51100000000E-03 0.  1.
        -11    1    4    4    0    0  0.15607299304E+01  0.87584520301E+01  0.23171174338E+01  0.91932254047E+01  0.51100000000E-03 0. -1.
        -12    1    4    4    0    0 -0.12299750307E+02  0.10312771809E+02 -0.22013923949E+02  0.27244264858E+02  0.00000000000E+00 0.  1.
</event>
<event>
 8    1  0.1261983E-006  0.9118800E+02  0.7816164E-02  0.1184000E+00
        -11   -1    0    0    0    0  0.00000000000E+00  0.00000000000E+00  0.45593999997E+02  0.45594000000E+02  0.51100000000E-03 0.  1.
         11   -1    0    0    0    0 -0.00000000000E+00 -0.00000000000E+00 -0.45593999997E+02  0.45594000000E+02  0.51100000000E-03 0. -1.
         23    2    1    2    0    0 -0.31086244690E-14  0.00000000000E+00  0.00000000000E+00  0.91188000000E+02  0.91188000000E+02 0.  0.
    9900012    2    3    3    0    0 -0.20349747061E+01 -0.29016728167E+02  0.22575834219E+02  0.54367083034E+02  0.39999997392E+02 0.  0.
        -12    1    3    3    0    0  0.20349747061E+01  0.29016728167E+02 -0.22575834219E+02  0.36820916966E+02  0.00000000000E+00 0.  1.
         11    1    4    4    0    0 -0.16415338888E+02 -0.13480619632E+02  0.79416611989E+01  0.22677311113E+02  0.51100000000E-03 0. -1.
        -11    1    4    4    0    0  0.16664441393E+02 -0.10034597102E+02  0.16435984525E+02  0.25466415796E+02  0.51100000000E-03 0.  1.
        -12    1    4    4    0    0 -0.22840772104E+01 -0.55015114332E+01 -0.18018115045E+01  0.62233561244E+01  0.00000000000E+00 0.  1.
</event>
<event>
 8    1  0.1261983E-006  0.9118800E+02  0.7816164E-02  0.1184000E+00
        -11   -1    0    0    0    0  0.00000000000E+00  0.00000000000E+00  0.45593999997E+02  0.45594000000E+02  0.51100000000E-03 0.  1.
         11   -1    0    0    0    0 -0.00000000000E+00 -0.00000000000E+00 -0.45593999997E+02  0.45594000000E+02  0.51100000000E-03 0. -1.
         23    2    1    2    0    0 -0.35527136788E-14  0.17763568394E-14  0.00000000000E+00  0.91188000000E+02  0.91188000000E+02 0.  0.
    9900012    2    3    3    0    0  0.30138223981E+02  0.15288487982E+02 -0.14619492005E+02  0.54367082630E+02  0.39999996471E+02 0.  0.
         12    1    3    3    0    0 -0.30138223981E+02 -0.15288487982E+02  0.14619492005E+02  0.36820917370E+02  0.00000000000E+00 0. -1.
         11    1    4    4    0    0  0.93993109330E+00  0.56649861819E+01 -0.21631713029E+02  0.22380941618E+02  0.51100000000E-03 0. -1.
        -11    1    4    4    0    0  0.12720570465E+02  0.16788431673E+01  0.17382836390E+01  0.12948090886E+02  0.51100000000E-03 0.  1.
         12    1    4    4    0    0  0.16477722423E+02  0.79446586325E+01  0.52739373848E+01  0.19038050125E+02  0.00000000000E+00 0. -1.
</event>
<event>
 8    1  0.1261983E-006  0.9118800E+02  0.7816164E-02  0.1184000E+00
        -11   -1    0    0    0    0  0.00000000000E+00  0.00000000000E+00  0.45593999997E+02  0.45594000000E+02  0.51100000000E-03 0. -1.
         11   -1    0    0    0    0 -0.00000000000E+00 -0.00000000000E+00 -0.45593999997E+02  0.45594000000E+02  0.51100000000E-03 0.  1.
         23    2    1    2    0    0  0.00000000000E+00 -0.22204460493E-15  0.71054273576E-14  0.91188000000E+02  0.91188000000E+02 0.  0.
    9900012    2    3    3    0    0 -0.21558409292E+02 -0.17646047332E+01  0.29797656672E+02  0.54367093110E+02  0.40000020363E+02 0.  0.
        -12    1    3    3    0    0  0.21558409292E+02  0.17646047332E+01 -0.29797656672E+02  0.36820906890E+02  0.00000000000E+00 0.  1.
         11    1    4    4    0    0 -0.12884342139E+02  0.22017168585E+01  0.33014413351E+02  0.35507820528E+02  0.51100000000E-03 0. -1.
        -11    1    4    4    0    0 -0.77895103153E+01  0.75579283626E+00 -0.86108453449E+01  0.11635907854E+02  0.51100000000E-03 0.  1.
        -12    1    4    4    0    0 -0.88455683776E+00 -0.47221144279E+01  0.53940886651E+01  0.72233647282E+01  0.00000000000E+00 0.  1.
</event>
<event>
 8    1  0.1261983E-006  0.9118800E+02  0.7816164E-02  0.1184000E+00
        -11   -1    0    0    0    0  0.00000000000E+00  0.00000000000E+00  0.45593999997E+02  0.45594000000E+02  0.51100000000E-03 0.  1.
         11   -1    0    0    0    0 -0.00000000000E+00 -0.00000000000E+00 -0.45593999997E+02  0.45594000000E+02  0.51100000000E-03 0. -1.
         23    2    1    2    0    0  0.00000000000E+00  0.00000000000E+00  0.35527136788E-14  0.91188000000E+02  0.91188000000E+02 0.  0.
    9900012    2    3    3    0    0 -0.80615162020E+01 -0.29588180885E+02  0.20379784566E+02  0.54367026215E+02  0.39999867862E+02 0.  0.
         12    1    3    3    0    0  0.80615162020E+01  0.29588180885E+02 -0.20379784566E+02  0.36820973785E+02  0.00000000000E+00 0. -1.
         11    1    4    4    0    0  0.43497518117E+01  0.25189580341E+01  0.64714964880E+01  0.81942514884E+01  0.51100000000E-03 0. -1.
        -11    1    4    4    0    0 -0.34373819541E+00 -0.31928879476E+02  0.10832399222E+02  0.33718131231E+02  0.51100000000E-03 0.  1.
        -12    1    4    4    0    0 -0.12067529818E+02 -0.17825944212E+00  0.30758888553E+01  0.12454643495E+02  0.00000000000E+00 0.  1.
</event>
<event>
 8    1  0.1261983E-006  0.9118800E+02  0.7816164E-02  0.1184000E+00
        -11   -1    0    0    0    0  0.00000000000E+00  0.00000000000E+00  0.45593999997E+02  0.45594000000E+02  0.51100000000E-03 0.  1.
         11   -1    0    0    0    0 -0.00000000000E+00 -0.00000000000E+00 -0.45593999997E+02  0.45594000000E+02  0.51100000000E-03 0. -1.
         23    2    1    2    0    0  0.00000000000E+00 -0.22204460493E-15  0.00000000000E+00  0.91188000000E+02  0.91188000000E+02 0.  0.
    9900012    2    3    3    0    0 -0.29886608739E+02 -0.18786386189E+01  0.21425262222E+02  0.54367074886E+02  0.39999978817E+02 0.  0.
         12    1    3    3    0    0  0.29886608739E+02  0.18786386189E+01 -0.21425262222E+02  0.36820925114E+02  0.00000000000E+00 0. -1.
         11    1    4    4    0    0 -0.28601805719E+01  0.87854106653E+01  0.35060970833E+01  0.98821450344E+01  0.51100000000E-03 0. -1.
        -11    1    4    4    0    0 -0.25293119119E+02 -0.72926355161E+01  0.25095373585E+02  0.36368972809E+02  0.51100000000E-03 0.  1.
         12    1    4    4    0    0 -0.17333090476E+01 -0.33714137682E+01 -0.71762084460E+01  0.81159570423E+01  0.00000000000E+00 0. -1.
</event>
<event>
 8    1  0.1261983E-006  0.9118800E+02  0.7816164E-02  0.1184000E+00
        -11   -1    0    0    0    0  0.00000000000E+00  0.00000000000E+00  0.45593999997E+02  0.45594000000E+02  0.51100000000E-03 0. -1.
         11   -1    0    0    0    0 -0.00000000000E+00 -0.00000000000E+00 -0.45593999997E+02  0.45594000000E+02  0.51100000000E-03 0.  1.
         23    2    1    2    0    0  0.00000000000E+00  0.00000000000E+00  0.88817841970E-15  0.91188000000E+02  0.91188000000E+02 0.  0.
    9900012    2    3    3    0    0 -0.29741702639E+02  0.21216379081E+02  0.45908937053E+01  0.54367083089E+02  0.39999997517E+02 0.  0.
         12    1    3    3    0    0  0.29741702639E+02 -0.21216379081E+02 -0.45908937053E+01  0.36820916911E+02  0.00000000000E+00 0. -1.
         11    1    4    4    0    0 -0.28886553279E+01  0.21285208529E+02 -0.14506805248E+01  0.21529256976E+02  0.51100000000E-03 0. -1.
        -11    1    4    4    0    0 -0.10567940180E+02  0.70865172876E+01  0.78623186143E+01  0.14957143483E+02  0.51100000000E-03 0.  1.
         12    1    4    4    0    0 -0.16285107131E+02 -0.71553467352E+01 -0.18207443842E+01  0.17880682629E+02  0.00000000000E+00 0. -1.
</event>
<event>
 8    1  0.1261983E-006  0.9118800E+02  0.7816164E-02  0.1184000E+00
        -11   -1    0    0    0    0  0.00000000000E+00  0.00000000000E+00  0.45593999997E+02  0.45594000000E+02  0.51100000000E-03 0.  1.
         11   -1    0    0    0    0 -0.00000000000E+00 -0.00000000000E+00 -0.45593999997E+02  0.45594000000E+02  0.51100000000E-03 0. -1.
         23    2    1    2    0    0  0.00000000000E+00  0.00000000000E+00 -0.35527136788E-14  0.91188000000E+02  0.91188000000E+02 0.  0.
    9900012    2    3    3    0    0 -0.23791936008E+02  0.14431785401E+02 -0.24113216622E+02  0.54367083869E+02  0.39999999295E+02 0.  0.
        -12    1    3    3    0    0  0.23791936008E+02 -0.14431785401E+02  0.24113216622E+02  0.36820916131E+02  0.00000000000E+00 0.  1.
         11    1    4    4    0    0 -0.15957532597E+02 -0.26116627425E+01 -0.14004621609E+02  0.21391424814E+02  0.51100000000E-03 0. -1.
        -11    1    4    4    0    0 -0.15020124968E+01  0.72744202867E+01 -0.17619486750E+02  0.19121180550E+02  0.51100000000E-03 0.  1.
        -12    1    4    4    0    0 -0.63323909140E+01  0.97690278570E+01  0.75108917367E+01  0.13854478505E+02  0.00000000000E+00 0.  1.
</event>
<event>
 8    1  0.1261983E-006  0.9118800E+02  0.7816164E-02  0.1184000E+00
        -11   -1    0    0    0    0  0.00000000000E+00  0.00000000000E+00  0.45593999997E+02  0.45594000000E+02  0.51100000000E-03 0. -1.
         11   -1    0    0    0    0 -0.00000000000E+00 -0.00000000000E+00 -0.45593999997E+02  0.45594000000E+02  0.51100000000E-03 0.  1.
         23    2    1    2    0    0  0.17763568394E-14 -0.35527136788E-14  0.00000000000E+00  0.91188000000E+02  0.91188000000E+02 0.  0.
    9900012    2    3    3    0    0 -0.11962109499E+02 -0.30105812233E+02 -0.17502171991E+02  0.54367108942E+02  0.40000056456E+02 0.  0.
         12    1    3    3    0    0  0.11962109499E+02  0.30105812233E+02  0.17502171991E+02  0.36820891058E+02  0.00000000000E+00 0. -1.
         11    1    4    4    0    0  0.61682475906E+01 -0.58327021247E+01 -0.40593844424E+00  0.84989692725E+01  0.51100000000E-03 0. -1.
        -11    1    4    4    0    0 -0.94271523935E+01 -0.30221664713E+02 -0.15348634188E+02  0.35182393210E+02  0.51100000000E-03 0.  1.
         12    1    4    4    0    0 -0.87032046965E+01  0.59485546050E+01 -0.17475993587E+01  0.10685746459E+02  0.00000000000E+00 0. -1.
</event>
<event>
 8    1  0.1261983E-006  0.9118800E+02  0.7816164E-02  0.1184000E+00
        -11   -1    0    0    0    0  0.00000000000E+00  0.00000000000E+00  0.45593999997E+02  0.45594000000E+02  0.51100000000E-03 0.  1.
         11   -1    0    0    0    0 -0.00000000000E+00 -0.00000000000E+00 -0.45593999997E+02  0.45594000000E+02  0.51100000000E-03 0. -1.
         23    2    1    2    0    0  0.17763568394E-14  0.17763568394E-14  0.00000000000E+00  0.91188000000E+02  0.91188000000E+02 0.  0.
    9900012    2    3    3    0    0 -0.10840824621E+02 -0.15068454262E+01  0.35156460620E+02  0.54367207166E+02  0.40000280375E+02 0.  0.
         12    1    3    3    0    0  0.10840824621E+02  0.15068454262E+01 -0.35156460620E+02  0.36820792834E+02  0.00000000000E+00 0. -1.
         11    1    4    4    0    0 -0.54418199126E+01 -0.52790453389E+01  0.31057346698E+01  0.81931258841E+01  0.51100000000E-03 0. -1.
        -11    1    4    4    0    0  0.62336835416E+00 -0.14235227763E+02  0.13979565338E+02  0.19961426424E+02  0.51100000000E-03 0.  1.
         12    1    4    4    0    0 -0.60223730628E+01  0.18007427676E+02  0.18071160612E+02  0.26212654858E+02  0.00000000000E+00 0. -1.
</event>
<event>
 8    1  0.1261983E-006  0.9118800E+02  0.7816164E-02  0.1184000E+00
        -11   -1    0    0    0    0  0.00000000000E+00  0.00000000000E+00  0.45593999997E+02  0.45594000000E+02  0.51100000000E-03 0. -1.
         11   -1    0    0    0    0 -0.00000000000E+00 -0.00000000000E+00 -0.45593999997E+02  0.45594000000E+02  0.51100000000E-03 0.  1.
         23    2    1    2    0    0 -0.17763568394E-14 -0.35527136788E-14 -0.71054273576E-14  0.91188000000E+02  0.91188000000E+02 0.  0.
    9900012    2    3    3    0    0  0.10974459745E+02  0.29037098940E+02  0.19803733323E+02  0.54367085630E+02  0.40000003310E+02 0.  0.
        -12    1    3    3    0    0 -0.10974459745E+02 -0.29037098940E+02 -0.19803733323E+02  0.36820914370E+02  0.00000000000E+00 0.  1.
         11    1    4    4    0    0  0.18287126178E+02  0.14845612111E+02  0.17913635594E+02  0.29592389618E+02  0.51100000000E-03 0. -1.
        -11    1    4    4    0    0  0.24945584511E+01 -0.24628763096E+01  0.40159497772E+01  0.53307067502E+01  0.51100000000E-03 0.  1.
        -12    1    4    4    0    0 -0.98072248839E+01  0.16654363139E+02 -0.21258520488E+01  0.19443989262E+02  0.00000000000E+00 0.  1.
</event>
<event>
 8    1  0.1261983E-006  0.9118800E+02  0.7816164E-02  0.1184000E+00
        -11   -1    0    0    0    0  0.00000000000E+00  0.00000000000E+00  0.45593999997E+02  0.45594000000E+02  0.51100000000E-03 0.  1.
         11   -1    0    0    0    0 -0.00000000000E+00 -0.00000000000E+00 -0.45593999997E+02  0.45594000000E+02  0.51100000000E-03 0. -1.
         23    2    1    2    0    0  0.35527136788E-14  0.00000000000E+00  0.00000000000E+00  0.91188000000E+02  0.91188000000E+02 0.  0.
    9900012    2    3    3    0    0 -0.31220172544E+02  0.16017936342E+02 -0.11158457434E+02  0.54367019152E+02  0.39999851760E+02 0.  0.
        -12    1    3    3    0    0  0.31220172544E+02 -0.16017936342E+02  0.11158457434E+02  0.36820980848E+02  0.00000000000E+00 0.  1.
         11    1    4    4    0    0 -0.12983034152E+02 -0.82328139950E+01 -0.81071789274E+01  0.17380010141E+02  0.51100000000E-03 0. -1.
        -11    1    4    4    0    0 -0.21204436117E+02  0.13982215601E+02  0.13323815432E+01  0.25434341057E+02  0.51100000000E-03 0.  1.
        -12    1    4    4    0    0  0.29672977261E+01  0.10268534735E+02 -0.43836600500E+01  0.11552667953E+02  0.00000000000E+00 0.  1.
</event>
<event>
 8    1  0.1261983E-006  0.9118800E+02  0.7816164E-02  0.1184000E+00
        -11   -1    0    0    0    0  0.00000000000E+00  0.00000000000E+00  0.45593999997E+02  0.45594000000E+02  0.51100000000E-03 0. -1.
         11   -1    0    0    0    0 -0.00000000000E+00 -0.00000000000E+00 -0.45593999997E+02  0.45594000000E+02  0.51100000000E-03 0.  1.
         23    2    1    2    0    0 -0.71054273576E-14  0.00000000000E+00  0.35527136788E-14  0.91188000000E+02  0.91188000000E+02 0.  0.
    9900012    2    3    3    0    0 -0.27282099766E+02  0.17129167504E+02  0.17834209288E+02  0.54367077036E+02  0.39999983719E+02 0.  0.
        -12    1    3    3    0    0  0.27282099766E+02 -0.17129167504E+02 -0.17834209288E+02  0.36820922964E+02  0.00000000000E+00 0.  1.
         11    1    4    4    0    0 -0.16911614728E+01  0.84654891979E+01  0.51973625811E+00  0.86483906321E+01  0.51100000000E-03 0.  1.
        -11    1    4    4    0    0  0.17917773735E+00 -0.10083991963E+02  0.67878201486E+01  0.12157035050E+02  0.51100000000E-03 0. -1.
         12    1    4    4    0    0 -0.25770116030E+02  0.18747670269E+02  0.10526652881E+02  0.33561651354E+02  0.00000000000E+00 0. -1.
</event>
<event>
 8    1  0.1261983E-006  0.9118800E+02  0.7816164E-02  0.1184000E+00
        -11   -1    0    0    0    0  0.00000000000E+00  0.00000000000E+00  0.45593999997E+02  0.45594000000E+02  0.51100000000E-03 0.  1.
         11   -1    0    0    0    0 -0.00000000000E+00 -0.00000000000E+00 -0.45593999997E+02  0.45594000000E+02  0.51100000000E-03 0. -1.
         23    2    1    2    0    0  0.00000000000E+00  0.00000000000E+00  0.00000000000E+00  0.91188000000E+02  0.91188000000E+02 0.  0.
    9900012    2    3    3    0    0 -0.28491475221E+02  0.56948509593E+01 -0.22618257456E+02  0.54367067665E+02  0.39999962355E+02 0.  0.
        -12    1    3    3    0    0  0.28491475221E+02 -0.56948509593E+01  0.22618257456E+02  0.36820932335E+02  0.00000000000E+00 0.  1.
         11    1    4    4    0    0 -0.18214389076E+01  0.13602531383E+01 -0.57615243865E+01  0.61937946213E+01  0.51100000000E-03 0. -1.
        -11    1    4    4    0    0 -0.21320491005E+02  0.16509936246E+02 -0.33946810403E+00  0.26967694940E+02  0.51100000000E-03 0.  1.
         12    1    4    4    0    0 -0.53495453080E+01 -0.12175338425E+02 -0.16517264965E+02  0.21205578103E+02  0.00000000000E+00 0. -1.
</event>
<event>
 8    1  0.1261983E-006  0.9118800E+02  0.7816164E-02  0.1184000E+00
        -11   -1    0    0    0    0  0.00000000000E+00  0.00000000000E+00  0.45593999997E+02  0.45594000000E+02  0.51100000000E-03 0. -1.
         11   -1    0    0    0    0 -0.00000000000E+00 -0.00000000000E+00 -0.45593999997E+02  0.45594000000E+02  0.51100000000E-03 0.  1.
         23    2    1    2    0    0  0.00000000000E+00 -0.88817841970E-15 -0.35527136788E-14  0.91188000000E+02  0.91188000000E+02 0.  0.
    9900012    2    3    3    0    0  0.26023072493E+02  0.76602668060E+01 -0.24897808034E+02  0.54367070702E+02  0.39999969279E+02 0.  0.
         12    1    3    3    0    0 -0.26023072493E+02 -0.76602668060E+01  0.24897808034E+02  0.36820929298E+02  0.00000000000E+00 0. -1.
         11    1    4    4    0    0 -0.32558443085E+00  0.74510219570E+01 -0.18661416399E+01  0.76880568615E+01  0.51100000000E-03 0. -1.
        -11    1    4    4    0    0  0.24190710763E+02 -0.78979971275E+01 -0.27253567774E+02  0.37287072861E+02  0.51100000000E-03 0.  1.
        -12    1    4    4    0    0  0.21579461602E+01  0.81072419766E+01  0.42219013804E+01  0.93919409795E+01  0.00000000000E+00 0.  1.
</event>
<event>
 8    1  0.1261983E-006  0.9118800E+02  0.7816164E-02  0.1184000E+00
        -11   -1    0    0    0    0  0.00000000000E+00  0.00000000000E+00  0.45593999997E+02  0.45594000000E+02  0.51100000000E-03 0. -1.
         11   -1    0    0    0    0 -0.00000000000E+00 -0.00000000000E+00 -0.45593999997E+02  0.45594000000E+02  0.51100000000E-03 0.  1.
         23    2    1    2    0    0  0.35527136788E-14  0.35527136788E-14 -0.35527136788E-14  0.91188000000E+02  0.91188000000E+02 0.  0.
    9900012    2    3    3    0    0 -0.19865872198E+02 -0.20839737756E+02  0.22952846359E+02  0.54367072474E+02  0.39999973319E+02 0.  0.
         12    1    3    3    0    0  0.19865872198E+02  0.20839737756E+02 -0.22952846359E+02  0.36820927526E+02  0.00000000000E+00 0. -1.
         11    1    4    4    0    0  0.85187652859E+01  0.44813259573E+01  0.95419888891E+01  0.13553641450E+02  0.51100000000E-03 0. -1.
        -11    1    4    4    0    0 -0.26472440017E+01 -0.53293409618E+01  0.17919867805E+01  0.62145790505E+01  0.51100000000E-03 0.  1.
        -12    1    4    4    0    0 -0.25737393482E+02 -0.19991722751E+02  0.11618870689E+02  0.34598851974E+02  0.00000000000E+00 0.  1.
</event>
<event>
 8    1  0.1261983E-006  0.9118800E+02  0.7816164E-02  0.1184000E+00
        -11   -1    0    0    0    0  0.00000000000E+00  0.00000000000E+00  0.45593999997E+02  0.45594000000E+02  0.51100000000E-03 0. -1.
         11   -1    0    0    0    0 -0.00000000000E+00 -0.00000000000E+00 -0.45593999997E+02  0.45594000000E+02  0.51100000000E-03 0.  1.
         23    2    1    2    0    0  0.17763568394E-14  0.00000000000E+00  0.00000000000E+00  0.91188000000E+02  0.91188000000E+02 0.  0.
    9900012    2    3    3    0    0  0.29089878908E+01 -0.17550052522E+02 -0.32238385979E+02  0.54367080883E+02  0.39999992490E+02 0.  0.
         12    1    3    3    0    0 -0.29089878908E+01  0.17550052522E+02  0.32238385979E+02  0.36820919117E+02  0.00000000000E+00 0. -1.
         11    1    4    4    0    0  0.24138956461E+01  0.30504213914E+01  0.41262826323E+01  0.56708175318E+01  0.51100000000E-03 0. -1.
        -11    1    4    4    0    0 -0.11917417598E+02 -0.85281894443E+01 -0.12823136083E+02  0.19472741889E+02  0.51100000000E-03 0.  1.
        -12    1    4    4    0    0  0.12412509843E+02 -0.12072284469E+02 -0.23541532528E+02  0.29223521463E+02  0.00000000000E+00 0.  1.
</event>
<event>
 8    1  0.1261983E-006  0.9118800E+02  0.7816164E-02  0.1184000E+00
        -11   -1    0    0    0    0  0.00000000000E+00  0.00000000000E+00  0.45593999997E+02  0.45594000000E+02  0.51100000000E-03 0. -1.
         11   -1    0    0    0    0 -0.00000000000E+00 -0.00000000000E+00 -0.45593999997E+02  0.45594000000E+02  0.51100000000E-03 0.  1.
         23    2    1    2    0    0  0.00000000000E+00 -0.35527136788E-14  0.00000000000E+00  0.91188000000E+02  0.91188000000E+02 0.  0.
    9900012    2    3    3    0    0  0.44798153059E+01  0.19009350923E+02  0.31214647651E+02  0.54367103817E+02  0.40000044772E+02 0.  0.
        -12    1    3    3    0    0 -0.44798153059E+01 -0.19009350923E+02 -0.31214647651E+02  0.36820896183E+02  0.00000000000E+00 0.  1.
         11    1    4    4    0    0  0.54209106215E+00 -0.76538448421E+01  0.38953104946E+01  0.86051523925E+01  0.51100000000E-03 0. -1.
        -11    1    4    4    0    0 -0.27199509155E+01 -0.48564882730E+00 -0.32986991965E+01  0.43029529879E+01  0.51100000000E-03 0.  1.
         12    1    4    4    0    0  0.66576751592E+01  0.27148844593E+02  0.30618036353E+02  0.41458998437E+02  0.00000000000E+00 0. -1.
</event>
<event>
 8    1  0.1261983E-006  0.9118800E+02  0.7816164E-02  0.1184000E+00
        -11   -1    0    0    0    0  0.00000000000E+00  0.00000000000E+00  0.45593999997E+02  0.45594000000E+02  0.51100000000E-03 0. -1.
         11   -1    0    0    0    0 -0.00000000000E+00 -0.00000000000E+00 -0.45593999997E+02  0.45594000000E+02  0.51100000000E-03 0.  1.
         23    2    1    2    0    0  0.00000000000E+00  0.00000000000E+00  0.00000000000E+00  0.91188000000E+02  0.91188000000E+02 0.  0.
    9900012    2    3    3    0    0 -0.12017183362E+02 -0.11525631289E+02 -0.32840935530E+02  0.54367083131E+02  0.39999997614E+02 0.  0.
         12    1    3    3    0    0  0.12017183362E+02  0.11525631289E+02  0.32840935530E+02  0.36820916869E+02  0.00000000000E+00 0. -1.
         11    1    4    4    0    0  0.46986155728E+01  0.58604374220E+01  0.22212453194E+01  0.78329844956E+01  0.51100000000E-03 0. -1.
        -11    1    4    4    0    0 -0.10915820313E+02 -0.90459083893E+01 -0.53829030091E+01  0.15164406904E+02  0.51100000000E-03 0.  1.
         12    1    4    4    0    0 -0.57999786218E+01 -0.83401603218E+01 -0.29679277840E+02  0.31369691731E+02  0.00000000000E+00 0. -1.
</event>
<event>
 8    1  0.1261983E-006  0.9118800E+02  0.7816164E-02  0.1184000E+00
        -11   -1    0    0    0    0  0.00000000000E+00  0.00000000000E+00  0.45593999997E+02  0.45594000000E+02  0.51100000000E-03 0. -1.
         11   -1    0    0    0    0 -0.00000000000E+00 -0.00000000000E+00 -0.45593999997E+02  0.45594000000E+02  0.51100000000E-03 0.  1.
         23    2    1    2    0    0  0.00000000000E+00 -0.17763568394E-14  0.00000000000E+00  0.91188000000E+02  0.91188000000E+02 0.  0.
    9900012    2    3    3    0    0  0.26397791018E+02 -0.10060956625E+02  0.23615940198E+02  0.54367097644E+02  0.40000030699E+02 0.  0.
        -12    1    3    3    0    0 -0.26397791018E+02  0.10060956625E+02 -0.23615940198E+02  0.36820902356E+02  0.00000000000E+00 0.  1.
         11    1    4    4    0    0  0.18988863030E+02  0.13745251492E+02  0.10214207643E+02  0.25570273675E+02  0.51100000000E-03 0. -1.
        -11    1    4    4    0    0  0.46133807948E+01 -0.89496622245E+01  0.32224498657E+01  0.10571845614E+02  0.51100000000E-03 0.  1.
         12    1    4    4    0    0  0.27955471933E+01 -0.14856545893E+02  0.10179282690E+02  0.18224978355E+02  0.00000000000E+00 0. -1.
</event>
<event>
 8    1  0.1261983E-006  0.9118800E+02  0.7816164E-02  0.1184000E+00
        -11   -1    0    0    0    0  0.00000000000E+00  0.00000000000E+00  0.45593999997E+02  0.45594000000E+02  0.51100000000E-03 0.  1.
         11   -1    0    0    0    0 -0.00000000000E+00 -0.00000000000E+00 -0.45593999997E+02  0.45594000000E+02  0.51100000000E-03 0. -1.
         23    2    1    2    0    0  0.17763568394E-14 -0.71054273576E-14  0.00000000000E+00  0.91188000000E+02  0.91188000000E+02 0.  0.
    9900012    2    3    3    0    0  0.91326395930E+01 -0.34729030329E+02 -0.81405990581E+01  0.54367081943E+02  0.39999994906E+02 0.  0.
        -12    1    3    3    0    0 -0.91326395930E+01  0.34729030329E+02  0.81405990581E+01  0.36820918057E+02  0.00000000000E+00 0.  1.
         11    1    4    4    0    0  0.88427348234E+01 -0.22036534055E+02 -0.22284451742E+02  0.32563777146E+02  0.51100000000E-03 0. -1.
        -11    1    4    4    0    0 -0.33754559339E+01  0.37435480578E-02  0.30472468041E+01  0.45474641419E+01  0.51100000000E-03 0.  1.
        -12    1    4    4    0    0  0.36653607035E+01 -0.12696239822E+02  0.11096605879E+02  0.17255840656E+02  0.00000000000E+00 0.  1.
</event>
<event>
 8    1  0.1261983E-006  0.9118800E+02  0.7816164E-02  0.1184000E+00
        -11   -1    0    0    0    0  0.00000000000E+00  0.00000000000E+00  0.45593999997E+02  0.45594000000E+02  0.51100000000E-03 0.  1.
         11   -1    0    0    0    0 -0.00000000000E+00 -0.00000000000E+00 -0.45593999997E+02  0.45594000000E+02  0.51100000000E-03 0. -1.
         23    2    1    2    0    0  0.17763568394E-14  0.35527136788E-14  0.35527136788E-14  0.91188000000E+02  0.91188000000E+02 0.  0.
    9900012    2    3    3    0    0 -0.80784896302E+01 -0.30154090430E+02  0.19525611280E+02  0.54367073067E+02  0.39999974670E+02 0.  0.
         12    1    3    3    0    0  0.80784896302E+01  0.30154090430E+02 -0.19525611280E+02  0.36820926933E+02  0.00000000000E+00 0. -1.
         11    1    4    4    0    0 -0.81555435321E+01 -0.34344342309E+02  0.80136667861E+01  0.36197591005E+02  0.51100000000E-03 0.  1.
        -11    1    4    4    0    0 -0.36109682691E+01 -0.26738990550E+01  0.28348108539E+00  0.45021316933E+01  0.51100000000E-03 0. -1.
         12    1    4    4    0    0  0.36880221709E+01  0.68641509338E+01  0.11228463409E+02  0.13667350369E+02  0.00000000000E+00 0. -1.
</event>
<event>
 8    1  0.1261983E-006  0.9118800E+02  0.7816164E-02  0.1184000E+00
        -11   -1    0    0    0    0  0.00000000000E+00  0.00000000000E+00  0.45593999997E+02  0.45594000000E+02  0.51100000000E-03 0. -1.
         11   -1    0    0    0    0 -0.00000000000E+00 -0.00000000000E+00 -0.45593999997E+02  0.45594000000E+02  0.51100000000E-03 0.  1.
         23    2    1    2    0    0  0.00000000000E+00  0.17763568394E-14  0.71054273576E-14  0.91188000000E+02  0.91188000000E+02 0.  0.
    9900012    2    3    3    0    0 -0.86383426030E+01  0.15296984338E+02  0.32359837159E+02  0.54367112535E+02  0.40000064646E+02 0.  0.
        -12    1    3    3    0    0  0.86383426030E+01 -0.15296984338E+02 -0.32359837159E+02  0.36820887465E+02  0.00000000000E+00 0.  1.
         11    1    4    4    0    0  0.49153154904E+01  0.30609689298E+00  0.12458858846E+02  0.13396909557E+02  0.51100000000E-03 0. -1.
        -11    1    4    4    0    0 -0.12971858309E+02  0.43271536183E+00 -0.34652414537E+01  0.13433698269E+02  0.51100000000E-03 0.  1.
         12    1    4    4    0    0 -0.58179978400E+00  0.14558172083E+02  0.23366219767E+02  0.27536504709E+02  0.00000000000E+00 0. -1.
</event>
<event>
 8    1  0.1261983E-006  0.9118800E+02  0.7816164E-02  0.1184000E+00
        -11   -1    0    0    0    0  0.00000000000E+00  0.00000000000E+00  0.45593999997E+02  0.45594000000E+02  0.51100000000E-03 0. -1.
         11   -1    0    0    0    0 -0.00000000000E+00 -0.00000000000E+00 -0.45593999997E+02  0.45594000000E+02  0.51100000000E-03 0.  1.
         23    2    1    2    0    0  0.35527136788E-14  0.00000000000E+00  0.00000000000E+00  0.91188000000E+02  0.91188000000E+02 0.  0.
    9900012    2    3    3    0    0  0.29088532130E+02 -0.21480584578E+02 -0.69441854566E+01  0.54367083024E+02  0.39999997370E+02 0.  0.
        -12    1    3    3    0    0 -0.29088532130E+02  0.21480584578E+02  0.69441854566E+01  0.36820916976E+02  0.00000000000E+00 0.  1.
         11    1    4    4    0    0 -0.46694942278E+01  0.25871565770E+00 -0.24942832538E+01  0.53002414423E+01  0.51100000000E-03 0. -1.
        -11    1    4    4    0    0  0.13643898265E+02 -0.16778785069E+02 -0.14503868555E+02  0.26039312425E+02  0.51100000000E-03 0.  1.
         12    1    4    4    0    0  0.20114128093E+02 -0.49605151664E+01  0.10053966352E+02  0.23027529157E+02  0.00000000000E+00 0. -1.
</event>
<event>
 8    1  0.1261983E-006  0.9118800E+02  0.7816164E-02  0.1184000E+00
        -11   -1    0    0    0    0  0.00000000000E+00  0.00000000000E+00  0.45593999997E+02  0.45594000000E+02  0.51100000000E-03 0.  1.
         11   -1    0    0    0    0 -0.00000000000E+00 -0.00000000000E+00 -0.45593999997E+02  0.45594000000E+02  0.51100000000E-03 0. -1.
         23    2    1    2    0    0 -0.35527136788E-14  0.00000000000E+00  0.17763568394E-14  0.91188000000E+02  0.91188000000E+02 0.  0.
    9900012    2    3    3    0    0  0.13401802223E+02  0.32926631529E+02  0.95919573492E+01  0.54367122601E+02  0.40000087592E+02 0.  0.
        -12    1    3    3    0    0 -0.13401802223E+02 -0.32926631529E+02 -0.95919573492E+01  0.36820877399E+02  0.00000000000E+00 0.  1.
         11    1    4    4    0    0 -0.56431601814E+01  0.34508110188E+00 -0.76488269463E+01  0.95115136395E+01  0.51100000000E-03 0. -1.
        -11    1    4    4    0    0  0.72061925940E+01  0.81321281991E+01  0.13662047028E+02  0.17456008994E+02  0.51100000000E-03 0.  1.
         12    1    4    4    0    0  0.11838769811E+02  0.24449422228E+02  0.35787372675E+01  0.27399599967E+02  0.00000000000E+00 0. -1.
</event>
<event>
 8    1  0.1261983E-006  0.9118800E+02  0.7816164E-02  0.1184000E+00
        -11   -1    0    0    0    0  0.00000000000E+00  0.00000000000E+00  0.45593999997E+02  0.45594000000E+02  0.51100000000E-03 0. -1.
         11   -1    0    0    0    0 -0.00000000000E+00 -0.00000000000E+00 -0.45593999997E+02  0.45594000000E+02  0.51100000000E-03 0.  1.
         23    2    1    2    0    0  0.00000000000E+00  0.00000000000E+00  0.00000000000E+00  0.91188000000E+02  0.91188000000E+02 0.  0.
    9900012    2    3    3    0    0 -0.31148358391E+02 -0.47954617832E+01 -0.19041111498E+02  0.54367073732E+02  0.39999976187E+02 0.  0.
         12    1    3    3    0    0  0.31148358391E+02  0.47954617832E+01  0.19041111498E+02  0.36820926268E+02  0.00000000000E+00 0. -1.
         11    1    4    4    0    0 -0.10169897659E+02 -0.14523760890E+02 -0.19205481195E+02  0.26138419175E+02  0.51100000000E-03 0. -1.
        -11    1    4    4    0    0 -0.22580801546E+02  0.76995322763E+01 -0.31072517835E+01  0.24058894606E+02  0.51100000000E-03 0.  1.
         12    1    4    4    0    0  0.16023408149E+01  0.20287668305E+01  0.32716214803E+01  0.41697599511E+01  0.00000000000E+00 0. -1.
</event>
<event>
 8    1  0.1261983E-006  0.9118800E+02  0.7816164E-02  0.1184000E+00
        -11   -1    0    0    0    0  0.00000000000E+00  0.00000000000E+00  0.45593999997E+02  0.45594000000E+02  0.51100000000E-03 0.  1.
         11   -1    0    0    0    0 -0.00000000000E+00 -0.00000000000E+00 -0.45593999997E+02  0.45594000000E+02  0.51100000000E-03 0. -1.
         23    2    1    2    0    0  0.00000000000E+00  0.88817841970E-15  0.00000000000E+00  0.91188000000E+02  0.91188000000E+02 0.  0.
    9900012    2    3    3    0    0 -0.10774522658E+02 -0.76532095873E+01 -0.34367387182E+02  0.54367092118E+02  0.40000018102E+02 0.  0.
        -12    1    3    3    0    0  0.10774522658E+02  0.76532095873E+01  0.34367387182E+02  0.36820907882E+02  0.00000000000E+00 0.  1.
         11    1    4    4    0    0 -0.12626394095E+02 -0.14934433243E+02 -0.35212127886E+02  0.40278493948E+02  0.51100000000E-03 0. -1.
        -11    1    4    4    0    0  0.14117459243E+01  0.33894310676E+01 -0.55115246543E+01  0.66225503995E+01  0.51100000000E-03 0.  1.
         12    1    4    4    0    0  0.44012551253E+00  0.38917925883E+01  0.63562653583E+01  0.74660477713E+01  0.00000000000E+00 0. -1.
</event>
<event>
 8    1  0.1261983E-006  0.9118800E+02  0.7816164E-02  0.1184000E+00
        -11   -1    0    0    0    0  0.00000000000E+00  0.00000000000E+00  0.45593999997E+02  0.45594000000E+02  0.51100000000E-03 0.  1.
         11   -1    0    0    0    0 -0.00000000000E+00 -0.00000000000E+00 -0.45593999997E+02  0.45594000000E+02  0.51100000000E-03 0. -1.
         23    2    1    2    0    0  0.00000000000E+00 -0.66613381478E-15  0.00000000000E+00  0.91188000000E+02  0.91188000000E+02 0.  0.
    9900012    2    3    3    0    0  0.72538621748E+01  0.18743164940E+01 -0.36050634651E+02  0.54367084238E+02  0.40000000138E+02 0.  0.
        -12    1    3    3    0    0 -0.72538621748E+01 -0.18743164940E+01  0.36050634651E+02  0.36820915762E+02  0.00000000000E+00 0.  1.
         11    1    4    4    0    0 -0.56136389327E+01 -0.81527252917E+01 -0.37077879015E+00  0.99054201789E+01  0.51100000000E-03 0. -1.
        -11    1    4    4    0    0  0.34463448663E+01 -0.19008091466E+01  0.15643465867E+01  0.42352743540E+01  0.51100000000E-03 0.  1.
         12    1    4    4    0    0  0.94211562411E+01  0.11927850932E+02 -0.37244202448E+02  0.40226389706E+02  0.00000000000E+00 0. -1.
</event>
<event>
 8    1  0.1261983E-006  0.9118800E+02  0.7816164E-02  0.1184000E+00
        -11   -1    0    0    0    0  0.00000000000E+00  0.00000000000E+00  0.45593999997E+02  0.45594000000E+02  0.51100000000E-03 0.  1.
         11   -1    0    0    0    0 -0.00000000000E+00 -0.00000000000E+00 -0.45593999997E+02  0.45594000000E+02  0.51100000000E-03 0. -1.
         23    2    1    2    0    0 -0.22204460493E-14  0.00000000000E+00  0.00000000000E+00  0.91188000000E+02  0.91188000000E+02 0.  0.
    9900012    2    3    3    0    0  0.33227309799E+01 -0.88371166617E+01 -0.35590005356E+02  0.54367032423E+02  0.39999882016E+02 0.  0.
        -12    1    3    3    0    0 -0.33227309799E+01  0.88371166617E+01  0.35590005356E+02  0.36820967577E+02  0.00000000000E+00 0.  1.
         11    1    4    4    0    0  0.14936962499E+02  0.40179132822E+01 -0.31690266820E+02  0.35263713463E+02  0.51100000000E-03 0. -1.
        -11    1    4    4    0    0 -0.77752474375E+01 -0.46389488088E+01  0.40868146119E+00  0.90631859499E+01  0.51100000000E-03 0.  1.
         12    1    4    4    0    0 -0.38389840814E+01 -0.82160811350E+01 -0.43084199967E+01  0.10040133010E+02  0.00000000000E+00 0. -1.
</event>
<event>
 8    1  0.1261983E-006  0.9118800E+02  0.7816164E-02  0.1184000E+00
        -11   -1    0    0    0    0  0.00000000000E+00  0.00000000000E+00  0.45593999997E+02  0.45594000000E+02  0.51100000000E-03 0.  1.
         11   -1    0    0    0    0 -0.00000000000E+00 -0.00000000000E+00 -0.45593999997E+02  0.45594000000E+02  0.51100000000E-03 0. -1.
         23    2    1    2    0    0  0.35527136788E-14  0.19428902931E-15 -0.35527136788E-14  0.91188000000E+02  0.91188000000E+02 0.  0.
    9900012    2    3    3    0    0  0.23507368980E+02 -0.22523675651E+00 -0.28339605399E+02  0.54367077115E+02  0.39999983899E+02 0.  0.
        -12    1    3    3    0    0 -0.23507368980E+02  0.22523675651E+00  0.28339605399E+02  0.36820922885E+02  0.00000000000E+00 0.  1.
         11    1    4    4    0    0  0.25811792137E+02  0.45871512898E+01 -0.15335765192E+02  0.30372294358E+02  0.51100000000E-03 0. -1.
        -11    1    4    4    0    0 -0.75652374803E+01  0.49624158742E+01 -0.63364071466E+01  0.11045743308E+02  0.51100000000E-03 0.  1.
         12    1    4    4    0    0  0.52608143224E+01 -0.97748039205E+01 -0.66674330609E+01  0.12949039449E+02  0.00000000000E+00 0. -1.
</event>
<event>
 8    1  0.1261983E-006  0.9118800E+02  0.7816164E-02  0.1184000E+00
        -11   -1    0    0    0    0  0.00000000000E+00  0.00000000000E+00  0.45593999997E+02  0.45594000000E+02  0.51100000000E-03 0.  1.
         11   -1    0    0    0    0 -0.00000000000E+00 -0.00000000000E+00 -0.45593999997E+02  0.45594000000E+02  0.51100000000E-03 0. -1.
         23    2    1    2    0    0 -0.71054273576E-14  0.88817841970E-15  0.00000000000E+00  0.91188000000E+02  0.91188000000E+02 0.  0.
    9900012    2    3    3    0    0  0.30530736438E+02 -0.60039353151E+01 -0.19687688614E+02  0.54367106615E+02  0.40000051149E+02 0.  0.
         12    1    3    3    0    0 -0.30530736438E+02  0.60039353151E+01  0.19687688614E+02  0.36820893385E+02  0.00000000000E+00 0. -1.
         11    1    4    4    0    0 -0.21619004716E+01 -0.74270022345E+01 -0.70558695197E+01  0.10469931747E+02  0.51100000000E-03 0. -1.
        -11    1    4    4    0    0  0.13447367993E+01  0.88321078011E+01 -0.66444696952E+01  0.11133886251E+02  0.51100000000E-03 0.  1.
        -12    1    4    4    0    0  0.31347900111E+02 -0.74090408817E+01 -0.59873493992E+01  0.32763288616E+02  0.00000000000E+00 0.  1.
</event>
<event>
 8    1  0.1261983E-006  0.9118800E+02  0.7816164E-02  0.1184000E+00
        -11   -1    0    0    0    0  0.00000000000E+00  0.00000000000E+00  0.45593999997E+02  0.45594000000E+02  0.51100000000E-03 0.  1.
         11   -1    0    0    0    0 -0.00000000000E+00 -0.00000000000E+00 -0.45593999997E+02  0.45594000000E+02  0.51100000000E-03 0. -1.
         23    2    1    2    0    0  0.00000000000E+00 -0.44408920985E-15  0.71054273576E-14  0.91188000000E+02  0.91188000000E+02 0.  0.
    9900012    2    3    3    0    0 -0.16714423614E+02  0.14315353915E+01 -0.32777412317E+02  0.54367081917E+02  0.39999994845E+02 0.  0.
        -12    1    3    3    0    0  0.16714423614E+02 -0.14315353915E+01  0.32777412317E+02  0.36820918083E+02  0.00000000000E+00 0.  1.
         11    1    4    4    0    0 -0.26831872857E+01  0.62028253925E+01 -0.15402448926E+01  0.69315865031E+01  0.51100000000E-03 0. -1.
        -11    1    4    4    0    0  0.73302325999E+01 -0.13773454531E+01  0.20528990682E+01  0.77358765056E+01  0.51100000000E-03 0.  1.
        -12    1    4    4    0    0 -0.21361468928E+02 -0.33939445479E+01 -0.33290066492E+02  0.39699618908E+02  0.00000000000E+00 0.  1.
</event>
<event>
 8    1  0.1261983E-006  0.9118800E+02  0.7816164E-02  0.1184000E+00
        -11   -1    0    0    0    0  0.00000000000E+00  0.00000000000E+00  0.45593999997E+02  0.45594000000E+02  0.51100000000E-03 0.  1.
         11   -1    0    0    0    0 -0.00000000000E+00 -0.00000000000E+00 -0.45593999997E+02  0.45594000000E+02  0.51100000000E-03 0. -1.
         23    2    1    2    0    0 -0.35527136788E-14  0.00000000000E+00 -0.35527136788E-14  0.91188000000E+02  0.91188000000E+02 0.  0.
    9900012    2    3    3    0    0  0.19602954661E+02  0.17821999942E+02 -0.25571095703E+02  0.54367075938E+02  0.39999981215E+02 0.  0.
         12    1    3    3    0    0 -0.19602954661E+02 -0.17821999942E+02  0.25571095703E+02  0.36820924062E+02  0.00000000000E+00 0. -1.
         11    1    4    4    0    0 -0.20639103822E+01  0.49802199432E+01 -0.12959923775E+02  0.14036450451E+02  0.51100000000E-03 0. -1.
        -11    1    4    4    0    0  0.18657075573E+02  0.21626196962E+02 -0.12134569846E+02  0.31032670681E+02  0.51100000000E-03 0.  1.
         12    1    4    4    0    0  0.30097894698E+01 -0.87844169631E+01 -0.47660208188E+00  0.92979548063E+01  0.00000000000E+00 0. -1.
</event>
<event>
 8    1  0.1261983E-006  0.9118800E+02  0.7816164E-02  0.1184000E+00
        -11   -1    0    0    0    0  0.00000000000E+00  0.00000000000E+00  0.45593999997E+02  0.45594000000E+02  0.51100000000E-03 0.  1.
         11   -1    0    0    0    0 -0.00000000000E+00 -0.00000000000E+00 -0.45593999997E+02  0.45594000000E+02  0.51100000000E-03 0. -1.
         23    2    1    2    0    0  0.17763568394E-14  0.22204460493E-15  0.00000000000E+00  0.91188000000E+02  0.91188000000E+02 0.  0.
    9900012    2    3    3    0    0 -0.72303748007E+01  0.16340388987E+01 -0.36067045158E+02  0.54367080004E+02  0.39999990486E+02 0.  0.
        -12    1    3    3    0    0  0.72303748007E+01 -0.16340388987E+01  0.36067045158E+02  0.36820919996E+02  0.00000000000E+00 0.  1.
         11    1    4    4    0    0  0.13294988238E+01  0.73156940846E+01 -0.17504958778E+02  0.19018688944E+02  0.51100000000E-03 0. -1.
        -11    1    4    4    0    0  0.41726376884E+01 -0.56841711819E+01  0.49464453082E+01  0.86132472826E+01  0.51100000000E-03 0.  1.
        -12    1    4    4    0    0 -0.12732511313E+02  0.25159959858E-02 -0.23508531688E+02  0.26735143777E+02  0.00000000000E+00 0.  1.
</event>
<event>
 8    1  0.1261983E-006  0.9118800E+02  0.7816164E-02  0.1184000E+00
        -11   -1    0    0    0    0  0.00000000000E+00  0.00000000000E+00  0.45593999997E+02  0.45594000000E+02  0.51100000000E-03 0. -1.
         11   -1    0    0    0    0 -0.00000000000E+00 -0.00000000000E+00 -0.45593999997E+02  0.45594000000E+02  0.51100000000E-03 0.  1.
         23    2    1    2    0    0  0.35527136788E-14  0.00000000000E+00 -0.13322676296E-14  0.91188000000E+02  0.91188000000E+02 0.  0.
    9900012    2    3    3    0    0  0.24425152337E+02 -0.27508492775E+02 -0.15719633658E+01  0.54367132136E+02  0.40000109330E+02 0.  0.
        -12    1    3    3    0    0 -0.24425152337E+02  0.27508492775E+02  0.15719633658E+01  0.36820867864E+02  0.00000000000E+00 0.  1.
         11    1    4    4    0    0  0.97174559033E+01 -0.12043905406E+02 -0.80842111695E+01  0.17459641381E+02  0.51100000000E-03 0. -1.
        -11    1    4    4    0    0  0.20948603495E+02 -0.56945323329E+01  0.11169575691E+02  0.24413748345E+02  0.51100000000E-03 0.  1.
        -12    1    4    4    0    0 -0.62409070610E+01 -0.97700550360E+01 -0.46573278874E+01  0.12493742410E+02  0.00000000000E+00 0.  1.
</event>
<event>
 8    1  0.1261983E-006  0.9118800E+02  0.7816164E-02  0.1184000E+00
        -11   -1    0    0    0    0  0.00000000000E+00  0.00000000000E+00  0.45593999997E+02  0.45594000000E+02  0.51100000000E-03 0. -1.
         11   -1    0    0    0    0 -0.00000000000E+00 -0.00000000000E+00 -0.45593999997E+02  0.45594000000E+02  0.51100000000E-03 0.  1.
         23    2    1    2    0    0  0.00000000000E+00 -0.35527136788E-14  0.00000000000E+00  0.91188000000E+02  0.91188000000E+02 0.  0.
    9900012    2    3    3    0    0  0.18935560477E+02  0.31468706914E+02 -0.26352564150E+01  0.54367088254E+02  0.40000009292E+02 0.  0.
         12    1    3    3    0    0 -0.18935560477E+02 -0.31468706914E+02  0.26352564150E+01  0.36820911746E+02  0.00000000000E+00 0. -1.
         11    1    4    4    0    0 -0.68781436901E+01  0.17086070119E+01  0.36376287326E+01  0.79662125003E+01  0.51100000000E-03 0. -1.
        -11    1    4    4    0    0  0.26388855420E+02  0.33100990320E+02 -0.44884194609E+01  0.42569862110E+02  0.51100000000E-03 0.  1.
        -12    1    4    4    0    0 -0.57515125290E+00 -0.33408904178E+01 -0.17844656866E+01  0.38310136432E+01  0.00000000000E+00 0.  1.
</event>
<event>
 8    1  0.1261983E-006  0.9118800E+02  0.7816164E-02  0.1184000E+00
        -11   -1    0    0    0    0  0.00000000000E+00  0.00000000000E+00  0.45593999997E+02  0.45594000000E+02  0.51100000000E-03 0.  1.
         11   -1    0    0    0    0 -0.00000000000E+00 -0.00000000000E+00 -0.45593999997E+02  0.45594000000E+02  0.51100000000E-03 0. -1.
         23    2    1    2    0    0  0.00000000000E+00  0.00000000000E+00  0.00000000000E+00  0.91188000000E+02  0.91188000000E+02 0.  0.
    9900012    2    3    3    0    0 -0.26289600684E+02 -0.90237683511E+01 -0.24149719239E+02  0.54367076075E+02  0.39999981528E+02 0.  0.
        -12    1    3    3    0    0  0.26289600684E+02  0.90237683511E+01  0.24149719239E+02  0.36820923925E+02  0.00000000000E+00 0.  1.
         11    1    4    4    0    0  0.28767507028E+00 -0.15224055663E+02 -0.71671320704E+01  0.16829212998E+02  0.51100000000E-03 0. -1.
        -11    1    4    4    0    0  0.18289208175E+01  0.18359500037E+01 -0.64122535889E+01  0.69161159709E+01  0.51100000000E-03 0.  1.
         12    1    4    4    0    0 -0.28406196572E+02  0.43643373077E+01 -0.10570333580E+02  0.30621747106E+02  0.00000000000E+00 0. -1.
</event>
<event>
 8    1  0.1261983E-006  0.9118800E+02  0.7816164E-02  0.1184000E+00
        -11   -1    0    0    0    0  0.00000000000E+00  0.00000000000E+00  0.45593999997E+02  0.45594000000E+02  0.51100000000E-03 0. -1.
         11   -1    0    0    0    0 -0.00000000000E+00 -0.00000000000E+00 -0.45593999997E+02  0.45594000000E+02  0.51100000000E-03 0.  1.
         23    2    1    2    0    0  0.35527136788E-14  0.35527136788E-14  0.88817841970E-15  0.91188000000E+02  0.91188000000E+02 0.  0.
    9900012    2    3    3    0    0  0.23163274980E+02  0.28411844678E+02  0.34655127265E+01  0.54367081974E+02  0.39999994977E+02 0.  0.
        -12    1    3    3    0    0 -0.23163274980E+02 -0.28411844678E+02 -0.34655127265E+01  0.36820918026E+02  0.00000000000E+00 0.  1.
         11    1    4    4    0    0  0.18690005197E+02  0.98692610803E+01  0.33788706709E+01  0.21404097173E+02  0.51100000000E-03 0. -1.
        -11    1    4    4    0    0 -0.52091202916E+01  0.96451552403E+01  0.11254618612E+02  0.15710836839E+02  0.51100000000E-03 0.  1.
        -12    1    4    4    0    0  0.96823900748E+01  0.88974283570E+01 -0.11167976557E+02  0.17252147962E+02  0.00000000000E+00 0.  1.
</event>
<event>
 8    1  0.1261983E-006  0.9118800E+02  0.7816164E-02  0.1184000E+00
        -11   -1    0    0    0    0  0.00000000000E+00  0.00000000000E+00  0.45593999997E+02  0.45594000000E+02  0.51100000000E-03 0. -1.
         11   -1    0    0    0    0 -0.00000000000E+00 -0.00000000000E+00 -0.45593999997E+02  0.45594000000E+02  0.51100000000E-03 0.  1.
         23    2    1    2    0    0  0.00000000000E+00 -0.35527136788E-14  0.00000000000E+00  0.91188000000E+02  0.91188000000E+02 0.  0.
    9900012    2    3    3    0    0  0.24423383475E+02  0.20284523421E+02  0.18649829335E+02  0.54367086310E+02  0.40000004860E+02 0.  0.
        -12    1    3    3    0    0 -0.24423383475E+02 -0.20284523421E+02 -0.18649829335E+02  0.36820913690E+02  0.00000000000E+00 0.  1.
         11    1    4    4    0    0  0.12740022651E+02 -0.21943903311E+01 -0.13992683989E+00  0.12928383730E+02  0.51100000000E-03 0. -1.
        -11    1    4    4    0    0  0.14398571951E+02  0.45926816946E+00  0.46858358350E+01  0.15148823691E+02  0.51100000000E-03 0.  1.
         12    1    4    4    0    0 -0.27152111278E+01  0.22019645582E+02  0.14103920340E+02  0.26289878889E+02  0.00000000000E+00 0. -1.
</event>
<event>
 8    1  0.1261983E-006  0.9118800E+02  0.7816164E-02  0.1184000E+00
        -11   -1    0    0    0    0  0.00000000000E+00  0.00000000000E+00  0.45593999997E+02  0.45594000000E+02  0.51100000000E-03 0. -1.
         11   -1    0    0    0    0 -0.00000000000E+00 -0.00000000000E+00 -0.45593999997E+02  0.45594000000E+02  0.51100000000E-03 0.  1.
         23    2    1    2    0    0 -0.24424906542E-14  0.00000000000E+00  0.00000000000E+00  0.91188000000E+02  0.91188000000E+02 0.  0.
    9900012    2    3    3    0    0 -0.17162005433E+01 -0.17712872057E+02  0.32234885735E+02  0.54367095079E+02  0.40000024852E+02 0.  0.
        -12    1    3    3    0    0  0.17162005433E+01  0.17712872057E+02 -0.32234885735E+02  0.36820904921E+02  0.00000000000E+00 0.  1.
         11    1    4    4    0    0  0.13655991516E+02 -0.22543973439E+01  0.40694649455E+01  0.14426675184E+02  0.51100000000E-03 0.  1.
        -11    1    4    4    0    0  0.23729444375E+01 -0.73995544711E+01  0.13397081489E+02  0.15487610028E+02  0.51100000000E-03 0. -1.
         12    1    4    4    0    0 -0.17745136496E+02 -0.80589202424E+01  0.14768339300E+02  0.24452809868E+02  0.00000000000E+00 0. -1.
</event>
<event>
 8    1  0.1261983E-006  0.9118800E+02  0.7816164E-02  0.1184000E+00
        -11   -1    0    0    0    0  0.00000000000E+00  0.00000000000E+00  0.45593999997E+02  0.45594000000E+02  0.51100000000E-03 0. -1.
         11   -1    0    0    0    0 -0.00000000000E+00 -0.00000000000E+00 -0.45593999997E+02  0.45594000000E+02  0.51100000000E-03 0.  1.
         23    2    1    2    0    0  0.35527136788E-14  0.00000000000E+00  0.00000000000E+00  0.91188000000E+02  0.91188000000E+02 0.  0.
    9900012    2    3    3    0    0  0.11086789853E+02 -0.23938523086E+02 -0.25686790751E+02  0.54367068237E+02  0.39999963659E+02 0.  0.
         12    1    3    3    0    0 -0.11086789853E+02  0.23938523086E+02  0.25686790751E+02  0.36820931763E+02  0.00000000000E+00 0. -1.
         11    1    4    4    0    0 -0.25602679307E+01  0.42206228317E+01  0.35741537594E+01  0.60945224851E+01  0.51100000000E-03 0. -1.
        -11    1    4    4    0    0 -0.16990872879E+01 -0.73610126295E+01 -0.19029451844E+02  0.20474165241E+02  0.51100000000E-03 0.  1.
         12    1    4    4    0    0  0.15346145072E+02 -0.20798133289E+02 -0.10231492666E+02  0.27798380511E+02  0.00000000000E+00 0. -1.
</event>
<event>
 8    1  0.1261983E-006  0.9118800E+02  0.7816164E-02  0.1184000E+00
        -11   -1    0    0    0    0  0.00000000000E+00  0.00000000000E+00  0.45593999997E+02  0.45594000000E+02  0.51100000000E-03 0.  1.
         11   -1    0    0    0    0 -0.00000000000E+00 -0.00000000000E+00 -0.45593999997E+02  0.45594000000E+02  0.51100000000E-03 0. -1.
         23    2    1    2    0    0  0.35527136788E-14  0.00000000000E+00 -0.35527136788E-14  0.91188000000E+02  0.91188000000E+02 0.  0.
    9900012    2    3    3    0    0 -0.24556686723E+02  0.14029971874E+02 -0.23577715226E+02  0.54367087072E+02  0.40000006598E+02 0.  0.
         12    1    3    3    0    0  0.24556686723E+02 -0.14029971874E+02  0.23577715226E+02  0.36820912928E+02  0.00000000000E+00 0. -1.
         11    1    4    4    0    0 -0.38234561587E+01  0.23646560528E+01  0.68573020841E+00  0.45475973244E+01  0.51100000000E-03 0. -1.
        -11    1    4    4    0    0 -0.28836429796E+02  0.28086262418E+01 -0.88731058292E+01  0.30301156282E+02  0.51100000000E-03 0.  1.
         12    1    4    4    0    0  0.81031992316E+01  0.88566895795E+01 -0.15390339605E+02  0.19518333465E+02  0.00000000000E+00 0. -1.
</event>
<event>
 8    1  0.1261983E-006  0.9118800E+02  0.7816164E-02  0.1184000E+00
        -11   -1    0    0    0    0  0.00000000000E+00  0.00000000000E+00  0.45593999997E+02  0.45594000000E+02  0.51100000000E-03 0. -1.
         11   -1    0    0    0    0 -0.00000000000E+00 -0.00000000000E+00 -0.45593999997E+02  0.45594000000E+02  0.51100000000E-03 0.  1.
         23    2    1    2    0    0  0.00000000000E+00  0.00000000000E+00  0.00000000000E+00  0.91188000000E+02  0.91188000000E+02 0.  0.
    9900012    2    3    3    0    0 -0.55760509478E+01  0.21712749058E+02 -0.29210300087E+02  0.54367116700E+02  0.40000074140E+02 0.  0.
         12    1    3    3    0    0  0.55760509478E+01 -0.21712749058E+02  0.29210300087E+02  0.36820883300E+02  0.00000000000E+00 0. -1.
         11    1    4    4    0    0 -0.12067274293E+01 -0.18172642878E-01 -0.13066904351E+02  0.13122519229E+02  0.51100000000E-03 0. -1.
        -11    1    4    4    0    0  0.43142293640E+01  0.99219824461E+01 -0.22730895391E+02  0.25174429809E+02  0.51100000000E-03 0.  1.
         12    1    4    4    0    0 -0.86835528825E+01  0.11808939255E+02  0.65874996546E+01  0.16070167662E+02  0.00000000000E+00 0. -1.
</event>
<event>
 8    1  0.1261983E-006  0.9118800E+02  0.7816164E-02  0.1184000E+00
        -11   -1    0    0    0    0  0.00000000000E+00  0.00000000000E+00  0.45593999997E+02  0.45594000000E+02  0.51100000000E-03 0. -1.
         11   -1    0    0    0    0 -0.00000000000E+00 -0.00000000000E+00 -0.45593999997E+02  0.45594000000E+02  0.51100000000E-03 0.  1.
         23    2    1    2    0    0  0.00000000000E+00 -0.35527136788E-14  0.00000000000E+00  0.91188000000E+02  0.91188000000E+02 0.  0.
    9900012    2    3    3    0    0 -0.21320036419E+01 -0.30445706002E+02  0.20598393711E+02  0.54367078271E+02  0.39999986534E+02 0.  0.
         12    1    3    3    0    0  0.21320036419E+01  0.30445706002E+02 -0.20598393711E+02  0.36820921729E+02  0.00000000000E+00 0. -1.
         11    1    4    4    0    0 -0.30500682441E+00 -0.13786141526E+02  0.12875111055E+02  0.18865821273E+02  0.51100000000E-03 0.  1.
        -11    1    4    4    0    0  0.47554390898E+01 -0.12552107067E+02  0.18106605698E+02  0.22539271570E+02  0.51100000000E-03 0. -1.
        -12    1    4    4    0    0 -0.65824359073E+01 -0.41074574090E+01 -0.10383323042E+02  0.12961985428E+02  0.00000000000E+00 0.  1.
</event>
<event>
 8    1  0.1261983E-006  0.9118800E+02  0.7816164E-02  0.1184000E+00
        -11   -1    0    0    0    0  0.00000000000E+00  0.00000000000E+00  0.45593999997E+02  0.45594000000E+02  0.51100000000E-03 0.  1.
         11   -1    0    0    0    0 -0.00000000000E+00 -0.00000000000E+00 -0.45593999997E+02  0.45594000000E+02  0.51100000000E-03 0. -1.
         23    2    1    2    0    0  0.17763568394E-14 -0.35527136788E-14 -0.35527136788E-14  0.91188000000E+02  0.91188000000E+02 0.  0.
    9900012    2    3    3    0    0  0.11040284058E+02 -0.28550977698E+02 -0.20462988888E+02  0.54367080487E+02  0.39999991586E+02 0.  0.
        -12    1    3    3    0    0 -0.11040284058E+02  0.28550977698E+02  0.20462988888E+02  0.36820919513E+02  0.00000000000E+00 0.  1.
         11    1    4    4    0    0  0.18947400090E+02 -0.28963755849E+02 -0.71197287306E+01  0.35335444818E+02  0.51100000000E-03 0. -1.
        -11    1    4    4    0    0 -0.10466082520E+01  0.21353728513E+01 -0.11470552165E+02  0.11714468544E+02  0.51100000000E-03 0.  1.
         12    1    4    4    0    0 -0.68605077803E+01 -0.17225947001E+01 -0.18727079919E+01  0.73171671245E+01  0.00000000000E+00 0. -1.
</event>
<event>
 8    1  0.1261983E-006  0.9118800E+02  0.7816164E-02  0.1184000E+00
        -11   -1    0    0    0    0  0.00000000000E+00  0.00000000000E+00  0.45593999997E+02  0.45594000000E+02  0.51100000000E-03 0.  1.
         11   -1    0    0    0    0 -0.00000000000E+00 -0.00000000000E+00 -0.45593999997E+02  0.45594000000E+02  0.51100000000E-03 0. -1.
         23    2    1    2    0    0  0.00000000000E+00  0.88817841970E-15 -0.71054273576E-14  0.91188000000E+02  0.91188000000E+02 0.  0.
    9900012    2    3    3    0    0 -0.10779714248E+02  0.76635935939E+01  0.34363448184E+02  0.54367089133E+02  0.40000011296E+02 0.  0.
         12    1    3    3    0    0  0.10779714248E+02 -0.76635935939E+01 -0.34363448184E+02  0.36820910867E+02  0.00000000000E+00 0. -1.
         11    1    4    4    0    0  0.52172847408E+01 -0.43231347882E+01  0.75441719283E+01  0.10140221142E+02  0.51100000000E-03 0. -1.
        -11    1    4    4    0    0 -0.87823934822E+01  0.12444488560E+02 -0.12109224139E+01  0.15279465440E+02  0.51100000000E-03 0.  1.
        -12    1    4    4    0    0 -0.72146055062E+01 -0.45776017744E+00  0.28030198669E+02  0.28947402550E+02  0.00000000000E+00 0.  1.
</event>
<event>
 8    1  0.1261983E-006  0.9118800E+02  0.7816164E-02  0.1184000E+00
        -11   -1    0    0    0    0  0.00000000000E+00  0.00000000000E+00  0.45593999997E+02  0.45594000000E+02  0.51100000000E-03 0. -1.
         11   -1    0    0    0    0 -0.00000000000E+00 -0.00000000000E+00 -0.45593999997E+02  0.45594000000E+02  0.51100000000E-03 0.  1.
         23    2    1    2    0    0 -0.35527136788E-14  0.17763568394E-14  0.17763568394E-14  0.91188000000E+02  0.91188000000E+02 0.  0.
    9900012    2    3    3    0    0  0.30127895145E+02 -0.15644494867E+02 -0.14259733194E+02  0.54367078280E+02  0.39999986555E+02 0.  0.
         12    1    3    3    0    0 -0.30127895145E+02  0.15644494867E+02  0.14259733194E+02  0.36820921720E+02  0.00000000000E+00 0. -1.
         11    1    4    4    0    0  0.71897702358E-01 -0.74960273396E+01 -0.19194600861E+01  0.77382118373E+01  0.51100000000E-03 0. -1.
        -11    1    4    4    0    0 -0.60588476587E+01  0.26878917278E+01 -0.47819554651E+01  0.81732181681E+01  0.51100000000E-03 0.  1.
         12    1    4    4    0    0  0.36114845102E+02 -0.10836359256E+02 -0.75583176429E+01  0.38455648275E+02  0.00000000000E+00 0. -1.
</event>
<event>
 8    1  0.1261983E-006  0.9118800E+02  0.7816164E-02  0.1184000E+00
        -11   -1    0    0    0    0  0.00000000000E+00  0.00000000000E+00  0.45593999997E+02  0.45594000000E+02  0.51100000000E-03 0.  1.
         11   -1    0    0    0    0 -0.00000000000E+00 -0.00000000000E+00 -0.45593999997E+02  0.45594000000E+02  0.51100000000E-03 0. -1.
         23    2    1    2    0    0  0.00000000000E+00  0.00000000000E+00 -0.15543122345E-14  0.91188000000E+02  0.91188000000E+02 0.  0.
    9900012    2    3    3    0    0  0.27381688585E+01  0.36693421053E+02  0.13692470395E+01  0.54367088078E+02  0.40000008892E+02 0.  0.
         12    1    3    3    0    0 -0.27381688585E+01 -0.36693421053E+02 -0.13692470395E+01  0.36820911922E+02  0.00000000000E+00 0. -1.
         11    1    4    4    0    0  0.70630586505E+01  0.23130014263E+02 -0.31052899863E+01  0.24382928115E+02  0.51100000000E-03 0. -1.
        -11    1    4    4    0    0  0.86660334544E+01  0.86543009328E+01 -0.49402202139E+01  0.13206166608E+02  0.51100000000E-03 0.  1.
        -12    1    4    4    0    0 -0.12990923246E+02  0.49091058574E+01  0.94147572397E+01  0.16777993354E+02  0.00000000000E+00 0.  1.
</event>
<event>
 8    1  0.1261983E-006  0.9118800E+02  0.7816164E-02  0.1184000E+00
        -11   -1    0    0    0    0  0.00000000000E+00  0.00000000000E+00  0.45593999997E+02  0.45594000000E+02  0.51100000000E-03 0.  1.
         11   -1    0    0    0    0 -0.00000000000E+00 -0.00000000000E+00 -0.45593999997E+02  0.45594000000E+02  0.51100000000E-03 0. -1.
         23    2    1    2    0    0  0.00000000000E+00  0.00000000000E+00  0.00000000000E+00  0.91188000000E+02  0.91188000000E+02 0.  0.
    9900012    2    3    3    0    0 -0.33370919004E+02 -0.13251736268E+02 -0.81580018216E+01  0.54367085522E+02  0.40000003064E+02 0.  0.
        -12    1    3    3    0    0  0.33370919004E+02  0.13251736268E+02  0.81580018216E+01  0.36820914478E+02  0.00000000000E+00 0.  1.
         11    1    4    4    0    0 -0.21664540941E+02  0.61919746764E+01 -0.23895321906E+01  0.22658392462E+02  0.51100000000E-03 0. -1.
        -11    1    4    4    0    0 -0.68461198048E+01 -0.66325457072E+01  0.78810387269E+01  0.12368136101E+02  0.51100000000E-03 0.  1.
         12    1    4    4    0    0 -0.48602582577E+01 -0.12811165238E+02 -0.13649508358E+02  0.19340556959E+02  0.00000000000E+00 0. -1.
</event>
<event>
 8    1  0.1261983E-006  0.9118800E+02  0.7816164E-02  0.1184000E+00
        -11   -1    0    0    0    0  0.00000000000E+00  0.00000000000E+00  0.45593999997E+02  0.45594000000E+02  0.51100000000E-03 0. -1.
         11   -1    0    0    0    0 -0.00000000000E+00 -0.00000000000E+00 -0.45593999997E+02  0.45594000000E+02  0.51100000000E-03 0.  1.
         23    2    1    2    0    0 -0.35527136788E-14  0.35527136788E-14  0.44408920985E-15  0.91188000000E+02  0.91188000000E+02 0.  0.
    9900012    2    3    3    0    0  0.20882857816E+02  0.30197484493E+02  0.27921336451E+01  0.54367111492E+02  0.40000062268E+02 0.  0.
         12    1    3    3    0    0 -0.20882857816E+02 -0.30197484493E+02 -0.27921336451E+01  0.36820888508E+02  0.00000000000E+00 0. -1.
         11    1    4    4    0    0  0.55055317301E+00 -0.35803723629E+01 -0.15478079352E+00  0.36257595630E+01  0.51100000000E-03 0. -1.
        -11    1    4    4    0    0  0.97218449643E+01  0.24183622968E+02  0.16652780084E+02  0.30930195185E+02  0.51100000000E-03 0.  1.
         12    1    4    4    0    0  0.10610459678E+02  0.95942338873E+01 -0.13705865645E+02  0.19811156744E+02  0.00000000000E+00 0. -1.
</event>
<event>
 8    1  0.1261983E-006  0.9118800E+02  0.7816164E-02  0.1184000E+00
        -11   -1    0    0    0    0  0.00000000000E+00  0.00000000000E+00  0.45593999997E+02  0.45594000000E+02  0.51100000000E-03 0. -1.
         11   -1    0    0    0    0 -0.00000000000E+00 -0.00000000000E+00 -0.45593999997E+02  0.45594000000E+02  0.51100000000E-03 0.  1.
         23    2    1    2    0    0  0.17763568394E-14  0.00000000000E+00  0.00000000000E+00  0.91188000000E+02  0.91188000000E+02 0.  0.
    9900012    2    3    3    0    0  0.85382007657E+01 -0.17868203289E+02 -0.31041977855E+02  0.54367109866E+02  0.40000058562E+02 0.  0.
         12    1    3    3    0    0 -0.85382007657E+01  0.17868203289E+02  0.31041977855E+02  0.36820890134E+02  0.00000000000E+00 0. -1.
         11    1    4    4    0    0 -0.88378258508E+00 -0.11836596428E+02 -0.97265276728E+01  0.15345729943E+02  0.51100000000E-03 0. -1.
        -11    1    4    4    0    0 -0.78863515973E+01 -0.10996075624E+01  0.32232579994E+01  0.85902893257E+01  0.51100000000E-03 0.  1.
        -12    1    4    4    0    0  0.17308334948E+02 -0.49319992989E+01 -0.24538708181E+02  0.30431090598E+02  0.00000000000E+00 0.  1.
</event>
<event>
 8    1  0.1261983E-006  0.9118800E+02  0.7816164E-02  0.1184000E+00
        -11   -1    0    0    0    0  0.00000000000E+00  0.00000000000E+00  0.45593999997E+02  0.45594000000E+02  0.51100000000E-03 0.  1.
         11   -1    0    0    0    0 -0.00000000000E+00 -0.00000000000E+00 -0.45593999997E+02  0.45594000000E+02  0.51100000000E-03 0. -1.
         23    2    1    2    0    0  0.00000000000E+00 -0.35527136788E-14 -0.35527136788E-14  0.91188000000E+02  0.91188000000E+02 0.  0.
    9900012    2    3    3    0    0 -0.14032310259E+02  0.21566315049E+02 -0.26339481785E+02  0.54367082348E+02  0.39999995830E+02 0.  0.
        -12    1    3    3    0    0  0.14032310259E+02 -0.21566315049E+02  0.26339481785E+02  0.36820917652E+02  0.00000000000E+00 0.  1.
         11    1    4    4    0    0  0.77576902714E+01  0.38724471402E+01 -0.71073589885E+01  0.11211251369E+02  0.51100000000E-03 0.  1.
        -11    1    4    4    0    0 -0.33547506307E+01  0.14159433852E+02  0.21432169483E+01  0.14708409090E+02  0.51100000000E-03 0. -1.
         12    1    4    4    0    0 -0.18435249900E+02  0.35344340567E+01 -0.21375339745E+02  0.28447421890E+02  0.00000000000E+00 0. -1.
</event>
<event>
 8    1  0.1261983E-006  0.9118800E+02  0.7816164E-02  0.1184000E+00
        -11   -1    0    0    0    0  0.00000000000E+00  0.00000000000E+00  0.45593999997E+02  0.45594000000E+02  0.51100000000E-03 0. -1.
         11   -1    0    0    0    0 -0.00000000000E+00 -0.00000000000E+00 -0.45593999997E+02  0.45594000000E+02  0.51100000000E-03 0.  1.
         23    2    1    2    0    0  0.17763568394E-14  0.00000000000E+00  0.00000000000E+00  0.91188000000E+02  0.91188000000E+02 0.  0.
    9900012    2    3    3    0    0  0.66635437991E+01  0.14078014526E+02 -0.33364450897E+02  0.54367083490E+02  0.39999998433E+02 0.  0.
         12    1    3    3    0    0 -0.66635437991E+01 -0.14078014526E+02  0.33364450897E+02  0.36820916510E+02  0.00000000000E+00 0. -1.
         11    1    4    4    0    0  0.14416458821E+02  0.11435112154E+02 -0.24410386015E+01  0.18562185879E+02  0.51100000000E-03 0. -1.
        -11    1    4    4    0    0  0.57449085166E+00 -0.49791673017E+01 -0.17808931972E+02  0.18500816334E+02  0.51100000000E-03 0.  1.
        -12    1    4    4    0    0 -0.83274058736E+01  0.76220696740E+01 -0.13114480323E+02  0.17304081277E+02  0.00000000000E+00 0.  1.
</event>
<event>
 8    1  0.1261983E-006  0.9118800E+02  0.7816164E-02  0.1184000E+00
        -11   -1    0    0    0    0  0.00000000000E+00  0.00000000000E+00  0.45593999997E+02  0.45594000000E+02  0.51100000000E-03 0.  1.
         11   -1    0    0    0    0 -0.00000000000E+00 -0.00000000000E+00 -0.45593999997E+02  0.45594000000E+02  0.51100000000E-03 0. -1.
         23    2    1    2    0    0  0.70256300777E-16  0.00000000000E+00  0.35527136788E-14  0.91188000000E+02  0.91188000000E+02 0.  0.
    9900012    2    3    3    0    0  0.64070482938E-02 -0.24192949258E+02  0.27757527217E+02  0.54367093547E+02  0.40000021358E+02 0.  0.
         12    1    3    3    0    0 -0.64070482938E-02  0.24192949258E+02 -0.27757527217E+02  0.36820906453E+02  0.00000000000E+00 0. -1.
         11    1    4    4    0    0  0.59965439442E+00  0.95981248780E+01  0.10039113326E+02  0.13902063990E+02  0.51100000000E-03 0. -1.
        -11    1    4    4    0    0 -0.11529168429E+01 -0.28817126658E+02  0.86542131803E+01  0.30110652801E+02  0.51100000000E-03 0.  1.
         12    1    4    4    0    0  0.55966949679E+00 -0.49739474780E+01  0.90642007106E+01  0.10354376755E+02  0.00000000000E+00 0. -1.
</event>
<event>
 8    1  0.1261983E-006  0.9118800E+02  0.7816164E-02  0.1184000E+00
        -11   -1    0    0    0    0  0.00000000000E+00  0.00000000000E+00  0.45593999997E+02  0.45594000000E+02  0.51100000000E-03 0. -1.
         11   -1    0    0    0    0 -0.00000000000E+00 -0.00000000000E+00 -0.45593999997E+02  0.45594000000E+02  0.51100000000E-03 0.  1.
         23    2    1    2    0    0  0.00000000000E+00  0.88817841970E-15  0.35527136788E-14  0.91188000000E+02  0.91188000000E+02 0.  0.
    9900012    2    3    3    0    0  0.17444427500E+02 -0.69227531198E+01 -0.31678821394E+02  0.54367078142E+02  0.39999986240E+02 0.  0.
         12    1    3    3    0    0 -0.17444427500E+02  0.69227531198E+01  0.31678821394E+02  0.36820921858E+02  0.00000000000E+00 0. -1.
         11    1    4    4    0    0  0.18166030454E+02  0.11583473522E+02 -0.21865273442E+02  0.30696444488E+02  0.51100000000E-03 0.  1.
        -11    1    4    4    0    0  0.50213515156E+01 -0.65997846798E+01 -0.43791422544E+01  0.93780603542E+01  0.51100000000E-03 0. -1.
        -12    1    4    4    0    0 -0.57429544687E+01 -0.11906441962E+02 -0.54344056978E+01  0.14292573300E+02  0.00000000000E+00 0.  1.
</event>
<event>
 8    1  0.1261983E-006  0.9118800E+02  0.7816164E-02  0.1184000E+00
        -11   -1    0    0    0    0  0.00000000000E+00  0.00000000000E+00  0.45593999997E+02  0.45594000000E+02  0.51100000000E-03 0. -1.
         11   -1    0    0    0    0 -0.00000000000E+00 -0.00000000000E+00 -0.45593999997E+02  0.45594000000E+02  0.51100000000E-03 0.  1.
         23    2    1    2    0    0  0.00000000000E+00 -0.88817841970E-15  0.00000000000E+00  0.91188000000E+02  0.91188000000E+02 0.  0.
    9900012    2    3    3    0    0 -0.21641830307E+02 -0.79191981837E+01  0.28717573499E+02  0.54367061031E+02  0.39999947231E+02 0.  0.
        -12    1    3    3    0    0  0.21641830307E+02  0.79191981837E+01 -0.28717573499E+02  0.36820938969E+02  0.00000000000E+00 0.  1.
         11    1    4    4    0    0 -0.23773730862E+02 -0.10720164857E+02  0.18152141646E+02  0.31774399447E+02  0.51100000000E-03 0. -1.
        -11    1    4    4    0    0 -0.54991423195E+01 -0.57545561276E+01  0.69638746417E+01  0.10575964862E+02  0.51100000000E-03 0.  1.
        -12    1    4    4    0    0  0.76310428744E+01  0.85555228006E+01  0.36015572115E+01  0.12016696721E+02  0.00000000000E+00 0.  1.
</event>
<event>
 8    1  0.1261983E-006  0.9118800E+02  0.7816164E-02  0.1184000E+00
        -11   -1    0    0    0    0  0.00000000000E+00  0.00000000000E+00  0.45593999997E+02  0.45594000000E+02  0.51100000000E-03 0. -1.
         11   -1    0    0    0    0 -0.00000000000E+00 -0.00000000000E+00 -0.45593999997E+02  0.45594000000E+02  0.51100000000E-03 0.  1.
         23    2    1    2    0    0  0.00000000000E+00  0.22204460493E-14  0.17763568394E-14  0.91188000000E+02  0.91188000000E+02 0.  0.
    9900012    2    3    3    0    0 -0.34556534167E+02  0.38257896876E+01 -0.12123921026E+02  0.54367079569E+02  0.39999989493E+02 0.  0.
         12    1    3    3    0    0  0.34556534167E+02 -0.38257896876E+01  0.12123921026E+02  0.36820920431E+02  0.00000000000E+00 0. -1.
         11    1    4    4    0    0 -0.27304842290E+01  0.10155341643E+02 -0.83527969102E+01  0.13429658391E+02  0.51100000000E-03 0. -1.
        -11    1    4    4    0    0 -0.28021601200E+01 -0.97357793559E+01  0.36811822447E+01  0.10779081778E+02  0.51100000000E-03 0.  1.
        -12    1    4    4    0    0 -0.29023889818E+02  0.34062274010E+01 -0.74523063603E+01  0.30158339400E+02  0.00000000000E+00 0.  1.
</event>
<event>
 8    1  0.1261983E-006  0.9118800E+02  0.7816164E-02  0.1184000E+00
        -11   -1    0    0    0    0  0.00000000000E+00  0.00000000000E+00  0.45593999997E+02  0.45594000000E+02  0.51100000000E-03 0. -1.
         11   -1    0    0    0    0 -0.00000000000E+00 -0.00000000000E+00 -0.45593999997E+02  0.45594000000E+02  0.51100000000E-03 0.  1.
         23    2    1    2    0    0 -0.71054273576E-14  0.00000000000E+00  0.00000000000E+00  0.91188000000E+02  0.91188000000E+02 0.  0.
    9900012    2    3    3    0    0  0.27524004390E+02  0.66359921673E+01 -0.23541061467E+02  0.54366962743E+02  0.39999723163E+02 0.  0.
         12    1    3    3    0    0 -0.27524004390E+02 -0.66359921673E+01  0.23541061467E+02  0.36821037257E+02  0.00000000000E+00 0. -1.
         11    1    4    4    0    0 -0.57949233511E+01  0.62080818758E+01 -0.14680106107E+02  0.16959567589E+02  0.51100000000E-03 0. -1.
        -11    1    4    4    0    0  0.10715838174E+02  0.70023237983E+01 -0.29288582004E+01  0.13131638777E+02  0.51100000000E-03 0.  1.
         12    1    4    4    0    0  0.22603089568E+02 -0.65744135068E+01 -0.59320971592E+01  0.24275756377E+02  0.00000000000E+00 0. -1.
</event>
<event>
 8    1  0.1261983E-006  0.9118800E+02  0.7816164E-02  0.1184000E+00
        -11   -1    0    0    0    0  0.00000000000E+00  0.00000000000E+00  0.45593999997E+02  0.45594000000E+02  0.51100000000E-03 0. -1.
         11   -1    0    0    0    0 -0.00000000000E+00 -0.00000000000E+00 -0.45593999997E+02  0.45594000000E+02  0.51100000000E-03 0.  1.
         23    2    1    2    0    0  0.35527136788E-14  0.00000000000E+00  0.00000000000E+00  0.91188000000E+02  0.91188000000E+02 0.  0.
    9900012    2    3    3    0    0  0.25229401040E+02 -0.93977663060E+01  0.25118525816E+02  0.54367068079E+02  0.39999963300E+02 0.  0.
        -12    1    3    3    0    0 -0.25229401040E+02  0.93977663060E+01 -0.25118525816E+02  0.36820931921E+02  0.00000000000E+00 0.  1.
         11    1    4    4    0    0 -0.28616516520E+01 -0.22693684997E+01  0.87632392883E+01  0.94938636313E+01  0.51100000000E-03 0.  1.
        -11    1    4    4    0    0  0.44479973434E+01  0.15887297283E+01  0.18960586616E+02  0.19540025271E+02  0.51100000000E-03 0. -1.
        -12    1    4    4    0    0  0.23643055348E+02 -0.87171275347E+01 -0.26053000880E+01  0.25333179177E+02  0.00000000000E+00 0.  1.
</event>
<event>
 8    1  0.1261983E-006  0.9118800E+02  0.7816164E-02  0.1184000E+00
        -11   -1    0    0    0    0  0.00000000000E+00  0.00000000000E+00  0.45593999997E+02  0.45594000000E+02  0.51100000000E-03 0.  1.
         11   -1    0    0    0    0 -0.00000000000E+00 -0.00000000000E+00 -0.45593999997E+02  0.45594000000E+02  0.51100000000E-03 0. -1.
         23    2    1    2    0    0 -0.35527136788E-14 -0.27755575616E-15 -0.35527136788E-14  0.91188000000E+02  0.91188000000E+02 0.  0.
    9900012    2    3    3    0    0  0.20714394065E+02  0.11594098786E+00  0.30441430587E+02  0.54367078502E+02  0.39999987061E+02 0.  0.
         12    1    3    3    0    0 -0.20714394065E+02 -0.11594098786E+00 -0.30441430587E+02  0.36820921498E+02  0.00000000000E+00 0. -1.
         11    1    4    4    0    0  0.11071388899E+01  0.33040596055E+01  0.48159409084E+01  0.59443968149E+01  0.51100000000E-03 0. -1.
        -11    1    4    4    0    0  0.29022196543E+02 -0.37428477621E+01  0.11506723650E+02  0.31443624011E+02  0.51100000000E-03 0.  1.
         12    1    4    4    0    0 -0.94149413681E+01  0.55472914443E+00  0.14118766028E+02  0.16979057676E+02  0.00000000000E+00 0. -1.
</event>
<event>
 8    1  0.1261983E-006  0.9118800E+02  0.7816164E-02  0.1184000E+00
        -11   -1    0    0    0    0  0.00000000000E+00  0.00000000000E+00  0.45593999997E+02  0.45594000000E+02  0.51100000000E-03 0. -1.
         11   -1    0    0    0    0 -0.00000000000E+00 -0.00000000000E+00 -0.45593999997E+02  0.45594000000E+02  0.51100000000E-03 0.  1.
         23    2    1    2    0    0 -0.44408920985E-15 -0.35527136788E-14  0.35527136788E-14  0.91188000000E+02  0.91188000000E+02 0.  0.
    9900012    2    3    3    0    0 -0.35391017208E+01  0.27604844548E+02  0.24108669765E+02  0.54367073323E+02  0.39999975254E+02 0.  0.
        -12    1    3    3    0    0  0.35391017208E+01 -0.27604844548E+02 -0.24108669765E+02  0.36820926677E+02  0.00000000000E+00 0.  1.
         11    1    4    4    0    0 -0.64273036056E+00 -0.26024196197E+01  0.59892986493E+01  0.65618129175E+01  0.51100000000E-03 0. -1.
        -11    1    4    4    0    0 -0.29568788108E+00 -0.50313755443E+01 -0.37218686492E+01  0.62653393917E+01  0.51100000000E-03 0.  1.
         12    1    4    4    0    0 -0.26006834792E+01  0.35238639712E+02  0.21841239765E+02  0.41539921013E+02  0.00000000000E+00 0. -1.
</event>
<event>
 8    1  0.1261983E-006  0.9118800E+02  0.7816164E-02  0.1184000E+00
        -11   -1    0    0    0    0  0.00000000000E+00  0.00000000000E+00  0.45593999997E+02  0.45594000000E+02  0.51100000000E-03 0.  1.
         11   -1    0    0    0    0 -0.00000000000E+00 -0.00000000000E+00 -0.45593999997E+02  0.45594000000E+02  0.51100000000E-03 0. -1.
         23    2    1    2    0    0  0.00000000000E+00  0.00000000000E+00  0.00000000000E+00  0.91188000000E+02  0.91188000000E+02 0.  0.
    9900012    2    3    3    0    0 -0.18478699228E+02 -0.21068685350E+02 -0.23883637118E+02  0.54367082718E+02  0.39999996671E+02 0.  0.
        -12    1    3    3    0    0  0.18478699228E+02  0.21068685350E+02  0.23883637118E+02  0.36820917282E+02  0.00000000000E+00 0.  1.
         11    1    4    4    0    0 -0.47370359475E+01 -0.20312130373E+02 -0.30023754310E+02  0.36557461249E+02  0.51100000000E-03 0. -1.
        -11    1    4    4    0    0 -0.48378913093E+01  0.10236963515E+01  0.71287493251E+01  0.86759560708E+01  0.51100000000E-03 0.  1.
         12    1    4    4    0    0 -0.89037719710E+01 -0.17802513279E+01 -0.98863213375E+00  0.91336653977E+01  0.00000000000E+00 0. -1.
</event>
<event>
 8    1  0.1261983E-006  0.9118800E+02  0.7816164E-02  0.1184000E+00
        -11   -1    0    0    0    0  0.00000000000E+00  0.00000000000E+00  0.45593999997E+02  0.45594000000E+02  0.51100000000E-03 0.  1.
         11   -1    0    0    0    0 -0.00000000000E+00 -0.00000000000E+00 -0.45593999997E+02  0.45594000000E+02  0.51100000000E-03 0. -1.
         23    2    1    2    0    0  0.00000000000E+00  0.00000000000E+00  0.00000000000E+00  0.91188000000E+02  0.91188000000E+02 0.  0.
    9900012    2    3    3    0    0  0.19088535754E+02  0.98837221460E+01 -0.29895113457E+02  0.54367109607E+02  0.40000057971E+02 0.  0.
        -12    1    3    3    0    0 -0.19088535754E+02 -0.98837221460E+01  0.29895113457E+02  0.36820890393E+02  0.00000000000E+00 0.  1.
         11    1    4    4    0    0 -0.39819737216E+01  0.94329766079E+01 -0.13887777996E+02  0.17254203556E+02  0.51100000000E-03 0.  1.
        -11    1    4    4    0    0  0.22581373993E+02  0.94193352227E+01 -0.10957549375E+02  0.26808771252E+02  0.51100000000E-03 0. -1.
        -12    1    4    4    0    0  0.48913548236E+00 -0.89685896846E+01 -0.50497860860E+01  0.10304134799E+02  0.00000000000E+00 0.  1.
</event>
<event>
 8    1  0.1261983E-006  0.9118800E+02  0.7816164E-02  0.1184000E+00
        -11   -1    0    0    0    0  0.00000000000E+00  0.00000000000E+00  0.45593999997E+02  0.45594000000E+02  0.51100000000E-03 0. -1.
         11   -1    0    0    0    0 -0.00000000000E+00 -0.00000000000E+00 -0.45593999997E+02  0.45594000000E+02  0.51100000000E-03 0.  1.
         23    2    1    2    0    0  0.00000000000E+00 -0.71054273576E-14  0.77715611724E-15  0.91188000000E+02  0.91188000000E+02 0.  0.
    9900012    2    3    3    0    0  0.11009927855E+02 -0.35131027999E+02  0.61003292668E+00  0.54367085022E+02  0.40000001924E+02 0.  0.
         12    1    3    3    0    0 -0.11009927855E+02  0.35131027999E+02 -0.61003292668E+00  0.36820914978E+02  0.00000000000E+00 0. -1.
         11    1    4    4    0    0  0.37285782598E+01 -0.14046884824E+02 -0.77577884863E+00  0.14554006396E+02  0.51100000000E-03 0. -1.
        -11    1    4    4    0    0 -0.43955301242E+01  0.46582428773E+01  0.85208961402E+01  0.10659530152E+02  0.51100000000E-03 0.  1.
        -12    1    4    4    0    0  0.11676879720E+02 -0.25742386053E+02 -0.71350843649E+01  0.29153548473E+02  0.00000000000E+00 0.  1.
</event>
<event>
 8    1  0.1261983E-006  0.9118800E+02  0.7816164E-02  0.1184000E+00
        -11   -1    0    0    0    0  0.00000000000E+00  0.00000000000E+00  0.45593999997E+02  0.45594000000E+02  0.51100000000E-03 0.  1.
         11   -1    0    0    0    0 -0.00000000000E+00 -0.00000000000E+00 -0.45593999997E+02  0.45594000000E+02  0.51100000000E-03 0. -1.
         23    2    1    2    0    0  0.00000000000E+00  0.35527136788E-14  0.71054273576E-14  0.91188000000E+02  0.91188000000E+02 0.  0.
    9900012    2    3    3    0    0 -0.21791291505E+02 -0.21746022942E+02 -0.20199715929E+02  0.54367103448E+02  0.40000043931E+02 0.  0.
        -12    1    3    3    0    0  0.21791291505E+02  0.21746022942E+02  0.20199715929E+02  0.36820896552E+02  0.00000000000E+00 0.  1.
         11    1    4    4    0    0 -0.16747495140E+02 -0.67976800669E+01 -0.84484065150E+01  0.19951506727E+02  0.51100000000E-03 0. -1.
        -11    1    4    4    0    0  0.43301306927E+00 -0.16226169323E+02  0.48066085003E+01  0.16928660808E+02  0.51100000000E-03 0.  1.
         12    1    4    4    0    0 -0.54768094338E+01  0.12778264473E+01 -0.16557917914E+02  0.17486935914E+02  0.00000000000E+00 0. -1.
</event>
<event>
 8    1  0.1261983E-006  0.9118800E+02  0.7816164E-02  0.1184000E+00
        -11   -1    0    0    0    0  0.00000000000E+00  0.00000000000E+00  0.45593999997E+02  0.45594000000E+02  0.51100000000E-03 0. -1.
         11   -1    0    0    0    0 -0.00000000000E+00 -0.00000000000E+00 -0.45593999997E+02  0.45594000000E+02  0.51100000000E-03 0.  1.
         23    2    1    2    0    0  0.00000000000E+00  0.00000000000E+00  0.00000000000E+00  0.91188000000E+02  0.91188000000E+02 0.  0.
    9900012    2    3    3    0    0 -0.26146711458E+02  0.86834908788E+01 -0.24427970368E+02  0.54367091942E+02  0.40000017701E+02 0.  0.
         12    1    3    3    0    0  0.26146711458E+02 -0.86834908788E+01  0.24427970368E+02  0.36820908058E+02  0.00000000000E+00 0. -1.
         11    1    4    4    0    0 -0.20814687058E+01 -0.85177501739E+01 -0.18797837921E+02  0.20742306785E+02  0.51100000000E-03 0. -1.
        -11    1    4    4    0    0 -0.13009787254E+02  0.38222200408E+00 -0.25610450583E+01  0.13264976823E+02  0.51100000000E-03 0.  1.
        -12    1    4    4    0    0 -0.11055455498E+02  0.16819019049E+02 -0.30690873884E+01  0.20359808335E+02  0.00000000000E+00 0.  1.
</event>
<event>
 8    1  0.1261983E-006  0.9118800E+02  0.7816164E-02  0.1184000E+00
        -11   -1    0    0    0    0  0.00000000000E+00  0.00000000000E+00  0.45593999997E+02  0.45594000000E+02  0.51100000000E-03 0. -1.
         11   -1    0    0    0    0 -0.00000000000E+00 -0.00000000000E+00 -0.45593999997E+02  0.45594000000E+02  0.51100000000E-03 0.  1.
         23    2    1    2    0    0 -0.22204460493E-14  0.00000000000E+00 -0.35527136788E-14  0.91188000000E+02  0.91188000000E+02 0.  0.
    9900012    2    3    3    0    0 -0.28389690984E+01 -0.31127642082E+02 -0.19462657775E+02  0.54367015564E+02  0.39999843581E+02 0.  0.
         12    1    3    3    0    0  0.28389690984E+01  0.31127642082E+02  0.19462657775E+02  0.36820984436E+02  0.00000000000E+00 0. -1.
         11    1    4    4    0    0  0.75304051398E+01 -0.78925435242E+01  0.12116544819E+01  0.10975762010E+02  0.51100000000E-03 0. -1.
        -11    1    4    4    0    0  0.93072998554E+01 -0.30683372305E+01 -0.71926130996E+01  0.12156241501E+02  0.51100000000E-03 0.  1.
         12    1    4    4    0    0 -0.19676674094E+02 -0.20166761327E+02 -0.13481699158E+02  0.31235012054E+02  0.00000000000E+00 0. -1.
</event>
<event>
 8    1  0.1261983E-006  0.9118800E+02  0.7816164E-02  0.1184000E+00
        -11   -1    0    0    0    0  0.00000000000E+00  0.00000000000E+00  0.45593999997E+02  0.45594000000E+02  0.51100000000E-03 0.  1.
         11   -1    0    0    0    0 -0.00000000000E+00 -0.00000000000E+00 -0.45593999997E+02  0.45594000000E+02  0.51100000000E-03 0. -1.
         23    2    1    2    0    0  0.00000000000E+00  0.00000000000E+00 -0.35527136788E-14  0.91188000000E+02  0.91188000000E+02 0.  0.
    9900012    2    3    3    0    0  0.16172126314E+02  0.12686498089E+02 -0.30549877392E+02  0.54367083228E+02  0.39999997835E+02 0.  0.
        -12    1    3    3    0    0 -0.16172126314E+02 -0.12686498089E+02  0.30549877392E+02  0.36820916772E+02  0.00000000000E+00 0.  1.
         11    1    4    4    0    0  0.10297546388E+01  0.42547015552E+01 -0.72015337512E+01  0.84276312550E+01  0.51100000000E-03 0. -1.
        -11    1    4    4    0    0 -0.94868472678E+01 -0.56129374813E+01 -0.45719631106E+01  0.11933490068E+02  0.51100000000E-03 0.  1.
        -12    1    4    4    0    0  0.24629218943E+02  0.14044734016E+02 -0.18776380530E+02  0.34005961905E+02  0.00000000000E+00 0.  1.
</event>
<event>
 8    1  0.1261983E-006  0.9118800E+02  0.7816164E-02  0.1184000E+00
        -11   -1    0    0    0    0  0.00000000000E+00  0.00000000000E+00  0.45593999997E+02  0.45594000000E+02  0.51100000000E-03 0.  1.
         11   -1    0    0    0    0 -0.00000000000E+00 -0.00000000000E+00 -0.45593999997E+02  0.45594000000E+02  0.51100000000E-03 0. -1.
         23    2    1    2    0    0  0.00000000000E+00 -0.71054273576E-14  0.44408920985E-15  0.91188000000E+02  0.91188000000E+02 0.  0.
    9900012    2    3    3    0    0  0.16005437236E+02 -0.33104587107E+02  0.19212414456E+01  0.54367097277E+02  0.40000029861E+02 0.  0.
        -12    1    3    3    0    0 -0.16005437236E+02  0.33104587107E+02 -0.19212414456E+01  0.36820902723E+02  0.00000000000E+00 0.  1.
         11    1    4    4    0    0  0.15722995560E+02  0.88096283747E+00 -0.53367790046E+01  0.16627383898E+02  0.51100000000E-03 0. -1.
        -11    1    4    4    0    0 -0.25924637325E+00 -0.13507893058E+02  0.10354836383E+02  0.17022133248E+02  0.51100000000E-03 0.  1.
         12    1    4    4    0    0  0.54168804967E+00 -0.20477656887E+02 -0.30968159327E+01  0.20717580130E+02  0.00000000000E+00 0. -1.
</event>
<event>
 8    1  0.1261983E-006  0.9118800E+02  0.7816164E-02  0.1184000E+00
        -11   -1    0    0    0    0  0.00000000000E+00  0.00000000000E+00  0.45593999997E+02  0.45594000000E+02  0.51100000000E-03 0. -1.
         11   -1    0    0    0    0 -0.00000000000E+00 -0.00000000000E+00 -0.45593999997E+02  0.45594000000E+02  0.51100000000E-03 0.  1.
         23    2    1    2    0    0  0.00000000000E+00 -0.35527136788E-14  0.00000000000E+00  0.91188000000E+02  0.91188000000E+02 0.  0.
    9900012    2    3    3    0    0 -0.95537166388E+01  0.29752730747E+02 -0.19475156085E+02  0.54367079410E+02  0.39999989132E+02 0.  0.
         12    1    3    3    0    0  0.95537166388E+01 -0.29752730747E+02  0.19475156085E+02  0.36820920590E+02  0.00000000000E+00 0. -1.
         11    1    4    4    0    0 -0.55000510972E+01  0.23391736561E+02 -0.21057806507E+02  0.31950823410E+02  0.51100000000E-03 0. -1.
        -11    1    4    4    0    0 -0.12646614220E+02  0.51020550665E+01  0.16084966873E+01  0.13731535929E+02  0.51100000000E-03 0.  1.
         12    1    4    4    0    0  0.85929486781E+01  0.12589391194E+01 -0.25846265844E-01  0.86847200715E+01  0.00000000000E+00 0. -1.
</event>
<event>
 8    1  0.1261983E-006  0.9118800E+02  0.7816164E-02  0.1184000E+00
        -11   -1    0    0    0    0  0.00000000000E+00  0.00000000000E+00  0.45593999997E+02  0.45594000000E+02  0.51100000000E-03 0.  1.
         11   -1    0    0    0    0 -0.00000000000E+00 -0.00000000000E+00 -0.45593999997E+02  0.45594000000E+02  0.51100000000E-03 0. -1.
         23    2    1    2    0    0 -0.35527136788E-14  0.00000000000E+00  0.00000000000E+00  0.91188000000E+02  0.91188000000E+02 0.  0.
    9900012    2    3    3    0    0  0.17839335926E+02 -0.10683956050E+02  0.30387351780E+02  0.54367082421E+02  0.39999995995E+02 0.  0.
         12    1    3    3    0    0 -0.17839335926E+02  0.10683956050E+02 -0.30387351780E+02  0.36820917579E+02  0.00000000000E+00 0. -1.
         11    1    4    4    0    0 -0.20517832278E+01  0.21537202786E+01 -0.26985413467E+01  0.40162732867E+01  0.51100000000E-03 0. -1.
        -11    1    4    4    0    0  0.10559031616E+01 -0.10801422655E+02 -0.14605052595E+01  0.10950741470E+02  0.51100000000E-03 0.  1.
        -12    1    4    4    0    0  0.18835215992E+02 -0.20362536737E+01  0.34546398387E+02  0.39400067665E+02  0.00000000000E+00 0.  1.
</event>
<event>
 8    1  0.1261983E-006  0.9118800E+02  0.7816164E-02  0.1184000E+00
        -11   -1    0    0    0    0  0.00000000000E+00  0.00000000000E+00  0.45593999997E+02  0.45594000000E+02  0.51100000000E-03 0.  1.
         11   -1    0    0    0    0 -0.00000000000E+00 -0.00000000000E+00 -0.45593999997E+02  0.45594000000E+02  0.51100000000E-03 0. -1.
         23    2    1    2    0    0  0.53290705182E-14  0.88817841970E-15  0.71054273576E-14  0.91188000000E+02  0.91188000000E+02 0.  0.
    9900012    2    3    3    0    0  0.10041471554E+02  0.74074502583E+01 -0.34642146042E+02  0.54367085391E+02  0.40000002765E+02 0.  0.
        -12    1    3    3    0    0 -0.10041471554E+02 -0.74074502583E+01  0.34642146042E+02  0.36820914609E+02  0.00000000000E+00 0.  1.
         11    1    4    4    0    0 -0.26721254429E+01  0.18343612734E+01 -0.54806364544E+01  0.63673002026E+01  0.51100000000E-03 0. -1.
        -11    1    4    4    0    0 -0.67537315587E+01 -0.99997036526E+01 -0.15265711066E+02  0.19458902788E+02  0.51100000000E-03 0.  1.
        -12    1    4    4    0    0  0.19467328555E+02  0.15572792638E+02 -0.13895798521E+02  0.28540882400E+02  0.00000000000E+00 0.  1.
</event>
<event>
 8    1  0.1261983E-006  0.9118800E+02  0.7816164E-02  0.1184000E+00
        -11   -1    0    0    0    0  0.00000000000E+00  0.00000000000E+00  0.45593999997E+02  0.45594000000E+02  0.51100000000E-03 0. -1.
         11   -1    0    0    0    0 -0.00000000000E+00 -0.00000000000E+00 -0.45593999997E+02  0.45594000000E+02  0.51100000000E-03 0.  1.
         23    2    1    2    0    0  0.00000000000E+00  0.88817841970E-15  0.71054273576E-14  0.91188000000E+02  0.91188000000E+02 0.  0.
    9900012    2    3    3    0    0 -0.17647428776E+02  0.64549289099E+01  0.31665039309E+02  0.54367183007E+02  0.40000225299E+02 0.  0.
        -12    1    3    3    0    0  0.17647428776E+02 -0.64549289099E+01 -0.31665039309E+02  0.36820816993E+02  0.00000000000E+00 0.  1.
         11    1    4    4    0    0  0.29999815809E+01 -0.35857963164E+01 -0.24909554421E+01  0.52974223905E+01  0.51100000000E-03 0. -1.
        -11    1    4    4    0    0 -0.37402777085E+01  0.34621868678E+01 -0.42229851579E+01  0.66189137439E+01  0.51100000000E-03 0.  1.
         12    1    4    4    0    0 -0.16907132649E+02  0.65785383585E+01  0.38378979909E+02  0.42450846872E+02  0.00000000000E+00 0. -1.
</event>
<event>
 8    1  0.1261983E-006  0.9118800E+02  0.7816164E-02  0.1184000E+00
        -11   -1    0    0    0    0  0.00000000000E+00  0.00000000000E+00  0.45593999997E+02  0.45594000000E+02  0.51100000000E-03 0.  1.
         11   -1    0    0    0    0 -0.00000000000E+00 -0.00000000000E+00 -0.45593999997E+02  0.45594000000E+02  0.51100000000E-03 0. -1.
         23    2    1    2    0    0  0.00000000000E+00  0.00000000000E+00  0.00000000000E+00  0.91188000000E+02  0.91188000000E+02 0.  0.
    9900012    2    3    3    0    0 -0.90210220703E+01 -0.92590378232E+01 -0.34477130351E+02  0.54367066581E+02  0.39999959885E+02 0.  0.
        -12    1    3    3    0    0  0.90210220703E+01  0.92590378232E+01  0.34477130351E+02  0.36820933419E+02  0.00000000000E+00 0.  1.
         11    1    4    4    0    0 -0.86377012197E+01  0.54577322928E+01 -0.20064044984E+02  0.22515830554E+02  0.51100000000E-03 0. -1.
        -11    1    4    4    0    0 -0.49282567260E+01 -0.84575207843E+01  0.49725998801E+01  0.10979258718E+02  0.51100000000E-03 0.  1.
         12    1    4    4    0    0  0.45449358754E+01 -0.62592493316E+01 -0.19385685247E+02  0.20871977309E+02  0.00000000000E+00 0. -1.
</event>
<event>
 8    1  0.1261983E-006  0.9118800E+02  0.7816164E-02  0.1184000E+00
        -11   -1    0    0    0    0  0.00000000000E+00  0.00000000000E+00  0.45593999997E+02  0.45594000000E+02  0.51100000000E-03 0.  1.
         11   -1    0    0    0    0 -0.00000000000E+00 -0.00000000000E+00 -0.45593999997E+02  0.45594000000E+02  0.51100000000E-03 0. -1.
         23    2    1    2    0    0 -0.71054273576E-14  0.66613381478E-15 -0.66613381478E-15  0.91188000000E+02  0.91188000000E+02 0.  0.
    9900012    2    3    3    0    0 -0.36726783959E+02  0.17856376828E+01 -0.19322424029E+01  0.54367099378E+02  0.40000034652E+02 0.  0.
        -12    1    3    3    0    0  0.36726783959E+02 -0.17856376828E+01  0.19322424029E+01  0.36820900622E+02  0.00000000000E+00 0.  1.
         11    1    4    4    0    0 -0.11474590937E+02  0.10725322656E+02 -0.53973730739E+01  0.16608143172E+02  0.51100000000E-03 0. -1.
        -11    1    4    4    0    0  0.12220776942E+01 -0.10287639069E+02 -0.23428762226E+01  0.10621584663E+02  0.51100000000E-03 0.  1.
         12    1    4    4    0    0 -0.26474270716E+02  0.13479540952E+01  0.58080068936E+01  0.27137371543E+02  0.00000000000E+00 0. -1.
</event>
<event>
 8    1  0.1261983E-006  0.9118800E+02  0.7816164E-02  0.1184000E+00
        -11   -1    0    0    0    0  0.00000000000E+00  0.00000000000E+00  0.45593999997E+02  0.45594000000E+02  0.51100000000E-03 0.  1.
         11   -1    0    0    0    0 -0.00000000000E+00 -0.00000000000E+00 -0.45593999997E+02  0.45594000000E+02  0.51100000000E-03 0. -1.
         23    2    1    2    0    0  0.00000000000E+00  0.00000000000E+00  0.44408920985E-15  0.91188000000E+02  0.91188000000E+02 0.  0.
    9900012    2    3    3    0    0  0.29356624303E+02  0.22188890170E+02 -0.12734261284E+01  0.54367084047E+02  0.39999999703E+02 0.  0.
        -12    1    3    3    0    0 -0.29356624303E+02 -0.22188890170E+02  0.12734261284E+01  0.36820915953E+02  0.00000000000E+00 0.  1.
         11    1    4    4    0    0  0.13852225596E+02  0.20062520566E+02 -0.14072710882E+02  0.28150134587E+02  0.51100000000E-03 0. -1.
        -11    1    4    4    0    0 -0.35561646148E+00  0.52788275714E+01  0.75435370531E+01  0.92139804172E+01  0.51100000000E-03 0.  1.
        -12    1    4    4    0    0  0.15860015169E+02 -0.31524579670E+01  0.52557477008E+01  0.17002969043E+02  0.00000000000E+00 0.  1.
</event>
<event>
 8    1  0.1261983E-006  0.9118800E+02  0.7816164E-02  0.1184000E+00
        -11   -1    0    0    0    0  0.00000000000E+00  0.00000000000E+00  0.45593999997E+02  0.45594000000E+02  0.51100000000E-03 0.  1.
         11   -1    0    0    0    0 -0.00000000000E+00 -0.00000000000E+00 -0.45593999997E+02  0.45594000000E+02  0.51100000000E-03 0. -1.
         23    2    1    2    0    0  0.22204460493E-15  0.00000000000E+00 -0.71054273576E-14  0.91188000000E+02  0.91188000000E+02 0.  0.
    9900012    2    3    3    0    0  0.17367511541E+01  0.10292330497E+02 -0.35310538461E+02  0.54367048111E+02  0.39999917778E+02 0.  0.
        -12    1    3    3    0    0 -0.17367511541E+01 -0.10292330497E+02  0.35310538461E+02  0.36820951889E+02  0.00000000000E+00 0.  1.
         11    1    4    4    0    0  0.24585692545E+01  0.12584841927E+02 -0.14958124613E+02  0.19701987243E+02  0.51100000000E-03 0. -1.
        -11    1    4    4    0    0  0.50307590179E+01  0.88781124216E+01 -0.19576336330E+02  0.22076285032E+02  0.51100000000E-03 0.  1.
        -12    1    4    4    0    0 -0.57525771184E+01 -0.11170623851E+02 -0.77607751820E+00  0.12588775836E+02  0.00000000000E+00 0.  1.
</event>
<event>
 8    1  0.1261983E-006  0.9118800E+02  0.7816164E-02  0.1184000E+00
        -11   -1    0    0    0    0  0.00000000000E+00  0.00000000000E+00  0.45593999997E+02  0.45594000000E+02  0.51100000000E-03 0.  1.
         11   -1    0    0    0    0 -0.00000000000E+00 -0.00000000000E+00 -0.45593999997E+02  0.45594000000E+02  0.51100000000E-03 0. -1.
         23    2    1    2    0    0  0.00000000000E+00 -0.44408920985E-14  0.00000000000E+00  0.91188000000E+02  0.91188000000E+02 0.  0.
    9900012    2    3    3    0    0 -0.10603175773E+02  0.51450316010E+01  0.34883817106E+02  0.54367090417E+02  0.40000014223E+02 0.  0.
         12    1    3    3    0    0  0.10603175773E+02 -0.51450316010E+01 -0.34883817106E+02  0.36820909583E+02  0.00000000000E+00 0. -1.
         11    1    4    4    0    0 -0.69407013792E+01 -0.13621680772E+02  0.13572692533E+02  0.20443617722E+02  0.51100000000E-03 0. -1.
        -11    1    4    4    0    0 -0.89937817295E+01  0.12076016745E+02  0.20349720095E+02  0.25314608399E+02  0.51100000000E-03 0.  1.
         12    1    4    4    0    0  0.53313073357E+01  0.66906956278E+01  0.96140447840E+00  0.86088642958E+01  0.00000000000E+00 0. -1.
</event>
<event>
 8    1  0.1261983E-006  0.9118800E+02  0.7816164E-02  0.1184000E+00
        -11   -1    0    0    0    0  0.00000000000E+00  0.00000000000E+00  0.45593999997E+02  0.45594000000E+02  0.51100000000E-03 0.  1.
         11   -1    0    0    0    0 -0.00000000000E+00 -0.00000000000E+00 -0.45593999997E+02  0.45594000000E+02  0.51100000000E-03 0. -1.
         23    2    1    2    0    0 -0.88817841970E-15  0.71054273576E-14  0.00000000000E+00  0.91188000000E+02  0.91188000000E+02 0.  0.
    9900012    2    3    3    0    0 -0.67000524785E+01  0.35690146302E+02 -0.60912074495E+01  0.54367081292E+02  0.39999993422E+02 0.  0.
         12    1    3    3    0    0  0.67000524785E+01 -0.35690146302E+02  0.60912074495E+01  0.36820918708E+02  0.00000000000E+00 0. -1.
         11    1    4    4    0    0 -0.26248991835E+00  0.10906274265E+02 -0.46186237927E+01  0.11846831024E+02  0.51100000000E-03 0. -1.
        -11    1    4    4    0    0 -0.17457480160E+02  0.20838294611E+02 -0.89627131600E+01  0.28623912438E+02  0.51100000000E-03 0.  1.
         12    1    4    4    0    0  0.11019917600E+02  0.39455774262E+01  0.74901295032E+01  0.13896337831E+02  0.00000000000E+00 0. -1.
</event>
<event>
 8    1  0.1261983E-006  0.9118800E+02  0.7816164E-02  0.1184000E+00
        -11   -1    0    0    0    0  0.00000000000E+00  0.00000000000E+00  0.45593999997E+02  0.45594000000E+02  0.51100000000E-03 0.  1.
         11   -1    0    0    0    0 -0.00000000000E+00 -0.00000000000E+00 -0.45593999997E+02  0.45594000000E+02  0.51100000000E-03 0. -1.
         23    2    1    2    0    0 -0.17763568394E-14 -0.88817841970E-15  0.00000000000E+00  0.91188000000E+02  0.91188000000E+02 0.  0.
    9900012    2    3    3    0    0  0.71995830284E+01  0.59668986044E+01  0.35613812121E+02  0.54367061819E+02  0.39999949028E+02 0.  0.
         12    1    3    3    0    0 -0.71995830284E+01 -0.59668986044E+01 -0.35613812121E+02  0.36820938181E+02  0.00000000000E+00 0. -1.
         11    1    4    4    0    0  0.20972067434E+01 -0.82734038275E+01  0.45123940558E+01  0.96544905300E+01  0.51100000000E-03 0. -1.
        -11    1    4    4    0    0 -0.86264174829E+01 -0.24424585495E+01  0.16039748558E+02  0.18375369831E+02  0.51100000000E-03 0.  1.
        -12    1    4    4    0    0  0.13728793768E+02  0.16682760981E+02  0.15061669508E+02  0.26337201458E+02  0.00000000000E+00 0.  1.
</event>
<event>
 8    1  0.1261983E-006  0.9118800E+02  0.7816164E-02  0.1184000E+00
        -11   -1    0    0    0    0  0.00000000000E+00  0.00000000000E+00  0.45593999997E+02  0.45594000000E+02  0.51100000000E-03 0. -1.
         11   -1    0    0    0    0 -0.00000000000E+00 -0.00000000000E+00 -0.45593999997E+02  0.45594000000E+02  0.51100000000E-03 0.  1.
         23    2    1    2    0    0  0.00000000000E+00 -0.26645352591E-14  0.00000000000E+00  0.91188000000E+02  0.91188000000E+02 0.  0.
    9900012    2    3    3    0    0 -0.29783501303E+02 -0.58958528746E+01 -0.20831803158E+02  0.54367054143E+02  0.39999931530E+02 0.  0.
         12    1    3    3    0    0  0.29783501303E+02  0.58958528746E+01  0.20831803158E+02  0.36820945857E+02  0.00000000000E+00 0. -1.
         11    1    4    4    0    0 -0.20301138768E+02 -0.13393111063E+02 -0.20561813217E+02  0.31848074075E+02  0.51100000000E-03 0. -1.
        -11    1    4    4    0    0 -0.14609498221E+02  0.21138353459E+01  0.16142118834E+01  0.14849626878E+02  0.51100000000E-03 0.  1.
        -12    1    4    4    0    0  0.51271356862E+01  0.53834228427E+01 -0.18842018239E+01  0.76693531905E+01  0.00000000000E+00 0.  1.
</event>
<event>
 8    1  0.1261983E-006  0.9118800E+02  0.7816164E-02  0.1184000E+00
        -11   -1    0    0    0    0  0.00000000000E+00  0.00000000000E+00  0.45593999997E+02  0.45594000000E+02  0.51100000000E-03 0.  1.
         11   -1    0    0    0    0 -0.00000000000E+00 -0.00000000000E+00 -0.45593999997E+02  0.45594000000E+02  0.51100000000E-03 0. -1.
         23    2    1    2    0    0  0.00000000000E+00  0.17763568394E-14 -0.35527136788E-14  0.91188000000E+02  0.91188000000E+02 0.  0.
    9900012    2    3    3    0    0  0.25162718871E+02 -0.11259309184E+02  0.24409936595E+02  0.54367089245E+02  0.40000011551E+02 0.  0.
         12    1    3    3    0    0 -0.25162718871E+02  0.11259309184E+02 -0.24409936595E+02  0.36820910755E+02  0.00000000000E+00 0. -1.
         11    1    4    4    0    0 -0.29597544466E+00  0.34475802148E+01 -0.45403909677E+01  0.57086391725E+01  0.51100000000E-03 0. -1.
        -11    1    4    4    0    0  0.20964668202E+02 -0.19799272355E+02  0.30196208839E+02  0.41753317558E+02  0.51100000000E-03 0.  1.
        -12    1    4    4    0    0  0.44940261131E+01  0.50923829561E+01 -0.12458812760E+01  0.69051325136E+01  0.00000000000E+00 0.  1.
</event>
<event>
 8    1  0.1261983E-006  0.9118800E+02  0.7816164E-02  0.1184000E+00
        -11   -1    0    0    0    0  0.00000000000E+00  0.00000000000E+00  0.45593999997E+02  0.45594000000E+02  0.51100000000E-03 0.  1.
         11   -1    0    0    0    0 -0.00000000000E+00 -0.00000000000E+00 -0.45593999997E+02  0.45594000000E+02  0.51100000000E-03 0. -1.
         23    2    1    2    0    0  0.35527136788E-14  0.00000000000E+00 -0.17763568394E-14  0.91188000000E+02  0.91188000000E+02 0.  0.
    9900012    2    3    3    0    0 -0.31450871121E+02  0.12691020104E+02  0.14337379237E+02  0.54367085713E+02  0.40000003499E+02 0.  0.
         12    1    3    3    0    0  0.31450871121E+02 -0.12691020104E+02 -0.14337379237E+02  0.36820914287E+02  0.00000000000E+00 0. -1.
         11    1    4    4    0    0  0.30368657690E+01  0.38836926810E+01 -0.17883372860E+01  0.52444039746E+01  0.51100000000E-03 0. -1.
        -11    1    4    4    0    0 -0.17906466065E+02  0.85543279367E+01  0.23683334965E+02  0.30898517904E+02  0.51100000000E-03 0.  1.
         12    1    4    4    0    0 -0.16581270826E+02  0.25299948618E+00 -0.75576184416E+01  0.18224163834E+02  0.00000000000E+00 0. -1.
</event>
<event>
 8    1  0.1261983E-006  0.9118800E+02  0.7816164E-02  0.1184000E+00
        -11   -1    0    0    0    0  0.00000000000E+00  0.00000000000E+00  0.45593999997E+02  0.45594000000E+02  0.51100000000E-03 0. -1.
         11   -1    0    0    0    0 -0.00000000000E+00 -0.00000000000E+00 -0.45593999997E+02  0.45594000000E+02  0.51100000000E-03 0.  1.
         23    2    1    2    0    0  0.00000000000E+00  0.00000000000E+00  0.00000000000E+00  0.91188000000E+02  0.91188000000E+02 0.  0.
    9900012    2    3    3    0    0  0.10474179826E+02  0.24326865516E+02  0.25578791847E+02  0.54367089892E+02  0.40000013026E+02 0.  0.
        -12    1    3    3    0    0 -0.10474179826E+02 -0.24326865516E+02 -0.25578791847E+02  0.36820910108E+02  0.00000000000E+00 0.  1.
         11    1    4    4    0    0  0.69231217198E+01  0.10472693680E+02  0.15849735406E+02  0.20219323430E+02  0.51100000000E-03 0. -1.
        -11    1    4    4    0    0  0.18067254712E+01  0.23157655680E+02  0.76620254606E+01  0.24459106851E+02  0.51100000000E-03 0.  1.
         12    1    4    4    0    0  0.17443326349E+01 -0.93034838443E+01  0.20670309806E+01  0.96886596110E+01  0.00000000000E+00 0. -1.
</event>
<event>
 8    1  0.1261983E-006  0.9118800E+02  0.7816164E-02  0.1184000E+00
        -11   -1    0    0    0    0  0.00000000000E+00  0.00000000000E+00  0.45593999997E+02  0.45594000000E+02  0.51100000000E-03 0. -1.
         11   -1    0    0    0    0 -0.00000000000E+00 -0.00000000000E+00 -0.45593999997E+02  0.45594000000E+02  0.51100000000E-03 0.  1.
         23    2    1    2    0    0  0.35527136788E-14  0.26645352591E-14  0.00000000000E+00  0.91188000000E+02  0.91188000000E+02 0.  0.
    9900012    2    3    3    0    0 -0.22504639408E+02  0.14189516028E+01  0.29108553896E+02  0.54367080288E+02  0.39999991133E+02 0.  0.
        -12    1    3    3    0    0  0.22504639408E+02 -0.14189516028E+01 -0.29108553896E+02  0.36820919712E+02  0.00000000000E+00 0.  1.
         11    1    4    4    0    0  0.28918414711E+01 -0.49510957403E+01  0.56863668915E+00  0.57618958745E+01  0.51100000000E-03 0. -1.
        -11    1    4    4    0    0 -0.25071881467E+02  0.15890475340E+02  0.23279904436E+02  0.37723472767E+02  0.51100000000E-03 0.  1.
        -12    1    4    4    0    0 -0.32459941199E+00 -0.95204279966E+01  0.52600127706E+01  0.10881711647E+02  0.00000000000E+00 0.  1.
</event>
<event>
 8    1  0.1261983E-006  0.9118800E+02  0.7816164E-02  0.1184000E+00
        -11   -1    0    0    0    0  0.00000000000E+00  0.00000000000E+00  0.45593999997E+02  0.45594000000E+02  0.51100000000E-03 0.  1.
         11   -1    0    0    0    0 -0.00000000000E+00 -0.00000000000E+00 -0.45593999997E+02  0.45594000000E+02  0.51100000000E-03 0. -1.
         23    2    1    2    0    0 -0.35527136788E-14  0.00000000000E+00  0.00000000000E+00  0.91188000000E+02  0.91188000000E+02 0.  0.
    9900012    2    3    3    0    0  0.19681485322E+02 -0.22592550072E+02 -0.21400835903E+02  0.54367082567E+02  0.39999996328E+02 0.  0.
        -12    1    3    3    0    0 -0.19681485322E+02  0.22592550072E+02  0.21400835903E+02  0.36820917433E+02  0.00000000000E+00 0.  1.
         11    1    4    4    0    0  0.16038035370E+02 -0.13094052319E+01 -0.17354841082E+02  0.23666931145E+02  0.51100000000E-03 0. -1.
        -11    1    4    4    0    0 -0.86778343699E+01 -0.10876824280E+02 -0.43214690324E+01  0.14570010660E+02  0.51100000000E-03 0.  1.
         12    1    4    4    0    0  0.12321284322E+02 -0.10406320560E+02  0.27547421177E+00  0.16130140762E+02  0.00000000000E+00 0. -1.
</event>
<event>
 8    1  0.1261983E-006  0.9118800E+02  0.7816164E-02  0.1184000E+00
        -11   -1    0    0    0    0  0.00000000000E+00  0.00000000000E+00  0.45593999997E+02  0.45594000000E+02  0.51100000000E-03 0.  1.
         11   -1    0    0    0    0 -0.00000000000E+00 -0.00000000000E+00 -0.45593999997E+02  0.45594000000E+02  0.51100000000E-03 0. -1.
         23    2    1    2    0    0  0.00000000000E+00  0.00000000000E+00  0.00000000000E+00  0.91188000000E+02  0.91188000000E+02 0.  0.
    9900012    2    3    3    0    0  0.14446815898E+02 -0.32671001082E+02 -0.89260666823E+01  0.54367089260E+02  0.40000011586E+02 0.  0.
        -12    1    3    3    0    0 -0.14446815898E+02  0.32671001082E+02  0.89260666823E+01  0.36820910740E+02  0.00000000000E+00 0.  1.
         11    1    4    4    0    0 -0.76105356877E+00 -0.11230856288E+02 -0.13753805405E+01  0.11340326600E+02  0.51100000000E-03 0. -1.
        -11    1    4    4    0    0 -0.10526417802E+02 -0.46375012156E+01 -0.61067984317E+00  0.11518889677E+02  0.51100000000E-03 0.  1.
        -12    1    4    4    0    0  0.25734287269E+02 -0.16802643578E+02 -0.69400062986E+01  0.31507872983E+02  0.00000000000E+00 0.  1.
</event>
<event>
 8    1  0.1261983E-006  0.9118800E+02  0.7816164E-02  0.1184000E+00
        -11   -1    0    0    0    0  0.00000000000E+00  0.00000000000E+00  0.45593999997E+02  0.45594000000E+02  0.51100000000E-03 0.  1.
         11   -1    0    0    0    0 -0.00000000000E+00 -0.00000000000E+00 -0.45593999997E+02  0.45594000000E+02  0.51100000000E-03 0. -1.
         23    2    1    2    0    0 -0.35527136788E-14  0.00000000000E+00 -0.35527136788E-14  0.91188000000E+02  0.91188000000E+02 0.  0.
    9900012    2    3    3    0    0 -0.29217891555E+02 -0.10686148261E+02 -0.19695231662E+02  0.54367067071E+02  0.39999961001E+02 0.  0.
        -12    1    3    3    0    0  0.29217891555E+02  0.10686148261E+02  0.19695231662E+02  0.36820932929E+02  0.00000000000E+00 0.  1.
         11    1    4    4    0    0 -0.28753815266E+02 -0.39583997907E+01 -0.24715335175E+01  0.29130041185E+02  0.51100000000E-03 0. -1.
        -11    1    4    4    0    0 -0.56548403907E+01 -0.22237152808E+01  0.62745613229E+00  0.61086685091E+01  0.51100000000E-03 0.  1.
        -12    1    4    4    0    0  0.51907641015E+01 -0.45040331892E+01 -0.17851154277E+02  0.19128357377E+02  0.00000000000E+00 0.  1.
</event>
<event>
 8    1  0.1261983E-006  0.9118800E+02  0.7816164E-02  0.1184000E+00
        -11   -1    0    0    0    0  0.00000000000E+00  0.00000000000E+00  0.45593999997E+02  0.45594000000E+02  0.51100000000E-03 0. -1.
         11   -1    0    0    0    0 -0.00000000000E+00 -0.00000000000E+00 -0.45593999997E+02  0.45594000000E+02  0.51100000000E-03 0.  1.
         23    2    1    2    0    0 -0.38857805862E-15  0.00000000000E+00 -0.44408920985E-14  0.91188000000E+02  0.91188000000E+02 0.  0.
    9900012    2    3    3    0    0  0.39093592529E+00  0.36334618307E+02  0.59516803211E+01  0.54367084516E+02  0.40000000771E+02 0.  0.
         12    1    3    3    0    0 -0.39093592529E+00 -0.36334618307E+02 -0.59516803211E+01  0.36820915484E+02  0.00000000000E+00 0. -1.
         11    1    4    4    0    0 -0.21666297525E+01  0.11856401230E+02 -0.15866950675E+02  0.19925577999E+02  0.51100000000E-03 0. -1.
        -11    1    4    4    0    0 -0.21028579506E+01  0.33251512511E+01  0.35884780345E+00  0.39506220283E+01  0.51100000000E-03 0.  1.
         12    1    4    4    0    0  0.46604236284E+01  0.21153065826E+02  0.21459783192E+02  0.30490884489E+02  0.00000000000E+00 0. -1.
</event>
<event>
 8    1  0.1261983E-006  0.9118800E+02  0.7816164E-02  0.1184000E+00
        -11   -1    0    0    0    0  0.00000000000E+00  0.00000000000E+00  0.45593999997E+02  0.45594000000E+02  0.51100000000E-03 0. -1.
         11   -1    0    0    0    0 -0.00000000000E+00 -0.00000000000E+00 -0.45593999997E+02  0.45594000000E+02  0.51100000000E-03 0.  1.
         23    2    1    2    0    0  0.00000000000E+00  0.00000000000E+00  0.35527136788E-14  0.91188000000E+02  0.91188000000E+02 0.  0.
    9900012    2    3    3    0    0 -0.29104702615E+02  0.11625932961E+02 -0.19326998248E+02  0.54367097067E+02  0.40000029384E+02 0.  0.
         12    1    3    3    0    0  0.29104702615E+02 -0.11625932961E+02  0.19326998248E+02  0.36820902933E+02  0.00000000000E+00 0. -1.
         11    1    4    4    0    0  0.83769364978E+00  0.60728086373E+00  0.57925675509E+00  0.11857737338E+01  0.51100000000E-03 0. -1.
        -11    1    4    4    0    0 -0.72698694496E+01  0.18393162880E+02  0.31356538013E+01  0.20024778839E+02  0.51100000000E-03 0.  1.
        -12    1    4    4    0    0 -0.22672526815E+02 -0.73745107819E+01 -0.23041908805E+02  0.33156544494E+02  0.00000000000E+00 0.  1.
</event>
<event>
 8    1  0.1261983E-006  0.9118800E+02  0.7816164E-02  0.1184000E+00
        -11   -1    0    0    0    0  0.00000000000E+00  0.00000000000E+00  0.45593999997E+02  0.45594000000E+02  0.51100000000E-03 0.  1.
         11   -1    0    0    0    0 -0.00000000000E+00 -0.00000000000E+00 -0.45593999997E+02  0.45594000000E+02  0.51100000000E-03 0. -1.
         23    2    1    2    0    0 -0.88817841970E-15  0.00000000000E+00  0.00000000000E+00  0.91188000000E+02  0.91188000000E+02 0.  0.
    9900012    2    3    3    0    0  0.49670096629E+01 -0.14490011874E+02  0.33483557202E+02  0.54367078881E+02  0.39999987926E+02 0.  0.
         12    1    3    3    0    0 -0.49670096629E+01  0.14490011874E+02 -0.33483557202E+02  0.36820921119E+02  0.00000000000E+00 0. -1.
         11    1    4    4    0    0  0.15285247441E+01  0.40156647683E+01 -0.48550637434E+00  0.43240800322E+01  0.51100000000E-03 0. -1.
        -11    1    4    4    0    0  0.14340656775E+02 -0.17751600980E+02  0.12664520971E+02  0.26099116188E+02  0.51100000000E-03 0.  1.
        -12    1    4    4    0    0 -0.10902171856E+02 -0.75407566241E+00  0.21304542606E+02  0.23943882662E+02  0.00000000000E+00 0.  1.
</event>
<event>
 8    1  0.1261983E-006  0.9118800E+02  0.7816164E-02  0.1184000E+00
        -11   -1    0    0    0    0  0.00000000000E+00  0.00000000000E+00  0.45593999997E+02  0.45594000000E+02  0.51100000000E-03 0.  1.
         11   -1    0    0    0    0 -0.00000000000E+00 -0.00000000000E+00 -0.45593999997E+02  0.45594000000E+02  0.51100000000E-03 0. -1.
         23    2    1    2    0    0 -0.17763568394E-14  0.35527136788E-14  0.00000000000E+00  0.91188000000E+02  0.91188000000E+02 0.  0.
    9900012    2    3    3    0    0 -0.11195384870E+02  0.29379199111E+02  0.19165227503E+02  0.54367083010E+02  0.39999997337E+02 0.  0.
         12    1    3    3    0    0  0.11195384870E+02 -0.29379199111E+02 -0.19165227503E+02  0.36820916990E+02  0.00000000000E+00 0. -1.
         11    1    4    4    0    0 -0.49811950548E+01  0.13954504328E+02  0.16677479355E+02  0.22308716080E+02  0.51100000000E-03 0.  1.
        -11    1    4    4    0    0  0.10059871692E+02  0.69432835172E+01  0.55994884311E+01  0.13444867996E+02  0.51100000000E-03 0. -1.
         12    1    4    4    0    0 -0.16274061507E+02  0.84814112656E+01 -0.31117402835E+01  0.18613498935E+02  0.00000000000E+00 0. -1.
</event>
<event>
 8    1  0.1261983E-006  0.9118800E+02  0.7816164E-02  0.1184000E+00
        -11   -1    0    0    0    0  0.00000000000E+00  0.00000000000E+00  0.45593999997E+02  0.45594000000E+02  0.51100000000E-03 0.  1.
         11   -1    0    0    0    0 -0.00000000000E+00 -0.00000000000E+00 -0.45593999997E+02  0.45594000000E+02  0.51100000000E-03 0. -1.
         23    2    1    2    0    0  0.00000000000E+00  0.00000000000E+00  0.00000000000E+00  0.91188000000E+02  0.91188000000E+02 0.  0.
    9900012    2    3    3    0    0 -0.27334678665E+02  0.16708580654E+02 -0.18149942416E+02  0.54367058474E+02  0.39999941403E+02 0.  0.
         12    1    3    3    0    0  0.27334678665E+02 -0.16708580654E+02  0.18149942416E+02  0.36820941526E+02  0.00000000000E+00 0. -1.
         11    1    4    4    0    0 -0.15395718752E+02  0.16919435994E+02 -0.36578856771E+01  0.23166259908E+02  0.51100000000E-03 0. -1.
        -11    1    4    4    0    0 -0.99336837315E+01  0.57747982742E+01  0.35984274729E+01  0.12040558464E+02  0.51100000000E-03 0.  1.
         12    1    4    4    0    0 -0.20052761813E+01 -0.59856536144E+01 -0.18090484212E+02  0.19160240102E+02  0.00000000000E+00 0. -1.
</event>
<event>
 8    1  0.1261983E-006  0.9118800E+02  0.7816164E-02  0.1184000E+00
        -11   -1    0    0    0    0  0.00000000000E+00  0.00000000000E+00  0.45593999997E+02  0.45594000000E+02  0.51100000000E-03 0. -1.
         11   -1    0    0    0    0 -0.00000000000E+00 -0.00000000000E+00 -0.45593999997E+02  0.45594000000E+02  0.51100000000E-03 0.  1.
         23    2    1    2    0    0  0.00000000000E+00  0.71054273576E-14  0.88817841970E-15  0.91188000000E+02  0.91188000000E+02 0.  0.
    9900012    2    3    3    0    0  0.27482912760E+02  0.23946230627E+02  0.52007353094E+01  0.54367080637E+02  0.39999991928E+02 0.  0.
         12    1    3    3    0    0 -0.27482912760E+02 -0.23946230627E+02 -0.52007353094E+01  0.36820919363E+02  0.00000000000E+00 0. -1.
         11    1    4    4    0    0  0.28768161008E+01  0.40792379680E+01  0.91692456378E+01  0.10439890761E+02  0.51100000000E-03 0. -1.
        -11    1    4    4    0    0 -0.21397519154E+01 -0.60337872807E+01  0.53473440716E+00  0.64242562492E+01  0.51100000000E-03 0.  1.
        -12    1    4    4    0    0  0.26745848574E+02  0.25900779940E+02 -0.45032447356E+01  0.37502933626E+02  0.00000000000E+00 0.  1.
</event>
<event>
 8    1  0.1261983E-006  0.9118800E+02  0.7816164E-02  0.1184000E+00
        -11   -1    0    0    0    0  0.00000000000E+00  0.00000000000E+00  0.45593999997E+02  0.45594000000E+02  0.51100000000E-03 0.  1.
         11   -1    0    0    0    0 -0.00000000000E+00 -0.00000000000E+00 -0.45593999997E+02  0.45594000000E+02  0.51100000000E-03 0. -1.
         23    2    1    2    0    0 -0.71054273576E-14 -0.17763568394E-14 -0.88817841970E-15  0.91188000000E+02  0.91188000000E+02 0.  0.
    9900012    2    3    3    0    0 -0.35994443583E+02 -0.35146103024E+01 -0.69157372480E+01  0.54367083715E+02  0.39999998945E+02 0.  0.
        -12    1    3    3    0    0  0.35994443583E+02  0.35146103024E+01  0.69157372480E+01  0.36820916285E+02  0.00000000000E+00 0.  1.
         11    1    4    4    0    0 -0.72004907467E+01  0.12684087637E+02 -0.65242833082E+01  0.15978091849E+02  0.51100000000E-03 0. -1.
        -11    1    4    4    0    0 -0.13782473706E+01  0.33999368230E+01  0.26880214487E+01  0.45480320783E+01  0.51100000000E-03 0.  1.
         12    1    4    4    0    0 -0.27415705465E+02 -0.19598634762E+02 -0.30794753885E+01  0.33840959788E+02  0.00000000000E+00 0. -1.
</event>
<event>
 8    1  0.1261983E-006  0.9118800E+02  0.7816164E-02  0.1184000E+00
        -11   -1    0    0    0    0  0.00000000000E+00  0.00000000000E+00  0.45593999997E+02  0.45594000000E+02  0.51100000000E-03 0. -1.
         11   -1    0    0    0    0 -0.00000000000E+00 -0.00000000000E+00 -0.45593999997E+02  0.45594000000E+02  0.51100000000E-03 0.  1.
         23    2    1    2    0    0  0.00000000000E+00  0.00000000000E+00  0.00000000000E+00  0.91188000000E+02  0.91188000000E+02 0.  0.
    9900012    2    3    3    0    0  0.19846065892E+02 -0.25784923360E+02  0.17235193311E+02  0.54367075343E+02  0.39999979861E+02 0.  0.
         12    1    3    3    0    0 -0.19846065892E+02  0.25784923360E+02 -0.17235193311E+02  0.36820924657E+02  0.00000000000E+00 0. -1.
         11    1    4    4    0    0  0.18725705854E+02 -0.26940560175E+02 -0.41573037871E+00  0.32811867888E+02  0.51100000000E-03 0. -1.
        -11    1    4    4    0    0  0.15586257404E+01  0.51406589138E+01  0.25781873697E+01  0.59584174612E+01  0.51100000000E-03 0.  1.
         12    1    4    4    0    0 -0.43826570222E+00 -0.39850220987E+01  0.15072736320E+02  0.15596789994E+02  0.00000000000E+00 0. -1.
</event>
<event>
 8    1  0.1261983E-006  0.9118800E+02  0.7816164E-02  0.1184000E+00
        -11   -1    0    0    0    0  0.00000000000E+00  0.00000000000E+00  0.45593999997E+02  0.45594000000E+02  0.51100000000E-03 0.  1.
         11   -1    0    0    0    0 -0.00000000000E+00 -0.00000000000E+00 -0.45593999997E+02  0.45594000000E+02  0.51100000000E-03 0. -1.
         23    2    1    2    0    0  0.00000000000E+00  0.35527136788E-14  0.00000000000E+00  0.91188000000E+02  0.91188000000E+02 0.  0.
    9900012    2    3    3    0    0  0.27601622469E+02  0.21676979513E+02  0.11137370111E+02  0.54367054646E+02  0.39999932678E+02 0.  0.
         12    1    3    3    0    0 -0.27601622469E+02 -0.21676979513E+02 -0.11137370111E+02  0.36820945354E+02  0.00000000000E+00 0. -1.
         11    1    4    4    0    0  0.94618447797E+01  0.93605921231E+01 -0.99609148436E+01  0.16624289949E+02  0.51100000000E-03 0. -1.
        -11    1    4    4    0    0  0.12297915833E+02 -0.32684095635E+01  0.28418592577E+01  0.13038305074E+02  0.51100000000E-03 0.  1.
        -12    1    4    4    0    0  0.58418618563E+01  0.15584796954E+02  0.18256425697E+02  0.24704459623E+02  0.00000000000E+00 0.  1.
</event>
<event>
 8    1  0.1261983E-006  0.9118800E+02  0.7816164E-02  0.1184000E+00
        -11   -1    0    0    0    0  0.00000000000E+00  0.00000000000E+00  0.45593999997E+02  0.45594000000E+02  0.51100000000E-03 0. -1.
         11   -1    0    0    0    0 -0.00000000000E+00 -0.00000000000E+00 -0.45593999997E+02  0.45594000000E+02  0.51100000000E-03 0.  1.
         23    2    1    2    0    0  0.00000000000E+00  0.00000000000E+00  0.00000000000E+00  0.91188000000E+02  0.91188000000E+02 0.  0.
    9900012    2    3    3    0    0  0.30668376290E+02  0.98976820869E+01  0.17811959638E+02  0.54367091250E+02  0.40000016124E+02 0.  0.
        -12    1    3    3    0    0 -0.30668376290E+02 -0.98976820869E+01 -0.17811959638E+02  0.36820908750E+02  0.00000000000E+00 0.  1.
         11    1    4    4    0    0  0.98130781476E+01  0.15620442914E+02  0.16376477086E+02  0.24667463217E+02  0.51100000000E-03 0. -1.
        -11    1    4    4    0    0  0.82883670565E+00  0.96602003133E+00  0.75986705367E+01  0.77045414641E+01  0.51100000000E-03 0.  1.
        -12    1    4    4    0    0  0.20026461437E+02 -0.66887808584E+01 -0.61631879840E+01  0.21995086569E+02  0.00000000000E+00 0.  1.
</event>
<event>
 8    1  0.1261983E-006  0.9118800E+02  0.7816164E-02  0.1184000E+00
        -11   -1    0    0    0    0  0.00000000000E+00  0.00000000000E+00  0.45593999997E+02  0.45594000000E+02  0.51100000000E-03 0.  1.
         11   -1    0    0    0    0 -0.00000000000E+00 -0.00000000000E+00 -0.45593999997E+02  0.45594000000E+02  0.51100000000E-03 0. -1.
         23    2    1    2    0    0  0.00000000000E+00  0.00000000000E+00  0.88817841970E-15  0.91188000000E+02  0.91188000000E+02 0.  0.
    9900012    2    3    3    0    0  0.36375256969E+02  0.48500000198E+01 -0.30161172479E+01  0.54367098558E+02  0.40000032783E+02 0.  0.
         12    1    3    3    0    0 -0.36375256969E+02 -0.48500000198E+01  0.30161172479E+01  0.36820901442E+02  0.00000000000E+00 0. -1.
         11    1    4    4    0    0  0.81913093676E+01 -0.42259694998E+01  0.18510724568E+01  0.94012146487E+01  0.51100000000E-03 0. -1.
        -11    1    4    4    0    0  0.19299107464E+02 -0.56761836968E+00  0.12651573467E+02  0.23083328421E+02  0.51100000000E-03 0.  1.
         12    1    4    4    0    0  0.88848401367E+01  0.96435878893E+01 -0.17518763172E+02  0.21882555489E+02  0.00000000000E+00 0. -1.
</event>
<event>
 8    1  0.1261983E-006  0.9118800E+02  0.7816164E-02  0.1184000E+00
        -11   -1    0    0    0    0  0.00000000000E+00  0.00000000000E+00  0.45593999997E+02  0.45594000000E+02  0.51100000000E-03 0.  1.
         11   -1    0    0    0    0 -0.00000000000E+00 -0.00000000000E+00 -0.45593999997E+02  0.45594000000E+02  0.51100000000E-03 0. -1.
         23    2    1    2    0    0 -0.38857805862E-15  0.00000000000E+00  0.00000000000E+00  0.91188000000E+02  0.91188000000E+02 0.  0.
    9900012    2    3    3    0    0 -0.34692818552E+00  0.97700690595E+01  0.35499352498E+02  0.54367100549E+02  0.40000037322E+02 0.  0.
         12    1    3    3    0    0  0.34692818552E+00 -0.97700690595E+01 -0.35499352498E+02  0.36820899451E+02  0.00000000000E+00 0. -1.
         11    1    4    4    0    0  0.26298985605E+01  0.11053021432E+02  0.40300907356E+01  0.12055176515E+02  0.51100000000E-03 0. -1.
        -11    1    4    4    0    0  0.89547688087E+01 -0.68447046821E+01  0.25455411220E+02  0.27839106078E+02  0.51100000000E-03 0.  1.
        -12    1    4    4    0    0 -0.11931595555E+02  0.55617523096E+01  0.60138505424E+01  0.14472817956E+02  0.00000000000E+00 0.  1.
</event>
<event>
 8    1  0.1261983E-006  0.9118800E+02  0.7816164E-02  0.1184000E+00
        -11   -1    0    0    0    0  0.00000000000E+00  0.00000000000E+00  0.45593999997E+02  0.45594000000E+02  0.51100000000E-03 0.  1.
         11   -1    0    0    0    0 -0.00000000000E+00 -0.00000000000E+00 -0.45593999997E+02  0.45594000000E+02  0.51100000000E-03 0. -1.
         23    2    1    2    0    0  0.00000000000E+00  0.88817841970E-15  0.00000000000E+00  0.91188000000E+02  0.91188000000E+02 0.  0.
    9900012    2    3    3    0    0 -0.51354554464E+01  0.45212441543E+01  0.36179626798E+02  0.54367082757E+02  0.39999996761E+02 0.  0.
         12    1    3    3    0    0  0.51354554464E+01 -0.45212441543E+01 -0.36179626798E+02  0.36820917243E+02  0.00000000000E+00 0. -1.
         11    1    4    4    0    0 -0.72811897212E+01  0.32874837128E+01  0.40158336149E+01  0.89414871695E+01  0.51100000000E-03 0. -1.
        -11    1    4    4    0    0 -0.14227233119E+02 -0.39008112157E+01  0.12579289884E+02  0.19387341866E+02  0.51100000000E-03 0.  1.
         12    1    4    4    0    0  0.16372967394E+02  0.51345716572E+01  0.19584503299E+02  0.26038253722E+02  0.00000000000E+00 0. -1.
</event>
<event>
 8    1  0.1261983E-006  0.9118800E+02  0.7816164E-02  0.1184000E+00
        -11   -1    0    0    0    0  0.00000000000E+00  0.00000000000E+00  0.45593999997E+02  0.45594000000E+02  0.51100000000E-03 0.  1.
         11   -1    0    0    0    0 -0.00000000000E+00 -0.00000000000E+00 -0.45593999997E+02  0.45594000000E+02  0.51100000000E-03 0. -1.
         23    2    1    2    0    0  0.00000000000E+00  0.00000000000E+00  0.35527136788E-14  0.91188000000E+02  0.91188000000E+02 0.  0.
    9900012    2    3    3    0    0  0.17166985336E+02  0.25865699439E+02 -0.19800005567E+02  0.54367081850E+02  0.39999994692E+02 0.  0.
        -12    1    3    3    0    0 -0.17166985336E+02 -0.25865699439E+02  0.19800005567E+02  0.36820918150E+02  0.00000000000E+00 0.  1.
         11    1    4    4    0    0  0.24524196076E+02  0.19967878454E+02 -0.11590696863E+01  0.31646418532E+02  0.51100000000E-03 0. -1.
        -11    1    4    4    0    0 -0.57056365693E+01 -0.70684617702E+00 -0.56875671554E+01  0.80871713588E+01  0.51100000000E-03 0.  1.
        -12    1    4    4    0    0 -0.16515741708E+01  0.66046671621E+01 -0.12953368725E+02  0.14633491958E+02  0.00000000000E+00 0.  1.
</event>
<event>
 8    1  0.1261983E-006  0.9118800E+02  0.7816164E-02  0.1184000E+00
        -11   -1    0    0    0    0  0.00000000000E+00  0.00000000000E+00  0.45593999997E+02  0.45594000000E+02  0.51100000000E-03 0.  1.
         11   -1    0    0    0    0 -0.00000000000E+00 -0.00000000000E+00 -0.45593999997E+02  0.45594000000E+02  0.51100000000E-03 0. -1.
         23    2    1    2    0    0  0.00000000000E+00 -0.35527136788E-14 -0.17763568394E-14  0.91188000000E+02  0.91188000000E+02 0.  0.
    9900012    2    3    3    0    0 -0.29738529060E+02  0.17703518230E+02 -0.12569257577E+02  0.54367069751E+02  0.39999967111E+02 0.  0.
         12    1    3    3    0    0  0.29738529060E+02 -0.17703518230E+02  0.12569257577E+02  0.36820930249E+02  0.00000000000E+00 0. -1.
         11    1    4    4    0    0 -0.37740014838E+01  0.68319157657E+01 -0.28358424526E+01  0.83042256055E+01  0.51100000000E-03 0. -1.
        -11    1    4    4    0    0 -0.19583337473E+02  0.19507391539E+02 -0.17584914995E+02  0.32760870973E+02  0.51100000000E-03 0.  1.
         12    1    4    4    0    0 -0.63811901031E+01 -0.86357890746E+01  0.78514998707E+01  0.13301973173E+02  0.00000000000E+00 0. -1.
</event>
<event>
 8    1  0.1261983E-006  0.9118800E+02  0.7816164E-02  0.1184000E+00
        -11   -1    0    0    0    0  0.00000000000E+00  0.00000000000E+00  0.45593999997E+02  0.45594000000E+02  0.51100000000E-03 0. -1.
         11   -1    0    0    0    0 -0.00000000000E+00 -0.00000000000E+00 -0.45593999997E+02  0.45594000000E+02  0.51100000000E-03 0.  1.
         23    2    1    2    0    0 -0.17763568394E-14  0.35527136788E-14  0.35527136788E-14  0.91188000000E+02  0.91188000000E+02 0.  0.
    9900012    2    3    3    0    0 -0.93788346505E+01  0.29801647617E+02  0.19485351692E+02  0.54367086504E+02  0.40000005304E+02 0.  0.
        -12    1    3    3    0    0  0.93788346505E+01 -0.29801647617E+02 -0.19485351692E+02  0.36820913496E+02  0.00000000000E+00 0.  1.
         11    1    4    4    0    0  0.34320914439E+01  0.20443441345E+02  0.56644546398E+01  0.21489522850E+02  0.51100000000E-03 0. -1.
        -11    1    4    4    0    0 -0.42591554681E+01  0.14258995307E+02 -0.11800460053E+01  0.14928223648E+02  0.51100000000E-03 0.  1.
        -12    1    4    4    0    0 -0.85517706264E+01 -0.49007890347E+01  0.15000943058E+02  0.17949340005E+02  0.00000000000E+00 0.  1.
</event>
<event>
 8    1  0.1261983E-006  0.9118800E+02  0.7816164E-02  0.1184000E+00
        -11   -1    0    0    0    0  0.00000000000E+00  0.00000000000E+00  0.45593999997E+02  0.45594000000E+02  0.51100000000E-03 0. -1.
         11   -1    0    0    0    0 -0.00000000000E+00 -0.00000000000E+00 -0.45593999997E+02  0.45594000000E+02  0.51100000000E-03 0.  1.
         23    2    1    2    0    0  0.00000000000E+00  0.13322676296E-14 -0.17763568394E-14  0.91188000000E+02  0.91188000000E+02 0.  0.
    9900012    2    3    3    0    0 -0.36464491974E+02 -0.13357867322E+01  0.49332639351E+01  0.54367073964E+02  0.39999976716E+02 0.  0.
         12    1    3    3    0    0  0.36464491974E+02  0.13357867322E+01 -0.49332639351E+01  0.36820926036E+02  0.00000000000E+00 0. -1.
         11    1    4    4    0    0 -0.33304527983E+00 -0.35614591906E+01 -0.19017948907E+01  0.40511399374E+01  0.51100000000E-03 0. -1.
        -11    1    4    4    0    0 -0.38556934162E+02  0.10860273880E+02  0.90734917968E+01  0.41072021796E+02  0.51100000000E-03 0.  1.
        -12    1    4    4    0    0  0.24254874682E+01 -0.86346014219E+01 -0.22384329709E+01  0.92439122313E+01  0.00000000000E+00 0.  1.
</event>
<event>
 8    1  0.1261983E-006  0.9118800E+02  0.7816164E-02  0.1184000E+00
        -11   -1    0    0    0    0  0.00000000000E+00  0.00000000000E+00  0.45593999997E+02  0.45594000000E+02  0.51100000000E-03 0. -1.
         11   -1    0    0    0    0 -0.00000000000E+00 -0.00000000000E+00 -0.45593999997E+02  0.45594000000E+02  0.51100000000E-03 0.  1.
         23    2    1    2    0    0  0.35527136788E-14  0.00000000000E+00  0.00000000000E+00  0.91188000000E+02  0.91188000000E+02 0.  0.
    9900012    2    3    3    0    0  0.24300479796E+02 -0.17036058384E+02  0.21795390626E+02  0.54367086702E+02  0.40000005754E+02 0.  0.
         12    1    3    3    0    0 -0.24300479796E+02  0.17036058384E+02 -0.21795390626E+02  0.36820913298E+02  0.00000000000E+00 0. -1.
         11    1    4    4    0    0 -0.56269648911E+00  0.95588279778E+00 -0.64356055774E+01  0.65304945197E+01  0.51100000000E-03 0. -1.
        -11    1    4    4    0    0 -0.11394385966E+01  0.40281564251E+01  0.53501913248E+01  0.67932990493E+01  0.51100000000E-03 0.  1.
         12    1    4    4    0    0  0.26002614881E+02 -0.22020097607E+02  0.22880804879E+02  0.41043293133E+02  0.00000000000E+00 0. -1.
</event>
<event>
 8    1  0.1261983E-006  0.9118800E+02  0.7816164E-02  0.1184000E+00
        -11   -1    0    0    0    0  0.00000000000E+00  0.00000000000E+00  0.45593999997E+02  0.45594000000E+02  0.51100000000E-03 0.  1.
         11   -1    0    0    0    0 -0.00000000000E+00 -0.00000000000E+00 -0.45593999997E+02  0.45594000000E+02  0.51100000000E-03 0. -1.
         23    2    1    2    0    0  0.53429483060E-15  0.10658141036E-13  0.35527136788E-14  0.91188000000E+02  0.91188000000E+02 0.  0.
    9900012    2    3    3    0    0 -0.15051417648E-01  0.28590875381E+02  0.23202196650E+02  0.54367077809E+02  0.39999985481E+02 0.  0.
         12    1    3    3    0    0  0.15051417648E-01 -0.28590875381E+02 -0.23202196650E+02  0.36820922191E+02  0.00000000000E+00 0. -1.
         11    1    4    4    0    0 -0.37288589803E+01 -0.33189829093E+01 -0.14668297532E+01  0.52030401337E+01  0.51100000000E-03 0. -1.
        -11    1    4    4    0    0  0.21816892319E+01  0.10506844379E+01  0.17209632027E+02  0.17379158221E+02  0.51100000000E-03 0.  1.
         12    1    4    4    0    0  0.15321183307E+01  0.30859173853E+02  0.74593943761E+01  0.31784879454E+02  0.00000000000E+00 0. -1.
</event>
<event>
 8    1  0.1261983E-006  0.9118800E+02  0.7816164E-02  0.1184000E+00
        -11   -1    0    0    0    0  0.00000000000E+00  0.00000000000E+00  0.45593999997E+02  0.45594000000E+02  0.51100000000E-03 0. -1.
         11   -1    0    0    0    0 -0.00000000000E+00 -0.00000000000E+00 -0.45593999997E+02  0.45594000000E+02  0.51100000000E-03 0.  1.
         23    2    1    2    0    0 -0.44408920985E-15  0.00000000000E+00  0.88817841970E-15  0.91188000000E+02  0.91188000000E+02 0.  0.
    9900012    2    3    3    0    0 -0.12673610844E+01  0.36685325622E+02  0.28914275612E+01  0.54367086466E+02  0.40000005217E+02 0.  0.
        -12    1    3    3    0    0  0.12673610844E+01 -0.36685325622E+02 -0.28914275612E+01  0.36820913534E+02  0.00000000000E+00 0.  1.
         11    1    4    4    0    0 -0.19598165648E+01  0.79374310789E+00 -0.10467519962E+01  0.23593641287E+01  0.51100000000E-03 0.  1.
        -11    1    4    4    0    0 -0.61816520236E+01  0.36760861636E+02 -0.80731497143E+01  0.38141178751E+02  0.51100000000E-03 0. -1.
         12    1    4    4    0    0  0.68741075040E+01 -0.86927912169E+00  0.12011329272E+02  0.13866543587E+02  0.00000000000E+00 0. -1.
</event>
<event>
 8    1  0.1261983E-006  0.9118800E+02  0.7816164E-02  0.1184000E+00
        -11   -1    0    0    0    0  0.00000000000E+00  0.00000000000E+00  0.45593999997E+02  0.45594000000E+02  0.51100000000E-03 0.  1.
         11   -1    0    0    0    0 -0.00000000000E+00 -0.00000000000E+00 -0.45593999997E+02  0.45594000000E+02  0.51100000000E-03 0. -1.
         23    2    1    2    0    0  0.35527136788E-14  0.00000000000E+00  0.35527136788E-14  0.91188000000E+02  0.91188000000E+02 0.  0.
    9900012    2    3    3    0    0 -0.22426074186E+02  0.21760861551E+02 -0.19476045621E+02  0.54367078612E+02  0.39999987312E+02 0.  0.
        -12    1    3    3    0    0  0.22426074186E+02 -0.21760861551E+02  0.19476045621E+02  0.36820921388E+02  0.00000000000E+00 0.  1.
         11    1    4    4    0    0 -0.36397647912E+01 -0.28431850510E+01 -0.14612254938E+02  0.15324802890E+02  0.51100000000E-03 0. -1.
        -11    1    4    4    0    0 -0.42158586340E+01  0.13962195259E+02  0.82321183036E+01  0.16747660508E+02  0.51100000000E-03 0.  1.
        -12    1    4    4    0    0 -0.14570450760E+02  0.10641851342E+02 -0.13095908987E+02  0.22294615214E+02  0.00000000000E+00 0.  1.
</event>
<event>
 8    1  0.1261983E-006  0.9118800E+02  0.7816164E-02  0.1184000E+00
        -11   -1    0    0    0    0  0.00000000000E+00  0.00000000000E+00  0.45593999997E+02  0.45594000000E+02  0.51100000000E-03 0.  1.
         11   -1    0    0    0    0 -0.00000000000E+00 -0.00000000000E+00 -0.45593999997E+02  0.45594000000E+02  0.51100000000E-03 0. -1.
         23    2    1    2    0    0  0.71054273576E-14  0.00000000000E+00  0.00000000000E+00  0.91188000000E+02  0.91188000000E+02 0.  0.
    9900012    2    3    3    0    0  0.32147096355E+02 -0.57844982966E+01 -0.16996548043E+02  0.54367097376E+02  0.40000030089E+02 0.  0.
        -12    1    3    3    0    0 -0.32147096355E+02  0.57844982966E+01  0.16996548043E+02  0.36820902624E+02  0.00000000000E+00 0.  1.
         11    1    4    4    0    0  0.34102007298E+02 -0.11713861973E+02 -0.39579668564E+01  0.36274329297E+02  0.51100000000E-03 0. -1.
        -11    1    4    4    0    0 -0.45298080048E+01 -0.13681523163E+01 -0.40177993550E+01  0.62075529188E+01  0.51100000000E-03 0.  1.
         12    1    4    4    0    0  0.25748970620E+01  0.72975159926E+01 -0.90207818320E+01  0.11885215160E+02  0.00000000000E+00 0. -1.
</event>
<event>
 8    1  0.1261983E-006  0.9118800E+02  0.7816164E-02  0.1184000E+00
        -11   -1    0    0    0    0  0.00000000000E+00  0.00000000000E+00  0.45593999997E+02  0.45594000000E+02  0.51100000000E-03 0.  1.
         11   -1    0    0    0    0 -0.00000000000E+00 -0.00000000000E+00 -0.45593999997E+02  0.45594000000E+02  0.51100000000E-03 0. -1.
         23    2    1    2    0    0 -0.35527136788E-14 -0.17763568394E-14 -0.35527136788E-14  0.91188000000E+02  0.91188000000E+02 0.  0.
    9900012    2    3    3    0    0 -0.26726109758E+02  0.22676968348E+01  0.25225996979E+02  0.54367104909E+02  0.40000047261E+02 0.  0.
         12    1    3    3    0    0  0.26726109758E+02 -0.22676968348E+01 -0.25225996979E+02  0.36820895091E+02  0.00000000000E+00 0. -1.
         11    1    4    4    0    0  0.52838393548E+01 -0.55356426584E+01  0.11283988255E+02  0.13634173578E+02  0.51100000000E-03 0. -1.
        -11    1    4    4    0    0 -0.22439488984E+02  0.86667308801E+01  0.18257557734E+02  0.30199028208E+02  0.51100000000E-03 0.  1.
         12    1    4    4    0    0 -0.95704601282E+01 -0.86339138685E+00 -0.43155490094E+01  0.10533903123E+02  0.00000000000E+00 0. -1.
</event>
<event>
 8    1  0.1261983E-006  0.9118800E+02  0.7816164E-02  0.1184000E+00
        -11   -1    0    0    0    0  0.00000000000E+00  0.00000000000E+00  0.45593999997E+02  0.45594000000E+02  0.51100000000E-03 0. -1.
         11   -1    0    0    0    0 -0.00000000000E+00 -0.00000000000E+00 -0.45593999997E+02  0.45594000000E+02  0.51100000000E-03 0.  1.
         23    2    1    2    0    0 -0.35527136788E-14  0.35527136788E-14  0.00000000000E+00  0.91188000000E+02  0.91188000000E+02 0.  0.
    9900012    2    3    3    0    0  0.30010681746E+02 -0.19816157921E+02 -0.79030843258E+01  0.54367083723E+02  0.39999998964E+02 0.  0.
        -12    1    3    3    0    0 -0.30010681746E+02  0.19816157921E+02  0.79030843258E+01  0.36820916277E+02  0.00000000000E+00 0.  1.
         11    1    4    4    0    0 -0.46205026814E+01  0.17601142612E+01 -0.12862750607E+01  0.51089677073E+01  0.51100000000E-03 0. -1.
        -11    1    4    4    0    0 -0.93247091354E+00 -0.11092587416E+01 -0.80707253329E+01  0.81997905230E+01  0.51100000000E-03 0.  1.
         12    1    4    4    0    0  0.35563655341E+02 -0.20467013440E+02  0.14539160678E+01  0.41058325493E+02  0.00000000000E+00 0. -1.
</event>
<event>
 8    1  0.1261983E-006  0.9118800E+02  0.7816164E-02  0.1184000E+00
        -11   -1    0    0    0    0  0.00000000000E+00  0.00000000000E+00  0.45593999997E+02  0.45594000000E+02  0.51100000000E-03 0.  1.
         11   -1    0    0    0    0 -0.00000000000E+00 -0.00000000000E+00 -0.45593999997E+02  0.45594000000E+02  0.51100000000E-03 0. -1.
         23    2    1    2    0    0  0.00000000000E+00  0.00000000000E+00  0.00000000000E+00  0.91188000000E+02  0.91188000000E+02 0.  0.
    9900012    2    3    3    0    0  0.16171341154E+02 -0.32849918309E+02 -0.38923390737E+01  0.54367085956E+02  0.40000004053E+02 0.  0.
        -12    1    3    3    0    0 -0.16171341154E+02  0.32849918309E+02  0.38923390737E+01  0.36820914044E+02  0.00000000000E+00 0.  1.
         11    1    4    4    0    0  0.16124967900E+02 -0.32126283913E+02 -0.71345567469E+01  0.36647163712E+02  0.51100000000E-03 0. -1.
        -11    1    4    4    0    0 -0.71904067009E+01 -0.42301051333E+01 -0.13630959064E+01  0.84530331050E+01  0.51100000000E-03 0.  1.
        -12    1    4    4    0    0  0.72367799546E+01  0.35064707381E+01  0.46053135797E+01  0.92668891391E+01  0.00000000000E+00 0.  1.
</event>
<event>
 8    1  0.1261983E-006  0.9118800E+02  0.7816164E-02  0.1184000E+00
        -11   -1    0    0    0    0  0.00000000000E+00  0.00000000000E+00  0.45593999997E+02  0.45594000000E+02  0.51100000000E-03 0.  1.
         11   -1    0    0    0    0 -0.00000000000E+00 -0.00000000000E+00 -0.45593999997E+02  0.45594000000E+02  0.51100000000E-03 0. -1.
         23    2    1    2    0    0 -0.35527136788E-14  0.00000000000E+00  0.00000000000E+00  0.91188000000E+02  0.91188000000E+02 0.  0.
    9900012    2    3    3    0    0  0.28621904230E+02 -0.13584088463E+02  0.18762692525E+02  0.54367088932E+02  0.40000010838E+02 0.  0.
        -12    1    3    3    0    0 -0.28621904230E+02  0.13584088463E+02 -0.18762692525E+02  0.36820911068E+02  0.00000000000E+00 0.  1.
         11    1    4    4    0    0 -0.59629570894E+01  0.63630126253E+01  0.52779412925E+00  0.87363238163E+01  0.51100000000E-03 0. -1.
        -11    1    4    4    0    0  0.94824206179E+01 -0.37351082909E+01  0.10774821961E+02  0.14831187520E+02  0.51100000000E-03 0.  1.
         12    1    4    4    0    0  0.25102440701E+02 -0.16211992797E+02  0.74600764354E+01  0.30799577595E+02  0.00000000000E+00 0. -1.
</event>
<event>
 8    1  0.1261983E-006  0.9118800E+02  0.7816164E-02  0.1184000E+00
        -11   -1    0    0    0    0  0.00000000000E+00  0.00000000000E+00  0.45593999997E+02  0.45594000000E+02  0.51100000000E-03 0.  1.
         11   -1    0    0    0    0 -0.00000000000E+00 -0.00000000000E+00 -0.45593999997E+02  0.45594000000E+02  0.51100000000E-03 0. -1.
         23    2    1    2    0    0  0.00000000000E+00 -0.88817841970E-15  0.00000000000E+00  0.91188000000E+02  0.91188000000E+02 0.  0.
    9900012    2    3    3    0    0  0.95418791836E+01  0.53921694212E+01  0.35151802517E+02  0.54367188363E+02  0.40000237510E+02 0.  0.
         12    1    3    3    0    0 -0.95418791836E+01 -0.53921694212E+01 -0.35151802517E+02  0.36820811637E+02  0.00000000000E+00 0. -1.
         11    1    4    4    0    0 -0.55313777298E+01  0.85509118005E+01 -0.30315483664E+01  0.10625653767E+02  0.51100000000E-03 0. -1.
        -11    1    4    4    0    0  0.83759641235E+01 -0.89122133150E+01  0.25576531319E+02  0.28350366413E+02  0.51100000000E-03 0.  1.
        -12    1    4    4    0    0  0.66972927899E+01  0.57534709357E+01  0.12606819564E+02  0.15391168183E+02  0.00000000000E+00 0.  1.
</event>
<event>
 8    1  0.1261983E-006  0.9118800E+02  0.7816164E-02  0.1184000E+00
        -11   -1    0    0    0    0  0.00000000000E+00  0.00000000000E+00  0.45593999997E+02  0.45594000000E+02  0.51100000000E-03 0.  1.
         11   -1    0    0    0    0 -0.00000000000E+00 -0.00000000000E+00 -0.45593999997E+02  0.45594000000E+02  0.51100000000E-03 0. -1.
         23    2    1    2    0    0  0.00000000000E+00 -0.88817841970E-15 -0.17763568394E-14  0.91188000000E+02  0.91188000000E+02 0.  0.
    9900012    2    3    3    0    0  0.35433149694E+02  0.27488456724E+01 -0.96289315337E+01  0.54367074262E+02  0.39999977395E+02 0.  0.
         12    1    3    3    0    0 -0.35433149694E+02 -0.27488456724E+01  0.96289315337E+01  0.36820925738E+02  0.00000000000E+00 0. -1.
         11    1    4    4    0    0  0.35163853376E+02  0.16214156178E+02 -0.10873181392E+02  0.40219665820E+02  0.51100000000E-03 0. -1.
        -11    1    4    4    0    0  0.70673464664E-01 -0.31621044309E+01  0.21160683919E+01  0.38054756431E+01  0.51100000000E-03 0.  1.
         12    1    4    4    0    0  0.19862285323E+00 -0.10303206075E+02 -0.87181853334E+00  0.10341932799E+02  0.00000000000E+00 0. -1.
</event>
<event>
 8    1  0.1261983E-006  0.9118800E+02  0.7816164E-02  0.1184000E+00
        -11   -1    0    0    0    0  0.00000000000E+00  0.00000000000E+00  0.45593999997E+02  0.45594000000E+02  0.51100000000E-03 0.  1.
         11   -1    0    0    0    0 -0.00000000000E+00 -0.00000000000E+00 -0.45593999997E+02  0.45594000000E+02  0.51100000000E-03 0. -1.
         23    2    1    2    0    0  0.00000000000E+00 -0.44408920985E-15  0.00000000000E+00  0.91188000000E+02  0.91188000000E+02 0.  0.
    9900012    2    3    3    0    0  0.60382199198E+01 -0.39205387477E+01 -0.36110235108E+02  0.54367084701E+02  0.40000001193E+02 0.  0.
        -12    1    3    3    0    0 -0.60382199198E+01  0.39205387477E+01  0.36110235108E+02  0.36820915299E+02  0.00000000000E+00 0.  1.
         11    1    4    4    0    0  0.10482967540E+02 -0.39835464948E+01 -0.14372064429E+02  0.18229577267E+02  0.51100000000E-03 0. -1.
        -11    1    4    4    0    0  0.83478446395E+01 -0.10159465082E+01  0.24452436720E+01  0.87577322584E+01  0.51100000000E-03 0.  1.
         12    1    4    4    0    0 -0.12792592259E+02  0.10789542552E+01 -0.24183414351E+02  0.27379775176E+02  0.00000000000E+00 0. -1.
</event>
<event>
 8    1  0.1261983E-006  0.9118800E+02  0.7816164E-02  0.1184000E+00
        -11   -1    0    0    0    0  0.00000000000E+00  0.00000000000E+00  0.45593999997E+02  0.45594000000E+02  0.51100000000E-03 0. -1.
         11   -1    0    0    0    0 -0.00000000000E+00 -0.00000000000E+00 -0.45593999997E+02  0.45594000000E+02  0.51100000000E-03 0.  1.
         23    2    1    2    0    0  0.00000000000E+00 -0.35527136788E-14  0.00000000000E+00  0.91188000000E+02  0.91188000000E+02 0.  0.
    9900012    2    3    3    0    0 -0.12621126543E+02 -0.16136507842E+02 -0.30595751793E+02  0.54367085450E+02  0.40000002900E+02 0.  0.
         12    1    3    3    0    0  0.12621126543E+02  0.16136507842E+02  0.30595751793E+02  0.36820914550E+02  0.00000000000E+00 0. -1.
         11    1    4    4    0    0 -0.74763359462E+00 -0.45020263999E+01 -0.16891467357E+02  0.17497110259E+02  0.51100000000E-03 0. -1.
        -11    1    4    4    0    0 -0.17290608388E+02 -0.10413614502E+02 -0.20041435138E+02  0.28444114120E+02  0.51100000000E-03 0.  1.
         12    1    4    4    0    0  0.54171154390E+01 -0.12208669403E+01  0.63371507022E+01  0.84258610710E+01  0.00000000000E+00 0. -1.
</event>
<event>
 8    1  0.1261983E-006  0.9118800E+02  0.7816164E-02  0.1184000E+00
        -11   -1    0    0    0    0  0.00000000000E+00  0.00000000000E+00  0.45593999997E+02  0.45594000000E+02  0.51100000000E-03 0. -1.
         11   -1    0    0    0    0 -0.00000000000E+00 -0.00000000000E+00 -0.45593999997E+02  0.45594000000E+02  0.51100000000E-03 0.  1.
         23    2    1    2    0    0 -0.35527136788E-14  0.26645352591E-14  0.00000000000E+00  0.91188000000E+02  0.91188000000E+02 0.  0.
    9900012    2    3    3    0    0 -0.26447225798E+02  0.69351031065E+01  0.24662292376E+02  0.54367081045E+02  0.39999992858E+02 0.  0.
        -12    1    3    3    0    0  0.26447225798E+02 -0.69351031065E+01 -0.24662292376E+02  0.36820918955E+02  0.00000000000E+00 0.  1.
         11    1    4    4    0    0  0.61688623651E+01 -0.42778824069E+01  0.87438042423E+01  0.11524289725E+02  0.51100000000E-03 0. -1.
        -11    1    4    4    0    0  0.94208851119E+00  0.13052930987E+00 -0.27247949282E+01  0.28860139163E+01  0.51100000000E-03 0.  1.
         12    1    4    4    0    0 -0.33558176674E+02  0.11082456204E+02  0.18643283062E+02  0.39956777404E+02  0.00000000000E+00 0. -1.
</event>
<event>
 8    1  0.1261983E-006  0.9118800E+02  0.7816164E-02  0.1184000E+00
        -11   -1    0    0    0    0  0.00000000000E+00  0.00000000000E+00  0.45593999997E+02  0.45594000000E+02  0.51100000000E-03 0.  1.
         11   -1    0    0    0    0 -0.00000000000E+00 -0.00000000000E+00 -0.45593999997E+02  0.45594000000E+02  0.51100000000E-03 0. -1.
         23    2    1    2    0    0 -0.17763568394E-14  0.00000000000E+00  0.00000000000E+00  0.91188000000E+02  0.91188000000E+02 0.  0.
    9900012    2    3    3    0    0 -0.14204078555E+02 -0.29431408808E+02  0.16965153943E+02  0.54367080398E+02  0.39999991383E+02 0.  0.
         12    1    3    3    0    0  0.14204078555E+02  0.29431408808E+02 -0.16965153943E+02  0.36820919602E+02  0.00000000000E+00 0. -1.
         11    1    4    4    0    0  0.34277217966E+01  0.96141478932E+00  0.40242952742E+01  0.53729459170E+01  0.51100000000E-03 0. -1.
        -11    1    4    4    0    0 -0.20166482021E+02 -0.74717589091E+01 -0.18692372673E+01  0.21587223687E+02  0.51100000000E-03 0.  1.
        -12    1    4    4    0    0  0.25346816698E+01 -0.22921064688E+02  0.14810095936E+02  0.27406910794E+02  0.00000000000E+00 0.  1.
</event>
<event>
 8    1  0.1261983E-006  0.9118800E+02  0.7816164E-02  0.1184000E+00
        -11   -1    0    0    0    0  0.00000000000E+00  0.00000000000E+00  0.45593999997E+02  0.45594000000E+02  0.51100000000E-03 0.  1.
         11   -1    0    0    0    0 -0.00000000000E+00 -0.00000000000E+00 -0.45593999997E+02  0.45594000000E+02  0.51100000000E-03 0. -1.
         23    2    1    2    0    0  0.00000000000E+00  0.00000000000E+00  0.17763568394E-14  0.91188000000E+02  0.91188000000E+02 0.  0.
    9900012    2    3    3    0    0 -0.16375568120E+02  0.31194821824E+02 -0.10700609453E+02  0.54367093133E+02  0.40000020415E+02 0.  0.
        -12    1    3    3    0    0  0.16375568120E+02 -0.31194821824E+02  0.10700609453E+02  0.36820906867E+02  0.00000000000E+00 0.  1.
         11    1    4    4    0    0 -0.15654105919E+02  0.65939279841E+01 -0.15634038205E+02  0.23085797999E+02  0.51100000000E-03 0. -1.
        -11    1    4    4    0    0 -0.61824671231E+01  0.47075275038E+01  0.71162388460E+01  0.10536819753E+02  0.51100000000E-03 0.  1.
        -12    1    4    4    0    0  0.54610049226E+01  0.19893366336E+02 -0.21828100936E+01  0.20744475381E+02  0.00000000000E+00 0.  1.
</event>
<event>
 8    1  0.1261983E-006  0.9118800E+02  0.7816164E-02  0.1184000E+00
        -11   -1    0    0    0    0  0.00000000000E+00  0.00000000000E+00  0.45593999997E+02  0.45594000000E+02  0.51100000000E-03 0. -1.
         11   -1    0    0    0    0 -0.00000000000E+00 -0.00000000000E+00 -0.45593999997E+02  0.45594000000E+02  0.51100000000E-03 0.  1.
         23    2    1    2    0    0 -0.35527136788E-14  0.00000000000E+00  0.35527136788E-14  0.91188000000E+02  0.91188000000E+02 0.  0.
    9900012    2    3    3    0    0 -0.27915959046E+02 -0.16957304067E+02  0.16997906266E+02  0.54367085453E+02  0.40000002907E+02 0.  0.
        -12    1    3    3    0    0  0.27915959046E+02  0.16957304067E+02 -0.16997906266E+02  0.36820914547E+02  0.00000000000E+00 0.  1.
         11    1    4    4    0    0 -0.12809042736E+01 -0.51979264975E+01  0.16185086029E+02  0.17047468013E+02  0.51100000000E-03 0. -1.
        -11    1    4    4    0    0 -0.54368504666E+01  0.62366665284E+01  0.42493650917E+01  0.93012072511E+01  0.51100000000E-03 0.  1.
        -12    1    4    4    0    0 -0.21198204306E+02 -0.17996044098E+02 -0.34365448551E+01  0.28018410189E+02  0.00000000000E+00 0.  1.
</event>
<event>
 8    1  0.1261983E-006  0.9118800E+02  0.7816164E-02  0.1184000E+00
        -11   -1    0    0    0    0  0.00000000000E+00  0.00000000000E+00  0.45593999997E+02  0.45594000000E+02  0.51100000000E-03 0.  1.
         11   -1    0    0    0    0 -0.00000000000E+00 -0.00000000000E+00 -0.45593999997E+02  0.45594000000E+02  0.51100000000E-03 0. -1.
         23    2    1    2    0    0  0.35527136788E-14  0.17763568394E-14  0.17763568394E-14  0.91188000000E+02  0.91188000000E+02 0.  0.
    9900012    2    3    3    0    0  0.30610175159E+02  0.14798302750E+02  0.14135281954E+02  0.54367098552E+02  0.40000032769E+02 0.  0.
         12    1    3    3    0    0 -0.30610175159E+02 -0.14798302750E+02 -0.14135281954E+02  0.36820901448E+02  0.00000000000E+00 0. -1.
         11    1    4    4    0    0  0.27298077833E+02  0.52273110371E+01  0.33887825838E+01  0.27999887173E+02  0.51100000000E-03 0. -1.
        -11    1    4    4    0    0  0.11668834815E+01 -0.12458920422E+01 -0.60433217606E+01  0.62797772415E+01  0.51100000000E-03 0.  1.
        -12    1    4    4    0    0  0.21452138441E+01  0.10816883755E+02  0.16789821131E+02  0.20087434137E+02  0.00000000000E+00 0.  1.
</event>
<event>
 8    1  0.1261983E-006  0.9118800E+02  0.7816164E-02  0.1184000E+00
        -11   -1    0    0    0    0  0.00000000000E+00  0.00000000000E+00  0.45593999997E+02  0.45594000000E+02  0.51100000000E-03 0. -1.
         11   -1    0    0    0    0 -0.00000000000E+00 -0.00000000000E+00 -0.45593999997E+02  0.45594000000E+02  0.51100000000E-03 0.  1.
         23    2    1    2    0    0 -0.22204460493E-15 -0.88817841970E-15  0.00000000000E+00  0.91188000000E+02  0.91188000000E+02 0.  0.
    9900012    2    3    3    0    0  0.12176233781E+01  0.73105939910E+01  0.36067329227E+02  0.54367087073E+02  0.40000006601E+02 0.  0.
        -12    1    3    3    0    0 -0.12176233781E+01 -0.73105939910E+01 -0.36067329227E+02  0.36820912927E+02  0.00000000000E+00 0.  1.
         11    1    4    4    0    0 -0.72729043683E+01  0.17897355059E+02  0.15653624767E+02  0.24864561622E+02  0.51100000000E-03 0. -1.
        -11    1    4    4    0    0 -0.17656849885E+01  0.31234609257E+01  0.12389173577E+01  0.37958619724E+01  0.51100000000E-03 0.  1.
         12    1    4    4    0    0  0.10256212735E+02 -0.13710221994E+02  0.19174787102E+02  0.25706663479E+02  0.00000000000E+00 0. -1.
</event>
<event>
 8    1  0.1261983E-006  0.9118800E+02  0.7816164E-02  0.1184000E+00
        -11   -1    0    0    0    0  0.00000000000E+00  0.00000000000E+00  0.45593999997E+02  0.45594000000E+02  0.51100000000E-03 0. -1.
         11   -1    0    0    0    0 -0.00000000000E+00 -0.00000000000E+00 -0.45593999997E+02  0.45594000000E+02  0.51100000000E-03 0.  1.
         23    2    1    2    0    0  0.35527136788E-14  0.00000000000E+00  0.00000000000E+00  0.91188000000E+02  0.91188000000E+02 0.  0.
    9900012    2    3    3    0    0  0.21332163870E+02 -0.25250144341E+02 -0.16221865489E+02  0.54367083057E+02  0.39999997444E+02 0.  0.
         12    1    3    3    0    0 -0.21332163870E+02  0.25250144341E+02  0.16221865489E+02  0.36820916943E+02  0.00000000000E+00 0. -1.
         11    1    4    4    0    0 -0.32375865524E+01 -0.19438163555E+01 -0.18129406292E+02  0.18518524819E+02  0.51100000000E-03 0. -1.
        -11    1    4    4    0    0  0.18210518022E+02 -0.21310812569E+02 -0.20339520490E+01  0.28105349316E+02  0.51100000000E-03 0.  1.
         12    1    4    4    0    0  0.63592323999E+01 -0.19955154167E+01  0.39414928522E+01  0.77432089213E+01  0.00000000000E+00 0. -1.
</event>
<event>
 8    1  0.1261983E-006  0.9118800E+02  0.7816164E-02  0.1184000E+00
        -11   -1    0    0    0    0  0.00000000000E+00  0.00000000000E+00  0.45593999997E+02  0.45594000000E+02  0.51100000000E-03 0. -1.
         11   -1    0    0    0    0 -0.00000000000E+00 -0.00000000000E+00 -0.45593999997E+02  0.45594000000E+02  0.51100000000E-03 0.  1.
         23    2    1    2    0    0  0.00000000000E+00  0.00000000000E+00  0.00000000000E+00  0.91188000000E+02  0.91188000000E+02 0.  0.
    9900012    2    3    3    0    0 -0.17464259517E+02  0.19216662692E+02  0.26105516504E+02  0.54367102707E+02  0.40000042241E+02 0.  0.
        -12    1    3    3    0    0  0.17464259517E+02 -0.19216662692E+02 -0.26105516504E+02  0.36820897293E+02  0.00000000000E+00 0.  1.
         11    1    4    4    0    0 -0.10131507626E+02  0.48974189931E+01 -0.28993549765E+01  0.11620603217E+02  0.51100000000E-03 0. -1.
        -11    1    4    4    0    0 -0.44530222072E+01  0.14604394662E+02  0.33832417486E+02  0.37118057916E+02  0.51100000000E-03 0.  1.
        -12    1    4    4    0    0 -0.28797296839E+01 -0.28515096335E+00 -0.48275460056E+01  0.56284415747E+01  0.00000000000E+00 0.  1.
</event>
<event>
 8    1  0.1261983E-006  0.9118800E+02  0.7816164E-02  0.1184000E+00
        -11   -1    0    0    0    0  0.00000000000E+00  0.00000000000E+00  0.45593999997E+02  0.45594000000E+02  0.51100000000E-03 0.  1.
         11   -1    0    0    0    0 -0.00000000000E+00 -0.00000000000E+00 -0.45593999997E+02  0.45594000000E+02  0.51100000000E-03 0. -1.
         23    2    1    2    0    0  0.00000000000E+00  0.00000000000E+00  0.35527136788E-14  0.91188000000E+02  0.91188000000E+02 0.  0.
    9900012    2    3    3    0    0  0.16622569910E+02  0.12770534397E+02  0.30271839345E+02  0.54367073389E+02  0.39999975404E+02 0.  0.
         12    1    3    3    0    0 -0.16622569910E+02 -0.12770534397E+02 -0.30271839345E+02  0.36820926611E+02  0.00000000000E+00 0. -1.
         11    1    4    4    0    0  0.19582924911E+01  0.80116349758E+01 -0.51828486793E+01  0.97407969468E+01  0.51100000000E-03 0. -1.
        -11    1    4    4    0    0 -0.45966463784E+01  0.82103402740E+00  0.73474736594E+00  0.47268497707E+01  0.51100000000E-03 0.  1.
        -12    1    4    4    0    0  0.19260923797E+02  0.39378653941E+01  0.34719940658E+02  0.39899426671E+02  0.00000000000E+00 0.  1.
</event>
<event>
 8    1  0.1261983E-006  0.9118800E+02  0.7816164E-02  0.1184000E+00
        -11   -1    0    0    0    0  0.00000000000E+00  0.00000000000E+00  0.45593999997E+02  0.45594000000E+02  0.51100000000E-03 0.  1.
         11   -1    0    0    0    0 -0.00000000000E+00 -0.00000000000E+00 -0.45593999997E+02  0.45594000000E+02  0.51100000000E-03 0. -1.
         23    2    1    2    0    0  0.00000000000E+00  0.00000000000E+00  0.44408920985E-15  0.91188000000E+02  0.91188000000E+02 0.  0.
    9900012    2    3    3    0    0 -0.27271034571E+02 -0.24653489847E+02  0.20678129780E+01  0.54367085580E+02  0.40000003197E+02 0.  0.
        -12    1    3    3    0    0  0.27271034571E+02  0.24653489847E+02 -0.20678129780E+01  0.36820914420E+02  0.00000000000E+00 0.  1.
         11    1    4    4    0    0 -0.66549086355E+01 -0.11432352519E+02  0.13211697405E+01  0.13294058177E+02  0.51100000000E-03 0. -1.
        -11    1    4    4    0    0 -0.27145027321E+02 -0.74030457378E+01  0.84931693363E+01  0.29390330384E+02  0.51100000000E-03 0.  1.
        -12    1    4    4    0    0  0.65289013848E+01 -0.58180915893E+01 -0.77465260987E+01  0.11682697019E+02  0.00000000000E+00 0.  1.
</event>
<event>
 8    1  0.1261983E-006  0.9118800E+02  0.7816164E-02  0.1184000E+00
        -11   -1    0    0    0    0  0.00000000000E+00  0.00000000000E+00  0.45593999997E+02  0.45594000000E+02  0.51100000000E-03 0.  1.
         11   -1    0    0    0    0 -0.00000000000E+00 -0.00000000000E+00 -0.45593999997E+02  0.45594000000E+02  0.51100000000E-03 0. -1.
         23    2    1    2    0    0  0.00000000000E+00 -0.35527136788E-14  0.00000000000E+00  0.91188000000E+02  0.91188000000E+02 0.  0.
    9900012    2    3    3    0    0 -0.17490517400E+02  0.26819419890E+02 -0.18181859347E+02  0.54367088937E+02  0.40000010850E+02 0.  0.
        -12    1    3    3    0    0  0.17490517400E+02 -0.26819419890E+02  0.18181859347E+02  0.36820911063E+02  0.00000000000E+00 0.  1.
         11    1    4    4    0    0 -0.19118559653E+01  0.28115509821E+02 -0.86569285399E+01  0.29480154303E+02  0.51100000000E-03 0. -1.
        -11    1    4    4    0    0 -0.14820072387E+02 -0.22780982631E+01 -0.13835024837E+02  0.20401769280E+02  0.51100000000E-03 0.  1.
         12    1    4    4    0    0 -0.75858904766E+00  0.98200833148E+00  0.43100940295E+01  0.44851653537E+01  0.00000000000E+00 0. -1.
</event>
<event>
 8    1  0.1261983E-006  0.9118800E+02  0.7816164E-02  0.1184000E+00
        -11   -1    0    0    0    0  0.00000000000E+00  0.00000000000E+00  0.45593999997E+02  0.45594000000E+02  0.51100000000E-03 0.  1.
         11   -1    0    0    0    0 -0.00000000000E+00 -0.00000000000E+00 -0.45593999997E+02  0.45594000000E+02  0.51100000000E-03 0. -1.
         23    2    1    2    0    0  0.35527136788E-14  0.00000000000E+00  0.17763568394E-14  0.91188000000E+02  0.91188000000E+02 0.  0.
    9900012    2    3    3    0    0 -0.23772545097E+02  0.27552923593E+02  0.56109406123E+01  0.54367079949E+02  0.39999990359E+02 0.  0.
         12    1    3    3    0    0  0.23772545097E+02 -0.27552923593E+02 -0.56109406123E+01  0.36820920051E+02  0.00000000000E+00 0. -1.
         11    1    4    4    0    0 -0.50124321138E-01  0.48187656490E+01 -0.12892378970E+02  0.13763591486E+02  0.51100000000E-03 0. -1.
        -11    1    4    4    0    0 -0.16796336127E+02  0.16338264129E+02  0.20304679519E+02  0.31005415537E+02  0.51100000000E-03 0.  1.
        -12    1    4    4    0    0 -0.69260846488E+01  0.63958938149E+01 -0.18013599365E+01  0.95980729250E+01  0.00000000000E+00 0.  1.
</event>
<event>
 8    1  0.1261983E-006  0.9118800E+02  0.7816164E-02  0.1184000E+00
        -11   -1    0    0    0    0  0.00000000000E+00  0.00000000000E+00  0.45593999997E+02  0.45594000000E+02  0.51100000000E-03 0. -1.
         11   -1    0    0    0    0 -0.00000000000E+00 -0.00000000000E+00 -0.45593999997E+02  0.45594000000E+02  0.51100000000E-03 0.  1.
         23    2    1    2    0    0 -0.17763568394E-14  0.88817841970E-15  0.00000000000E+00  0.91188000000E+02  0.91188000000E+02 0.  0.
    9900012    2    3    3    0    0  0.90560735508E+01 -0.33956548905E+01 -0.35527996384E+02  0.54367062107E+02  0.39999949684E+02 0.  0.
         12    1    3    3    0    0 -0.90560735508E+01  0.33956548905E+01  0.35527996384E+02  0.36820937893E+02  0.00000000000E+00 0. -1.
         11    1    4    4    0    0 -0.39498808003E+01 -0.86174989753E+01  0.12289240416E+01  0.95589278419E+01  0.51100000000E-03 0. -1.
        -11    1    4    4    0    0 -0.23086805310E+01  0.84630157275E+00  0.18287643012E+01  0.30644104289E+01  0.51100000000E-03 0.  1.
        -12    1    4    4    0    0  0.15314634882E+02  0.43755425120E+01 -0.38585684727E+02  0.41743723836E+02  0.00000000000E+00 0.  1.
</event>
<event>
 8    1  0.1261983E-006  0.9118800E+02  0.7816164E-02  0.1184000E+00
        -11   -1    0    0    0    0  0.00000000000E+00  0.00000000000E+00  0.45593999997E+02  0.45594000000E+02  0.51100000000E-03 0. -1.
         11   -1    0    0    0    0 -0.00000000000E+00 -0.00000000000E+00 -0.45593999997E+02  0.45594000000E+02  0.51100000000E-03 0.  1.
         23    2    1    2    0    0  0.00000000000E+00  0.00000000000E+00  0.00000000000E+00  0.91188000000E+02  0.91188000000E+02 0.  0.
    9900012    2    3    3    0    0 -0.19418156475E+02 -0.30367195004E+02 -0.75198968219E+01  0.54367079568E+02  0.39999989490E+02 0.  0.
         12    1    3    3    0    0  0.19418156475E+02  0.30367195004E+02  0.75198968219E+01  0.36820920432E+02  0.00000000000E+00 0. -1.
         11    1    4    4    0    0  0.22659986212E+01 -0.16800706279E+02 -0.53991461535E+01  0.17791831290E+02  0.51100000000E-03 0. -1.
        -11    1    4    4    0    0  0.28632160107E+00  0.57697604821E+01 -0.43372490249E+01  0.72238386918E+01  0.51100000000E-03 0.  1.
        -12    1    4    4    0    0 -0.21970476697E+02 -0.19336249207E+02  0.22164983565E+01  0.29351409585E+02  0.00000000000E+00 0.  1.
</event>
<event>
 8    1  0.1261983E-006  0.9118800E+02  0.7816164E-02  0.1184000E+00
        -11   -1    0    0    0    0  0.00000000000E+00  0.00000000000E+00  0.45593999997E+02  0.45594000000E+02  0.51100000000E-03 0. -1.
         11   -1    0    0    0    0 -0.00000000000E+00 -0.00000000000E+00 -0.45593999997E+02  0.45594000000E+02  0.51100000000E-03 0.  1.
         23    2    1    2    0    0  0.33306690739E-15 -0.35527136788E-14  0.00000000000E+00  0.91188000000E+02  0.91188000000E+02 0.  0.
    9900012    2    3    3    0    0  0.82053121381E+00 -0.23089876957E+02 -0.28669915620E+02  0.54367085413E+02  0.40000002815E+02 0.  0.
         12    1    3    3    0    0 -0.82053121381E+00  0.23089876957E+02  0.28669915620E+02  0.36820914587E+02  0.00000000000E+00 0. -1.
         11    1    4    4    0    0 -0.18306372584E+01 -0.26744062658E+01 -0.10844068621E+02  0.11318016883E+02  0.51100000000E-03 0. -1.
        -11    1    4    4    0    0  0.16945068927E+01 -0.15233180480E+02 -0.27813110931E+02  0.31756735996E+02  0.51100000000E-03 0.  1.
         12    1    4    4    0    0  0.95666157953E+00 -0.51822902111E+01  0.99872639322E+01  0.11292332534E+02  0.00000000000E+00 0. -1.
</event>
<event>
 8    1  0.1261983E-006  0.9118800E+02  0.7816164E-02  0.1184000E+00
        -11   -1    0    0    0    0  0.00000000000E+00  0.00000000000E+00  0.45593999997E+02  0.45594000000E+02  0.51100000000E-03 0.  1.
         11   -1    0    0    0    0 -0.00000000000E+00 -0.00000000000E+00 -0.45593999997E+02  0.45594000000E+02  0.51100000000E-03 0. -1.
         23    2    1    2    0    0  0.00000000000E+00  0.35527136788E-14  0.17763568394E-14  0.91188000000E+02  0.91188000000E+02 0.  0.
    9900012    2    3    3    0    0 -0.24505059525E+02  0.24421387220E+02  0.12604649688E+02  0.54367091676E+02  0.40000017094E+02 0.  0.
        -12    1    3    3    0    0  0.24505059525E+02 -0.24421387220E+02 -0.12604649688E+02  0.36820908324E+02  0.00000000000E+00 0.  1.
         11    1    4    4    0    0 -0.18552619332E+02  0.19726323346E+02  0.90868657740E+01  0.28563939621E+02  0.51100000000E-03 0. -1.
        -11    1    4    4    0    0  0.13735138071E+01  0.13802243453E+02  0.16880927857E+01  0.13972763578E+02  0.51100000000E-03 0.  1.
         12    1    4    4    0    0 -0.73259540000E+01 -0.91071795788E+01  0.18296911282E+01  0.11830388477E+02  0.00000000000E+00 0. -1.
</event>
<event>
 8    1  0.1261983E-006  0.9118800E+02  0.7816164E-02  0.1184000E+00
        -11   -1    0    0    0    0  0.00000000000E+00  0.00000000000E+00  0.45593999997E+02  0.45594000000E+02  0.51100000000E-03 0. -1.
         11   -1    0    0    0    0 -0.00000000000E+00 -0.00000000000E+00 -0.45593999997E+02  0.45594000000E+02  0.51100000000E-03 0.  1.
         23    2    1    2    0    0 -0.71054273576E-14 -0.11102230246E-15  0.00000000000E+00  0.91188000000E+02  0.91188000000E+02 0.  0.
    9900012    2    3    3    0    0  0.30772580352E+02 -0.80950102777E+00 -0.20203303132E+02  0.54367075909E+02  0.39999981150E+02 0.  0.
         12    1    3    3    0    0 -0.30772580352E+02  0.80950102777E+00  0.20203303132E+02  0.36820924091E+02  0.00000000000E+00 0. -1.
         11    1    4    4    0    0  0.63544997483E+01  0.89066095308E+01 -0.90377353166E+01  0.14191124702E+02  0.51100000000E-03 0. -1.
        -11    1    4    4    0    0 -0.60097469070E+01 -0.46268314489E+00 -0.48838269192E+01  0.77577638026E+01  0.51100000000E-03 0.  1.
        -12    1    4    4    0    0  0.30427827511E+02 -0.92534274137E+01 -0.62817408968E+01  0.32418187405E+02  0.00000000000E+00 0.  1.
</event>
<event>
 8    1  0.1261983E-006  0.9118800E+02  0.7816164E-02  0.1184000E+00
        -11   -1    0    0    0    0  0.00000000000E+00  0.00000000000E+00  0.45593999997E+02  0.45594000000E+02  0.51100000000E-03 0. -1.
         11   -1    0    0    0    0 -0.00000000000E+00 -0.00000000000E+00 -0.45593999997E+02  0.45594000000E+02  0.51100000000E-03 0.  1.
         23    2    1    2    0    0 -0.17763568394E-14 -0.17763568394E-14  0.00000000000E+00  0.91188000000E+02  0.91188000000E+02 0.  0.
    9900012    2    3    3    0    0 -0.13387755316E+02 -0.85923205965E+01  0.33207230206E+02  0.54367080626E+02  0.39999991903E+02 0.  0.
        -12    1    3    3    0    0  0.13387755316E+02  0.85923205965E+01 -0.33207230206E+02  0.36820919374E+02  0.00000000000E+00 0.  1.
         11    1    4    4    0    0 -0.67873908966E+01 -0.18215394996E+02  0.34574226963E+02  0.39664170991E+02  0.51100000000E-03 0. -1.
        -11    1    4    4    0    0  0.18287482483E+01 -0.23401550956E-01 -0.16992943591E+00  0.18367754524E+01  0.51100000000E-03 0.  1.
         12    1    4    4    0    0 -0.84291126673E+01  0.96464759504E+01 -0.11970673217E+01  0.12866134182E+02  0.00000000000E+00 0. -1.
</event>
<event>
 8    1  0.1261983E-006  0.9118800E+02  0.7816164E-02  0.1184000E+00
        -11   -1    0    0    0    0  0.00000000000E+00  0.00000000000E+00  0.45593999997E+02  0.45594000000E+02  0.51100000000E-03 0.  1.
         11   -1    0    0    0    0 -0.00000000000E+00 -0.00000000000E+00 -0.45593999997E+02  0.45594000000E+02  0.51100000000E-03 0. -1.
         23    2    1    2    0    0 -0.88817841970E-15  0.71054273576E-14  0.00000000000E+00  0.91188000000E+02  0.91188000000E+02 0.  0.
    9900012    2    3    3    0    0 -0.73995149551E+01 -0.32423023101E+02  0.15804248004E+02  0.54367088774E+02  0.40000010478E+02 0.  0.
         12    1    3    3    0    0  0.73995149551E+01  0.32423023101E+02 -0.15804248004E+02  0.36820911226E+02  0.00000000000E+00 0. -1.
         11    1    4    4    0    0 -0.65085836773E+00 -0.19682948655E+02 -0.18437433793E+01  0.19779824931E+02  0.51100000000E-03 0. -1.
        -11    1    4    4    0    0  0.82006665299E+01 -0.45971607775E+01  0.14491458358E+02  0.17273887355E+02  0.51100000000E-03 0.  1.
        -12    1    4    4    0    0 -0.14949323117E+02 -0.81429136680E+01  0.31565330248E+01  0.17313376488E+02  0.00000000000E+00 0.  1.
</event>
<event>
 8    1  0.1261983E-006  0.9118800E+02  0.7816164E-02  0.1184000E+00
        -11   -1    0    0    0    0  0.00000000000E+00  0.00000000000E+00  0.45593999997E+02  0.45594000000E+02  0.51100000000E-03 0.  1.
         11   -1    0    0    0    0 -0.00000000000E+00 -0.00000000000E+00 -0.45593999997E+02  0.45594000000E+02  0.51100000000E-03 0. -1.
         23    2    1    2    0    0  0.00000000000E+00  0.00000000000E+00  0.00000000000E+00  0.91188000000E+02  0.91188000000E+02 0.  0.
    9900012    2    3    3    0    0  0.25024245020E+02  0.19756852789E+02 -0.18418291154E+02  0.54367088550E+02  0.40000009968E+02 0.  0.
        -12    1    3    3    0    0 -0.25024245020E+02 -0.19756852789E+02  0.18418291154E+02  0.36820911450E+02  0.00000000000E+00 0.  1.
         11    1    4    4    0    0 -0.11195287637E+01  0.59240704828E+01 -0.62444173035E+01  0.86799022724E+01  0.51100000000E-03 0. -1.
        -11    1    4    4    0    0 -0.72884393102E+01  0.49135356378E+01  0.58213014549E+00  0.88092596630E+01  0.51100000000E-03 0.  1.
         12    1    4    4    0    0  0.33432213094E+02  0.89192466681E+01 -0.12756003996E+02  0.36877926615E+02  0.00000000000E+00 0. -1.
</event>
<event>
 8    1  0.1261983E-006  0.9118800E+02  0.7816164E-02  0.1184000E+00
        -11   -1    0    0    0    0  0.00000000000E+00  0.00000000000E+00  0.45593999997E+02  0.45594000000E+02  0.51100000000E-03 0. -1.
         11   -1    0    0    0    0 -0.00000000000E+00 -0.00000000000E+00 -0.45593999997E+02  0.45594000000E+02  0.51100000000E-03 0.  1.
         23    2    1    2    0    0  0.00000000000E+00  0.71054273576E-14  0.00000000000E+00  0.91188000000E+02  0.91188000000E+02 0.  0.
    9900012    2    3    3    0    0 -0.15948363621E+02 -0.32167633006E+02 -0.81653850174E+01  0.54367076222E+02  0.39999981863E+02 0.  0.
         12    1    3    3    0    0  0.15948363621E+02  0.32167633006E+02  0.81653850174E+01  0.36820923778E+02  0.00000000000E+00 0. -1.
         11    1    4    4    0    0  0.27018543179E+01  0.14687982126E+01 -0.14031917010E+01  0.33802858097E+01  0.51100000000E-03 0. -1.
        -11    1    4    4    0    0 -0.15475348401E+02 -0.43248284323E+01  0.80723620554E+01  0.17982034882E+02  0.51100000000E-03 0.  1.
        -12    1    4    4    0    0 -0.31748695379E+01 -0.29311602786E+02 -0.14834555372E+02  0.33004755530E+02  0.00000000000E+00 0.  1.
</event>
<event>
 8    1  0.1261983E-006  0.9118800E+02  0.7816164E-02  0.1184000E+00
        -11   -1    0    0    0    0  0.00000000000E+00  0.00000000000E+00  0.45593999997E+02  0.45594000000E+02  0.51100000000E-03 0. -1.
         11   -1    0    0    0    0 -0.00000000000E+00 -0.00000000000E+00 -0.45593999997E+02  0.45594000000E+02  0.51100000000E-03 0.  1.
         23    2    1    2    0    0  0.00000000000E+00 -0.35527136788E-14  0.00000000000E+00  0.91188000000E+02  0.91188000000E+02 0.  0.
    9900012    2    3    3    0    0 -0.64296183583E+01 -0.27489965636E+02 -0.23637723654E+02  0.54367079555E+02  0.39999989460E+02 0.  0.
         12    1    3    3    0    0  0.64296183583E+01  0.27489965636E+02  0.23637723654E+02  0.36820920445E+02  0.00000000000E+00 0. -1.
         11    1    4    4    0    0 -0.67375451186E+00 -0.18220434151E+02 -0.89410211810E+01  0.20307142237E+02  0.51100000000E-03 0. -1.
        -11    1    4    4    0    0  0.11166689538E+01  0.59586725963E+01 -0.16188371230E+02  0.17286297811E+02  0.51100000000E-03 0.  1.
        -12    1    4    4    0    0 -0.68725328002E+01 -0.15228204081E+02  0.14916687570E+01  0.16773639507E+02  0.00000000000E+00 0.  1.
</event>
<event>
 8    1  0.1261983E-006  0.9118800E+02  0.7816164E-02  0.1184000E+00
        -11   -1    0    0    0    0  0.00000000000E+00  0.00000000000E+00  0.45593999997E+02  0.45594000000E+02  0.51100000000E-03 0. -1.
         11   -1    0    0    0    0 -0.00000000000E+00 -0.00000000000E+00 -0.45593999997E+02  0.45594000000E+02  0.51100000000E-03 0.  1.
         23    2    1    2    0    0  0.00000000000E+00  0.22204460493E-14  0.00000000000E+00  0.91188000000E+02  0.91188000000E+02 0.  0.
    9900012    2    3    3    0    0  0.10430671647E+02 -0.12547853138E+01 -0.35290309190E+02  0.54367091267E+02  0.40000016162E+02 0.  0.
         12    1    3    3    0    0 -0.10430671647E+02  0.12547853138E+01  0.35290309190E+02  0.36820908733E+02  0.00000000000E+00 0. -1.
         11    1    4    4    0    0  0.74283376766E+01 -0.19051770278E+02 -0.14497574456E+02  0.25066507868E+02  0.51100000000E-03 0. -1.
        -11    1    4    4    0    0 -0.28869469590E+01  0.78521483272E+01 -0.12635401874E+02  0.15154011907E+02  0.51100000000E-03 0.  1.
         12    1    4    4    0    0  0.58892809292E+01  0.99448366366E+01 -0.81573328595E+01  0.14146571492E+02  0.00000000000E+00 0. -1.
</event>
<event>
 8    1  0.1261983E-006  0.9118800E+02  0.7816164E-02  0.1184000E+00
        -11   -1    0    0    0    0  0.00000000000E+00  0.00000000000E+00  0.45593999997E+02  0.45594000000E+02  0.51100000000E-03 0.  1.
         11   -1    0    0    0    0 -0.00000000000E+00 -0.00000000000E+00 -0.45593999997E+02  0.45594000000E+02  0.51100000000E-03 0. -1.
         23    2    1    2    0    0 -0.35527136788E-14  0.00000000000E+00  0.00000000000E+00  0.91188000000E+02  0.91188000000E+02 0.  0.
    9900012    2    3    3    0    0 -0.31776491579E+02 -0.16761548913E+02  0.80676505367E+01  0.54367055903E+02  0.39999935541E+02 0.  0.
         12    1    3    3    0    0  0.31776491579E+02  0.16761548913E+02 -0.80676505367E+01  0.36820944097E+02  0.00000000000E+00 0. -1.
         11    1    4    4    0    0 -0.53066168721E+01  0.28421225103E+01  0.34936387786E+01  0.69601260885E+01  0.51100000000E-03 0. -1.
        -11    1    4    4    0    0 -0.28559757783E+02 -0.13987892778E+02 -0.85919939619E+01  0.32941512859E+02  0.51100000000E-03 0.  1.
        -12    1    4    4    0    0  0.20898830754E+01 -0.56157786451E+01  0.13166005720E+02  0.14465416955E+02  0.00000000000E+00 0.  1.
</event>
<event>
 8    1  0.1261983E-006  0.9118800E+02  0.7816164E-02  0.1184000E+00
        -11   -1    0    0    0    0  0.00000000000E+00  0.00000000000E+00  0.45593999997E+02  0.45594000000E+02  0.51100000000E-03 0. -1.
         11   -1    0    0    0    0 -0.00000000000E+00 -0.00000000000E+00 -0.45593999997E+02  0.45594000000E+02  0.51100000000E-03 0.  1.
         23    2    1    2    0    0 -0.17763568394E-14 -0.71054273576E-14 -0.88817841970E-15  0.91188000000E+02  0.91188000000E+02 0.  0.
    9900012    2    3    3    0    0 -0.10583971733E+02 -0.34390965420E+02 -0.78104970911E+01  0.54367315257E+02  0.40000526788E+02 0.  0.
         12    1    3    3    0    0  0.10583971733E+02  0.34390965420E+02  0.78104970911E+01  0.36820684743E+02  0.00000000000E+00 0. -1.
         11    1    4    4    0    0 -0.23793915286E+01  0.15509478707E+01 -0.73642729135E+00  0.29341555447E+01  0.51100000000E-03 0.  1.
        -11    1    4    4    0    0  0.77564029737E+01  0.34031876143E+01 -0.71413565471E+00  0.85002037048E+01  0.51100000000E-03 0. -1.
        -12    1    4    4    0    0 -0.15960983178E+02 -0.39345100905E+02 -0.63599341450E+01  0.42932956007E+02  0.00000000000E+00 0.  1.
</event>
<event>
 8    1  0.1261983E-006  0.9118800E+02  0.7816164E-02  0.1184000E+00
        -11   -1    0    0    0    0  0.00000000000E+00  0.00000000000E+00  0.45593999997E+02  0.45594000000E+02  0.51100000000E-03 0. -1.
         11   -1    0    0    0    0 -0.00000000000E+00 -0.00000000000E+00 -0.45593999997E+02  0.45594000000E+02  0.51100000000E-03 0.  1.
         23    2    1    2    0    0 -0.35527136788E-14 -0.35527136788E-14  0.00000000000E+00  0.91188000000E+02  0.91188000000E+02 0.  0.
    9900012    2    3    3    0    0 -0.27114679207E+02 -0.24805123174E+02  0.22975773717E+01  0.54367097975E+02  0.40000031453E+02 0.  0.
         12    1    3    3    0    0  0.27114679207E+02  0.24805123174E+02 -0.22975773717E+01  0.36820902025E+02  0.00000000000E+00 0. -1.
         11    1    4    4    0    0 -0.10090556241E+02  0.95945946057E+01  0.39350676314E+01  0.14469289147E+02  0.51100000000E-03 0. -1.
        -11    1    4    4    0    0 -0.14139478104E+01 -0.13556492866E+02 -0.24305381220E+01  0.13845044711E+02  0.51100000000E-03 0.  1.
        -12    1    4    4    0    0 -0.15610175155E+02 -0.20843224914E+02  0.79304786233E+00  0.26052764116E+02  0.00000000000E+00 0.  1.
</event>
<event>
 8    1  0.1261983E-006  0.9118800E+02  0.7816164E-02  0.1184000E+00
        -11   -1    0    0    0    0  0.00000000000E+00  0.00000000000E+00  0.45593999997E+02  0.45594000000E+02  0.51100000000E-03 0.  1.
         11   -1    0    0    0    0 -0.00000000000E+00 -0.00000000000E+00 -0.45593999997E+02  0.45594000000E+02  0.51100000000E-03 0. -1.
         23    2    1    2    0    0 -0.35527136788E-14  0.35527136788E-14 -0.22204460493E-15  0.91188000000E+02  0.91188000000E+02 0.  0.
    9900012    2    3    3    0    0 -0.31301336288E+02  0.19304191933E+02  0.18313257919E+01  0.54367092437E+02  0.40000018829E+02 0.  0.
        -12    1    3    3    0    0  0.31301336288E+02 -0.19304191933E+02 -0.18313257919E+01  0.36820907563E+02  0.00000000000E+00 0.  1.
         11    1    4    4    0    0 -0.45820380465E+01  0.10721318522E+01  0.56592493487E+01  0.73601387772E+01  0.51100000000E-03 0.  1.
        -11    1    4    4    0    0 -0.14221738971E+02  0.72601177736E+01 -0.18774782830E+02  0.24646696331E+02  0.51100000000E-03 0. -1.
         12    1    4    4    0    0 -0.12497559270E+02  0.10971942307E+02  0.14946859273E+02  0.22360257329E+02  0.00000000000E+00 0. -1.
</event>
<event>
 8    1  0.1261983E-006  0.9118800E+02  0.7816164E-02  0.1184000E+00
        -11   -1    0    0    0    0  0.00000000000E+00  0.00000000000E+00  0.45593999997E+02  0.45594000000E+02  0.51100000000E-03 0.  1.
         11   -1    0    0    0    0 -0.00000000000E+00 -0.00000000000E+00 -0.45593999997E+02  0.45594000000E+02  0.51100000000E-03 0. -1.
         23    2    1    2    0    0 -0.17763568394E-14 -0.71054273576E-14  0.00000000000E+00  0.91188000000E+02  0.91188000000E+02 0.  0.
    9900012    2    3    3    0    0 -0.12115389864E+02 -0.30624616181E+02 -0.16466023651E+02  0.54367085798E+02  0.40000003695E+02 0.  0.
        -12    1    3    3    0    0  0.12115389864E+02  0.30624616181E+02  0.16466023651E+02  0.36820914202E+02  0.00000000000E+00 0.  1.
         11    1    4    4    0    0  0.31641673067E+01  0.61493817215E+01 -0.41261605989E+00  0.69279941235E+01  0.51100000000E-03 0. -1.
        -11    1    4    4    0    0  0.36721926796E+01 -0.63843483386E+00 -0.45274796411E+00  0.37546742992E+01  0.51100000000E-03 0.  1.
        -12    1    4    4    0    0 -0.18951749850E+02 -0.36135563069E+02 -0.15600659627E+02  0.43684417376E+02  0.00000000000E+00 0.  1.
</event>
<event>
 8    1  0.1261983E-006  0.9118800E+02  0.7816164E-02  0.1184000E+00
        -11   -1    0    0    0    0  0.00000000000E+00  0.00000000000E+00  0.45593999997E+02  0.45594000000E+02  0.51100000000E-03 0.  1.
         11   -1    0    0    0    0 -0.00000000000E+00 -0.00000000000E+00 -0.45593999997E+02  0.45594000000E+02  0.51100000000E-03 0. -1.
         23    2    1    2    0    0 -0.88817841970E-15  0.17763568394E-14  0.00000000000E+00  0.91188000000E+02  0.91188000000E+02 0.  0.
    9900012    2    3    3    0    0  0.51353773418E+01 -0.11803670619E+02 -0.34497539044E+02  0.54367096418E+02  0.40000027903E+02 0.  0.
        -12    1    3    3    0    0 -0.51353773418E+01  0.11803670619E+02  0.34497539044E+02  0.36820903582E+02  0.00000000000E+00 0.  1.
         11    1    4    4    0    0 -0.18017218142E+01  0.13626197184E+01 -0.59723794557E+01  0.63853152324E+01  0.51100000000E-03 0. -1.
        -11    1    4    4    0    0  0.21044628813E+02 -0.67061535589E+01 -0.11340135775E+02  0.24828362352E+02  0.51100000000E-03 0.  1.
        -12    1    4    4    0    0 -0.14107529657E+02 -0.64601367789E+01 -0.17185023813E+02  0.23153418833E+02  0.00000000000E+00 0.  1.
</event>
<event>
 8    1  0.1261983E-006  0.9118800E+02  0.7816164E-02  0.1184000E+00
        -11   -1    0    0    0    0  0.00000000000E+00  0.00000000000E+00  0.45593999997E+02  0.45594000000E+02  0.51100000000E-03 0.  1.
         11   -1    0    0    0    0 -0.00000000000E+00 -0.00000000000E+00 -0.45593999997E+02  0.45594000000E+02  0.51100000000E-03 0. -1.
         23    2    1    2    0    0 -0.17763568394E-14 -0.35527136788E-14 -0.35527136788E-14  0.91188000000E+02  0.91188000000E+02 0.  0.
    9900012    2    3    3    0    0  0.10121501095E+02  0.24335643481E+02 -0.25712073465E+02  0.54367094933E+02  0.40000024519E+02 0.  0.
        -12    1    3    3    0    0 -0.10121501095E+02 -0.24335643481E+02  0.25712073465E+02  0.36820905067E+02  0.00000000000E+00 0.  1.
         11    1    4    4    0    0 -0.25420359922E+01 -0.33618317292E+01 -0.49646109799E-01  0.42150118100E+01  0.51100000000E-03 0. -1.
        -11    1    4    4    0    0 -0.47158197356E+00 -0.26789910498E+00  0.59348222566E+01  0.59595532523E+01  0.51100000000E-03 0.  1.
         12    1    4    4    0    0  0.13135119061E+02  0.27965374315E+02 -0.31597249612E+02  0.44192529871E+02  0.00000000000E+00 0. -1.
</event>
<event>
 8    1  0.1261983E-006  0.9118800E+02  0.7816164E-02  0.1184000E+00
        -11   -1    0    0    0    0  0.00000000000E+00  0.00000000000E+00  0.45593999997E+02  0.45594000000E+02  0.51100000000E-03 0.  1.
         11   -1    0    0    0    0 -0.00000000000E+00 -0.00000000000E+00 -0.45593999997E+02  0.45594000000E+02  0.51100000000E-03 0. -1.
         23    2    1    2    0    0 -0.88817841970E-15  0.35527136788E-14  0.00000000000E+00  0.91188000000E+02  0.91188000000E+02 0.  0.
    9900012    2    3    3    0    0  0.67672016764E+01  0.26233324541E+02  0.24936106345E+02  0.54366922685E+02  0.39999631843E+02 0.  0.
         12    1    3    3    0    0 -0.67672016764E+01 -0.26233324541E+02 -0.24936106345E+02  0.36821077315E+02  0.00000000000E+00 0. -1.
         11    1    4    4    0    0  0.19019503248E+01  0.10884547580E+02 -0.77161905575E+01  0.13477031871E+02  0.51100000000E-03 0. -1.
        -11    1    4    4    0    0 -0.17151014527E+01 -0.11662478679E+01  0.17231623808E+02  0.17355995115E+02  0.51100000000E-03 0.  1.
         12    1    4    4    0    0  0.65803528043E+01  0.16515024828E+02  0.15420673095E+02  0.23533895699E+02  0.00000000000E+00 0. -1.
</event>
<event>
 8    1  0.1261983E-006  0.9118800E+02  0.7816164E-02  0.1184000E+00
        -11   -1    0    0    0    0  0.00000000000E+00  0.00000000000E+00  0.45593999997E+02  0.45594000000E+02  0.51100000000E-03 0.  1.
         11   -1    0    0    0    0 -0.00000000000E+00 -0.00000000000E+00 -0.45593999997E+02  0.45594000000E+02  0.51100000000E-03 0. -1.
         23    2    1    2    0    0  0.13322676296E-14 -0.71054273576E-14  0.88817841970E-15  0.91188000000E+02  0.91188000000E+02 0.  0.
    9900012    2    3    3    0    0 -0.25725993229E+01 -0.36577620498E+02  0.33522057666E+01  0.54367110928E+02  0.40000060982E+02 0.  0.
        -12    1    3    3    0    0  0.25725993229E+01  0.36577620498E+02 -0.33522057666E+01  0.36820889072E+02  0.00000000000E+00 0.  1.
         11    1    4    4    0    0  0.60967029518E+01 -0.38206385980E+02  0.11318448031E+02  0.40311350544E+02  0.51100000000E-03 0. -1.
        -11    1    4    4    0    0 -0.50891235534E+01 -0.27772119387E+01 -0.30775778994E+01  0.65638076360E+01  0.51100000000E-03 0.  1.
         12    1    4    4    0    0 -0.35801787213E+01  0.44059774213E+01 -0.48886643647E+01  0.74919527484E+01  0.00000000000E+00 0. -1.
</event>
<event>
 8    1  0.1261983E-006  0.9118800E+02  0.7816164E-02  0.1184000E+00
        -11   -1    0    0    0    0  0.00000000000E+00  0.00000000000E+00  0.45593999997E+02  0.45594000000E+02  0.51100000000E-03 0. -1.
         11   -1    0    0    0    0 -0.00000000000E+00 -0.00000000000E+00 -0.45593999997E+02  0.45594000000E+02  0.51100000000E-03 0.  1.
         23    2    1    2    0    0  0.00000000000E+00  0.00000000000E+00 -0.88817841970E-15  0.91188000000E+02  0.91188000000E+02 0.  0.
    9900012    2    3    3    0    0  0.34294899790E+02  0.13162155715E+02  0.25294107678E+01  0.54367076417E+02  0.39999982308E+02 0.  0.
        -12    1    3    3    0    0 -0.34294899790E+02 -0.13162155715E+02 -0.25294107678E+01  0.36820923583E+02  0.00000000000E+00 0.  1.
         11    1    4    4    0    0  0.19247746997E+02 -0.89176703886E+01 -0.44596166915E+01  0.21676918390E+02  0.51100000000E-03 0. -1.
        -11    1    4    4    0    0  0.84212263051E+00  0.97062444262E+01  0.95926888250E+01  0.13672601455E+02  0.51100000000E-03 0.  1.
        -12    1    4    4    0    0  0.14205030163E+02  0.12373581678E+02 -0.26036613657E+01  0.19017556572E+02  0.00000000000E+00 0.  1.
</event>
<event>
 8    1  0.1261983E-006  0.9118800E+02  0.7816164E-02  0.1184000E+00
        -11   -1    0    0    0    0  0.00000000000E+00  0.00000000000E+00  0.45593999997E+02  0.45594000000E+02  0.51100000000E-03 0.  1.
         11   -1    0    0    0    0 -0.00000000000E+00 -0.00000000000E+00 -0.45593999997E+02  0.45594000000E+02  0.51100000000E-03 0. -1.
         23    2    1    2    0    0 -0.35527136788E-14  0.00000000000E+00  0.00000000000E+00  0.91188000000E+02  0.91188000000E+02 0.  0.
    9900012    2    3    3    0    0 -0.14559840252E+02 -0.19831695036E+02  0.27395165489E+02  0.54367079746E+02  0.39999989897E+02 0.  0.
         12    1    3    3    0    0  0.14559840252E+02  0.19831695036E+02 -0.27395165489E+02  0.36820920254E+02  0.00000000000E+00 0. -1.
         11    1    4    4    0    0  0.68152561652E+01  0.33951982188E+01  0.10214174388E+02  0.12739876225E+02  0.51100000000E-03 0. -1.
        -11    1    4    4    0    0 -0.11201564569E+02 -0.66132297370E+01  0.17906442260E+02  0.22132567204E+02  0.51100000000E-03 0.  1.
         12    1    4    4    0    0 -0.10173531847E+02 -0.16613663518E+02 -0.72545115946E+00  0.19494636317E+02  0.00000000000E+00 0. -1.
</event>
<event>
 8    1  0.1261983E-006  0.9118800E+02  0.7816164E-02  0.1184000E+00
        -11   -1    0    0    0    0  0.00000000000E+00  0.00000000000E+00  0.45593999997E+02  0.45594000000E+02  0.51100000000E-03 0. -1.
         11   -1    0    0    0    0 -0.00000000000E+00 -0.00000000000E+00 -0.45593999997E+02  0.45594000000E+02  0.51100000000E-03 0.  1.
         23    2    1    2    0    0  0.00000000000E+00 -0.44408920985E-15  0.35527136788E-14  0.91188000000E+02  0.91188000000E+02 0.  0.
    9900012    2    3    3    0    0  0.27419471846E+02  0.37192369783E+01 -0.24292377489E+02  0.54367085236E+02  0.40000002412E+02 0.  0.
         12    1    3    3    0    0 -0.27419471846E+02 -0.37192369783E+01  0.24292377489E+02  0.36820914764E+02  0.00000000000E+00 0. -1.
         11    1    4    4    0    0  0.15058605107E+02 -0.10317561842E+01  0.53690194746E+01  0.16020376992E+02  0.51100000000E-03 0. -1.
        -11    1    4    4    0    0  0.58538328412E+01  0.87290852524E+01 -0.34711143293E+01  0.11068555607E+02  0.51100000000E-03 0.  1.
         12    1    4    4    0    0  0.65070338978E+01 -0.39780920899E+01 -0.26190282634E+02  0.27278152637E+02  0.00000000000E+00 0. -1.
</event>
<event>
 8    1  0.1261983E-006  0.9118800E+02  0.7816164E-02  0.1184000E+00
        -11   -1    0    0    0    0  0.00000000000E+00  0.00000000000E+00  0.45593999997E+02  0.45594000000E+02  0.51100000000E-03 0.  1.
         11   -1    0    0    0    0 -0.00000000000E+00 -0.00000000000E+00 -0.45593999997E+02  0.45594000000E+02  0.51100000000E-03 0. -1.
         23    2    1    2    0    0 -0.35527136788E-14  0.88817841970E-15 -0.35527136788E-14  0.91188000000E+02  0.91188000000E+02 0.  0.
    9900012    2    3    3    0    0 -0.23280958490E+02 -0.76462320983E+01 -0.27482941234E+02  0.54367082679E+02  0.39999996582E+02 0.  0.
        -12    1    3    3    0    0  0.23280958490E+02  0.76462320983E+01  0.27482941234E+02  0.36820917321E+02  0.00000000000E+00 0.  1.
         11    1    4    4    0    0 -0.94161874565E+01  0.91683973203E+01  0.37179669679E+01  0.13658234669E+02  0.51100000000E-03 0. -1.
        -11    1    4    4    0    0 -0.31703514810E+01 -0.25826277405E+01  0.72698337256E+00  0.41532637340E+01  0.51100000000E-03 0.  1.
         12    1    4    4    0    0 -0.10694419553E+02 -0.14232001678E+02 -0.31927891575E+02  0.36555584276E+02  0.00000000000E+00 0. -1.
</event>
<event>
 8    1  0.1261983E-006  0.9118800E+02  0.7816164E-02  0.1184000E+00
        -11   -1    0    0    0    0  0.00000000000E+00  0.00000000000E+00  0.45593999997E+02  0.45594000000E+02  0.51100000000E-03 0.  1.
         11   -1    0    0    0    0 -0.00000000000E+00 -0.00000000000E+00 -0.45593999997E+02  0.45594000000E+02  0.51100000000E-03 0. -1.
         23    2    1    2    0    0  0.00000000000E+00  0.00000000000E+00  0.88817841970E-15  0.91188000000E+02  0.91188000000E+02 0.  0.
    9900012    2    3    3    0    0  0.22656442731E+02  0.28140229613E+02 -0.71128413771E+01  0.54367089740E+02  0.40000012681E+02 0.  0.
         12    1    3    3    0    0 -0.22656442731E+02 -0.28140229613E+02  0.71128413771E+01  0.36820910260E+02  0.00000000000E+00 0. -1.
         11    1    4    4    0    0 -0.11986589905E+01  0.13474701605E+02 -0.83654361094E+01  0.15905498680E+02  0.51100000000E-03 0. -1.
        -11    1    4    4    0    0  0.11668420888E+00  0.35376121905E+01  0.10170753925E+02  0.10769055245E+02  0.51100000000E-03 0.  1.
        -12    1    4    4    0    0  0.23738417513E+02  0.11127915817E+02 -0.89181591928E+01  0.27692535815E+02  0.00000000000E+00 0.  1.
</event>
<event>
 8    1  0.1261983E-006  0.9118800E+02  0.7816164E-02  0.1184000E+00
        -11   -1    0    0    0    0  0.00000000000E+00  0.00000000000E+00  0.45593999997E+02  0.45594000000E+02  0.51100000000E-03 0.  1.
         11   -1    0    0    0    0 -0.00000000000E+00 -0.00000000000E+00 -0.45593999997E+02  0.45594000000E+02  0.51100000000E-03 0. -1.
         23    2    1    2    0    0  0.00000000000E+00  0.00000000000E+00 -0.35527136788E-14  0.91188000000E+02  0.91188000000E+02 0.  0.
    9900012    2    3    3    0    0 -0.95129340273E+01  0.24252271111E+02 -0.26021384905E+02  0.54367067907E+02  0.39999962907E+02 0.  0.
        -12    1    3    3    0    0  0.95129340273E+01 -0.24252271111E+02  0.26021384905E+02  0.36820932093E+02  0.00000000000E+00 0.  1.
         11    1    4    4    0    0 -0.30983067261E+01 -0.23911945260E+00 -0.50687485903E+01  0.59454936897E+01  0.51100000000E-03 0. -1.
        -11    1    4    4    0    0 -0.16313943823E+02  0.23614053280E+02 -0.42898753687E+01  0.29020187910E+02  0.51100000000E-03 0.  1.
         12    1    4    4    0    0  0.98993165216E+01  0.87733728344E+00 -0.16662760946E+02  0.19401386307E+02  0.00000000000E+00 0. -1.
</event>
<event>
 8    1  0.1261983E-006  0.9118800E+02  0.7816164E-02  0.1184000E+00
        -11   -1    0    0    0    0  0.00000000000E+00  0.00000000000E+00  0.45593999997E+02  0.45594000000E+02  0.51100000000E-03 0. -1.
         11   -1    0    0    0    0 -0.00000000000E+00 -0.00000000000E+00 -0.45593999997E+02  0.45594000000E+02  0.51100000000E-03 0.  1.
         23    2    1    2    0    0  0.35527136788E-14  0.35527136788E-14 -0.11102230246E-14  0.91188000000E+02  0.91188000000E+02 0.  0.
    9900012    2    3    3    0    0 -0.29961988849E+02 -0.21370355585E+02  0.11681714037E+01  0.54367116007E+02  0.40000072561E+02 0.  0.
        -12    1    3    3    0    0  0.29961988849E+02  0.21370355585E+02 -0.11681714037E+01  0.36820883993E+02  0.00000000000E+00 0.  1.
         11    1    4    4    0    0 -0.26987500322E+02 -0.16107481748E+02  0.74929572779E+01  0.32309759376E+02  0.51100000000E-03 0. -1.
        -11    1    4    4    0    0 -0.46500441686E+01  0.27143417427E+01 -0.11293308639E+02  0.12511170295E+02  0.51100000000E-03 0.  1.
         12    1    4    4    0    0  0.16755556420E+01 -0.79772155790E+01  0.49685227648E+01  0.95461863362E+01  0.00000000000E+00 0. -1.
</event>
<event>
 8    1  0.1261983E-006  0.9118800E+02  0.7816164E-02  0.1184000E+00
        -11   -1    0    0    0    0  0.00000000000E+00  0.00000000000E+00  0.45593999997E+02  0.45594000000E+02  0.51100000000E-03 0.  1.
         11   -1    0    0    0    0 -0.00000000000E+00 -0.00000000000E+00 -0.45593999997E+02  0.45594000000E+02  0.51100000000E-03 0. -1.
         23    2    1    2    0    0  0.00000000000E+00 -0.14210854715E-13  0.00000000000E+00  0.91188000000E+02  0.91188000000E+02 0.  0.
    9900012    2    3    3    0    0  0.44707435779E+01  0.35743559442E+02 -0.76283045947E+01  0.54367073603E+02  0.39999975893E+02 0.  0.
        -12    1    3    3    0    0 -0.44707435779E+01 -0.35743559442E+02  0.76283045947E+01  0.36820926397E+02  0.00000000000E+00 0.  1.
         11    1    4    4    0    0  0.46778739784E+01 -0.18868021494E+01 -0.11344075931E+02  0.12414934003E+02  0.51100000000E-03 0.  1.
        -11    1    4    4    0    0  0.20237513003E+01  0.86068216262E+01 -0.66384456730E+01  0.11056306302E+02  0.51100000000E-03 0. -1.
         12    1    4    4    0    0 -0.22308817008E+01  0.29023539965E+02  0.10354217009E+02  0.30895833298E+02  0.00000000000E+00 0. -1.
</event>
<event>
 8    1  0.1261983E-006  0.9118800E+02  0.7816164E-02  0.1184000E+00
        -11   -1    0    0    0    0  0.00000000000E+00  0.00000000000E+00  0.45593999997E+02  0.45594000000E+02  0.51100000000E-03 0.  1.
         11   -1    0    0    0    0 -0.00000000000E+00 -0.00000000000E+00 -0.45593999997E+02  0.45594000000E+02  0.51100000000E-03 0. -1.
         23    2    1    2    0    0 -0.35527136788E-14  0.17763568394E-14  0.00000000000E+00  0.91188000000E+02  0.91188000000E+02 0.  0.
    9900012    2    3    3    0    0 -0.26992914083E+02 -0.10023323103E+02  0.22949826890E+02  0.54367096005E+02  0.40000026962E+02 0.  0.
         12    1    3    3    0    0  0.26992914083E+02  0.10023323103E+02 -0.22949826890E+02  0.36820903995E+02  0.00000000000E+00 0. -1.
         11    1    4    4    0    0 -0.98468418528E+01 -0.18171145695E+01  0.44780782582E+01  0.10968836993E+02  0.51100000000E-03 0. -1.
        -11    1    4    4    0    0 -0.13926356358E+02 -0.18290816520E+02  0.22408772367E+02  0.32103745103E+02  0.51100000000E-03 0.  1.
         12    1    4    4    0    0 -0.32197158723E+01  0.10084607987E+02 -0.39370237349E+01  0.11294513909E+02  0.00000000000E+00 0. -1.
</event>
<event>
 8    1  0.1261983E-006  0.9118800E+02  0.7816164E-02  0.1184000E+00
        -11   -1    0    0    0    0  0.00000000000E+00  0.00000000000E+00  0.45593999997E+02  0.45594000000E+02  0.51100000000E-03 0. -1.
         11   -1    0    0    0    0 -0.00000000000E+00 -0.00000000000E+00 -0.45593999997E+02  0.45594000000E+02  0.51100000000E-03 0.  1.
         23    2    1    2    0    0 -0.17763568394E-14  0.71054273576E-14 -0.35527136788E-14  0.91188000000E+02  0.91188000000E+02 0.  0.
    9900012    2    3    3    0    0 -0.10757628042E+02  0.29281494639E+02 -0.19561406855E+02  0.54367066721E+02  0.39999960204E+02 0.  0.
         12    1    3    3    0    0  0.10757628042E+02 -0.29281494639E+02  0.19561406855E+02  0.36820933279E+02  0.00000000000E+00 0. -1.
         11    1    4    4    0    0  0.99042313389E+01  0.49261826258E+01  0.19245814666E+01  0.11227871025E+02  0.51100000000E-03 0. -1.
        -11    1    4    4    0    0 -0.55999282594E+01 -0.26390477982E+01 -0.57644681064E+01  0.84588925163E+01  0.51100000000E-03 0.  1.
        -12    1    4    4    0    0 -0.15061931121E+02  0.26994359812E+02 -0.15721520215E+02  0.34680303179E+02  0.00000000000E+00 0.  1.
</event>
<event>
 8    1  0.1261983E-006  0.9118800E+02  0.7816164E-02  0.1184000E+00
        -11   -1    0    0    0    0  0.00000000000E+00  0.00000000000E+00  0.45593999997E+02  0.45594000000E+02  0.51100000000E-03 0.  1.
         11   -1    0    0    0    0 -0.00000000000E+00 -0.00000000000E+00 -0.45593999997E+02  0.45594000000E+02  0.51100000000E-03 0. -1.
         23    2    1    2    0    0 -0.35527136788E-14  0.00000000000E+00  0.00000000000E+00  0.91188000000E+02  0.91188000000E+02 0.  0.
    9900012    2    3    3    0    0 -0.28624935169E+02 -0.17708368566E+02  0.14926615013E+02  0.54367121868E+02  0.40000085922E+02 0.  0.
        -12    1    3    3    0    0  0.28624935169E+02  0.17708368566E+02 -0.14926615013E+02  0.36820878132E+02  0.00000000000E+00 0.  1.
         11    1    4    4    0    0 -0.24619658785E-01 -0.45085111411E+01 -0.74731745668E+01  0.87278644126E+01  0.51100000000E-03 0. -1.
        -11    1    4    4    0    0 -0.12196214760E+02  0.32330555373E+01  0.18039409547E+02  0.22014100019E+02  0.51100000000E-03 0.  1.
         12    1    4    4    0    0 -0.16404100750E+02 -0.16432912962E+02  0.43603800328E+01  0.23625157436E+02  0.00000000000E+00 0. -1.
</event>
<event>
 8    1  0.1261983E-006  0.9118800E+02  0.7816164E-02  0.1184000E+00
        -11   -1    0    0    0    0  0.00000000000E+00  0.00000000000E+00  0.45593999997E+02  0.45594000000E+02  0.51100000000E-03 0.  1.
         11   -1    0    0    0    0 -0.00000000000E+00 -0.00000000000E+00 -0.45593999997E+02  0.45594000000E+02  0.51100000000E-03 0. -1.
         23    2    1    2    0    0 -0.17763568394E-14 -0.35527136788E-14  0.00000000000E+00  0.91188000000E+02  0.91188000000E+02 0.  0.
    9900012    2    3    3    0    0  0.12694050641E+02  0.31173545510E+02  0.14928157603E+02  0.54367098996E+02  0.40000033781E+02 0.  0.
         12    1    3    3    0    0 -0.12694050641E+02 -0.31173545510E+02 -0.14928157603E+02  0.36820901004E+02  0.00000000000E+00 0. -1.
         11    1    4    4    0    0 -0.29959998353E+00 -0.35590551140E+01  0.44110983182E+01  0.56757750209E+01  0.51100000000E-03 0. -1.
        -11    1    4    4    0    0  0.13858220769E+02  0.38403683617E+02  0.14386262093E+02  0.43288078446E+02  0.51100000000E-03 0.  1.
        -12    1    4    4    0    0 -0.86457014474E+00 -0.36710829935E+01 -0.38692028081E+01  0.54032455293E+01  0.00000000000E+00 0.  1.
</event>
<event>
 8    1  0.1261983E-006  0.9118800E+02  0.7816164E-02  0.1184000E+00
        -11   -1    0    0    0    0  0.00000000000E+00  0.00000000000E+00  0.45593999997E+02  0.45594000000E+02  0.51100000000E-03 0. -1.
         11   -1    0    0    0    0 -0.00000000000E+00 -0.00000000000E+00 -0.45593999997E+02  0.45594000000E+02  0.51100000000E-03 0.  1.
         23    2    1    2    0    0  0.35527136788E-14  0.00000000000E+00  0.88817841970E-15  0.91188000000E+02  0.91188000000E+02 0.  0.
    9900012    2    3    3    0    0 -0.11566527136E+02  0.34597249935E+02  0.50025274745E+01  0.54367088358E+02  0.40000009529E+02 0.  0.
        -12    1    3    3    0    0  0.11566527136E+02 -0.34597249935E+02 -0.50025274745E+01  0.36820911642E+02  0.00000000000E+00 0.  1.
         11    1    4    4    0    0  0.48046650305E+01  0.11630416040E+02  0.21697547556E+01  0.12769464331E+02  0.51100000000E-03 0. -1.
        -11    1    4    4    0    0  0.82912913693E+01  0.97998206273E+01 -0.26510011043E+01  0.13107623889E+02  0.51100000000E-03 0.  1.
        -12    1    4    4    0    0 -0.24662483536E+02  0.13167013267E+02  0.54837738232E+01  0.28490000138E+02  0.00000000000E+00 0.  1.
</event>
<event>
 8    1  0.1261983E-006  0.9118800E+02  0.7816164E-02  0.1184000E+00
        -11   -1    0    0    0    0  0.00000000000E+00  0.00000000000E+00  0.45593999997E+02  0.45594000000E+02  0.51100000000E-03 0. -1.
         11   -1    0    0    0    0 -0.00000000000E+00 -0.00000000000E+00 -0.45593999997E+02  0.45594000000E+02  0.51100000000E-03 0.  1.
         23    2    1    2    0    0  0.17763568394E-14  0.88817841970E-15  0.00000000000E+00  0.91188000000E+02  0.91188000000E+02 0.  0.
    9900012    2    3    3    0    0 -0.62813149620E+01  0.42938448916E+01  0.36026211852E+02  0.54367082548E+02  0.39999996284E+02 0.  0.
        -12    1    3    3    0    0  0.62813149620E+01 -0.42938448916E+01 -0.36026211852E+02  0.36820917452E+02  0.00000000000E+00 0.  1.
         11    1    4    4    0    0  0.84262965321E+01 -0.92744328482E+01  0.20603663661E+01  0.12698924668E+02  0.51100000000E-03 0. -1.
        -11    1    4    4    0    0 -0.28881105516E+01 -0.37259236824E+00 -0.20205127313E+00  0.29190465240E+01  0.51100000000E-03 0.  1.
        -12    1    4    4    0    0 -0.11819500943E+02  0.13940870108E+02  0.34167896759E+02  0.38749111356E+02  0.00000000000E+00 0.  1.
</event>
<event>
 8    1  0.1261983E-006  0.9118800E+02  0.7816164E-02  0.1184000E+00
        -11   -1    0    0    0    0  0.00000000000E+00  0.00000000000E+00  0.45593999997E+02  0.45594000000E+02  0.51100000000E-03 0.  1.
         11   -1    0    0    0    0 -0.00000000000E+00 -0.00000000000E+00 -0.45593999997E+02  0.45594000000E+02  0.51100000000E-03 0. -1.
         23    2    1    2    0    0 -0.88817841970E-15 -0.35527136788E-14 -0.35527136788E-14  0.91188000000E+02  0.91188000000E+02 0.  0.
    9900012    2    3    3    0    0 -0.59647115573E+01  0.26281291131E+02  0.25089852294E+02  0.54367017726E+02  0.39999848510E+02 0.  0.
         12    1    3    3    0    0  0.59647115573E+01 -0.26281291131E+02 -0.25089852294E+02  0.36820982274E+02  0.00000000000E+00 0. -1.
         11    1    4    4    0    0 -0.40676022470E-01 -0.25325807960E+01  0.20516660957E+01  0.32595941551E+01  0.51100000000E-03 0.  1.
        -11    1    4    4    0    0  0.13720003406E+02  0.47459216394E+01  0.82855583086E+01  0.16715643643E+02  0.51100000000E-03 0. -1.
        -12    1    4    4    0    0 -0.19644038941E+02  0.24067950288E+02  0.14752627890E+02  0.34391779928E+02  0.00000000000E+00 0.  1.
</event>
<event>
 8    1  0.1261983E-006  0.9118800E+02  0.7816164E-02  0.1184000E+00
        -11   -1    0    0    0    0  0.00000000000E+00  0.00000000000E+00  0.45593999997E+02  0.45594000000E+02  0.51100000000E-03 0. -1.
         11   -1    0    0    0    0 -0.00000000000E+00 -0.00000000000E+00 -0.45593999997E+02  0.45594000000E+02  0.51100000000E-03 0.  1.
         23    2    1    2    0    0 -0.35527136788E-14  0.00000000000E+00 -0.17763568394E-14  0.91188000000E+02  0.91188000000E+02 0.  0.
    9900012    2    3    3    0    0  0.27853035163E+02  0.22262323126E+02  0.91857416440E+01  0.54367075945E+02  0.39999981231E+02 0.  0.
        -12    1    3    3    0    0 -0.27853035163E+02 -0.22262323126E+02 -0.91857416440E+01  0.36820924055E+02  0.00000000000E+00 0.  1.
         11    1    4    4    0    0  0.19081539114E+02  0.10048798456E+02  0.64172629067E+01  0.22500327750E+02  0.51100000000E-03 0. -1.
        -11    1    4    4    0    0 -0.25580380159E+01  0.17138814709E+02  0.71683373914E+01  0.18752802173E+02  0.51100000000E-03 0.  1.
        -12    1    4    4    0    0  0.11329534064E+02 -0.49252900388E+01 -0.43998586542E+01  0.13113946021E+02  0.00000000000E+00 0.  1.
</event>
<event>
 8    1  0.1261983E-006  0.9118800E+02  0.7816164E-02  0.1184000E+00
        -11   -1    0    0    0    0  0.00000000000E+00  0.00000000000E+00  0.45593999997E+02  0.45594000000E+02  0.51100000000E-03 0. -1.
         11   -1    0    0    0    0 -0.00000000000E+00 -0.00000000000E+00 -0.45593999997E+02  0.45594000000E+02  0.51100000000E-03 0.  1.
         23    2    1    2    0    0 -0.17763568394E-14 -0.35527136788E-14 -0.35527136788E-14  0.91188000000E+02  0.91188000000E+02 0.  0.
    9900012    2    3    3    0    0 -0.52999463143E+01 -0.27155003304E+02 -0.24296036308E+02  0.54367068241E+02  0.39999963668E+02 0.  0.
         12    1    3    3    0    0  0.52999463143E+01  0.27155003304E+02  0.24296036308E+02  0.36820931759E+02  0.00000000000E+00 0. -1.
         11    1    4    4    0    0  0.58882088376E+01 -0.55082934852E+01  0.22965249541E+01  0.83836941476E+01  0.51100000000E-03 0. -1.
        -11    1    4    4    0    0 -0.19712921642E+02 -0.12498241731E+02 -0.10474959606E+02  0.25583785979E+02  0.51100000000E-03 0.  1.
         12    1    4    4    0    0  0.85247664904E+01 -0.91484680881E+01 -0.16117601656E+02  0.20399588114E+02  0.00000000000E+00 0. -1.
</event>
<event>
 8    1  0.1261983E-006  0.9118800E+02  0.7816164E-02  0.1184000E+00
        -11   -1    0    0    0    0  0.00000000000E+00  0.00000000000E+00  0.45593999997E+02  0.45594000000E+02  0.51100000000E-03 0. -1.
         11   -1    0    0    0    0 -0.00000000000E+00 -0.00000000000E+00 -0.45593999997E+02  0.45594000000E+02  0.51100000000E-03 0.  1.
         23    2    1    2    0    0 -0.17763568394E-14  0.00000000000E+00  0.00000000000E+00  0.91188000000E+02  0.91188000000E+02 0.  0.
    9900012    2    3    3    0    0 -0.81920659627E+01  0.18049333248E+02  0.31030523898E+02  0.54367057742E+02  0.39999939734E+02 0.  0.
        -12    1    3    3    0    0  0.81920659627E+01 -0.18049333248E+02 -0.31030523898E+02  0.36820942258E+02  0.00000000000E+00 0.  1.
         11    1    4    4    0    0 -0.14868946416E+02 -0.18198160684E+00  0.21585781881E+02  0.26211918367E+02  0.51100000000E-03 0. -1.
        -11    1    4    4    0    0 -0.13174510267E+00  0.25162417053E+01 -0.50982739573E+01  0.56869347364E+01  0.51100000000E-03 0.  1.
         12    1    4    4    0    0  0.68086255557E+01  0.15715073149E+02  0.14543015974E+02  0.22468204638E+02  0.00000000000E+00 0. -1.
</event>
<event>
 8    1  0.1261983E-006  0.9118800E+02  0.7816164E-02  0.1184000E+00
        -11   -1    0    0    0    0  0.00000000000E+00  0.00000000000E+00  0.45593999997E+02  0.45594000000E+02  0.51100000000E-03 0.  1.
         11   -1    0    0    0    0 -0.00000000000E+00 -0.00000000000E+00 -0.45593999997E+02  0.45594000000E+02  0.51100000000E-03 0. -1.
         23    2    1    2    0    0 -0.35527136788E-14  0.17763568394E-14  0.35527136788E-14  0.91188000000E+02  0.91188000000E+02 0.  0.
    9900012    2    3    3    0    0  0.18608689688E+02 -0.10049026864E+02 -0.30141573422E+02  0.54367072239E+02  0.39999972784E+02 0.  0.
        -12    1    3    3    0    0 -0.18608689688E+02  0.10049026864E+02  0.30141573422E+02  0.36820927761E+02  0.00000000000E+00 0.  1.
         11    1    4    4    0    0  0.46627340797E+01 -0.12744031331E+02 -0.24802767414E+02  0.28272401655E+02  0.51100000000E-03 0. -1.
        -11    1    4    4    0    0  0.20874454155E+01  0.10575832432E+02  0.29069637540E+00  0.10783791756E+02  0.51100000000E-03 0.  1.
        -12    1    4    4    0    0  0.11858510193E+02 -0.78808279654E+01 -0.56295023828E+01  0.15310878828E+02  0.00000000000E+00 0.  1.
</event>
<event>
 8    1  0.1261983E-006  0.9118800E+02  0.7816164E-02  0.1184000E+00
        -11   -1    0    0    0    0  0.00000000000E+00  0.00000000000E+00  0.45593999997E+02  0.45594000000E+02  0.51100000000E-03 0.  1.
         11   -1    0    0    0    0 -0.00000000000E+00 -0.00000000000E+00 -0.45593999997E+02  0.45594000000E+02  0.51100000000E-03 0. -1.
         23    2    1    2    0    0  0.00000000000E+00 -0.71054273576E-14  0.44408920985E-15  0.91188000000E+02  0.91188000000E+02 0.  0.
    9900012    2    3    3    0    0 -0.19509629646E+02  0.31208546517E+02 -0.10814327692E+01  0.54367237902E+02  0.40000350444E+02 0.  0.
         12    1    3    3    0    0  0.19509629646E+02 -0.31208546517E+02  0.10814327692E+01  0.36820762098E+02  0.00000000000E+00 0. -1.
         11    1    4    4    0    0 -0.14338838820E+01 -0.74311512776E+01  0.33149628503E+01  0.82623853249E+01  0.51100000000E-03 0. -1.
        -11    1    4    4    0    0  0.21324870023E+01  0.74696663280E-01  0.75251075508E+00  0.22625987501E+01  0.51100000000E-03 0.  1.
         12    1    4    4    0    0 -0.20208232766E+02  0.38565001131E+02 -0.51489063746E+01  0.43842253827E+02  0.00000000000E+00 0. -1.
</event>
<event>
 8    1  0.1261983E-006  0.9118800E+02  0.7816164E-02  0.1184000E+00
        -11   -1    0    0    0    0  0.00000000000E+00  0.00000000000E+00  0.45593999997E+02  0.45594000000E+02  0.51100000000E-03 0.  1.
         11   -1    0    0    0    0 -0.00000000000E+00 -0.00000000000E+00 -0.45593999997E+02  0.45594000000E+02  0.51100000000E-03 0. -1.
         23    2    1    2    0    0  0.00000000000E+00  0.00000000000E+00  0.88817841970E-15  0.91188000000E+02  0.91188000000E+02 0.  0.
    9900012    2    3    3    0    0  0.44414619986E+01 -0.36253618599E+02 -0.46612207073E+01  0.54367103423E+02  0.40000043874E+02 0.  0.
        -12    1    3    3    0    0 -0.44414619986E+01  0.36253618599E+02  0.46612207073E+01  0.36820896577E+02  0.00000000000E+00 0.  1.
         11    1    4    4    0    0  0.17173468418E+02 -0.11173394702E+02 -0.57384048688E+01  0.21276796219E+02  0.51100000000E-03 0. -1.
        -11    1    4    4    0    0 -0.97332637859E+01 -0.23371462033E+02 -0.52750921379E+01  0.25860940795E+02  0.51100000000E-03 0.  1.
         12    1    4    4    0    0 -0.29987426333E+01 -0.17087618647E+01  0.63522762994E+01  0.72293664090E+01  0.00000000000E+00 0. -1.
</event>
<event>
 8    1  0.1261983E-006  0.9118800E+02  0.7816164E-02  0.1184000E+00
        -11   -1    0    0    0    0  0.00000000000E+00  0.00000000000E+00  0.45593999997E+02  0.45594000000E+02  0.51100000000E-03 0. -1.
         11   -1    0    0    0    0 -0.00000000000E+00 -0.00000000000E+00 -0.45593999997E+02  0.45594000000E+02  0.51100000000E-03 0.  1.
         23    2    1    2    0    0 -0.88817841970E-15  0.17763568394E-14  0.71054273576E-14  0.91188000000E+02  0.91188000000E+02 0.  0.
    9900012    2    3    3    0    0  0.75718308182E+01 -0.11201395774E+02  0.34248718817E+02  0.54367100638E+02  0.40000037524E+02 0.  0.
        -12    1    3    3    0    0 -0.75718308182E+01  0.11201395774E+02 -0.34248718817E+02  0.36820899362E+02  0.00000000000E+00 0.  1.
         11    1    4    4    0    0  0.78725708737E+01 -0.68796210722E+01  0.13868311631E+01  0.10546556746E+02  0.51100000000E-03 0. -1.
        -11    1    4    4    0    0 -0.66744577692E+01  0.18669212014E+01 -0.24939080264E+01  0.73656879373E+01  0.51100000000E-03 0.  1.
         12    1    4    4    0    0  0.63737177137E+01 -0.61886959036E+01  0.35355795680E+02  0.36454855955E+02  0.00000000000E+00 0. -1.
</event>
<event>
 8    1  0.1261983E-006  0.9118800E+02  0.7816164E-02  0.1184000E+00
        -11   -1    0    0    0    0  0.00000000000E+00  0.00000000000E+00  0.45593999997E+02  0.45594000000E+02  0.51100000000E-03 0. -1.
         11   -1    0    0    0    0 -0.00000000000E+00 -0.00000000000E+00 -0.45593999997E+02  0.45594000000E+02  0.51100000000E-03 0.  1.
         23    2    1    2    0    0  0.00000000000E+00 -0.71054273576E-14  0.00000000000E+00  0.91188000000E+02  0.91188000000E+02 0.  0.
    9900012    2    3    3    0    0 -0.96199161354E+01 -0.32758403754E+02 -0.13788541640E+02  0.54367086330E+02  0.40000004906E+02 0.  0.
        -12    1    3    3    0    0  0.96199161354E+01  0.32758403754E+02  0.13788541640E+02  0.36820913670E+02  0.00000000000E+00 0.  1.
         11    1    4    4    0    0 -0.20336640503E+01 -0.27208649459E+02  0.23393306001E+01  0.27384646479E+02  0.51100000000E-03 0. -1.
        -11    1    4    4    0    0 -0.52741777396E+01  0.21950709069E+01 -0.17829790358E+02  0.18722625660E+02  0.51100000000E-03 0.  1.
        -12    1    4    4    0    0 -0.23120743456E+01 -0.77448252018E+01  0.17019181185E+01  0.82598141909E+01  0.00000000000E+00 0.  1.
</event>
<event>
 8    1  0.1261983E-006  0.9118800E+02  0.7816164E-02  0.1184000E+00
        -11   -1    0    0    0    0  0.00000000000E+00  0.00000000000E+00  0.45593999997E+02  0.45594000000E+02  0.51100000000E-03 0. -1.
         11   -1    0    0    0    0 -0.00000000000E+00 -0.00000000000E+00 -0.45593999997E+02  0.45594000000E+02  0.51100000000E-03 0.  1.
         23    2    1    2    0    0  0.00000000000E+00 -0.35527136788E-14  0.35527136788E-14  0.91188000000E+02  0.91188000000E+02 0.  0.
    9900012    2    3    3    0    0  0.21420466034E+02  0.21558387444E+02 -0.20788922815E+02  0.54367085480E+02  0.40000002969E+02 0.  0.
        -12    1    3    3    0    0 -0.21420466034E+02 -0.21558387444E+02  0.20788922815E+02  0.36820914520E+02  0.00000000000E+00 0.  1.
         11    1    4    4    0    0 -0.93819853452E+01 -0.31151441916E+01 -0.33034041541E+01  0.10422967505E+02  0.51100000000E-03 0. -1.
        -11    1    4    4    0    0  0.19878804515E+02  0.11083071834E+02 -0.11569622145E+02  0.25531500290E+02  0.51100000000E-03 0.  1.
         12    1    4    4    0    0  0.10923646864E+02  0.13590459801E+02 -0.59158965159E+01  0.18412617685E+02  0.00000000000E+00 0. -1.
</event>
<event>
 8    1  0.1261983E-006  0.9118800E+02  0.7816164E-02  0.1184000E+00
        -11   -1    0    0    0    0  0.00000000000E+00  0.00000000000E+00  0.45593999997E+02  0.45594000000E+02  0.51100000000E-03 0. -1.
         11   -1    0    0    0    0 -0.00000000000E+00 -0.00000000000E+00 -0.45593999997E+02  0.45594000000E+02  0.51100000000E-03 0.  1.
         23    2    1    2    0    0 -0.88817841970E-15  0.00000000000E+00  0.00000000000E+00  0.91188000000E+02  0.91188000000E+02 0.  0.
    9900012    2    3    3    0    0  0.58648663688E+01  0.31403031309E+02  0.18309312797E+02  0.54367109624E+02  0.40000058010E+02 0.  0.
        -12    1    3    3    0    0 -0.58648663688E+01 -0.31403031309E+02 -0.18309312797E+02  0.36820890376E+02  0.00000000000E+00 0.  1.
         11    1    4    4    0    0  0.13155558079E+02  0.22397908824E+02  0.24237504896E+01  0.26088495448E+02  0.51100000000E-03 0. -1.
        -11    1    4    4    0    0 -0.55223063076E+00 -0.40996496637E+01 -0.24093822410E+01  0.47871921916E+01  0.51100000000E-03 0.  1.
         12    1    4    4    0    0 -0.67384610798E+01  0.13104772149E+02  0.18294944549E+02  0.23491421985E+02  0.00000000000E+00 0. -1.
</event>
<event>
 8    1  0.1261983E-006  0.9118800E+02  0.7816164E-02  0.1184000E+00
        -11   -1    0    0    0    0  0.00000000000E+00  0.00000000000E+00  0.45593999997E+02  0.45594000000E+02  0.51100000000E-03 0.  1.
         11   -1    0    0    0    0 -0.00000000000E+00 -0.00000000000E+00 -0.45593999997E+02  0.45594000000E+02  0.51100000000E-03 0. -1.
         23    2    1    2    0    0  0.00000000000E+00  0.17763568394E-14  0.00000000000E+00  0.91188000000E+02  0.91188000000E+02 0.  0.
    9900012    2    3    3    0    0  0.32881887336E+02  0.10790501626E+02  0.12574763091E+02  0.54367107739E+02  0.40000053712E+02 0.  0.
         12    1    3    3    0    0 -0.32881887336E+02 -0.10790501626E+02 -0.12574763091E+02  0.36820892261E+02  0.00000000000E+00 0. -1.
         11    1    4    4    0    0  0.69062307302E+01  0.16224738093E+02 -0.42544726250E+01  0.18139423548E+02  0.51100000000E-03 0.  1.
        -11    1    4    4    0    0  0.20963717493E+01 -0.54436368340E+00  0.10938894757E+02  0.11151256660E+02  0.51100000000E-03 0. -1.
        -12    1    4    4    0    0  0.23879284856E+02 -0.48898727835E+01  0.58903409590E+01  0.25076427531E+02  0.00000000000E+00 0.  1.
</event>
<event>
 8    1  0.1261983E-006  0.9118800E+02  0.7816164E-02  0.1184000E+00
        -11   -1    0    0    0    0  0.00000000000E+00  0.00000000000E+00  0.45593999997E+02  0.45594000000E+02  0.51100000000E-03 0.  1.
         11   -1    0    0    0    0 -0.00000000000E+00 -0.00000000000E+00 -0.45593999997E+02  0.45594000000E+02  0.51100000000E-03 0. -1.
         23    2    1    2    0    0  0.17763568394E-14  0.88817841970E-15  0.00000000000E+00  0.91188000000E+02  0.91188000000E+02 0.  0.
    9900012    2    3    3    0    0  0.10269944220E+02  0.34938831151E+01 -0.35186683300E+02  0.54367059556E+02  0.39999943870E+02 0.  0.
        -12    1    3    3    0    0 -0.10269944220E+02 -0.34938831151E+01  0.35186683300E+02  0.36820940444E+02  0.00000000000E+00 0.  1.
         11    1    4    4    0    0  0.47862488424E+01  0.17537525419E+02 -0.30239154952E+02  0.35282849492E+02  0.51100000000E-03 0. -1.
        -11    1    4    4    0    0  0.35215883169E+01 -0.22633271364E+00  0.13434088530E+01  0.37759182166E+01  0.51100000000E-03 0.  1.
         12    1    4    4    0    0  0.19621070606E+01 -0.13817309590E+02 -0.62909372009E+01  0.15308291848E+02  0.00000000000E+00 0. -1.
</event>
<event>
 8    1  0.1261983E-006  0.9118800E+02  0.7816164E-02  0.1184000E+00
        -11   -1    0    0    0    0  0.00000000000E+00  0.00000000000E+00  0.45593999997E+02  0.45594000000E+02  0.51100000000E-03 0. -1.
         11   -1    0    0    0    0 -0.00000000000E+00 -0.00000000000E+00 -0.45593999997E+02  0.45594000000E+02  0.51100000000E-03 0.  1.
         23    2    1    2    0    0  0.00000000000E+00  0.17763568394E-14 -0.35527136788E-14  0.91188000000E+02  0.91188000000E+02 0.  0.
    9900012    2    3    3    0    0 -0.31212939855E+02 -0.70849703167E+01  0.18202591637E+02  0.54367098856E+02  0.40000033461E+02 0.  0.
        -12    1    3    3    0    0  0.31212939855E+02  0.70849703167E+01 -0.18202591637E+02  0.36820901144E+02  0.00000000000E+00 0.  1.
         11    1    4    4    0    0 -0.13549803083E+02 -0.12840189241E+02  0.15782259851E+02  0.24444781644E+02  0.51100000000E-03 0. -1.
        -11    1    4    4    0    0 -0.44827971881E+01  0.11553874030E+02 -0.54203152812E+01  0.13526540347E+02  0.51100000000E-03 0.  1.
        -12    1    4    4    0    0 -0.13180339584E+02 -0.57986551061E+01  0.78406470668E+01  0.16395776865E+02  0.00000000000E+00 0.  1.
</event>
<event>
 8    1  0.1261983E-006  0.9118800E+02  0.7816164E-02  0.1184000E+00
        -11   -1    0    0    0    0  0.00000000000E+00  0.00000000000E+00  0.45593999997E+02  0.45594000000E+02  0.51100000000E-03 0. -1.
         11   -1    0    0    0    0 -0.00000000000E+00 -0.00000000000E+00 -0.45593999997E+02  0.45594000000E+02  0.51100000000E-03 0.  1.
         23    2    1    2    0    0  0.00000000000E+00  0.00000000000E+00 -0.71054273576E-14  0.91188000000E+02  0.91188000000E+02 0.  0.
    9900012    2    3    3    0    0  0.30132343784E+01 -0.14003753593E+01 -0.36670678292E+02  0.54367091823E+02  0.40000017429E+02 0.  0.
         12    1    3    3    0    0 -0.30132343784E+01  0.14003753593E+01  0.36670678292E+02  0.36820908177E+02  0.00000000000E+00 0. -1.
         11    1    4    4    0    0  0.18651108733E+01  0.52627040646E+01 -0.30465766617E+02  0.30973175951E+02  0.51100000000E-03 0. -1.
        -11    1    4    4    0    0  0.40527298685E+01 -0.77551761931E+01 -0.13145330848E+02  0.15791361580E+02  0.51100000000E-03 0.  1.
         12    1    4    4    0    0 -0.29046063634E+01  0.10920967692E+01  0.69404191728E+01  0.76025542927E+01  0.00000000000E+00 0. -1.
</event>
<event>
 8    1  0.1261983E-006  0.9118800E+02  0.7816164E-02  0.1184000E+00
        -11   -1    0    0    0    0  0.00000000000E+00  0.00000000000E+00  0.45593999997E+02  0.45594000000E+02  0.51100000000E-03 0. -1.
         11   -1    0    0    0    0 -0.00000000000E+00 -0.00000000000E+00 -0.45593999997E+02  0.45594000000E+02  0.51100000000E-03 0.  1.
         23    2    1    2    0    0  0.35527136788E-14  0.00000000000E+00  0.35527136788E-14  0.91188000000E+02  0.91188000000E+02 0.  0.
    9900012    2    3    3    0    0 -0.20197812674E+02 -0.20398900694E+02 -0.23058899544E+02  0.54367086995E+02  0.40000006422E+02 0.  0.
         12    1    3    3    0    0  0.20197812674E+02  0.20398900694E+02  0.23058899544E+02  0.36820913005E+02  0.00000000000E+00 0. -1.
         11    1    4    4    0    0 -0.67397273814E+01 -0.12241451738E+02 -0.73001764191E+01  0.15766091521E+02  0.51100000000E-03 0. -1.
        -11    1    4    4    0    0 -0.16290321078E+02 -0.11947837815E+02 -0.22580682204E+02  0.30298722718E+02  0.51100000000E-03 0.  1.
        -12    1    4    4    0    0  0.28322357848E+01  0.37903888583E+01  0.68219590792E+01  0.83022727560E+01  0.00000000000E+00 0.  1.
</event>
<event>
 8    1  0.1261983E-006  0.9118800E+02  0.7816164E-02  0.1184000E+00
        -11   -1    0    0    0    0  0.00000000000E+00  0.00000000000E+00  0.45593999997E+02  0.45594000000E+02  0.51100000000E-03 0.  1.
         11   -1    0    0    0    0 -0.00000000000E+00 -0.00000000000E+00 -0.45593999997E+02  0.45594000000E+02  0.51100000000E-03 0. -1.
         23    2    1    2    0    0  0.44408920985E-15 -0.35527136788E-14 -0.35527136788E-14  0.91188000000E+02  0.91188000000E+02 0.  0.
    9900012    2    3    3    0    0 -0.29728324623E+01 -0.30605728055E+02  0.20254172994E+02  0.54367084119E+02  0.39999999866E+02 0.  0.
         12    1    3    3    0    0  0.29728324623E+01  0.30605728055E+02 -0.20254172994E+02  0.36820915881E+02  0.00000000000E+00 0. -1.
         11    1    4    4    0    0 -0.46950806344E+00  0.75287513323E+00  0.37840958487E+01  0.38867261855E+01  0.51100000000E-03 0. -1.
        -11    1    4    4    0    0 -0.14507374021E+02 -0.23188994826E+02  0.21836224750E+02  0.35000201337E+02  0.51100000000E-03 0.  1.
         12    1    4    4    0    0  0.12004049623E+02 -0.81696083630E+01 -0.53661476047E+01  0.15480156597E+02  0.00000000000E+00 0. -1.
</event>
<event>
 8    1  0.1261983E-006  0.9118800E+02  0.7816164E-02  0.1184000E+00
        -11   -1    0    0    0    0  0.00000000000E+00  0.00000000000E+00  0.45593999997E+02  0.45594000000E+02  0.51100000000E-03 0.  1.
         11   -1    0    0    0    0 -0.00000000000E+00 -0.00000000000E+00 -0.45593999997E+02  0.45594000000E+02  0.51100000000E-03 0. -1.
         23    2    1    2    0    0  0.00000000000E+00  0.00000000000E+00  0.00000000000E+00  0.91188000000E+02  0.91188000000E+02 0.  0.
    9900012    2    3    3    0    0  0.18872840961E+02 -0.31237596416E+02  0.48795846352E+01  0.54367056204E+02  0.39999936228E+02 0.  0.
         12    1    3    3    0    0 -0.18872840961E+02  0.31237596416E+02 -0.48795846352E+01  0.36820943796E+02  0.00000000000E+00 0. -1.
         11    1    4    4    0    0  0.14725689931E+02  0.81388056543E-01 -0.36841541652E+01  0.15179774706E+02  0.51100000000E-03 0. -1.
        -11    1    4    4    0    0  0.63847286496E+01 -0.18384264993E+02 -0.52237260469E+01  0.20150267326E+02  0.51100000000E-03 0.  1.
        -12    1    4    4    0    0 -0.22375776199E+01 -0.12934719480E+02  0.13787464847E+02  0.19037014171E+02  0.00000000000E+00 0.  1.
</event>
<event>
 8    1  0.1261983E-006  0.9118800E+02  0.7816164E-02  0.1184000E+00
        -11   -1    0    0    0    0  0.00000000000E+00  0.00000000000E+00  0.45593999997E+02  0.45594000000E+02  0.51100000000E-03 0. -1.
         11   -1    0    0    0    0 -0.00000000000E+00 -0.00000000000E+00 -0.45593999997E+02  0.45594000000E+02  0.51100000000E-03 0.  1.
         23    2    1    2    0    0  0.17763568394E-14  0.00000000000E+00  0.00000000000E+00  0.91188000000E+02  0.91188000000E+02 0.  0.
    9900012    2    3    3    0    0 -0.94421180616E+01  0.10811388474E+02  0.33907815075E+02  0.54367086956E+02  0.40000006333E+02 0.  0.
        -12    1    3    3    0    0  0.94421180616E+01 -0.10811388474E+02 -0.33907815075E+02  0.36820913044E+02  0.00000000000E+00 0.  1.
         11    1    4    4    0    0 -0.22845997920E+00 -0.68522241420E+01  0.13948824361E+02  0.15542679016E+02  0.51100000000E-03 0. -1.
        -11    1    4    4    0    0 -0.35070766293E+01  0.21703652985E+02  0.53474991047E+01  0.22626177015E+02  0.51100000000E-03 0.  1.
        -12    1    4    4    0    0 -0.57065814530E+01 -0.40400403686E+01  0.14611491609E+02  0.16198230925E+02  0.00000000000E+00 0.  1.
</event>
<event>
 8    1  0.1261983E-006  0.9118800E+02  0.7816164E-02  0.1184000E+00
        -11   -1    0    0    0    0  0.00000000000E+00  0.00000000000E+00  0.45593999997E+02  0.45594000000E+02  0.51100000000E-03 0.  1.
         11   -1    0    0    0    0 -0.00000000000E+00 -0.00000000000E+00 -0.45593999997E+02  0.45594000000E+02  0.51100000000E-03 0. -1.
         23    2    1    2    0    0 -0.35527136788E-14  0.71054273576E-14 -0.13322676296E-14  0.91188000000E+02  0.91188000000E+02 0.  0.
    9900012    2    3    3    0    0 -0.12156772282E+02  0.34547094960E+02 -0.38066435808E+01  0.54367089937E+02  0.40000013130E+02 0.  0.
        -12    1    3    3    0    0  0.12156772282E+02 -0.34547094960E+02  0.38066435808E+01  0.36820910063E+02  0.00000000000E+00 0.  1.
         11    1    4    4    0    0 -0.67363471972E+01  0.19235769330E+02 -0.18967311218E+02  0.27841553304E+02  0.51100000000E-03 0.  1.
        -11    1    4    4    0    0  0.23161653590E+00 -0.11335533205E+01 -0.18614909854E+01  0.21917432104E+01  0.51100000000E-03 0. -1.
        -12    1    4    4    0    0 -0.56520416206E+01  0.16444878951E+02  0.17022158622E+02  0.24333793423E+02  0.00000000000E+00 0.  1.
</event>
<event>
 8    1  0.1261983E-006  0.9118800E+02  0.7816164E-02  0.1184000E+00
        -11   -1    0    0    0    0  0.00000000000E+00  0.00000000000E+00  0.45593999997E+02  0.45594000000E+02  0.51100000000E-03 0. -1.
         11   -1    0    0    0    0 -0.00000000000E+00 -0.00000000000E+00 -0.45593999997E+02  0.45594000000E+02  0.51100000000E-03 0.  1.
         23    2    1    2    0    0  0.71054273576E-14 -0.17763568394E-14  0.17763568394E-14  0.91188000000E+02  0.91188000000E+02 0.  0.
    9900012    2    3    3    0    0  0.35244333951E+02 -0.58010210708E+01  0.89422894620E+01  0.54367089339E+02  0.40000011766E+02 0.  0.
         12    1    3    3    0    0 -0.35244333951E+02  0.58010210708E+01 -0.89422894620E+01  0.36820910661E+02  0.00000000000E+00 0. -1.
         11    1    4    4    0    0  0.13629851513E+02  0.12437325436E+02 -0.55139354708E+01  0.19257814021E+02  0.51100000000E-03 0.  1.
        -11    1    4    4    0    0  0.30019366387E+01  0.26534123154E+01  0.20773861605E+01  0.45130648145E+01  0.51100000000E-03 0. -1.
         12    1    4    4    0    0  0.18612545799E+02 -0.20891758822E+02  0.12378838772E+02  0.30596210503E+02  0.00000000000E+00 0. -1.
</event>
<event>
 8    1  0.1261983E-006  0.9118800E+02  0.7816164E-02  0.1184000E+00
        -11   -1    0    0    0    0  0.00000000000E+00  0.00000000000E+00  0.45593999997E+02  0.45594000000E+02  0.51100000000E-03 0.  1.
         11   -1    0    0    0    0 -0.00000000000E+00 -0.00000000000E+00 -0.45593999997E+02  0.45594000000E+02  0.51100000000E-03 0. -1.
         23    2    1    2    0    0  0.00000000000E+00 -0.35527136788E-14  0.00000000000E+00  0.91188000000E+02  0.91188000000E+02 0.  0.
    9900012    2    3    3    0    0 -0.96023845848E+01 -0.31164660986E+02 -0.17097877831E+02  0.54367091396E+02  0.40000016455E+02 0.  0.
        -12    1    3    3    0    0  0.96023845848E+01  0.31164660986E+02  0.17097877831E+02  0.36820908604E+02  0.00000000000E+00 0.  1.
         11    1    4    4    0    0  0.26949106626E+01  0.65691768036E+01  0.19241911463E+00  0.71030734709E+01  0.51100000000E-03 0. -1.
        -11    1    4    4    0    0  0.10468127832E+01 -0.11657600815E+02  0.24274943644E+01  0.11953585359E+02  0.51100000000E-03 0.  1.
         12    1    4    4    0    0 -0.13344108031E+02 -0.26076236974E+02 -0.19717791310E+02  0.35310432566E+02  0.00000000000E+00 0. -1.
</event>
<event>
 8    1  0.1261983E-006  0.9118800E+02  0.7816164E-02  0.1184000E+00
        -11   -1    0    0    0    0  0.00000000000E+00  0.00000000000E+00  0.45593999997E+02  0.45594000000E+02  0.51100000000E-03 0.  1.
         11   -1    0    0    0    0 -0.00000000000E+00 -0.00000000000E+00 -0.45593999997E+02  0.45594000000E+02  0.51100000000E-03 0. -1.
         23    2    1    2    0    0  0.00000000000E+00  0.00000000000E+00  0.00000000000E+00  0.91188000000E+02  0.91188000000E+02 0.  0.
    9900012    2    3    3    0    0 -0.12071022723E+02 -0.32390673658E+02 -0.12685090243E+02  0.54367124887E+02  0.40000092805E+02 0.  0.
        -12    1    3    3    0    0  0.12071022723E+02  0.32390673658E+02  0.12685090243E+02  0.36820875113E+02  0.00000000000E+00 0.  1.
         11    1    4    4    0    0 -0.13089013039E+02 -0.87342650592E+01  0.61512070192E+01  0.16895176723E+02  0.51100000000E-03 0. -1.
        -11    1    4    4    0    0 -0.26501122565E+00 -0.23622588090E+02 -0.57380175680E+01  0.24310938791E+02  0.51100000000E-03 0.  1.
        -12    1    4    4    0    0  0.12830015416E+01 -0.33820509400E-01 -0.13098279694E+02  0.13161009373E+02  0.00000000000E+00 0.  1.
</event>
<event>
 8    1  0.1261983E-006  0.9118800E+02  0.7816164E-02  0.1184000E+00
        -11   -1    0    0    0    0  0.00000000000E+00  0.00000000000E+00  0.45593999997E+02  0.45594000000E+02  0.51100000000E-03 0.  1.
         11   -1    0    0    0    0 -0.00000000000E+00 -0.00000000000E+00 -0.45593999997E+02  0.45594000000E+02  0.51100000000E-03 0. -1.
         23    2    1    2    0    0  0.00000000000E+00  0.00000000000E+00 -0.26645352591E-14  0.91188000000E+02  0.91188000000E+02 0.  0.
    9900012    2    3    3    0    0 -0.34870133596E+02 -0.93446853231E+01  0.72476685557E+01  0.54367108372E+02  0.40000055155E+02 0.  0.
         12    1    3    3    0    0  0.34870133596E+02  0.93446853231E+01 -0.72476685557E+01  0.36820891628E+02  0.00000000000E+00 0. -1.
         11    1    4    4    0    0 -0.34636252292E+02  0.17594149982E+01  0.15684068470E+02  0.38062521172E+02  0.51100000000E-03 0.  1.
        -11    1    4    4    0    0  0.15787935171E-01 -0.93207916949E+01 -0.10176882718E+02  0.13800230041E+02  0.51100000000E-03 0. -1.
        -12    1    4    4    0    0 -0.24966923986E+00 -0.17833086264E+01  0.17404828034E+01  0.25043571581E+01  0.00000000000E+00 0.  1.
</event>
<event>
 8    1  0.1261983E-006  0.9118800E+02  0.7816164E-02  0.1184000E+00
        -11   -1    0    0    0    0  0.00000000000E+00  0.00000000000E+00  0.45593999997E+02  0.45594000000E+02  0.51100000000E-03 0. -1.
         11   -1    0    0    0    0 -0.00000000000E+00 -0.00000000000E+00 -0.45593999997E+02  0.45594000000E+02  0.51100000000E-03 0.  1.
         23    2    1    2    0    0  0.00000000000E+00  0.71054273576E-14 -0.17763568394E-14  0.91188000000E+02  0.91188000000E+02 0.  0.
    9900012    2    3    3    0    0 -0.95128596232E+01  0.32262083332E+02  0.14981436957E+02  0.54367082407E+02  0.39999995963E+02 0.  0.
        -12    1    3    3    0    0  0.95128596232E+01 -0.32262083332E+02 -0.14981436957E+02  0.36820917593E+02  0.00000000000E+00 0.  1.
         11    1    4    4    0    0 -0.94738256191E+01  0.37582819984E+02  0.91131465555E+00  0.38769217486E+02  0.51100000000E-03 0. -1.
        -11    1    4    4    0    0 -0.10894848898E+00 -0.12985095364E+01  0.42274482486E+00  0.13699307418E+01  0.51100000000E-03 0.  1.
        -12    1    4    4    0    0  0.69914484878E-01 -0.40222271158E+01  0.13647377477E+02  0.14227934179E+02  0.00000000000E+00 0.  1.
</event>
<event>
 8    1  0.1261983E-006  0.9118800E+02  0.7816164E-02  0.1184000E+00
        -11   -1    0    0    0    0  0.00000000000E+00  0.00000000000E+00  0.45593999997E+02  0.45594000000E+02  0.51100000000E-03 0. -1.
         11   -1    0    0    0    0 -0.00000000000E+00 -0.00000000000E+00 -0.45593999997E+02  0.45594000000E+02  0.51100000000E-03 0.  1.
         23    2    1    2    0    0 -0.35527136788E-14 -0.17763568394E-14  0.35527136788E-14  0.91188000000E+02  0.91188000000E+02 0.  0.
    9900012    2    3    3    0    0 -0.29302710321E+02  0.10090676708E+02  0.19882389784E+02  0.54367081868E+02  0.39999994734E+02 0.  0.
        -12    1    3    3    0    0  0.29302710321E+02 -0.10090676708E+02 -0.19882389784E+02  0.36820918132E+02  0.00000000000E+00 0.  1.
         11    1    4    4    0    0 -0.32533165108E+01  0.20137828556E+01 -0.20704555812E+01  0.43504225408E+01  0.51100000000E-03 0. -1.
        -11    1    4    4    0    0 -0.67486749947E+01  0.88844240023E+01 -0.84500517966E+01  0.13995748628E+02  0.51100000000E-03 0.  1.
         12    1    4    4    0    0 -0.19300718816E+02 -0.80753015015E+00  0.30402897161E+02  0.36020910699E+02  0.00000000000E+00 0. -1.
</event>
<event>
 8    1  0.1261983E-006  0.9118800E+02  0.7816164E-02  0.1184000E+00
        -11   -1    0    0    0    0  0.00000000000E+00  0.00000000000E+00  0.45593999997E+02  0.45594000000E+02  0.51100000000E-03 0. -1.
         11   -1    0    0    0    0 -0.00000000000E+00 -0.00000000000E+00 -0.45593999997E+02  0.45594000000E+02  0.51100000000E-03 0.  1.
         23    2    1    2    0    0  0.35527136788E-14  0.00000000000E+00 -0.35527136788E-14  0.91188000000E+02  0.91188000000E+02 0.  0.
    9900012    2    3    3    0    0  0.20461640161E+02  0.20523608579E+02  0.22713049208E+02  0.54367084320E+02  0.40000000323E+02 0.  0.
        -12    1    3    3    0    0 -0.20461640161E+02 -0.20523608579E+02 -0.22713049208E+02  0.36820915680E+02  0.00000000000E+00 0.  1.
         11    1    4    4    0    0  0.43978941151E+01  0.70017540326E+01  0.10644496855E+01  0.83366111565E+01  0.51100000000E-03 0. -1.
        -11    1    4    4    0    0  0.17213184793E+02  0.20657899802E+02  0.42931060566E+01  0.27230007617E+02  0.51100000000E-03 0.  1.
         12    1    4    4    0    0 -0.11494387467E+01 -0.71360452548E+01  0.17355493466E+02  0.18800465546E+02  0.00000000000E+00 0. -1.
</event>
<event>
 8    1  0.1261983E-006  0.9118800E+02  0.7816164E-02  0.1184000E+00
        -11   -1    0    0    0    0  0.00000000000E+00  0.00000000000E+00  0.45593999997E+02  0.45594000000E+02  0.51100000000E-03 0.  1.
         11   -1    0    0    0    0 -0.00000000000E+00 -0.00000000000E+00 -0.45593999997E+02  0.45594000000E+02  0.51100000000E-03 0. -1.
         23    2    1    2    0    0  0.00000000000E+00 -0.88817841970E-15  0.00000000000E+00  0.91188000000E+02  0.91188000000E+02 0.  0.
    9900012    2    3    3    0    0  0.36432390210E+02  0.23434541605E+01 -0.47925672647E+01  0.54367088349E+02  0.40000009509E+02 0.  0.
         12    1    3    3    0    0 -0.36432390210E+02 -0.23434541605E+01  0.47925672647E+01  0.36820911651E+02  0.00000000000E+00 0. -1.
         11    1    4    4    0    0  0.13376565656E+02  0.11635630982E+01 -0.16007933533E+02  0.20893547427E+02  0.51100000000E-03 0. -1.
        -11    1    4    4    0    0  0.62674004794E+01  0.98726019859E+01  0.41662351170E+00  0.11701374028E+02  0.51100000000E-03 0.  1.
         12    1    4    4    0    0  0.16788424075E+02 -0.86927109235E+01  0.10798742756E+02  0.21772166893E+02  0.00000000000E+00 0. -1.
</event>
<event>
 8    1  0.1261983E-006  0.9118800E+02  0.7816164E-02  0.1184000E+00
        -11   -1    0    0    0    0  0.00000000000E+00  0.00000000000E+00  0.45593999997E+02  0.45594000000E+02  0.51100000000E-03 0.  1.
         11   -1    0    0    0    0 -0.00000000000E+00 -0.00000000000E+00 -0.45593999997E+02  0.45594000000E+02  0.51100000000E-03 0. -1.
         23    2    1    2    0    0  0.00000000000E+00 -0.17763568394E-14  0.00000000000E+00  0.91188000000E+02  0.91188000000E+02 0.  0.
    9900012    2    3    3    0    0 -0.34534543072E+02  0.11730946053E+02  0.50527735652E+01  0.54367078214E+02  0.39999986405E+02 0.  0.
         12    1    3    3    0    0  0.34534543072E+02 -0.11730946053E+02 -0.50527735652E+01  0.36820921786E+02  0.00000000000E+00 0. -1.
         11    1    4    4    0    0 -0.72085884195E+01  0.12836698777E+02  0.29951534859E-01  0.14722278351E+02  0.51100000000E-03 0. -1.
        -11    1    4    4    0    0 -0.11693121724E+01  0.67685667838E+00 -0.95530184438E+01  0.96480872492E+01  0.51100000000E-03 0.  1.
        -12    1    4    4    0    0 -0.26156642480E+02 -0.17826094028E+01  0.14575840474E+02  0.29996712614E+02  0.00000000000E+00 0.  1.
</event>
<event>
 8    1  0.1261983E-006  0.9118800E+02  0.7816164E-02  0.1184000E+00
        -11   -1    0    0    0    0  0.00000000000E+00  0.00000000000E+00  0.45593999997E+02  0.45594000000E+02  0.51100000000E-03 0. -1.
         11   -1    0    0    0    0 -0.00000000000E+00 -0.00000000000E+00 -0.45593999997E+02  0.45594000000E+02  0.51100000000E-03 0.  1.
         23    2    1    2    0    0  0.71054273576E-14 -0.35527136788E-14  0.00000000000E+00  0.91188000000E+02  0.91188000000E+02 0.  0.
    9900012    2    3    3    0    0  0.26005453207E+02 -0.25840717454E+02 -0.34284287700E+01  0.54367076616E+02  0.39999982761E+02 0.  0.
         12    1    3    3    0    0 -0.26005453207E+02  0.25840717454E+02  0.34284287700E+01  0.36820923384E+02  0.00000000000E+00 0. -1.
         11    1    4    4    0    0 -0.37193435617E+01 -0.95760151701E+01 -0.47783697503E+01  0.11329889708E+02  0.51100000000E-03 0. -1.
        -11    1    4    4    0    0  0.85702395333E+01 -0.14494002753E+02 -0.93548362662E+01  0.19262348852E+02  0.51100000000E-03 0.  1.
        -12    1    4    4    0    0  0.21154557235E+02 -0.17706995306E+01  0.10704777246E+02  0.23774838055E+02  0.00000000000E+00 0.  1.
</event>
<event>
 8    1  0.1261983E-006  0.9118800E+02  0.7816164E-02  0.1184000E+00
        -11   -1    0    0    0    0  0.00000000000E+00  0.00000000000E+00  0.45593999997E+02  0.45594000000E+02  0.51100000000E-03 0. -1.
         11   -1    0    0    0    0 -0.00000000000E+00 -0.00000000000E+00 -0.45593999997E+02  0.45594000000E+02  0.51100000000E-03 0.  1.
         23    2    1    2    0    0  0.35527136788E-14  0.33306690739E-15  0.00000000000E+00  0.91188000000E+02  0.91188000000E+02 0.  0.
    9900012    2    3    3    0    0 -0.19173481692E+02 -0.13164325919E+00 -0.31434727434E+02  0.54367057332E+02  0.39999938799E+02 0.  0.
         12    1    3    3    0    0  0.19173481692E+02  0.13164325919E+00  0.31434727434E+02  0.36820942668E+02  0.00000000000E+00 0. -1.
         11    1    4    4    0    0  0.40158371739E+01  0.14710473235E+01  0.15928749927E+01  0.45637900300E+01  0.51100000000E-03 0. -1.
        -11    1    4    4    0    0 -0.23273599678E+02  0.10237785459E+02 -0.23066758790E+02  0.34329987685E+02  0.51100000000E-03 0.  1.
        -12    1    4    4    0    0  0.84280812306E-01 -0.11840476042E+02 -0.99608436363E+01  0.15473279617E+02  0.00000000000E+00 0.  1.
</event>
<event>
 8    1  0.1261983E-006  0.9118800E+02  0.7816164E-02  0.1184000E+00
        -11   -1    0    0    0    0  0.00000000000E+00  0.00000000000E+00  0.45593999997E+02  0.45594000000E+02  0.51100000000E-03 0.  1.
         11   -1    0    0    0    0 -0.00000000000E+00 -0.00000000000E+00 -0.45593999997E+02  0.45594000000E+02  0.51100000000E-03 0. -1.
         23    2    1    2    0    0  0.00000000000E+00 -0.17763568394E-14  0.00000000000E+00  0.91188000000E+02  0.91188000000E+02 0.  0.
    9900012    2    3    3    0    0  0.12991855870E+02 -0.11645550141E+02  0.32424874662E+02  0.54367086732E+02  0.40000005822E+02 0.  0.
         12    1    3    3    0    0 -0.12991855870E+02  0.11645550141E+02 -0.32424874662E+02  0.36820913268E+02  0.00000000000E+00 0. -1.
         11    1    4    4    0    0  0.19235269966E+02  0.30847961946E+01  0.26653358813E+02  0.33013832169E+02  0.51100000000E-03 0. -1.
        -11    1    4    4    0    0  0.80250308929E+00 -0.12947541711E+02  0.54715864854E+01  0.14079101764E+02  0.51100000000E-03 0.  1.
         12    1    4    4    0    0 -0.70459171852E+01 -0.17828046248E+01  0.29992936423E+00  0.72741527984E+01  0.00000000000E+00 0. -1.
</event>
<event>
 8    1  0.1261983E-006  0.9118800E+02  0.7816164E-02  0.1184000E+00
        -11   -1    0    0    0    0  0.00000000000E+00  0.00000000000E+00  0.45593999997E+02  0.45594000000E+02  0.51100000000E-03 0.  1.
         11   -1    0    0    0    0 -0.00000000000E+00 -0.00000000000E+00 -0.45593999997E+02  0.45594000000E+02  0.51100000000E-03 0. -1.
         23    2    1    2    0    0  0.00000000000E+00 -0.71054273576E-14  0.17763568394E-14  0.91188000000E+02  0.91188000000E+02 0.  0.
    9900012    2    3    3    0    0  0.43343806446E+01  0.34352132977E+02  0.12526534893E+02  0.54367218204E+02  0.40000305538E+02 0.  0.
         12    1    3    3    0    0 -0.43343806446E+01 -0.34352132977E+02 -0.12526534893E+02  0.36820781796E+02  0.00000000000E+00 0. -1.
         11    1    4    4    0    0  0.50134688798E+01  0.58974402517E+01  0.10240782512E+02  0.12836989462E+02  0.51100000000E-03 0. -1.
        -11    1    4    4    0    0 -0.53560715431E+01  0.32772985458E+02  0.65775246186E+01  0.33852915806E+02  0.51100000000E-03 0.  1.
         12    1    4    4    0    0  0.46769833079E+01 -0.43182927320E+01 -0.42917722372E+01  0.76773129360E+01  0.00000000000E+00 0. -1.
</event>
<event>
 8    1  0.1261983E-006  0.9118800E+02  0.7816164E-02  0.1184000E+00
        -11   -1    0    0    0    0  0.00000000000E+00  0.00000000000E+00  0.45593999997E+02  0.45594000000E+02  0.51100000000E-03 0.  1.
         11   -1    0    0    0    0 -0.00000000000E+00 -0.00000000000E+00 -0.45593999997E+02  0.45594000000E+02  0.51100000000E-03 0. -1.
         23    2    1    2    0    0 -0.71054273576E-14  0.44408920985E-15  0.00000000000E+00  0.91188000000E+02  0.91188000000E+02 0.  0.
    9900012    2    3    3    0    0 -0.35016931110E+02  0.39505070110E+01 -0.10676449104E+02  0.54367101919E+02  0.40000040445E+02 0.  0.
        -12    1    3    3    0    0  0.35016931110E+02 -0.39505070110E+01  0.10676449104E+02  0.36820898081E+02  0.00000000000E+00 0.  1.
         11    1    4    4    0    0 -0.96395393868E+01 -0.23568436848E+01 -0.89094482000E+00  0.99633937329E+01  0.51100000000E-03 0. -1.
        -11    1    4    4    0    0  0.36755344809E+01  0.53976200309E+01  0.80000892583E+01  0.10326920360E+02  0.51100000000E-03 0.  1.
         12    1    4    4    0    0 -0.29052926204E+02  0.90973066485E+00 -0.17785593542E+02  0.34076787826E+02  0.00000000000E+00 0. -1.
</event>
<event>
 8    1  0.1261983E-006  0.9118800E+02  0.7816164E-02  0.1184000E+00
        -11   -1    0    0    0    0  0.00000000000E+00  0.00000000000E+00  0.45593999997E+02  0.45594000000E+02  0.51100000000E-03 0.  1.
         11   -1    0    0    0    0 -0.00000000000E+00 -0.00000000000E+00 -0.45593999997E+02  0.45594000000E+02  0.51100000000E-03 0. -1.
         23    2    1    2    0    0  0.00000000000E+00  0.00000000000E+00 -0.35527136788E-14  0.91188000000E+02  0.91188000000E+02 0.  0.
    9900012    2    3    3    0    0  0.18532517224E+02 -0.24569264885E+02  0.20215752838E+02  0.54367086996E+02  0.40000006425E+02 0.  0.
         12    1    3    3    0    0 -0.18532517224E+02  0.24569264885E+02 -0.20215752838E+02  0.36820913004E+02  0.00000000000E+00 0. -1.
         11    1    4    4    0    0  0.67071779019E+01  0.15360406377E+01  0.11859759022E+01  0.69822772324E+01  0.51100000000E-03 0. -1.
        -11    1    4    4    0    0  0.36472203623E+01  0.30485645199E+01  0.16304396620E+02  0.16983206746E+02  0.51100000000E-03 0.  1.
        -12    1    4    4    0    0  0.81781189596E+01 -0.29153870042E+02  0.27253803160E+01  0.30401603017E+02  0.00000000000E+00 0.  1.
</event>
<event>
 8    1  0.1261983E-006  0.9118800E+02  0.7816164E-02  0.1184000E+00
        -11   -1    0    0    0    0  0.00000000000E+00  0.00000000000E+00  0.45593999997E+02  0.45594000000E+02  0.51100000000E-03 0.  1.
         11   -1    0    0    0    0 -0.00000000000E+00 -0.00000000000E+00 -0.45593999997E+02  0.45594000000E+02  0.51100000000E-03 0. -1.
         23    2    1    2    0    0  0.00000000000E+00  0.00000000000E+00 -0.88817841970E-15  0.91188000000E+02  0.91188000000E+02 0.  0.
    9900012    2    3    3    0    0  0.15766739753E+01  0.36060827190E+02 -0.72739129139E+01  0.54367096052E+02  0.40000027070E+02 0.  0.
         12    1    3    3    0    0 -0.15766739753E+01 -0.36060827190E+02  0.72739129139E+01  0.36820903948E+02  0.00000000000E+00 0. -1.
         11    1    4    4    0    0 -0.66340674360E+01  0.53738574573E+01  0.63289641303E+01  0.10627557666E+02  0.51100000000E-03 0. -1.
        -11    1    4    4    0    0  0.35813525040E+01  0.11104074355E+02  0.80538636650E+01  0.14177139106E+02  0.51100000000E-03 0.  1.
        -12    1    4    4    0    0  0.46293889073E+01  0.19582895378E+02 -0.21656740709E+02  0.29562399280E+02  0.00000000000E+00 0.  1.
</event>
<event>
 8    1  0.1261983E-006  0.9118800E+02  0.7816164E-02  0.1184000E+00
        -11   -1    0    0    0    0  0.00000000000E+00  0.00000000000E+00  0.45593999997E+02  0.45594000000E+02  0.51100000000E-03 0. -1.
         11   -1    0    0    0    0 -0.00000000000E+00 -0.00000000000E+00 -0.45593999997E+02  0.45594000000E+02  0.51100000000E-03 0.  1.
         23    2    1    2    0    0  0.00000000000E+00  0.00000000000E+00 -0.88817841970E-15  0.91188000000E+02  0.91188000000E+02 0.  0.
    9900012    2    3    3    0    0  0.35990583823E+02  0.66967504904E+01  0.39511360671E+01  0.54367081118E+02  0.39999993025E+02 0.  0.
        -12    1    3    3    0    0 -0.35990583823E+02 -0.66967504904E+01 -0.39511360671E+01  0.36820918882E+02  0.00000000000E+00 0.  1.
         11    1    4    4    0    0  0.23080073836E+02 -0.21699035667E+01  0.46245405904E+01  0.23638626561E+02  0.51100000000E-03 0. -1.
        -11    1    4    4    0    0  0.10524488373E+02  0.18230441555E+02 -0.13987750563E+00  0.21050734447E+02  0.51100000000E-03 0.  1.
        -12    1    4    4    0    0  0.23860216147E+01 -0.93637874976E+01 -0.53352701770E+00  0.96777201099E+01  0.00000000000E+00 0.  1.
</event>
<event>
 8    1  0.1261983E-006  0.9118800E+02  0.7816164E-02  0.1184000E+00
        -11   -1    0    0    0    0  0.00000000000E+00  0.00000000000E+00  0.45593999997E+02  0.45594000000E+02  0.51100000000E-03 0.  1.
         11   -1    0    0    0    0 -0.00000000000E+00 -0.00000000000E+00 -0.45593999997E+02  0.45594000000E+02  0.51100000000E-03 0. -1.
         23    2    1    2    0    0  0.00000000000E+00 -0.35527136788E-14  0.00000000000E+00  0.91188000000E+02  0.91188000000E+02 0.  0.
    9900012    2    3    3    0    0 -0.25028936960E+01  0.15567758932E+02  0.33274024803E+02  0.54367077665E+02  0.39999985152E+02 0.  0.
         12    1    3    3    0    0  0.25028936960E+01 -0.15567758932E+02 -0.33274024803E+02  0.36820922335E+02  0.00000000000E+00 0. -1.
         11    1    4    4    0    0 -0.77151562946E+01  0.17761680098E+01  0.41797949279E+01  0.89526027137E+01  0.51100000000E-03 0. -1.
        -11    1    4    4    0    0 -0.60479467601E+01  0.20335530650E+02  0.13720530764E+02  0.25265874842E+02  0.51100000000E-03 0.  1.
        -12    1    4    4    0    0  0.11260209359E+02 -0.65439397285E+01  0.15373699111E+02  0.20148600109E+02  0.00000000000E+00 0.  1.
</event>
<event>
 8    1  0.1261983E-006  0.9118800E+02  0.7816164E-02  0.1184000E+00
        -11   -1    0    0    0    0  0.00000000000E+00  0.00000000000E+00  0.45593999997E+02  0.45594000000E+02  0.51100000000E-03 0. -1.
         11   -1    0    0    0    0 -0.00000000000E+00 -0.00000000000E+00 -0.45593999997E+02  0.45594000000E+02  0.51100000000E-03 0.  1.
         23    2    1    2    0    0  0.00000000000E+00  0.31086244690E-14 -0.17763568394E-14  0.91188000000E+02  0.91188000000E+02 0.  0.
    9900012    2    3    3    0    0  0.33432057331E+02 -0.26169346594E+01  0.15206215768E+02  0.54367084716E+02  0.40000001226E+02 0.  0.
        -12    1    3    3    0    0 -0.33432057331E+02  0.26169346594E+01 -0.15206215768E+02  0.36820915284E+02  0.00000000000E+00 0.  1.
         11    1    4    4    0    0  0.10966593490E+02 -0.17260617032E+02  0.16788170110E+02  0.26458226112E+02  0.51100000000E-03 0.  1.
        -11    1    4    4    0    0  0.10365320997E+02  0.10637488677E+02 -0.27661548432E+01  0.15107867408E+02  0.51100000000E-03 0. -1.
        -12    1    4    4    0    0  0.12100142844E+02  0.40061936955E+01  0.11842005008E+01  0.12800991196E+02  0.00000000000E+00 0.  1.
</event>
<event>
 8    1  0.1261983E-006  0.9118800E+02  0.7816164E-02  0.1184000E+00
        -11   -1    0    0    0    0  0.00000000000E+00  0.00000000000E+00  0.45593999997E+02  0.45594000000E+02  0.51100000000E-03 0.  1.
         11   -1    0    0    0    0 -0.00000000000E+00 -0.00000000000E+00 -0.45593999997E+02  0.45594000000E+02  0.51100000000E-03 0. -1.
         23    2    1    2    0    0  0.35527136788E-14  0.00000000000E+00 -0.17763568394E-14  0.91188000000E+02  0.91188000000E+02 0.  0.
    9900012    2    3    3    0    0 -0.29399606447E+02 -0.19768967119E+02  0.10031540448E+02  0.54367072201E+02  0.39999972697E+02 0.  0.
         12    1    3    3    0    0  0.29399606447E+02  0.19768967119E+02 -0.10031540448E+02  0.36820927799E+02  0.00000000000E+00 0. -1.
         11    1    4    4    0    0  0.50169034686E+01  0.10089002788E+01  0.92323574093E+01  0.10555738903E+02  0.51100000000E-03 0. -1.
        -11    1    4    4    0    0 -0.11432694939E+02 -0.14430915727E+02  0.60813610092E+01  0.19389192719E+02  0.51100000000E-03 0.  1.
        -12    1    4    4    0    0 -0.22983814976E+02 -0.63469516706E+01 -0.52821779704E+01  0.24422140579E+02  0.00000000000E+00 0.  1.
</event>
<event>
 8    1  0.1261983E-006  0.9118800E+02  0.7816164E-02  0.1184000E+00
        -11   -1    0    0    0    0  0.00000000000E+00  0.00000000000E+00  0.45593999997E+02  0.45594000000E+02  0.51100000000E-03 0.  1.
         11   -1    0    0    0    0 -0.00000000000E+00 -0.00000000000E+00 -0.45593999997E+02  0.45594000000E+02  0.51100000000E-03 0. -1.
         23    2    1    2    0    0  0.35527136788E-14  0.00000000000E+00  0.00000000000E+00  0.91188000000E+02  0.91188000000E+02 0.  0.
    9900012    2    3    3    0    0  0.31258586305E+02  0.16983178821E+02 -0.95000913451E+01  0.54367091318E+02  0.40000016277E+02 0.  0.
        -12    1    3    3    0    0 -0.31258586305E+02 -0.16983178821E+02  0.95000913451E+01  0.36820908682E+02  0.00000000000E+00 0.  1.
         11    1    4    4    0    0  0.15068237630E+02  0.16872774129E+02  0.80682240683E+00  0.22636105115E+02  0.51100000000E-03 0.  1.
        -11    1    4    4    0    0  0.10600653308E+02 -0.12368579363E+02 -0.47182049653E+01  0.16959276646E+02  0.51100000000E-03 0. -1.
         12    1    4    4    0    0  0.55896953669E+01  0.12478984054E+02 -0.55887087867E+01  0.14771709557E+02  0.00000000000E+00 0. -1.
</event>
<event>
 8    1  0.1261983E-006  0.9118800E+02  0.7816164E-02  0.1184000E+00
        -11   -1    0    0    0    0  0.00000000000E+00  0.00000000000E+00  0.45593999997E+02  0.45594000000E+02  0.51100000000E-03 0.  1.
         11   -1    0    0    0    0 -0.00000000000E+00 -0.00000000000E+00 -0.45593999997E+02  0.45594000000E+02  0.51100000000E-03 0. -1.
         23    2    1    2    0    0 -0.35527136788E-14  0.88817841970E-15 -0.35527136788E-14  0.91188000000E+02  0.91188000000E+02 0.  0.
    9900012    2    3    3    0    0  0.28763244372E+02 -0.64605635468E+01 -0.22061605076E+02  0.54367115618E+02  0.40000071674E+02 0.  0.
         12    1    3    3    0    0 -0.28763244372E+02  0.64605635468E+01  0.22061605076E+02  0.36820884382E+02  0.00000000000E+00 0. -1.
         11    1    4    4    0    0  0.34210139023E+01  0.50709030727E+01 -0.41610452047E+00  0.61311122421E+01  0.51100000000E-03 0. -1.
        -11    1    4    4    0    0  0.28350433004E+02  0.16248892852E+00 -0.69018711328E+01  0.29178918409E+02  0.51100000000E-03 0.  1.
         12    1    4    4    0    0 -0.30082025341E+01 -0.11693955548E+02 -0.14743629423E+02  0.19057084966E+02  0.00000000000E+00 0. -1.
</event>
<event>
 8    1  0.1261983E-006  0.9118800E+02  0.7816164E-02  0.1184000E+00
        -11   -1    0    0    0    0  0.00000000000E+00  0.00000000000E+00  0.45593999997E+02  0.45594000000E+02  0.51100000000E-03 0.  1.
         11   -1    0    0    0    0 -0.00000000000E+00 -0.00000000000E+00 -0.45593999997E+02  0.45594000000E+02  0.51100000000E-03 0. -1.
         23    2    1    2    0    0  0.00000000000E+00  0.44408920985E-15  0.35527136788E-14  0.91188000000E+02  0.91188000000E+02 0.  0.
    9900012    2    3    3    0    0  0.23373138402E+02  0.37592333079E+01  0.28201814935E+02  0.54367111914E+02  0.40000063231E+02 0.  0.
         12    1    3    3    0    0 -0.23373138402E+02 -0.37592333079E+01 -0.28201814935E+02  0.36820888086E+02  0.00000000000E+00 0. -1.
         11    1    4    4    0    0  0.12646109992E+02  0.26261400967E+00  0.21330628576E+01  0.12827432380E+02  0.51100000000E-03 0. -1.
        -11    1    4    4    0    0 -0.88595931698E+01 -0.43978575550E+01  0.14229841789E+02  0.17329799186E+02  0.51100000000E-03 0.  1.
        -12    1    4    4    0    0  0.19586621580E+02  0.78944768532E+01  0.11838910288E+02  0.24209880349E+02  0.00000000000E+00 0.  1.
</event>
<event>
 8    1  0.1261983E-006  0.9118800E+02  0.7816164E-02  0.1184000E+00
        -11   -1    0    0    0    0  0.00000000000E+00  0.00000000000E+00  0.45593999997E+02  0.45594000000E+02  0.51100000000E-03 0. -1.
         11   -1    0    0    0    0 -0.00000000000E+00 -0.00000000000E+00 -0.45593999997E+02  0.45594000000E+02  0.51100000000E-03 0.  1.
         23    2    1    2    0    0  0.00000000000E+00  0.71054273576E-14  0.15543122345E-14  0.91188000000E+02  0.91188000000E+02 0.  0.
    9900012    2    3    3    0    0 -0.71794107641E+01  0.36091157096E+02  0.12899207710E+01  0.54367089432E+02  0.40000011978E+02 0.  0.
        -12    1    3    3    0    0  0.71794107641E+01 -0.36091157096E+02 -0.12899207710E+01  0.36820910568E+02  0.00000000000E+00 0.  1.
         11    1    4    4    0    0 -0.74084426011E+00  0.66278357746E+01  0.12276024925E+02  0.13970606483E+02  0.51100000000E-03 0. -1.
        -11    1    4    4    0    0 -0.13413093223E+02  0.21132173945E+02 -0.14562711858E+02  0.28957769637E+02  0.51100000000E-03 0.  1.
        -12    1    4    4    0    0  0.69745267187E+01  0.83311473768E+01  0.35766077044E+01  0.11438713312E+02  0.00000000000E+00 0.  1.
</event>
<event>
 8    1  0.1261983E-006  0.9118800E+02  0.7816164E-02  0.1184000E+00
        -11   -1    0    0    0    0  0.00000000000E+00  0.00000000000E+00  0.45593999997E+02  0.45594000000E+02  0.51100000000E-03 0.  1.
         11   -1    0    0    0    0 -0.00000000000E+00 -0.00000000000E+00 -0.45593999997E+02  0.45594000000E+02  0.51100000000E-03 0. -1.
         23    2    1    2    0    0  0.00000000000E+00  0.71054273576E-14 -0.17763568394E-14  0.91188000000E+02  0.91188000000E+02 0.  0.
    9900012    2    3    3    0    0 -0.10731217679E+02 -0.32084691079E+02  0.14532517570E+02  0.54367075223E+02  0.39999979586E+02 0.  0.
         12    1    3    3    0    0  0.10731217679E+02  0.32084691079E+02 -0.14532517570E+02  0.36820924777E+02  0.00000000000E+00 0. -1.
         11    1    4    4    0    0 -0.22681990098E+02 -0.16094828274E+02  0.29274123914E+01  0.27965799032E+02  0.51100000000E-03 0. -1.
        -11    1    4    4    0    0  0.87827613487E+01 -0.22352772159E+01  0.73221699961E+01  0.11651074408E+02  0.51100000000E-03 0.  1.
        -12    1    4    4    0    0  0.31680110696E+01 -0.13754585589E+02  0.42829351829E+01  0.14750201783E+02  0.00000000000E+00 0.  1.
</event>
<event>
 8    1  0.1261983E-006  0.9118800E+02  0.7816164E-02  0.1184000E+00
        -11   -1    0    0    0    0  0.00000000000E+00  0.00000000000E+00  0.45593999997E+02  0.45594000000E+02  0.51100000000E-03 0.  1.
         11   -1    0    0    0    0 -0.00000000000E+00 -0.00000000000E+00 -0.45593999997E+02  0.45594000000E+02  0.51100000000E-03 0. -1.
         23    2    1    2    0    0  0.00000000000E+00 -0.71054273576E-14  0.00000000000E+00  0.91188000000E+02  0.91188000000E+02 0.  0.
    9900012    2    3    3    0    0  0.24908135530E+02  0.21677608676E+02  0.16292524784E+02  0.54367077994E+02  0.39999985904E+02 0.  0.
         12    1    3    3    0    0 -0.24908135530E+02 -0.21677608676E+02 -0.16292524784E+02  0.36820922006E+02  0.00000000000E+00 0. -1.
         11    1    4    4    0    0  0.45619072598E+01 -0.30906537977E+01 -0.64395111466E+01  0.84752842320E+01  0.51100000000E-03 0. -1.
        -11    1    4    4    0    0  0.29472278385E+01 -0.31389585974E+01 -0.19956851787E+01  0.47457320407E+01  0.51100000000E-03 0.  1.
        -12    1    4    4    0    0  0.17399000432E+02  0.27907221071E+02  0.24727721110E+02  0.41146061722E+02  0.00000000000E+00 0.  1.
</event>
<event>
 8    1  0.1261983E-006  0.9118800E+02  0.7816164E-02  0.1184000E+00
        -11   -1    0    0    0    0  0.00000000000E+00  0.00000000000E+00  0.45593999997E+02  0.45594000000E+02  0.51100000000E-03 0. -1.
         11   -1    0    0    0    0 -0.00000000000E+00 -0.00000000000E+00 -0.45593999997E+02  0.45594000000E+02  0.51100000000E-03 0.  1.
         23    2    1    2    0    0  0.00000000000E+00  0.35527136788E-14  0.00000000000E+00  0.91188000000E+02  0.91188000000E+02 0.  0.
    9900012    2    3    3    0    0  0.13827541583E+02 -0.12786792452E+02  0.31639793720E+02  0.54367088630E+02  0.40000010151E+02 0.  0.
        -12    1    3    3    0    0 -0.13827541583E+02  0.12786792452E+02 -0.31639793720E+02  0.36820911370E+02  0.00000000000E+00 0.  1.
         11    1    4    4    0    0  0.86883788373E+00  0.53476395394E+01  0.76565645160E+00  0.54715955602E+01  0.51100000000E-03 0. -1.
        -11    1    4    4    0    0  0.30903876121E+00 -0.13819404684E+00 -0.59725450555E+01  0.59821314974E+01  0.51100000000E-03 0.  1.
         12    1    4    4    0    0  0.12649664938E+02 -0.17996237945E+02  0.36846682324E+02  0.42913361573E+02  0.00000000000E+00 0. -1.
</event>
<event>
 8    1  0.1261983E-006  0.9118800E+02  0.7816164E-02  0.1184000E+00
        -11   -1    0    0    0    0  0.00000000000E+00  0.00000000000E+00  0.45593999997E+02  0.45594000000E+02  0.51100000000E-03 0.  1.
         11   -1    0    0    0    0 -0.00000000000E+00 -0.00000000000E+00 -0.45593999997E+02  0.45594000000E+02  0.51100000000E-03 0. -1.
         23    2    1    2    0    0  0.00000000000E+00 -0.71054273576E-14  0.00000000000E+00  0.91188000000E+02  0.91188000000E+02 0.  0.
    9900012    2    3    3    0    0 -0.20537913866E+02  0.23387809221E+02  0.19671964181E+02  0.54367058936E+02  0.39999942456E+02 0.  0.
         12    1    3    3    0    0  0.20537913866E+02 -0.23387809221E+02 -0.19671964181E+02  0.36820941064E+02  0.00000000000E+00 0. -1.
         11    1    4    4    0    0  0.48170522456E+01  0.63045336377E+01  0.48772519060E+01  0.93133626120E+01  0.51100000000E-03 0. -1.
        -11    1    4    4    0    0 -0.16832469716E+02 -0.19606275836E+01 -0.35010388254E+01  0.17304143157E+02  0.51100000000E-03 0.  1.
        -12    1    4    4    0    0 -0.85224963951E+01  0.19043903167E+02  0.18295751100E+02  0.27749553167E+02  0.00000000000E+00 0.  1.
</event>
<event>
 8    1  0.1261983E-006  0.9118800E+02  0.7816164E-02  0.1184000E+00
        -11   -1    0    0    0    0  0.00000000000E+00  0.00000000000E+00  0.45593999997E+02  0.45594000000E+02  0.51100000000E-03 0. -1.
         11   -1    0    0    0    0 -0.00000000000E+00 -0.00000000000E+00 -0.45593999997E+02  0.45594000000E+02  0.51100000000E-03 0.  1.
         23    2    1    2    0    0 -0.71054273576E-14  0.88817841970E-15  0.00000000000E+00  0.91188000000E+02  0.91188000000E+02 0.  0.
    9900012    2    3    3    0    0 -0.34872237392E+02  0.42347139744E+01  0.11035133981E+02  0.54367083049E+02  0.39999997426E+02 0.  0.
        -12    1    3    3    0    0  0.34872237392E+02 -0.42347139744E+01 -0.11035133981E+02  0.36820916951E+02  0.00000000000E+00 0.  1.
         11    1    4    4    0    0 -0.11290660384E+01  0.91880012786E+01 -0.51241023818E+01  0.10580670257E+02  0.51100000000E-03 0. -1.
        -11    1    4    4    0    0 -0.62793239962E+00 -0.47683505279E+01 -0.28619632660E+01  0.55966329031E+01  0.51100000000E-03 0.  1.
         12    1    4    4    0    0 -0.33115238954E+02 -0.18493677630E+00  0.19021199629E+02  0.38189779888E+02  0.00000000000E+00 0. -1.
</event>
<event>
 8    1  0.1261983E-006  0.9118800E+02  0.7816164E-02  0.1184000E+00
        -11   -1    0    0    0    0  0.00000000000E+00  0.00000000000E+00  0.45593999997E+02  0.45594000000E+02  0.51100000000E-03 0. -1.
         11   -1    0    0    0    0 -0.00000000000E+00 -0.00000000000E+00 -0.45593999997E+02  0.45594000000E+02  0.51100000000E-03 0.  1.
         23    2    1    2    0    0  0.88817841970E-15  0.35527136788E-14  0.00000000000E+00  0.91188000000E+02  0.91188000000E+02 0.  0.
    9900012    2    3    3    0    0 -0.24341031046E+01  0.30042709332E+02  0.21149239295E+02  0.54367087943E+02  0.40000008584E+02 0.  0.
         12    1    3    3    0    0  0.24341031046E+01 -0.30042709332E+02 -0.21149239295E+02  0.36820912057E+02  0.00000000000E+00 0. -1.
         11    1    4    4    0    0 -0.82304774553E+01  0.16167579348E+02  0.23695671487E+02  0.29843194008E+02  0.51100000000E-03 0. -1.
        -11    1    4    4    0    0 -0.89470834410E+00  0.59552313030E+01 -0.10056484403E+02  0.11721696196E+02  0.51100000000E-03 0.  1.
        -12    1    4    4    0    0  0.66910826948E+01  0.79198986814E+01  0.75100522103E+01  0.12802197739E+02  0.00000000000E+00 0.  1.
</event>
<event>
 8    1  0.1261983E-006  0.9118800E+02  0.7816164E-02  0.1184000E+00
        -11   -1    0    0    0    0  0.00000000000E+00  0.00000000000E+00  0.45593999997E+02  0.45594000000E+02  0.51100000000E-03 0.  1.
         11   -1    0    0    0    0 -0.00000000000E+00 -0.00000000000E+00 -0.45593999997E+02  0.45594000000E+02  0.51100000000E-03 0. -1.
         23    2    1    2    0    0  0.00000000000E+00  0.00000000000E+00 -0.88817841970E-15  0.91188000000E+02  0.91188000000E+02 0.  0.
    9900012    2    3    3    0    0 -0.17565120615E+02 -0.32009529934E+02  0.47578420390E+01  0.54367074839E+02  0.39999978711E+02 0.  0.
         12    1    3    3    0    0  0.17565120615E+02  0.32009529934E+02 -0.47578420390E+01  0.36820925161E+02  0.00000000000E+00 0. -1.
         11    1    4    4    0    0  0.17378627264E+01 -0.10736675205E+02 -0.65306660716E+01  0.12686447924E+02  0.51100000000E-03 0. -1.
        -11    1    4    4    0    0 -0.17258485527E+02  0.78524156873E+00  0.11397059179E+01  0.17313892019E+02  0.51100000000E-03 0.  1.
        -12    1    4    4    0    0 -0.20444978147E+01 -0.22058096298E+02  0.10148802193E+02  0.24366734897E+02  0.00000000000E+00 0.  1.
</event>
<event>
 8    1  0.1261983E-006  0.9118800E+02  0.7816164E-02  0.1184000E+00
        -11   -1    0    0    0    0  0.00000000000E+00  0.00000000000E+00  0.45593999997E+02  0.45594000000E+02  0.51100000000E-03 0.  1.
         11   -1    0    0    0    0 -0.00000000000E+00 -0.00000000000E+00 -0.45593999997E+02  0.45594000000E+02  0.51100000000E-03 0. -1.
         23    2    1    2    0    0  0.35527136788E-14 -0.88817841970E-15 -0.35527136788E-14  0.91188000000E+02  0.91188000000E+02 0.  0.
    9900012    2    3    3    0    0  0.20478061979E+02 -0.77023268686E+01 -0.29615941937E+02  0.54367070104E+02  0.39999967916E+02 0.  0.
        -12    1    3    3    0    0 -0.20478061979E+02  0.77023268686E+01  0.29615941937E+02  0.36820929896E+02  0.00000000000E+00 0.  1.
         11    1    4    4    0    0  0.68461473354E+01 -0.35267491546E+01  0.73930182701E+01  0.10675411577E+02  0.51100000000E-03 0. -1.
        -11    1    4    4    0    0  0.51108060575E+01  0.49626635605E+00  0.29442120631E+00  0.51432774533E+01  0.51100000000E-03 0.  1.
         12    1    4    4    0    0  0.85211085857E+01 -0.46718440700E+01 -0.37303381413E+02  0.38548381074E+02  0.00000000000E+00 0. -1.
</event>
<event>
 8    1  0.1261983E-006  0.9118800E+02  0.7816164E-02  0.1184000E+00
        -11   -1    0    0    0    0  0.00000000000E+00  0.00000000000E+00  0.45593999997E+02  0.45594000000E+02  0.51100000000E-03 0.  1.
         11   -1    0    0    0    0 -0.00000000000E+00 -0.00000000000E+00 -0.45593999997E+02  0.45594000000E+02  0.51100000000E-03 0. -1.
         23    2    1    2    0    0  0.00000000000E+00  0.00000000000E+00 -0.71054273576E-14  0.91188000000E+02  0.91188000000E+02 0.  0.
    9900012    2    3    3    0    0 -0.90604326623E+01 -0.86999832930E+01  0.34612263861E+02  0.54366946798E+02  0.39999686814E+02 0.  0.
         12    1    3    3    0    0  0.90604326623E+01  0.86999832930E+01 -0.34612263861E+02  0.36821053202E+02  0.00000000000E+00 0. -1.
         11    1    4    4    0    0 -0.35170400198E+01 -0.21857035602E+01 -0.23117745070E+01  0.47424858657E+01  0.51100000000E-03 0. -1.
        -11    1    4    4    0    0 -0.16341864447E+02 -0.81436967644E+01  0.10570223960E+02  0.21097534582E+02  0.51100000000E-03 0.  1.
        -12    1    4    4    0    0  0.10798471804E+02  0.16294170315E+01  0.26353814408E+02  0.28526926350E+02  0.00000000000E+00 0.  1.
</event>
<event>
 8    1  0.1261983E-006  0.9118800E+02  0.7816164E-02  0.1184000E+00
        -11   -1    0    0    0    0  0.00000000000E+00  0.00000000000E+00  0.45593999997E+02  0.45594000000E+02  0.51100000000E-03 0. -1.
         11   -1    0    0    0    0 -0.00000000000E+00 -0.00000000000E+00 -0.45593999997E+02  0.45594000000E+02  0.51100000000E-03 0.  1.
         23    2    1    2    0    0  0.00000000000E+00 -0.88817841970E-15 -0.35527136788E-14  0.91188000000E+02  0.91188000000E+02 0.  0.
    9900012    2    3    3    0    0 -0.34271383728E+02  0.25934036124E+01 -0.13211035459E+02  0.54367014912E+02  0.39999842095E+02 0.  0.
        -12    1    3    3    0    0  0.34271383728E+02 -0.25934036124E+01  0.13211035459E+02  0.36820985088E+02  0.00000000000E+00 0.  1.
         11    1    4    4    0    0 -0.20662160705E+01  0.45919963095E+01  0.17095830749E+00  0.50383435731E+01  0.51100000000E-03 0. -1.
        -11    1    4    4    0    0 -0.26307358326E+02  0.60552614776E+01  0.58849640117E+01  0.27629261578E+02  0.51100000000E-03 0.  1.
        -12    1    4    4    0    0 -0.58978093319E+01 -0.80538541747E+01 -0.19266957778E+02  0.21699409762E+02  0.00000000000E+00 0.  1.
</event>
<event>
 8    1  0.1261983E-006  0.9118800E+02  0.7816164E-02  0.1184000E+00
        -11   -1    0    0    0    0  0.00000000000E+00  0.00000000000E+00  0.45593999997E+02  0.45594000000E+02  0.51100000000E-03 0.  1.
         11   -1    0    0    0    0 -0.00000000000E+00 -0.00000000000E+00 -0.45593999997E+02  0.45594000000E+02  0.51100000000E-03 0. -1.
         23    2    1    2    0    0  0.00000000000E+00  0.00000000000E+00 -0.88817841970E-15  0.91188000000E+02  0.91188000000E+02 0.  0.
    9900012    2    3    3    0    0  0.19422977186E+02 -0.30451400142E+02  0.71582182448E+01  0.54367083365E+02  0.39999998148E+02 0.  0.
         12    1    3    3    0    0 -0.19422977186E+02  0.30451400142E+02 -0.71582182448E+01  0.36820916635E+02  0.00000000000E+00 0. -1.
         11    1    4    4    0    0 -0.83784105067E+01  0.15400674998E+01 -0.48502469430E+00  0.85325740394E+01  0.51100000000E-03 0. -1.
        -11    1    4    4    0    0  0.28639195125E+02 -0.24606383970E+02  0.62209008973E+01  0.38267182255E+02  0.51100000000E-03 0.  1.
        -12    1    4    4    0    0 -0.83780743148E+00 -0.73850836711E+01  0.14223420418E+01  0.75673270714E+01  0.00000000000E+00 0.  1.
</event>
<event>
 8    1  0.1261983E-006  0.9118800E+02  0.7816164E-02  0.1184000E+00
        -11   -1    0    0    0    0  0.00000000000E+00  0.00000000000E+00  0.45593999997E+02  0.45594000000E+02  0.51100000000E-03 0.  1.
         11   -1    0    0    0    0 -0.00000000000E+00 -0.00000000000E+00 -0.45593999997E+02  0.45594000000E+02  0.51100000000E-03 0. -1.
         23    2    1    2    0    0  0.00000000000E+00  0.00000000000E+00 -0.35527136788E-14  0.91188000000E+02  0.91188000000E+02 0.  0.
    9900012    2    3    3    0    0  0.10741476920E+02 -0.19422603419E+02  0.29379641806E+02  0.54367079281E+02  0.39999988836E+02 0.  0.
         12    1    3    3    0    0 -0.10741476920E+02  0.19422603419E+02 -0.29379641806E+02  0.36820920719E+02  0.00000000000E+00 0. -1.
         11    1    4    4    0    0  0.32460227830E+01 -0.26848589562E+02  0.16877576908E+02  0.31878457113E+02  0.51100000000E-03 0. -1.
        -11    1    4    4    0    0  0.12061537273E+02  0.57656671389E+01  0.11247131470E+02  0.17470591447E+02  0.51100000000E-03 0.  1.
        -12    1    4    4    0    0 -0.45660831357E+01  0.16603190045E+01  0.12549334277E+01  0.50180307200E+01  0.00000000000E+00 0.  1.
</event>
<event>
 8    1  0.1261983E-006  0.9118800E+02  0.7816164E-02  0.1184000E+00
        -11   -1    0    0    0    0  0.00000000000E+00  0.00000000000E+00  0.45593999997E+02  0.45594000000E+02  0.51100000000E-03 0.  1.
         11   -1    0    0    0    0 -0.00000000000E+00 -0.00000000000E+00 -0.45593999997E+02  0.45594000000E+02  0.51100000000E-03 0. -1.
         23    2    1    2    0    0  0.00000000000E+00  0.00000000000E+00  0.00000000000E+00  0.91188000000E+02  0.91188000000E+02 0.  0.
    9900012    2    3    3    0    0  0.56137107824E+01  0.94862845039E+01 -0.35132318162E+02  0.54367039639E+02  0.39999898466E+02 0.  0.
        -12    1    3    3    0    0 -0.56137107824E+01 -0.94862845039E+01  0.35132318162E+02  0.36820960361E+02  0.00000000000E+00 0.  1.
         11    1    4    4    0    0  0.23351049838E+01  0.14212692575E+02 -0.34201945969E+02  0.37111001790E+02  0.51100000000E-03 0. -1.
        -11    1    4    4    0    0  0.11995455297E+01  0.46542471794E+01 -0.48966067675E+01  0.68613179770E+01  0.51100000000E-03 0.  1.
         12    1    4    4    0    0  0.20790602689E+01 -0.93806552507E+01  0.39662345743E+01  0.10394719873E+02  0.00000000000E+00 0. -1.
</event>
<event>
 8    1  0.1261983E-006  0.9118800E+02  0.7816164E-02  0.1184000E+00
        -11   -1    0    0    0    0  0.00000000000E+00  0.00000000000E+00  0.45593999997E+02  0.45594000000E+02  0.51100000000E-03 0. -1.
         11   -1    0    0    0    0 -0.00000000000E+00 -0.00000000000E+00 -0.45593999997E+02  0.45594000000E+02  0.51100000000E-03 0.  1.
         23    2    1    2    0    0 -0.13322676296E-14  0.00000000000E+00  0.00000000000E+00  0.91188000000E+02  0.91188000000E+02 0.  0.
    9900012    2    3    3    0    0 -0.31760339876E+01  0.34474940735E+02 -0.12536798238E+02  0.54367081480E+02  0.39999993850E+02 0.  0.
        -12    1    3    3    0    0  0.31760339876E+01 -0.34474940735E+02  0.12536798238E+02  0.36820918520E+02  0.00000000000E+00 0.  1.
         11    1    4    4    0    0  0.72382267130E+01  0.10707045986E+02 -0.99782434925E+00  0.12962577421E+02  0.51100000000E-03 0. -1.
        -11    1    4    4    0    0 -0.97088730207E+01  0.22704232589E+02 -0.20659174098E+02  0.32195432401E+02  0.51100000000E-03 0.  1.
        -12    1    4    4    0    0 -0.70538767982E+00  0.10636621596E+01  0.91202002087E+01  0.92090716587E+01  0.00000000000E+00 0.  1.
</event>
<event>
 8    1  0.1261983E-006  0.9118800E+02  0.7816164E-02  0.1184000E+00
        -11   -1    0    0    0    0  0.00000000000E+00  0.00000000000E+00  0.45593999997E+02  0.45594000000E+02  0.51100000000E-03 0. -1.
         11   -1    0    0    0    0 -0.00000000000E+00 -0.00000000000E+00 -0.45593999997E+02  0.45594000000E+02  0.51100000000E-03 0.  1.
         23    2    1    2    0    0  0.00000000000E+00  0.00000000000E+00 -0.71054273576E-14  0.91188000000E+02  0.91188000000E+02 0.  0.
    9900012    2    3    3    0    0  0.29726408838E+01  0.33239846947E+02 -0.15558126624E+02  0.54367091226E+02  0.40000016068E+02 0.  0.
         12    1    3    3    0    0 -0.29726408838E+01 -0.33239846947E+02  0.15558126624E+02  0.36820908774E+02  0.00000000000E+00 0. -1.
         11    1    4    4    0    0 -0.90797666080E+01  0.11180784049E+02  0.16250366636E+01  0.14494579608E+02  0.51100000000E-03 0. -1.
        -11    1    4    4    0    0  0.24501054430E+00  0.23645419147E+02 -0.84902163311E+01  0.25124682096E+02  0.51100000000E-03 0.  1.
         12    1    4    4    0    0  0.11807396947E+02 -0.15863562490E+01 -0.86929469563E+01  0.14747829522E+02  0.00000000000E+00 0. -1.
</event>
<event>
 8    1  0.1261983E-006  0.9118800E+02  0.7816164E-02  0.1184000E+00
        -11   -1    0    0    0    0  0.00000000000E+00  0.00000000000E+00  0.45593999997E+02  0.45594000000E+02  0.51100000000E-03 0. -1.
         11   -1    0    0    0    0 -0.00000000000E+00 -0.00000000000E+00 -0.45593999997E+02  0.45594000000E+02  0.51100000000E-03 0.  1.
         23    2    1    2    0    0  0.88817841970E-15  0.00000000000E+00  0.00000000000E+00  0.91188000000E+02  0.91188000000E+02 0.  0.
    9900012    2    3    3    0    0 -0.57672878878E+01 -0.13303273883E+02 -0.33845831846E+02  0.54367095082E+02  0.40000024859E+02 0.  0.
         12    1    3    3    0    0  0.57672878878E+01  0.13303273883E+02  0.33845831846E+02  0.36820904918E+02  0.00000000000E+00 0. -1.
         11    1    4    4    0    0 -0.75154615954E+01  0.29828879266E+01  0.25490839302E+00  0.80897936886E+01  0.51100000000E-03 0. -1.
        -11    1    4    4    0    0 -0.11625758288E+02 -0.21597073044E+01 -0.13367865985E+02  0.17847196773E+02  0.51100000000E-03 0.  1.
         12    1    4    4    0    0  0.13373931995E+02 -0.14126454505E+02 -0.20732874254E+02  0.28430104621E+02  0.00000000000E+00 0. -1.
</event>
<event>
 8    1  0.1261983E-006  0.9118800E+02  0.7816164E-02  0.1184000E+00
        -11   -1    0    0    0    0  0.00000000000E+00  0.00000000000E+00  0.45593999997E+02  0.45594000000E+02  0.51100000000E-03 0.  1.
         11   -1    0    0    0    0 -0.00000000000E+00 -0.00000000000E+00 -0.45593999997E+02  0.45594000000E+02  0.51100000000E-03 0. -1.
         23    2    1    2    0    0  0.00000000000E+00  0.35527136788E-14 -0.35527136788E-14  0.91188000000E+02  0.91188000000E+02 0.  0.
    9900012    2    3    3    0    0  0.19228016249E+02  0.24036323287E+02  0.20206899077E+02  0.54367079094E+02  0.39999988411E+02 0.  0.
         12    1    3    3    0    0 -0.19228016249E+02 -0.24036323287E+02 -0.20206899077E+02  0.36820920906E+02  0.00000000000E+00 0. -1.
         11    1    4    4    0    0 -0.36553308974E+01  0.56780809086E+01  0.78116127915E+01  0.10325857903E+02  0.51100000000E-03 0. -1.
        -11    1    4    4    0    0  0.11438864066E+01 -0.29152626436E+01  0.13247617945E+02  0.13612737192E+02  0.51100000000E-03 0.  1.
         12    1    4    4    0    0  0.21739460740E+02  0.21273505023E+02 -0.85233165965E+00  0.30428483999E+02  0.00000000000E+00 0. -1.
</event>
<event>
 8    1  0.1261983E-006  0.9118800E+02  0.7816164E-02  0.1184000E+00
        -11   -1    0    0    0    0  0.00000000000E+00  0.00000000000E+00  0.45593999997E+02  0.45594000000E+02  0.51100000000E-03 0. -1.
         11   -1    0    0    0    0 -0.00000000000E+00 -0.00000000000E+00 -0.45593999997E+02  0.45594000000E+02  0.51100000000E-03 0.  1.
         23    2    1    2    0    0  0.00000000000E+00  0.00000000000E+00  0.00000000000E+00  0.91188000000E+02  0.91188000000E+02 0.  0.
    9900012    2    3    3    0    0 -0.18384784455E+02 -0.14778299240E+02  0.28273324263E+02  0.54367091636E+02  0.40000017003E+02 0.  0.
        -12    1    3    3    0    0  0.18384784455E+02  0.14778299240E+02 -0.28273324263E+02  0.36820908364E+02  0.00000000000E+00 0.  1.
         11    1    4    4    0    0 -0.47518921700E+01 -0.85441478037E+01  0.18962157833E+02  0.21334159717E+02  0.51100000000E-03 0. -1.
        -11    1    4    4    0    0 -0.11375057269E+02 -0.17118821934E+02  0.66493226665E+01  0.21602302758E+02  0.51100000000E-03 0.  1.
        -12    1    4    4    0    0 -0.22578350161E+01  0.10884670497E+02  0.26618437635E+01  0.11430629161E+02  0.00000000000E+00 0.  1.
</event>
<event>
 8    1  0.1261983E-006  0.9118800E+02  0.7816164E-02  0.1184000E+00
        -11   -1    0    0    0    0  0.00000000000E+00  0.00000000000E+00  0.45593999997E+02  0.45594000000E+02  0.51100000000E-03 0.  1.
         11   -1    0    0    0    0 -0.00000000000E+00 -0.00000000000E+00 -0.45593999997E+02  0.45594000000E+02  0.51100000000E-03 0. -1.
         23    2    1    2    0    0  0.44408920985E-15 -0.35527136788E-14  0.00000000000E+00  0.91188000000E+02  0.91188000000E+02 0.  0.
    9900012    2    3    3    0    0 -0.24748356542E+01  0.20610358491E+02 -0.30411642977E+02  0.54367085873E+02  0.40000003864E+02 0.  0.
        -12    1    3    3    0    0  0.24748356542E+01 -0.20610358491E+02  0.30411642977E+02  0.36820914127E+02  0.00000000000E+00 0.  1.
         11    1    4    4    0    0  0.47944177627E+01  0.12710077018E+02 -0.96925263469E+00  0.13618808701E+02  0.51100000000E-03 0. -1.
        -11    1    4    4    0    0  0.54032030788E+01  0.17687272377E+01  0.22151859995E+01  0.61016431250E+01  0.51100000000E-03 0.  1.
         12    1    4    4    0    0 -0.12672456496E+02  0.61315542345E+01 -0.31657576342E+02  0.34646634047E+02  0.00000000000E+00 0. -1.
</event>
<event>
 8    1  0.1261983E-006  0.9118800E+02  0.7816164E-02  0.1184000E+00
        -11   -1    0    0    0    0  0.00000000000E+00  0.00000000000E+00  0.45593999997E+02  0.45594000000E+02  0.51100000000E-03 0.  1.
         11   -1    0    0    0    0 -0.00000000000E+00 -0.00000000000E+00 -0.45593999997E+02  0.45594000000E+02  0.51100000000E-03 0. -1.
         23    2    1    2    0    0  0.00000000000E+00 -0.88817841970E-15  0.71054273576E-14  0.91188000000E+02  0.91188000000E+02 0.  0.
    9900012    2    3    3    0    0 -0.14955089844E+02 -0.12285083628E+01 -0.33624625034E+02  0.54367090808E+02  0.40000015115E+02 0.  0.
        -12    1    3    3    0    0  0.14955089844E+02  0.12285083628E+01  0.33624625034E+02  0.36820909192E+02  0.00000000000E+00 0.  1.
         11    1    4    4    0    0 -0.10276702816E+02 -0.16330158840E+02 -0.11073456743E+02  0.22246486307E+02  0.51100000000E-03 0. -1.
        -11    1    4    4    0    0 -0.79504216795E+01  0.40845016152E+01 -0.17326153925E+02  0.19495844902E+02  0.51100000000E-03 0.  1.
        -12    1    4    4    0    0  0.32720346519E+01  0.11017148862E+02 -0.52250143656E+01  0.12624759599E+02  0.00000000000E+00 0.  1.
</event>
<event>
 8    1  0.1261983E-006  0.9118800E+02  0.7816164E-02  0.1184000E+00
        -11   -1    0    0    0    0  0.00000000000E+00  0.00000000000E+00  0.45593999997E+02  0.45594000000E+02  0.51100000000E-03 0.  1.
         11   -1    0    0    0    0 -0.00000000000E+00 -0.00000000000E+00 -0.45593999997E+02  0.45594000000E+02  0.51100000000E-03 0. -1.
         23    2    1    2    0    0  0.17763568394E-14 -0.22204460493E-15  0.00000000000E+00  0.91188000000E+02  0.91188000000E+02 0.  0.
    9900012    2    3    3    0    0  0.85352070220E+01 -0.10081090338E+01  0.35803822402E+02  0.54367085545E+02  0.40000003116E+02 0.  0.
         12    1    3    3    0    0 -0.85352070220E+01  0.10081090338E+01 -0.35803822402E+02  0.36820914455E+02  0.00000000000E+00 0. -1.
         11    1    4    4    0    0  0.21722229671E+02 -0.79295011545E+00  0.13861127920E+02  0.25780126052E+02  0.51100000000E-03 0. -1.
        -11    1    4    4    0    0 -0.53341443425E+01  0.54597261971E+01  0.51766732506E+01  0.92227789856E+01  0.51100000000E-03 0.  1.
        -12    1    4    4    0    0 -0.78528783069E+01 -0.56748851155E+01  0.16766021231E+02  0.19364180507E+02  0.00000000000E+00 0.  1.
</event>
<event>
 8    1  0.1261983E-006  0.9118800E+02  0.7816164E-02  0.1184000E+00
        -11   -1    0    0    0    0  0.00000000000E+00  0.00000000000E+00  0.45593999997E+02  0.45594000000E+02  0.51100000000E-03 0. -1.
         11   -1    0    0    0    0 -0.00000000000E+00 -0.00000000000E+00 -0.45593999997E+02  0.45594000000E+02  0.51100000000E-03 0.  1.
         23    2    1    2    0    0  0.00000000000E+00 -0.88817841970E-15  0.35527136788E-14  0.91188000000E+02  0.91188000000E+02 0.  0.
    9900012    2    3    3    0    0 -0.28645061787E+02 -0.23195556550E+01  0.23018708067E+02  0.54367070839E+02  0.39999969592E+02 0.  0.
        -12    1    3    3    0    0  0.28645061787E+02  0.23195556550E+01 -0.23018708067E+02  0.36820929161E+02  0.00000000000E+00 0.  1.
         11    1    4    4    0    0 -0.31805508743E+02 -0.85292443798E+01  0.14006587747E+02  0.35784394597E+02  0.51100000000E-03 0. -1.
        -11    1    4    4    0    0 -0.92573565430E+00  0.63160359910E+01 -0.21179929451E+01  0.67257112277E+01  0.51100000000E-03 0.  1.
         12    1    4    4    0    0  0.40861826105E+01 -0.10634726619E+00  0.11130113265E+02  0.11856965015E+02  0.00000000000E+00 0. -1.
</event>
<event>
 8    1  0.1261983E-006  0.9118800E+02  0.7816164E-02  0.1184000E+00
        -11   -1    0    0    0    0  0.00000000000E+00  0.00000000000E+00  0.45593999997E+02  0.45594000000E+02  0.51100000000E-03 0.  1.
         11   -1    0    0    0    0 -0.00000000000E+00 -0.00000000000E+00 -0.45593999997E+02  0.45594000000E+02  0.51100000000E-03 0. -1.
         23    2    1    2    0    0 -0.11102230246E-14  0.00000000000E+00  0.00000000000E+00  0.91188000000E+02  0.91188000000E+02 0.  0.
    9900012    2    3    3    0    0 -0.12279194965E+01 -0.27757498908E+02 -0.24161823128E+02  0.54367078926E+02  0.39999988027E+02 0.  0.
        -12    1    3    3    0    0  0.12279194965E+01  0.27757498908E+02  0.24161823128E+02  0.36820921074E+02  0.00000000000E+00 0.  1.
         11    1    4    4    0    0 -0.34478752783E+01  0.20774295642E+01 -0.70379806249E+01  0.81078190080E+01  0.51100000000E-03 0.  1.
        -11    1    4    4    0    0  0.13840093269E+02 -0.63381712169E+01 -0.12378582942E+02  0.19620140468E+02  0.51100000000E-03 0. -1.
        -12    1    4    4    0    0 -0.11620137488E+02 -0.23496757255E+02 -0.47452595608E+01  0.26639119449E+02  0.00000000000E+00 0.  1.
</event>
<event>
 8    1  0.1261983E-006  0.9118800E+02  0.7816164E-02  0.1184000E+00
        -11   -1    0    0    0    0  0.00000000000E+00  0.00000000000E+00  0.45593999997E+02  0.45594000000E+02  0.51100000000E-03 0. -1.
         11   -1    0    0    0    0 -0.00000000000E+00 -0.00000000000E+00 -0.45593999997E+02  0.45594000000E+02  0.51100000000E-03 0.  1.
         23    2    1    2    0    0  0.00000000000E+00  0.17763568394E-14  0.00000000000E+00  0.91188000000E+02  0.91188000000E+02 0.  0.
    9900012    2    3    3    0    0 -0.32042583801E+02  0.15856560455E+02  0.88102348298E+01  0.54367110224E+02  0.40000059378E+02 0.  0.
        -12    1    3    3    0    0  0.32042583801E+02 -0.15856560455E+02 -0.88102348298E+01  0.36820889776E+02  0.00000000000E+00 0.  1.
         11    1    4    4    0    0 -0.60649681432E+01 -0.64565451892E+00 -0.45728513548E+01  0.76231016070E+01  0.51100000000E-03 0. -1.
        -11    1    4    4    0    0 -0.69866676351E+01  0.11227115137E+02 -0.96934512297E+01  0.16395872527E+02  0.51100000000E-03 0.  1.
         12    1    4    4    0    0 -0.18990948023E+02  0.52750998377E+01  0.23076537414E+02  0.30348136090E+02  0.00000000000E+00 0. -1.
</event>
<event>
 8    1  0.1261983E-006  0.9118800E+02  0.7816164E-02  0.1184000E+00
        -11   -1    0    0    0    0  0.00000000000E+00  0.00000000000E+00  0.45593999997E+02  0.45594000000E+02  0.51100000000E-03 0. -1.
         11   -1    0    0    0    0 -0.00000000000E+00 -0.00000000000E+00 -0.45593999997E+02  0.45594000000E+02  0.51100000000E-03 0.  1.
         23    2    1    2    0    0  0.35527136788E-14 -0.35527136788E-14  0.00000000000E+00  0.91188000000E+02  0.91188000000E+02 0.  0.
    9900012    2    3    3    0    0 -0.18609403286E+02 -0.30578020461E+02 -0.86293425281E+01  0.54366935670E+02  0.39999661445E+02 0.  0.
         12    1    3    3    0    0  0.18609403286E+02  0.30578020461E+02  0.86293425281E+01  0.36821064330E+02  0.00000000000E+00 0. -1.
         11    1    4    4    0    0  0.13207810360E+01  0.37085767134E+01 -0.86725798416E+00  0.40311462956E+01  0.51100000000E-03 0. -1.
        -11    1    4    4    0    0 -0.13816955407E+02 -0.34544850570E+01 -0.11994056605E+02  0.18619858158E+02  0.51100000000E-03 0.  1.
         12    1    4    4    0    0 -0.61132289152E+01 -0.30832112117E+02  0.42319720610E+01  0.31715931216E+02  0.00000000000E+00 0. -1.
</event>
<event>
 8    1  0.1261983E-006  0.9118800E+02  0.7816164E-02  0.1184000E+00
        -11   -1    0    0    0    0  0.00000000000E+00  0.00000000000E+00  0.45593999997E+02  0.45594000000E+02  0.51100000000E-03 0.  1.
         11   -1    0    0    0    0 -0.00000000000E+00 -0.00000000000E+00 -0.45593999997E+02  0.45594000000E+02  0.51100000000E-03 0. -1.
         23    2    1    2    0    0 -0.35527136788E-14 -0.80491169285E-15  0.00000000000E+00  0.91188000000E+02  0.91188000000E+02 0.  0.
    9900012    2    3    3    0    0  0.31520724764E+02  0.13652272838E+00 -0.19031667316E+02  0.54367094403E+02  0.40000023311E+02 0.  0.
        -12    1    3    3    0    0 -0.31520724764E+02 -0.13652272838E+00  0.19031667316E+02  0.36820905597E+02  0.00000000000E+00 0.  1.
         11    1    4    4    0    0  0.12065514749E+02 -0.12279417291E+02 -0.85543800255E+01  0.19223375173E+02  0.51100000000E-03 0. -1.
        -11    1    4    4    0    0 -0.52747831592E+01  0.20783019172E+01 -0.54665804703E+01  0.78756700372E+01  0.51100000000E-03 0.  1.
        -12    1    4    4    0    0  0.24729993175E+02  0.10337638102E+02 -0.50107068203E+01  0.27268049193E+02  0.00000000000E+00 0.  1.
</event>
<event>
 8    1  0.1261983E-006  0.9118800E+02  0.7816164E-02  0.1184000E+00
        -11   -1    0    0    0    0  0.00000000000E+00  0.00000000000E+00  0.45593999997E+02  0.45594000000E+02  0.51100000000E-03 0. -1.
         11   -1    0    0    0    0 -0.00000000000E+00 -0.00000000000E+00 -0.45593999997E+02  0.45594000000E+02  0.51100000000E-03 0.  1.
         23    2    1    2    0    0 -0.17763568394E-14  0.88817841970E-15  0.71054273576E-14  0.91188000000E+02  0.91188000000E+02 0.  0.
    9900012    2    3    3    0    0  0.13018492367E+02 -0.25274061403E+00 -0.34441746905E+02  0.54367096274E+02  0.40000027575E+02 0.  0.
         12    1    3    3    0    0 -0.13018492367E+02  0.25274061403E+00  0.34441746905E+02  0.36820903726E+02  0.00000000000E+00 0. -1.
         11    1    4    4    0    0  0.13684618094E+01  0.98701577356E+01  0.53047401035E+01  0.11288621230E+02  0.51100000000E-03 0. -1.
        -11    1    4    4    0    0  0.68039280378E+01 -0.87696193507E+01 -0.22130241906E+02  0.24757771858E+02  0.51100000000E-03 0.  1.
        -12    1    4    4    0    0  0.48461025197E+01 -0.13532789990E+01 -0.17616245103E+02  0.18320703185E+02  0.00000000000E+00 0.  1.
</event>
<event>
 8    1  0.1261983E-006  0.9118800E+02  0.7816164E-02  0.1184000E+00
        -11   -1    0    0    0    0  0.00000000000E+00  0.00000000000E+00  0.45593999997E+02  0.45594000000E+02  0.51100000000E-03 0. -1.
         11   -1    0    0    0    0 -0.00000000000E+00 -0.00000000000E+00 -0.45593999997E+02  0.45594000000E+02  0.51100000000E-03 0.  1.
         23    2    1    2    0    0  0.35527136788E-14 -0.35527136788E-14  0.00000000000E+00  0.91188000000E+02  0.91188000000E+02 0.  0.
    9900012    2    3    3    0    0 -0.11614776488E+02 -0.20223688535E+02 -0.28493493107E+02  0.54367085288E+02  0.40000002531E+02 0.  0.
         12    1    3    3    0    0  0.11614776488E+02  0.20223688535E+02  0.28493493107E+02  0.36820914712E+02  0.00000000000E+00 0. -1.
         11    1    4    4    0    0 -0.14038457319E+02 -0.27981813296E+02 -0.12561813265E+02  0.33732170283E+02  0.51100000000E-03 0. -1.
        -11    1    4    4    0    0  0.48234361748E+01 -0.16407117774E+00 -0.62645745854E+01  0.79080560748E+01  0.51100000000E-03 0.  1.
        -12    1    4    4    0    0 -0.23997553437E+01  0.79221959387E+01 -0.96671052565E+01  0.12726858931E+02  0.00000000000E+00 0.  1.
</event>
<event>
 8    1  0.1261983E-006  0.9118800E+02  0.7816164E-02  0.1184000E+00
        -11   -1    0    0    0    0  0.00000000000E+00  0.00000000000E+00  0.45593999997E+02  0.45594000000E+02  0.51100000000E-03 0.  1.
         11   -1    0    0    0    0 -0.00000000000E+00 -0.00000000000E+00 -0.45593999997E+02  0.45594000000E+02  0.51100000000E-03 0. -1.
         23    2    1    2    0    0 -0.35527136788E-14 -0.35527136788E-14 -0.35527136788E-14  0.91188000000E+02  0.91188000000E+02 0.  0.
    9900012    2    3    3    0    0  0.22913490401E+02  0.83772357294E+01  0.27578501848E+02  0.54367083594E+02  0.39999998669E+02 0.  0.
         12    1    3    3    0    0 -0.22913490401E+02 -0.83772357294E+01 -0.27578501848E+02  0.36820916406E+02  0.00000000000E+00 0. -1.
         11    1    4    4    0    0  0.25133944279E+01 -0.95960094061E+01  0.81606359041E+00  0.99532159686E+01  0.51100000000E-03 0. -1.
        -11    1    4    4    0    0  0.46196336468E+01  0.19033694933E+02  0.13717022646E+02  0.23911906415E+02  0.51100000000E-03 0.  1.
         12    1    4    4    0    0  0.15780462326E+02 -0.10604497978E+01  0.13045415611E+02  0.20501961211E+02  0.00000000000E+00 0. -1.
</event>
<event>
 8    1  0.1261983E-006  0.9118800E+02  0.7816164E-02  0.1184000E+00
        -11   -1    0    0    0    0  0.00000000000E+00  0.00000000000E+00  0.45593999997E+02  0.45594000000E+02  0.51100000000E-03 0.  1.
         11   -1    0    0    0    0 -0.00000000000E+00 -0.00000000000E+00 -0.45593999997E+02  0.45594000000E+02  0.51100000000E-03 0. -1.
         23    2    1    2    0    0  0.17763568394E-14  0.00000000000E+00 -0.44408920985E-15  0.91188000000E+02  0.91188000000E+02 0.  0.
    9900012    2    3    3    0    0  0.40180657851E+01 -0.36406511545E+02 -0.37681361515E+01  0.54367112103E+02  0.40000063660E+02 0.  0.
         12    1    3    3    0    0 -0.40180657851E+01  0.36406511545E+02  0.37681361515E+01  0.36820887897E+02  0.00000000000E+00 0. -1.
         11    1    4    4    0    0 -0.86582390075E+01 -0.49305813050E+01  0.50236174096E+01  0.11158515441E+02  0.51100000000E-03 0. -1.
        -11    1    4    4    0    0  0.15817595587E+02 -0.22164631565E+02  0.35193823677E+01  0.27456388602E+02  0.51100000000E-03 0.  1.
        -12    1    4    4    0    0 -0.31412907950E+01 -0.93112986748E+01 -0.12311135929E+02  0.15752208059E+02  0.00000000000E+00 0.  1.
</event>
<event>
 8    1  0.1261983E-006  0.9118800E+02  0.7816164E-02  0.1184000E+00
        -11   -1    0    0    0    0  0.00000000000E+00  0.00000000000E+00  0.45593999997E+02  0.45594000000E+02  0.51100000000E-03 0. -1.
         11   -1    0    0    0    0 -0.00000000000E+00 -0.00000000000E+00 -0.45593999997E+02  0.45594000000E+02  0.51100000000E-03 0.  1.
         23    2    1    2    0    0  0.17763568394E-14 -0.35527136788E-14  0.17763568394E-14  0.91188000000E+02  0.91188000000E+02 0.  0.
    9900012    2    3    3    0    0 -0.10590992409E+02 -0.31820694834E+02 -0.15200451846E+02  0.54367089145E+02  0.40000011323E+02 0.  0.
         12    1    3    3    0    0  0.10590992409E+02  0.31820694834E+02  0.15200451846E+02  0.36820910855E+02  0.00000000000E+00 0. -1.
         11    1    4    4    0    0 -0.14977830553E+02 -0.22308561531E+02  0.11427806492E+01  0.26894484072E+02  0.51100000000E-03 0. -1.
        -11    1    4    4    0    0 -0.29309133329E+01  0.37715101519E+01  0.50603479773E+00  0.48031878236E+01  0.51100000000E-03 0.  1.
        -12    1    4    4    0    0  0.73177514771E+01 -0.13283643455E+02 -0.16849267292E+02  0.22669417249E+02  0.00000000000E+00 0.  1.
</event>
<event>
 8    1  0.1261983E-006  0.9118800E+02  0.7816164E-02  0.1184000E+00
        -11   -1    0    0    0    0  0.00000000000E+00  0.00000000000E+00  0.45593999997E+02  0.45594000000E+02  0.51100000000E-03 0.  1.
         11   -1    0    0    0    0 -0.00000000000E+00 -0.00000000000E+00 -0.45593999997E+02  0.45594000000E+02  0.51100000000E-03 0. -1.
         23    2    1    2    0    0 -0.35527136788E-14  0.17763568394E-14  0.00000000000E+00  0.91188000000E+02  0.91188000000E+02 0.  0.
    9900012    2    3    3    0    0 -0.26311959442E+02  0.43227561880E+01  0.25392420773E+02  0.54367075739E+02  0.39999980761E+02 0.  0.
         12    1    3    3    0    0  0.26311959442E+02 -0.43227561880E+01 -0.25392420773E+02  0.36820924261E+02  0.00000000000E+00 0. -1.
         11    1    4    4    0    0 -0.40080558729E+01 -0.16117529095E+02  0.38443667958E+01  0.17047533907E+02  0.51100000000E-03 0. -1.
        -11    1    4    4    0    0 -0.27525448504E+01  0.24730735975E+01  0.42195374964E+01  0.56122271084E+01  0.51100000000E-03 0.  1.
         12    1    4    4    0    0 -0.19551358718E+02  0.17967211685E+02  0.17328516481E+02  0.31707314723E+02  0.00000000000E+00 0. -1.
</event>
<event>
 8    1  0.1261983E-006  0.9118800E+02  0.7816164E-02  0.1184000E+00
        -11   -1    0    0    0    0  0.00000000000E+00  0.00000000000E+00  0.45593999997E+02  0.45594000000E+02  0.51100000000E-03 0.  1.
         11   -1    0    0    0    0 -0.00000000000E+00 -0.00000000000E+00 -0.45593999997E+02  0.45594000000E+02  0.51100000000E-03 0. -1.
         23    2    1    2    0    0  0.00000000000E+00 -0.35527136788E-14 -0.17763568394E-14  0.91188000000E+02  0.91188000000E+02 0.  0.
    9900012    2    3    3    0    0 -0.21341719661E+02  0.27638549837E+02 -0.11679915988E+02  0.54367097341E+02  0.40000030008E+02 0.  0.
        -12    1    3    3    0    0  0.21341719661E+02 -0.27638549837E+02  0.11679915988E+02  0.36820902659E+02  0.00000000000E+00 0.  1.
         11    1    4    4    0    0 -0.36608101644E+00  0.35405163424E+01 -0.14262909323E+02  0.14700335163E+02  0.51100000000E-03 0. -1.
        -11    1    4    4    0    0  0.32670774521E+01  0.12991761128E+00 -0.37686682142E+01  0.49893420442E+01  0.51100000000E-03 0.  1.
         12    1    4    4    0    0 -0.24242716096E+02  0.23968115883E+02  0.63516615491E+01  0.34677420134E+02  0.00000000000E+00 0. -1.
</event>
<event>
 8    1  0.1261983E-006  0.9118800E+02  0.7816164E-02  0.1184000E+00
        -11   -1    0    0    0    0  0.00000000000E+00  0.00000000000E+00  0.45593999997E+02  0.45594000000E+02  0.51100000000E-03 0.  1.
         11   -1    0    0    0    0 -0.00000000000E+00 -0.00000000000E+00 -0.45593999997E+02  0.45594000000E+02  0.51100000000E-03 0. -1.
         23    2    1    2    0    0 -0.88817841970E-15 -0.71054273576E-14 -0.17763568394E-14  0.91188000000E+02  0.91188000000E+02 0.  0.
    9900012    2    3    3    0    0 -0.24807471145E+01 -0.35697561065E+02 -0.86781108539E+01  0.54367087732E+02  0.40000008103E+02 0.  0.
        -12    1    3    3    0    0  0.24807471145E+01  0.35697561065E+02  0.86781108539E+01  0.36820912268E+02  0.00000000000E+00 0.  1.
         11    1    4    4    0    0  0.25236671141E+01 -0.57307947806E+01 -0.32806377131E+00  0.62704489967E+01  0.51100000000E-03 0. -1.
        -11    1    4    4    0    0  0.99194596948E+01  0.16684393117E+01  0.42472002655E+01  0.10918703253E+02  0.51100000000E-03 0.  1.
         12    1    4    4    0    0 -0.14923873923E+02 -0.31635205596E+02 -0.12597247348E+02  0.37177935482E+02  0.00000000000E+00 0. -1.
</event>
<event>
 8    1  0.1261983E-006  0.9118800E+02  0.7816164E-02  0.1184000E+00
        -11   -1    0    0    0    0  0.00000000000E+00  0.00000000000E+00  0.45593999997E+02  0.45594000000E+02  0.51100000000E-03 0.  1.
         11   -1    0    0    0    0 -0.00000000000E+00 -0.00000000000E+00 -0.45593999997E+02  0.45594000000E+02  0.51100000000E-03 0. -1.
         23    2    1    2    0    0 -0.19151347175E-14  0.17763568394E-14  0.00000000000E+00  0.91188000000E+02  0.91188000000E+02 0.  0.
    9900012    2    3    3    0    0  0.14257857235E+00 -0.92106312215E+01 -0.35649999560E+02  0.54367102064E+02  0.40000040776E+02 0.  0.
        -12    1    3    3    0    0 -0.14257857235E+00  0.92106312215E+01  0.35649999560E+02  0.36820897936E+02  0.00000000000E+00 0.  1.
         11    1    4    4    0    0  0.42617811483E+01 -0.39487237768E+01 -0.17481591886E+02  0.18421760316E+02  0.51100000000E-03 0. -1.
        -11    1    4    4    0    0 -0.13940185193E+02  0.58765079460E+01 -0.13773086897E+02  0.20458739741E+02  0.51100000000E-03 0.  1.
        -12    1    4    4    0    0  0.98209826174E+01 -0.11138415391E+02 -0.43953207770E+01  0.15486602007E+02  0.00000000000E+00 0.  1.
</event>
<event>
 8    1  0.1261983E-006  0.9118800E+02  0.7816164E-02  0.1184000E+00
        -11   -1    0    0    0    0  0.00000000000E+00  0.00000000000E+00  0.45593999997E+02  0.45594000000E+02  0.51100000000E-03 0. -1.
         11   -1    0    0    0    0 -0.00000000000E+00 -0.00000000000E+00 -0.45593999997E+02  0.45594000000E+02  0.51100000000E-03 0.  1.
         23    2    1    2    0    0  0.00000000000E+00 -0.71054273576E-14  0.35527136788E-14  0.91188000000E+02  0.91188000000E+02 0.  0.
    9900012    2    3    3    0    0 -0.17349857841E+02 -0.28703573165E+02  0.15194319624E+02  0.54367081646E+02  0.39999994229E+02 0.  0.
        -12    1    3    3    0    0  0.17349857841E+02  0.28703573165E+02 -0.15194319624E+02  0.36820918354E+02  0.00000000000E+00 0.  1.
         11    1    4    4    0    0 -0.15679678326E+02 -0.69506537480E+01  0.56627598478E+01  0.18061858965E+02  0.51100000000E-03 0. -1.
        -11    1    4    4    0    0  0.43942869848E+01 -0.21963254236E-01 -0.70489868838E+01  0.83065309750E+01  0.51100000000E-03 0.  1.
        -12    1    4    4    0    0 -0.60644664999E+01 -0.21730956163E+02  0.16580546660E+02  0.27998691706E+02  0.00000000000E+00 0.  1.
</event>
<event>
 8    1  0.1261983E-006  0.9118800E+02  0.7816164E-02  0.1184000E+00
        -11   -1    0    0    0    0  0.00000000000E+00  0.00000000000E+00  0.45593999997E+02  0.45594000000E+02  0.51100000000E-03 0.  1.
         11   -1    0    0    0    0 -0.00000000000E+00 -0.00000000000E+00 -0.45593999997E+02  0.45594000000E+02  0.51100000000E-03 0. -1.
         23    2    1    2    0    0  0.00000000000E+00  0.00000000000E+00 -0.88817841970E-15  0.91188000000E+02  0.91188000000E+02 0.  0.
    9900012    2    3    3    0    0  0.26376444307E+02  0.25373956434E+02 -0.40280879878E+01  0.54367082409E+02  0.39999995968E+02 0.  0.
         12    1    3    3    0    0 -0.26376444307E+02 -0.25373956434E+02  0.40280879878E+01  0.36820917591E+02  0.00000000000E+00 0. -1.
         11    1    4    4    0    0  0.16346822386E+02  0.22452288523E+01 -0.15262137914E+02  0.22476487908E+02  0.51100000000E-03 0. -1.
        -11    1    4    4    0    0  0.97886678787E+01  0.18927489805E+02  0.15896281519E+01  0.21368079162E+02  0.51100000000E-03 0.  1.
         12    1    4    4    0    0  0.24095404311E+00  0.42012377772E+01  0.96444217741E+01  0.10522515339E+02  0.00000000000E+00 0. -1.
</event>
<event>
 8    1  0.1261983E-006  0.9118800E+02  0.7816164E-02  0.1184000E+00
        -11   -1    0    0    0    0  0.00000000000E+00  0.00000000000E+00  0.45593999997E+02  0.45594000000E+02  0.51100000000E-03 0.  1.
         11   -1    0    0    0    0 -0.00000000000E+00 -0.00000000000E+00 -0.45593999997E+02  0.45594000000E+02  0.51100000000E-03 0. -1.
         23    2    1    2    0    0  0.00000000000E+00  0.17763568394E-14  0.00000000000E+00  0.91188000000E+02  0.91188000000E+02 0.  0.
    9900012    2    3    3    0    0 -0.30307165238E+02 -0.15352499262E+02  0.14196869336E+02  0.54367155397E+02  0.40000162358E+02 0.  0.
         12    1    3    3    0    0  0.30307165238E+02  0.15352499262E+02 -0.14196869336E+02  0.36820844603E+02  0.00000000000E+00 0. -1.
         11    1    4    4    0    0  0.43496006783E+01 -0.11729683649E+02  0.94801047486E+01  0.15696397385E+02  0.51100000000E-03 0. -1.
        -11    1    4    4    0    0 -0.30008538511E+02  0.29276377238E+01  0.53171445195E+01  0.30616261567E+02  0.51100000000E-03 0.  1.
        -12    1    4    4    0    0 -0.46482274050E+01 -0.65504533368E+01 -0.60037993164E+00  0.80544964454E+01  0.00000000000E+00 0.  1.
</event>
<event>
 8    1  0.1261983E-006  0.9118800E+02  0.7816164E-02  0.1184000E+00
        -11   -1    0    0    0    0  0.00000000000E+00  0.00000000000E+00  0.45593999997E+02  0.45594000000E+02  0.51100000000E-03 0. -1.
         11   -1    0    0    0    0 -0.00000000000E+00 -0.00000000000E+00 -0.45593999997E+02  0.45594000000E+02  0.51100000000E-03 0.  1.
         23    2    1    2    0    0  0.00000000000E+00  0.88817841970E-15  0.17763568394E-14  0.91188000000E+02  0.91188000000E+02 0.  0.
    9900012    2    3    3    0    0  0.36516864229E+02  0.42698771490E+01  0.20165797119E+01  0.54367084507E+02  0.40000000751E+02 0.  0.
         12    1    3    3    0    0 -0.36516864229E+02 -0.42698771490E+01 -0.20165797119E+01  0.36820915493E+02  0.00000000000E+00 0. -1.
         11    1    4    4    0    0  0.77687283660E+01  0.16375542632E+00  0.56375240013E+01  0.96000850721E+01  0.51100000000E-03 0. -1.
        -11    1    4    4    0    0  0.90164699077E+01  0.10019585196E+02  0.12674353856E+02  0.18502109691E+02  0.51100000000E-03 0.  1.
        -12    1    4    4    0    0  0.19731665955E+02 -0.59134634729E+01 -0.16295298145E+02  0.26264889744E+02  0.00000000000E+00 0.  1.
</event>
<event>
 8    1  0.1261983E-006  0.9118800E+02  0.7816164E-02  0.1184000E+00
        -11   -1    0    0    0    0  0.00000000000E+00  0.00000000000E+00  0.45593999997E+02  0.45594000000E+02  0.51100000000E-03 0.  1.
         11   -1    0    0    0    0 -0.00000000000E+00 -0.00000000000E+00 -0.45593999997E+02  0.45594000000E+02  0.51100000000E-03 0. -1.
         23    2    1    2    0    0  0.35527136788E-14  0.00000000000E+00  0.88817841970E-15  0.91188000000E+02  0.91188000000E+02 0.  0.
    9900012    2    3    3    0    0 -0.30066447283E+02 -0.21168791340E+02  0.19169614483E+01  0.54367031515E+02  0.39999879945E+02 0.  0.
         12    1    3    3    0    0  0.30066447283E+02  0.21168791340E+02 -0.19169614483E+01  0.36820968485E+02  0.00000000000E+00 0. -1.
         11    1    4    4    0    0 -0.97713354305E+01 -0.10171537060E+02  0.15651471642E+02  0.21069117853E+02  0.51100000000E-03 0.  1.
        -11    1    4    4    0    0 -0.10653290752E+02 -0.90247069354E+01 -0.17823268192E+02  0.22640822168E+02  0.51100000000E-03 0. -1.
        -12    1    4    4    0    0 -0.96418211002E+01 -0.19725473442E+01  0.40887579982E+01  0.10657091494E+02  0.00000000000E+00 0.  1.
</event>
<event>
 8    1  0.1261983E-006  0.9118800E+02  0.7816164E-02  0.1184000E+00
        -11   -1    0    0    0    0  0.00000000000E+00  0.00000000000E+00  0.45593999997E+02  0.45594000000E+02  0.51100000000E-03 0. -1.
         11   -1    0    0    0    0 -0.00000000000E+00 -0.00000000000E+00 -0.45593999997E+02  0.45594000000E+02  0.51100000000E-03 0.  1.
         23    2    1    2    0    0  0.35527136788E-14  0.00000000000E+00 -0.35527136788E-14  0.91188000000E+02  0.91188000000E+02 0.  0.
    9900012    2    3    3    0    0  0.11996191262E+02  0.14478461978E+02  0.31658237968E+02  0.54367102438E+02  0.40000041628E+02 0.  0.
        -12    1    3    3    0    0 -0.11996191262E+02 -0.14478461978E+02 -0.31658237968E+02  0.36820897562E+02  0.00000000000E+00 0.  1.
         11    1    4    4    0    0 -0.46488682442E+01 -0.10378763053E+02  0.13018590076E+02  0.17286248474E+02  0.51100000000E-03 0. -1.
        -11    1    4    4    0    0  0.49275602034E+01  0.87452541270E+01  0.36204950485E+00  0.10044471087E+02  0.51100000000E-03 0.  1.
         12    1    4    4    0    0  0.11717499303E+02  0.16111970904E+02  0.18277598387E+02  0.27036382878E+02  0.00000000000E+00 0. -1.
</event>
<event>
 8    1  0.1261983E-006  0.9118800E+02  0.7816164E-02  0.1184000E+00
        -11   -1    0    0    0    0  0.00000000000E+00  0.00000000000E+00  0.45593999997E+02  0.45594000000E+02  0.51100000000E-03 0. -1.
         11   -1    0    0    0    0 -0.00000000000E+00 -0.00000000000E+00 -0.45593999997E+02  0.45594000000E+02  0.51100000000E-03 0.  1.
         23    2    1    2    0    0  0.15543122345E-14  0.00000000000E+00 -0.35527136788E-14  0.91188000000E+02  0.91188000000E+02 0.  0.
    9900012    2    3    3    0    0  0.19122076280E+01 -0.22231089566E+02 -0.29289958983E+02  0.54367087755E+02  0.40000008156E+02 0.  0.
         12    1    3    3    0    0 -0.19122076280E+01  0.22231089566E+02  0.29289958983E+02  0.36820912245E+02  0.00000000000E+00 0. -1.
         11    1    4    4    0    0 -0.64844641210E+01 -0.14527446268E+02 -0.63956687508E+01  0.17146415049E+02  0.51100000000E-03 0. -1.
        -11    1    4    4    0    0 -0.20883209345E+01 -0.10048289595E+02 -0.24306439102E+02  0.26384317126E+02  0.51100000000E-03 0.  1.
         12    1    4    4    0    0  0.10484992683E+02  0.23446462970E+01  0.14121488703E+01  0.10836355580E+02  0.00000000000E+00 0. -1.
</event>
<event>
 8    1  0.1261983E-006  0.9118800E+02  0.7816164E-02  0.1184000E+00
        -11   -1    0    0    0    0  0.00000000000E+00  0.00000000000E+00  0.45593999997E+02  0.45594000000E+02  0.51100000000E-03 0.  1.
         11   -1    0    0    0    0 -0.00000000000E+00 -0.00000000000E+00 -0.45593999997E+02  0.45594000000E+02  0.51100000000E-03 0. -1.
         23    2    1    2    0    0  0.00000000000E+00  0.00000000000E+00  0.88817841970E-15  0.91188000000E+02  0.91188000000E+02 0.  0.
    9900012    2    3    3    0    0 -0.25373756503E+02 -0.26175008918E+02 -0.51784078887E+01  0.54367156457E+02  0.40000164776E+02 0.  0.
         12    1    3    3    0    0  0.25373756503E+02  0.26175008918E+02  0.51784078887E+01  0.36820843543E+02  0.00000000000E+00 0. -1.
         11    1    4    4    0    0 -0.26499606197E+02 -0.85499943478E+01  0.32141585960E+01  0.28029669061E+02  0.51100000000E-03 0. -1.
        -11    1    4    4    0    0  0.13754280916E+00 -0.64559365171E+01  0.55016127842E+01  0.84832645736E+01  0.51100000000E-03 0.  1.
         12    1    4    4    0    0  0.98830688436E+00 -0.11169078053E+02 -0.13894179269E+02  0.17854222823E+02  0.00000000000E+00 0. -1.
</event>
<event>
 8    1  0.1261983E-006  0.9118800E+02  0.7816164E-02  0.1184000E+00
        -11   -1    0    0    0    0  0.00000000000E+00  0.00000000000E+00  0.45593999997E+02  0.45594000000E+02  0.51100000000E-03 0. -1.
         11   -1    0    0    0    0 -0.00000000000E+00 -0.00000000000E+00 -0.45593999997E+02  0.45594000000E+02  0.51100000000E-03 0.  1.
         23    2    1    2    0    0 -0.71054273576E-14  0.16653345369E-14  0.17763568394E-14  0.91188000000E+02  0.91188000000E+02 0.  0.
    9900012    2    3    3    0    0 -0.35203878246E+02  0.53298043486E+00  0.10778785760E+02  0.54367091074E+02  0.40000015721E+02 0.  0.
         12    1    3    3    0    0  0.35203878246E+02 -0.53298043486E+00 -0.10778785760E+02  0.36820908926E+02  0.00000000000E+00 0. -1.
         11    1    4    4    0    0 -0.17105566023E+02 -0.13704570357E+02  0.79691600060E+00  0.21932868326E+02  0.51100000000E-03 0. -1.
        -11    1    4    4    0    0 -0.10205143539E+02 -0.32285077071E+01 -0.25159519917E+00  0.10706610905E+02  0.51100000000E-03 0.  1.
         12    1    4    4    0    0 -0.78931686836E+01  0.17466058498E+02  0.10233464959E+02  0.21727611843E+02  0.00000000000E+00 0. -1.
</event>
<event>
 8    1  0.1261983E-006  0.9118800E+02  0.7816164E-02  0.1184000E+00
        -11   -1    0    0    0    0  0.00000000000E+00  0.00000000000E+00  0.45593999997E+02  0.45594000000E+02  0.51100000000E-03 0.  1.
         11   -1    0    0    0    0 -0.00000000000E+00 -0.00000000000E+00 -0.45593999997E+02  0.45594000000E+02  0.51100000000E-03 0. -1.
         23    2    1    2    0    0  0.35527136788E-14  0.00000000000E+00  0.00000000000E+00  0.91188000000E+02  0.91188000000E+02 0.  0.
    9900012    2    3    3    0    0 -0.27192504506E+02  0.93156609138E+01  0.23012303027E+02  0.54367082980E+02  0.39999997270E+02 0.  0.
        -12    1    3    3    0    0  0.27192504506E+02 -0.93156609138E+01 -0.23012303027E+02  0.36820917020E+02  0.00000000000E+00 0.  1.
         11    1    4    4    0    0 -0.82859168883E+01  0.76526541663E+01  0.24355802961E+02  0.26840727870E+02  0.51100000000E-03 0. -1.
        -11    1    4    4    0    0 -0.10521357426E+02 -0.81479938311E+01  0.34689791322E+01  0.13752184628E+02  0.51100000000E-03 0.  1.
         12    1    4    4    0    0 -0.83852301913E+01  0.98110005786E+01 -0.48124790661E+01  0.13774170482E+02  0.00000000000E+00 0. -1.
</event>
<event>
 8    1  0.1261983E-006  0.9118800E+02  0.7816164E-02  0.1184000E+00
        -11   -1    0    0    0    0  0.00000000000E+00  0.00000000000E+00  0.45593999997E+02  0.45594000000E+02  0.51100000000E-03 0.  1.
         11   -1    0    0    0    0 -0.00000000000E+00 -0.00000000000E+00 -0.45593999997E+02  0.45594000000E+02  0.51100000000E-03 0. -1.
         23    2    1    2    0    0  0.00000000000E+00  0.00000000000E+00  0.00000000000E+00  0.91188000000E+02  0.91188000000E+02 0.  0.
    9900012    2    3    3    0    0  0.21319126302E+02  0.28691011121E+02  0.88374631819E+01  0.54367081748E+02  0.39999994461E+02 0.  0.
         12    1    3    3    0    0 -0.21319126302E+02 -0.28691011121E+02 -0.88374631819E+01  0.36820918252E+02  0.00000000000E+00 0. -1.
         11    1    4    4    0    0  0.20033939086E+02  0.11183053289E+02  0.26091087215E+01  0.23091705107E+02  0.51100000000E-03 0. -1.
        -11    1    4    4    0    0 -0.57141448565E+01  0.19569743020E+02 -0.17520115471E+01  0.20462058499E+02  0.51100000000E-03 0.  1.
        -12    1    4    4    0    0  0.69993320724E+01 -0.20617851878E+01  0.79803660076E+01  0.10813318142E+02  0.00000000000E+00 0.  1.
</event>
<event>
 8    1  0.1261983E-006  0.9118800E+02  0.7816164E-02  0.1184000E+00
        -11   -1    0    0    0    0  0.00000000000E+00  0.00000000000E+00  0.45593999997E+02  0.45594000000E+02  0.51100000000E-03 0. -1.
         11   -1    0    0    0    0 -0.00000000000E+00 -0.00000000000E+00 -0.45593999997E+02  0.45594000000E+02  0.51100000000E-03 0.  1.
         23    2    1    2    0    0  0.00000000000E+00 -0.88817841970E-15 -0.22204460493E-15  0.91188000000E+02  0.91188000000E+02 0.  0.
    9900012    2    3    3    0    0  0.36530085225E+02 -0.45180418163E+01 -0.95139741451E+00  0.54367285919E+02  0.40000459906E+02 0.  0.
         12    1    3    3    0    0 -0.36530085225E+02  0.45180418163E+01  0.95139741451E+00  0.36820714081E+02  0.00000000000E+00 0. -1.
         11    1    4    4    0    0  0.28818443197E+01 -0.34899587226E+01  0.60019453983E+01  0.75171927868E+01  0.51100000000E-03 0. -1.
        -11    1    4    4    0    0  0.41054574091E+00 -0.10792995123E+01 -0.13013309307E+02  0.13064442377E+02  0.51100000000E-03 0.  1.
        -12    1    4    4    0    0  0.33237695165E+02  0.51216418652E-01  0.60599664944E+01  0.33785650754E+02  0.00000000000E+00 0.  1.
</event>
<event>
 8    1  0.1261983E-006  0.9118800E+02  0.7816164E-02  0.1184000E+00
        -11   -1    0    0    0    0  0.00000000000E+00  0.00000000000E+00  0.45593999997E+02  0.45594000000E+02  0.51100000000E-03 0.  1.
         11   -1    0    0    0    0 -0.00000000000E+00 -0.00000000000E+00 -0.45593999997E+02  0.45594000000E+02  0.51100000000E-03 0. -1.
         23    2    1    2    0    0  0.00000000000E+00  0.00000000000E+00 -0.17763568394E-14  0.91188000000E+02  0.91188000000E+02 0.  0.
    9900012    2    3    3    0    0  0.18435768040E+02  0.29738433285E+02 -0.11468482511E+02  0.54367108531E+02  0.40000055519E+02 0.  0.
        -12    1    3    3    0    0 -0.18435768040E+02 -0.29738433285E+02  0.11468482511E+02  0.36820891469E+02  0.00000000000E+00 0.  1.
         11    1    4    4    0    0 -0.44043641546E+01  0.12095936186E+02 -0.10080263050E+02  0.16349978570E+02  0.51100000000E-03 0. -1.
        -11    1    4    4    0    0  0.47050359189E+01  0.12065510559E+02 -0.10776894994E+02  0.16848008013E+02  0.51100000000E-03 0.  1.
        -12    1    4    4    0    0  0.18135096275E+02  0.55769865399E+01  0.93886755332E+01  0.21169121948E+02  0.00000000000E+00 0.  1.
</event>
<event>
 8    1  0.1261983E-006  0.9118800E+02  0.7816164E-02  0.1184000E+00
        -11   -1    0    0    0    0  0.00000000000E+00  0.00000000000E+00  0.45593999997E+02  0.45594000000E+02  0.51100000000E-03 0.  1.
         11   -1    0    0    0    0 -0.00000000000E+00 -0.00000000000E+00 -0.45593999997E+02  0.45594000000E+02  0.51100000000E-03 0. -1.
         23    2    1    2    0    0  0.17763568394E-14  0.00000000000E+00  0.00000000000E+00  0.91188000000E+02  0.91188000000E+02 0.  0.
    9900012    2    3    3    0    0 -0.87658442349E+01  0.27970921421E+02  0.22283794966E+02  0.54367082189E+02  0.39999995467E+02 0.  0.
         12    1    3    3    0    0  0.87658442349E+01 -0.27970921421E+02 -0.22283794966E+02  0.36820917811E+02  0.00000000000E+00 0. -1.
         11    1    4    4    0    0  0.61208635453E+01  0.27531649713E+01  0.17535658875E+02  0.18776160959E+02  0.51100000000E-03 0. -1.
        -11    1    4    4    0    0  0.29144492309E+01  0.86475914007E+01  0.65066544672E+01  0.11207649351E+02  0.51100000000E-03 0.  1.
        -12    1    4    4    0    0 -0.17801157011E+02  0.16570165049E+02 -0.17585183757E+01  0.24383271880E+02  0.00000000000E+00 0.  1.
</event>
<event>
 8    1  0.1261983E-006  0.9118800E+02  0.7816164E-02  0.1184000E+00
        -11   -1    0    0    0    0  0.00000000000E+00  0.00000000000E+00  0.45593999997E+02  0.45594000000E+02  0.51100000000E-03 0.  1.
         11   -1    0    0    0    0 -0.00000000000E+00 -0.00000000000E+00 -0.45593999997E+02  0.45594000000E+02  0.51100000000E-03 0. -1.
         23    2    1    2    0    0  0.00000000000E+00  0.00000000000E+00  0.88817841970E-15  0.91188000000E+02  0.91188000000E+02 0.  0.
    9900012    2    3    3    0    0  0.33661691154E+02  0.13945732257E+02  0.53091467454E+01  0.54367082865E+02  0.39999997006E+02 0.  0.
        -12    1    3    3    0    0 -0.33661691154E+02 -0.13945732257E+02 -0.53091467454E+01  0.36820917135E+02  0.00000000000E+00 0.  1.
         11    1    4    4    0    0  0.16947927264E+02  0.79707004954E+01  0.18734595366E+02  0.26490552443E+02  0.51100000000E-03 0. -1.
        -11    1    4    4    0    0  0.26504210821E+01  0.52942246582E+01 -0.12422247565E+02  0.13761023998E+02  0.51100000000E-03 0.  1.
         12    1    4    4    0    0  0.14063342808E+02  0.68080710344E+00 -0.10032010561E+01  0.14115506424E+02  0.00000000000E+00 0. -1.
</event>
<event>
 8    1  0.1261983E-006  0.9118800E+02  0.7816164E-02  0.1184000E+00
        -11   -1    0    0    0    0  0.00000000000E+00  0.00000000000E+00  0.45593999997E+02  0.45594000000E+02  0.51100000000E-03 0.  1.
         11   -1    0    0    0    0 -0.00000000000E+00 -0.00000000000E+00 -0.45593999997E+02  0.45594000000E+02  0.51100000000E-03 0. -1.
         23    2    1    2    0    0 -0.44408920985E-15  0.00000000000E+00  0.00000000000E+00  0.91188000000E+02  0.91188000000E+02 0.  0.
    9900012    2    3    3    0    0 -0.36442429496E+01 -0.20458989857E+02 -0.30396260682E+02  0.54367035372E+02  0.39999888738E+02 0.  0.
        -12    1    3    3    0    0  0.36442429496E+01  0.20458989857E+02  0.30396260682E+02  0.36820964628E+02  0.00000000000E+00 0.  1.
         11    1    4    4    0    0  0.40363030734E+01 -0.15673278584E+02 -0.15866212987E+02  0.22664512324E+02  0.51100000000E-03 0. -1.
        -11    1    4    4    0    0  0.84721645797E+01  0.54255941921E+00 -0.11706717328E+02  0.14460953435E+02  0.51100000000E-03 0.  1.
         12    1    4    4    0    0 -0.16152710603E+02 -0.53282706927E+01 -0.28233303672E+01  0.17241569614E+02  0.00000000000E+00 0. -1.
</event>
<event>
 8    1  0.1261983E-006  0.9118800E+02  0.7816164E-02  0.1184000E+00
        -11   -1    0    0    0    0  0.00000000000E+00  0.00000000000E+00  0.45593999997E+02  0.45594000000E+02  0.51100000000E-03 0.  1.
         11   -1    0    0    0    0 -0.00000000000E+00 -0.00000000000E+00 -0.45593999997E+02  0.45594000000E+02  0.51100000000E-03 0. -1.
         23    2    1    2    0    0  0.35527136788E-14 -0.17763568394E-14 -0.35527136788E-14  0.91188000000E+02  0.91188000000E+02 0.  0.
    9900012    2    3    3    0    0 -0.23131018043E+02  0.12116242541E+02  0.25960217181E+02  0.54367079247E+02  0.39999988760E+02 0.  0.
        -12    1    3    3    0    0  0.23131018043E+02 -0.12116242541E+02 -0.25960217181E+02  0.36820920753E+02  0.00000000000E+00 0.  1.
         11    1    4    4    0    0 -0.31037446508E+01 -0.63285922652E+01 -0.35592365382E+00  0.70576903322E+01  0.51100000000E-03 0. -1.
        -11    1    4    4    0    0  0.54733174877E+00  0.16514784464E+02  0.19477413983E+02  0.25542265633E+02  0.51100000000E-03 0.  1.
         12    1    4    4    0    0 -0.20574605141E+02  0.19300503424E+01  0.68387268515E+01  0.21767123282E+02  0.00000000000E+00 0. -1.
</event>
<event>
 8    1  0.1261983E-006  0.9118800E+02  0.7816164E-02  0.1184000E+00
        -11   -1    0    0    0    0  0.00000000000E+00  0.00000000000E+00  0.45593999997E+02  0.45594000000E+02  0.51100000000E-03 0. -1.
         11   -1    0    0    0    0 -0.00000000000E+00 -0.00000000000E+00 -0.45593999997E+02  0.45594000000E+02  0.51100000000E-03 0.  1.
         23    2    1    2    0    0  0.48572257327E-15  0.71054273576E-14  0.17763568394E-14  0.91188000000E+02  0.91188000000E+02 0.  0.
    9900012    2    3    3    0    0 -0.12026057751E+00 -0.34461639821E+02 -0.12967746662E+02  0.54367061185E+02  0.39999947583E+02 0.  0.
         12    1    3    3    0    0  0.12026057751E+00  0.34461639821E+02  0.12967746662E+02  0.36820938815E+02  0.00000000000E+00 0. -1.
         11    1    4    4    0    0 -0.62834059824E+01 -0.10460681165E+02  0.78673945651E+01  0.14519054331E+02  0.51100000000E-03 0. -1.
        -11    1    4    4    0    0 -0.83266562619E+01 -0.12981463138E+02 -0.67677743193E+01  0.16842041420E+02  0.51100000000E-03 0.  1.
         12    1    4    4    0    0  0.14489801667E+02 -0.11019495518E+02 -0.14067366908E+02  0.23005965433E+02  0.00000000000E+00 0. -1.
</event>
<event>
 8    1  0.1261983E-006  0.9118800E+02  0.7816164E-02  0.1184000E+00
        -11   -1    0    0    0    0  0.00000000000E+00  0.00000000000E+00  0.45593999997E+02  0.45594000000E+02  0.51100000000E-03 0. -1.
         11   -1    0    0    0    0 -0.00000000000E+00 -0.00000000000E+00 -0.45593999997E+02  0.45594000000E+02  0.51100000000E-03 0.  1.
         23    2    1    2    0    0  0.00000000000E+00 -0.88817841970E-15  0.00000000000E+00  0.91188000000E+02  0.91188000000E+02 0.  0.
    9900012    2    3    3    0    0  0.16141311072E+02 -0.79615003056E+01 -0.32122445547E+02  0.54367096722E+02  0.40000028598E+02 0.  0.
         12    1    3    3    0    0 -0.16141311072E+02  0.79615003056E+01  0.32122445547E+02  0.36820903278E+02  0.00000000000E+00 0. -1.
         11    1    4    4    0    0 -0.73172305417E+00 -0.21251016772E+01 -0.30387949364E+01  0.37796495463E+01  0.51100000000E-03 0. -1.
        -11    1    4    4    0    0  0.16190435795E+02 -0.10847783910E+02 -0.36636587386E+02  0.41497519957E+02  0.51100000000E-03 0.  1.
         12    1    4    4    0    0  0.68259833122E+00  0.50113852819E+01  0.75529367752E+01  0.90899272195E+01  0.00000000000E+00 0. -1.
</event>
<event>
 8    1  0.1261983E-006  0.9118800E+02  0.7816164E-02  0.1184000E+00
        -11   -1    0    0    0    0  0.00000000000E+00  0.00000000000E+00  0.45593999997E+02  0.45594000000E+02  0.51100000000E-03 0. -1.
         11   -1    0    0    0    0 -0.00000000000E+00 -0.00000000000E+00 -0.45593999997E+02  0.45594000000E+02  0.51100000000E-03 0.  1.
         23    2    1    2    0    0  0.00000000000E+00  0.00000000000E+00  0.00000000000E+00  0.91188000000E+02  0.91188000000E+02 0.  0.
    9900012    2    3    3    0    0 -0.30447796680E+02  0.17201045192E+02  0.11525316312E+02  0.54367120130E+02  0.40000081959E+02 0.  0.
         12    1    3    3    0    0  0.30447796680E+02 -0.17201045192E+02 -0.11525316312E+02  0.36820879870E+02  0.00000000000E+00 0. -1.
         11    1    4    4    0    0 -0.18366924050E+01  0.34649134308E+01 -0.62702144387E+01  0.73955833740E+01  0.51100000000E-03 0. -1.
        -11    1    4    4    0    0 -0.73943882795E+01  0.13943416516E+02 -0.42797615587E+01  0.16352742933E+02  0.51100000000E-03 0.  1.
         12    1    4    4    0    0 -0.21216715995E+02 -0.20728475496E+00  0.22075292309E+02  0.30618793822E+02  0.00000000000E+00 0. -1.
</event>
<event>
 8    1  0.1261983E-006  0.9118800E+02  0.7816164E-02  0.1184000E+00
        -11   -1    0    0    0    0  0.00000000000E+00  0.00000000000E+00  0.45593999997E+02  0.45594000000E+02  0.51100000000E-03 0. -1.
         11   -1    0    0    0    0 -0.00000000000E+00 -0.00000000000E+00 -0.45593999997E+02  0.45594000000E+02  0.51100000000E-03 0.  1.
         23    2    1    2    0    0  0.00000000000E+00  0.35527136788E-14  0.00000000000E+00  0.91188000000E+02  0.91188000000E+02 0.  0.
    9900012    2    3    3    0    0 -0.30029963144E+02 -0.17477976212E+02 -0.12186069593E+02  0.54367100622E+02  0.40000037488E+02 0.  0.
         12    1    3    3    0    0  0.30029963144E+02  0.17477976212E+02  0.12186069593E+02  0.36820899378E+02  0.00000000000E+00 0. -1.
         11    1    4    4    0    0 -0.43291039891E+01 -0.81887053178E+01 -0.14397459335E+02  0.17119663306E+02  0.51100000000E-03 0. -1.
        -11    1    4    4    0    0 -0.52137514342E+01  0.85482426159E+01  0.33375693379E+00  0.10018335680E+02  0.51100000000E-03 0.  1.
        -12    1    4    4    0    0 -0.20487107721E+02 -0.17837513510E+02  0.18776328085E+01  0.27229101637E+02  0.00000000000E+00 0.  1.
</event>
<event>
 8    1  0.1261983E-006  0.9118800E+02  0.7816164E-02  0.1184000E+00
        -11   -1    0    0    0    0  0.00000000000E+00  0.00000000000E+00  0.45593999997E+02  0.45594000000E+02  0.51100000000E-03 0. -1.
         11   -1    0    0    0    0 -0.00000000000E+00 -0.00000000000E+00 -0.45593999997E+02  0.45594000000E+02  0.51100000000E-03 0.  1.
         23    2    1    2    0    0  0.71054273576E-14  0.00000000000E+00 -0.44408920985E-15  0.91188000000E+02  0.91188000000E+02 0.  0.
    9900012    2    3    3    0    0  0.35096766213E+02  0.10612715426E+02 -0.33715179679E+01  0.54367083923E+02  0.39999999419E+02 0.  0.
        -12    1    3    3    0    0 -0.35096766213E+02 -0.10612715426E+02  0.33715179679E+01  0.36820916077E+02  0.00000000000E+00 0.  1.
         11    1    4    4    0    0  0.34127559119E+02  0.83557576799E+01 -0.63920319743E+01  0.35712281513E+02  0.51100000000E-03 0. -1.
        -11    1    4    4    0    0 -0.52224307144E+01  0.75419832819E+01  0.47532532229E+01  0.10331926774E+02  0.51100000000E-03 0.  1.
         12    1    4    4    0    0  0.61916378086E+01 -0.52850255362E+01 -0.17327392165E+01  0.83228756367E+01  0.00000000000E+00 0. -1.
</event>
<event>
 8    1  0.1261983E-006  0.9118800E+02  0.7816164E-02  0.1184000E+00
        -11   -1    0    0    0    0  0.00000000000E+00  0.00000000000E+00  0.45593999997E+02  0.45594000000E+02  0.51100000000E-03 0. -1.
         11   -1    0    0    0    0 -0.00000000000E+00 -0.00000000000E+00 -0.45593999997E+02  0.45594000000E+02  0.51100000000E-03 0.  1.
         23    2    1    2    0    0  0.00000000000E+00 -0.17763568394E-14 -0.17763568394E-14  0.91188000000E+02  0.91188000000E+02 0.  0.
    9900012    2    3    3    0    0 -0.33450624492E+02  0.14715614969E+02 -0.45040112538E+01  0.54367085832E+02  0.40000003771E+02 0.  0.
        -12    1    3    3    0    0  0.33450624492E+02 -0.14715614969E+02  0.45040112538E+01  0.36820914168E+02  0.00000000000E+00 0.  1.
         11    1    4    4    0    0 -0.16165019161E+02  0.92685216815E+00 -0.18201981524E+01  0.16293557653E+02  0.51100000000E-03 0. -1.
        -11    1    4    4    0    0 -0.96774404274E+01  0.11261129572E+02 -0.16439391410E+02  0.22152189116E+02  0.51100000000E-03 0.  1.
         12    1    4    4    0    0 -0.76081649027E+01  0.25276332293E+01  0.13755578309E+02  0.15921339062E+02  0.00000000000E+00 0. -1.
</event>
<event>
 8    1  0.1261983E-006  0.9118800E+02  0.7816164E-02  0.1184000E+00
        -11   -1    0    0    0    0  0.00000000000E+00  0.00000000000E+00  0.45593999997E+02  0.45594000000E+02  0.51100000000E-03 0.  1.
         11   -1    0    0    0    0 -0.00000000000E+00 -0.00000000000E+00 -0.45593999997E+02  0.45594000000E+02  0.51100000000E-03 0. -1.
         23    2    1    2    0    0 -0.35527136788E-14  0.35527136788E-14  0.00000000000E+00  0.91188000000E+02  0.91188000000E+02 0.  0.
    9900012    2    3    3    0    0 -0.12609270493E+02  0.29816187733E+02 -0.17543685842E+02  0.54367086565E+02  0.40000005441E+02 0.  0.
        -12    1    3    3    0    0  0.12609270493E+02 -0.29816187733E+02  0.17543685842E+02  0.36820913435E+02  0.00000000000E+00 0.  1.
         11    1    4    4    0    0  0.44473737989E+01  0.17018374958E+02  0.37534383800E+01  0.17985897805E+02  0.51100000000E-03 0. -1.
        -11    1    4    4    0    0  0.35105504892E+01  0.64312578007E+01 -0.23313307537E+01  0.76889625426E+01  0.51100000000E-03 0.  1.
         12    1    4    4    0    0 -0.20567194781E+02  0.63665549742E+01 -0.18965793468E+02  0.28692226217E+02  0.00000000000E+00 0. -1.
</event>
<event>
 8    1  0.1261983E-006  0.9118800E+02  0.7816164E-02  0.1184000E+00
        -11   -1    0    0    0    0  0.00000000000E+00  0.00000000000E+00  0.45593999997E+02  0.45594000000E+02  0.51100000000E-03 0.  1.
         11   -1    0    0    0    0 -0.00000000000E+00 -0.00000000000E+00 -0.45593999997E+02  0.45594000000E+02  0.51100000000E-03 0. -1.
         23    2    1    2    0    0  0.00000000000E+00  0.13322676296E-14  0.55511151231E-15  0.91188000000E+02  0.91188000000E+02 0.  0.
    9900012    2    3    3    0    0 -0.36777633699E+02 -0.17620183712E+01 -0.28808384506E+00  0.54367054309E+02  0.39999931909E+02 0.  0.
        -12    1    3    3    0    0  0.36777633699E+02  0.17620183712E+01  0.28808384506E+00  0.36820945691E+02  0.00000000000E+00 0.  1.
         11    1    4    4    0    0 -0.21977606410E+01 -0.32568843895E+01 -0.47980513400E+01  0.62015114838E+01  0.51100000000E-03 0. -1.
        -11    1    4    4    0    0 -0.24568448487E+02 -0.86763283948E+01  0.15352657978E+02  0.30242212927E+02  0.51100000000E-03 0.  1.
         12    1    4    4    0    0 -0.10011424571E+02  0.10171194413E+02 -0.10842690483E+02  0.17923329898E+02  0.00000000000E+00 0. -1.
</event>
<event>
 8    1  0.1261983E-006  0.9118800E+02  0.7816164E-02  0.1184000E+00
        -11   -1    0    0    0    0  0.00000000000E+00  0.00000000000E+00  0.45593999997E+02  0.45594000000E+02  0.51100000000E-03 0. -1.
         11   -1    0    0    0    0 -0.00000000000E+00 -0.00000000000E+00 -0.45593999997E+02  0.45594000000E+02  0.51100000000E-03 0.  1.
         23    2    1    2    0    0  0.35527136788E-14  0.00000000000E+00  0.00000000000E+00  0.91188000000E+02  0.91188000000E+02 0.  0.
    9900012    2    3    3    0    0  0.30912335543E+02 -0.88178980322E+01 -0.17956953694E+02  0.54367082027E+02  0.39999995097E+02 0.  0.
         12    1    3    3    0    0 -0.30912335543E+02  0.88178980322E+01  0.17956953694E+02  0.36820917973E+02  0.00000000000E+00 0. -1.
         11    1    4    4    0    0  0.96990934692E+01  0.21899883224E+01 -0.84162756168E+01  0.13026978103E+02  0.51100000000E-03 0. -1.
        -11    1    4    4    0    0  0.14133873212E+02  0.59466296432E+01 -0.15715671181E+02  0.21957028419E+02  0.51100000000E-03 0.  1.
         12    1    4    4    0    0  0.70793688620E+01 -0.16954515998E+02  0.61749931032E+01  0.19383075505E+02  0.00000000000E+00 0. -1.
</event>
<event>
 8    1  0.1261983E-006  0.9118800E+02  0.7816164E-02  0.1184000E+00
        -11   -1    0    0    0    0  0.00000000000E+00  0.00000000000E+00  0.45593999997E+02  0.45594000000E+02  0.51100000000E-03 0.  1.
         11   -1    0    0    0    0 -0.00000000000E+00 -0.00000000000E+00 -0.45593999997E+02  0.45594000000E+02  0.51100000000E-03 0. -1.
         23    2    1    2    0    0 -0.35527136788E-14  0.35527136788E-14 -0.17763568394E-14  0.91188000000E+02  0.91188000000E+02 0.  0.
    9900012    2    3    3    0    0  0.18502631838E+02  0.28827178404E+02  0.13506459111E+02  0.54367108683E+02  0.40000055864E+02 0.  0.
         12    1    3    3    0    0 -0.18502631838E+02 -0.28827178404E+02 -0.13506459111E+02  0.36820891317E+02  0.00000000000E+00 0. -1.
         11    1    4    4    0    0 -0.61291235299E+00  0.26673149372E+01 -0.21288920060E+01  0.34673349941E+01  0.51100000000E-03 0. -1.
        -11    1    4    4    0    0 -0.10618128842E+02  0.89720329413E+01  0.65926562193E+01  0.15385225104E+02  0.51100000000E-03 0.  1.
         12    1    4    4    0    0  0.29733673033E+02  0.17187830526E+02  0.90426948979E+01  0.35514548585E+02  0.00000000000E+00 0. -1.
</event>
<event>
 8    1  0.1261983E-006  0.9118800E+02  0.7816164E-02  0.1184000E+00
        -11   -1    0    0    0    0  0.00000000000E+00  0.00000000000E+00  0.45593999997E+02  0.45594000000E+02  0.51100000000E-03 0.  1.
         11   -1    0    0    0    0 -0.00000000000E+00 -0.00000000000E+00 -0.45593999997E+02  0.45594000000E+02  0.51100000000E-03 0. -1.
         23    2    1    2    0    0 -0.35527136788E-14  0.00000000000E+00  0.88817841970E-15  0.91188000000E+02  0.91188000000E+02 0.  0.
    9900012    2    3    3    0    0 -0.27261740029E+02 -0.24393886207E+02  0.41852163145E+01  0.54367079462E+02  0.39999989249E+02 0.  0.
         12    1    3    3    0    0  0.27261740029E+02  0.24393886207E+02 -0.41852163145E+01  0.36820920538E+02  0.00000000000E+00 0. -1.
         11    1    4    4    0    0 -0.31638495321E+01 -0.16263616598E+02 -0.66589001171E+01  0.17856542771E+02  0.51100000000E-03 0. -1.
        -11    1    4    4    0    0 -0.73127529476E+01  0.84496231228E+01  0.22361114951E+01  0.11396169596E+02  0.51100000000E-03 0.  1.
        -12    1    4    4    0    0 -0.16785137549E+02 -0.16579892732E+02  0.86080049366E+01  0.25114367094E+02  0.00000000000E+00 0.  1.
</event>
<event>
 8    1  0.1261983E-006  0.9118800E+02  0.7816164E-02  0.1184000E+00
        -11   -1    0    0    0    0  0.00000000000E+00  0.00000000000E+00  0.45593999997E+02  0.45594000000E+02  0.51100000000E-03 0.  1.
         11   -1    0    0    0    0 -0.00000000000E+00 -0.00000000000E+00 -0.45593999997E+02  0.45594000000E+02  0.51100000000E-03 0. -1.
         23    2    1    2    0    0  0.44408920985E-15  0.88817841970E-15 -0.71054273576E-14  0.91188000000E+02  0.91188000000E+02 0.  0.
    9900012    2    3    3    0    0  0.35676352246E+01  0.36940333415E+01 -0.36460989746E+02  0.54367113581E+02  0.40000067031E+02 0.  0.
        -12    1    3    3    0    0 -0.35676352246E+01 -0.36940333415E+01  0.36460989746E+02  0.36820886419E+02  0.00000000000E+00 0.  1.
         11    1    4    4    0    0  0.88994635654E+01  0.25098359922E+01 -0.29639650838E+02  0.31048488377E+02  0.51100000000E-03 0.  1.
        -11    1    4    4    0    0  0.75042595838E+01  0.12169308644E+01 -0.72087033593E+01  0.10476651994E+02  0.51100000000E-03 0. -1.
        -12    1    4    4    0    0 -0.12836087925E+02 -0.32733515163E-01  0.38736445147E+00  0.12841973209E+02  0.00000000000E+00 0.  1.
</event>
<event>
 8    1  0.1261983E-006  0.9118800E+02  0.7816164E-02  0.1184000E+00
        -11   -1    0    0    0    0  0.00000000000E+00  0.00000000000E+00  0.45593999997E+02  0.45594000000E+02  0.51100000000E-03 0. -1.
         11   -1    0    0    0    0 -0.00000000000E+00 -0.00000000000E+00 -0.45593999997E+02  0.45594000000E+02  0.51100000000E-03 0.  1.
         23    2    1    2    0    0  0.00000000000E+00  0.00000000000E+00  0.00000000000E+00  0.91188000000E+02  0.91188000000E+02 0.  0.
    9900012    2    3    3    0    0 -0.74421838286E+01  0.86247349401E+01  0.35014392527E+02  0.54367084246E+02  0.40000000156E+02 0.  0.
        -12    1    3    3    0    0  0.74421838286E+01 -0.86247349401E+01 -0.35014392527E+02  0.36820915754E+02  0.00000000000E+00 0.  1.
         11    1    4    4    0    0  0.93782888385E+01  0.29021317183E+01  0.10340998524E+02  0.14258713855E+02  0.51100000000E-03 0. -1.
        -11    1    4    4    0    0  0.29488916872E+01  0.70705549483E+01  0.17379972553E+02  0.18993476661E+02  0.51100000000E-03 0.  1.
        -12    1    4    4    0    0 -0.19769364354E+02 -0.13479517265E+01  0.72934214496E+01  0.21114893731E+02  0.00000000000E+00 0.  1.
</event>
<event>
 8    1  0.1261983E-006  0.9118800E+02  0.7816164E-02  0.1184000E+00
        -11   -1    0    0    0    0  0.00000000000E+00  0.00000000000E+00  0.45593999997E+02  0.45594000000E+02  0.51100000000E-03 0.  1.
         11   -1    0    0    0    0 -0.00000000000E+00 -0.00000000000E+00 -0.45593999997E+02  0.45594000000E+02  0.51100000000E-03 0. -1.
         23    2    1    2    0    0  0.35527136788E-14  0.35527136788E-14  0.00000000000E+00  0.91188000000E+02  0.91188000000E+02 0.  0.
    9900012    2    3    3    0    0 -0.28549310499E+02  0.15464201865E+02 -0.17365919681E+02  0.54367084264E+02  0.40000000196E+02 0.  0.
        -12    1    3    3    0    0  0.28549310499E+02 -0.15464201865E+02  0.17365919681E+02  0.36820915736E+02  0.00000000000E+00 0.  1.
         11    1    4    4    0    0 -0.25412188134E+02  0.63357070611E+00 -0.24473095208E+01  0.25537620127E+02  0.51100000000E-03 0. -1.
        -11    1    4    4    0    0  0.10183776766E+01  0.16822298917E+02 -0.16851151107E+02  0.23832501502E+02  0.51100000000E-03 0.  1.
        -12    1    4    4    0    0 -0.41555000414E+01 -0.19916677585E+01  0.19325409472E+01  0.49969626341E+01  0.00000000000E+00 0.  1.
</event>
<event>
 8    1  0.1261983E-006  0.9118800E+02  0.7816164E-02  0.1184000E+00
        -11   -1    0    0    0    0  0.00000000000E+00  0.00000000000E+00  0.45593999997E+02  0.45594000000E+02  0.51100000000E-03 0.  1.
         11   -1    0    0    0    0 -0.00000000000E+00 -0.00000000000E+00 -0.45593999997E+02  0.45594000000E+02  0.51100000000E-03 0. -1.
         23    2    1    2    0    0  0.00000000000E+00  0.17763568394E-14  0.00000000000E+00  0.91188000000E+02  0.91188000000E+02 0.  0.
    9900012    2    3    3    0    0  0.33600209771E+02  0.69391410917E+01  0.13366150006E+02  0.54367085539E+02  0.40000003104E+02 0.  0.
         12    1    3    3    0    0 -0.33600209771E+02 -0.69391410917E+01 -0.13366150006E+02  0.36820914461E+02  0.00000000000E+00 0. -1.
         11    1    4    4    0    0 -0.39830214732E+01  0.91407173196E+01  0.99576754691E+01  0.14091574581E+02  0.51100000000E-03 0. -1.
        -11    1    4    4    0    0  0.46452931110E+01  0.23111528962E+01 -0.35794859603E+01  0.63034035091E+01  0.51100000000E-03 0.  1.
         12    1    4    4    0    0  0.32937938133E+02 -0.45127291241E+01  0.69879604970E+01  0.33972107449E+02  0.00000000000E+00 0. -1.
</event>
<event>
 8    1  0.1261983E-006  0.9118800E+02  0.7816164E-02  0.1184000E+00
        -11   -1    0    0    0    0  0.00000000000E+00  0.00000000000E+00  0.45593999997E+02  0.45594000000E+02  0.51100000000E-03 0.  1.
         11   -1    0    0    0    0 -0.00000000000E+00 -0.00000000000E+00 -0.45593999997E+02  0.45594000000E+02  0.51100000000E-03 0. -1.
         23    2    1    2    0    0  0.88817841970E-15  0.00000000000E+00  0.17763568394E-14  0.91188000000E+02  0.91188000000E+02 0.  0.
    9900012    2    3    3    0    0  0.54262948065E+01  0.35232512351E+02  0.92198161154E+01  0.54367087313E+02  0.40000007148E+02 0.  0.
        -12    1    3    3    0    0 -0.54262948065E+01 -0.35232512351E+02 -0.92198161154E+01  0.36820912687E+02  0.00000000000E+00 0.  1.
         11    1    4    4    0    0  0.59027000265E+01  0.45377763528E+01 -0.10971902260E+02  0.13259559619E+02  0.51100000000E-03 0. -1.
        -11    1    4    4    0    0  0.52645268882E+01  0.75425121542E+01 -0.93228637078E+00  0.92452090885E+01  0.51100000000E-03 0.  1.
        -12    1    4    4    0    0 -0.57409321082E+01  0.23152223844E+02  0.21124004746E+02  0.31862318605E+02  0.00000000000E+00 0.  1.
</event>
<event>
 8    1  0.1261983E-006  0.9118800E+02  0.7816164E-02  0.1184000E+00
        -11   -1    0    0    0    0  0.00000000000E+00  0.00000000000E+00  0.45593999997E+02  0.45594000000E+02  0.51100000000E-03 0.  1.
         11   -1    0    0    0    0 -0.00000000000E+00 -0.00000000000E+00 -0.45593999997E+02  0.45594000000E+02  0.51100000000E-03 0. -1.
         23    2    1    2    0    0  0.17763568394E-14  0.00000000000E+00 -0.17763568394E-14  0.91188000000E+02  0.91188000000E+02 0.  0.
    9900012    2    3    3    0    0  0.81902611119E+01  0.35179658492E+02 -0.71477769550E+01  0.54367089309E+02  0.40000011699E+02 0.  0.
         12    1    3    3    0    0 -0.81902611119E+01 -0.35179658492E+02  0.71477769550E+01  0.36820910691E+02  0.00000000000E+00 0. -1.
         11    1    4    4    0    0 -0.25365693204E+01  0.11641480861E+02  0.15357898862E+02  0.19437677801E+02  0.51100000000E-03 0. -1.
        -11    1    4    4    0    0  0.10516957833E+02  0.16939228089E+02 -0.15121592592E+02  0.25024116630E+02  0.51100000000E-03 0.  1.
         12    1    4    4    0    0  0.20987259927E+00  0.65989495415E+01 -0.73840832253E+01  0.99052948789E+01  0.00000000000E+00 0. -1.
</event>
<event>
 8    1  0.1261983E-006  0.9118800E+02  0.7816164E-02  0.1184000E+00
        -11   -1    0    0    0    0  0.00000000000E+00  0.00000000000E+00  0.45593999997E+02  0.45594000000E+02  0.51100000000E-03 0.  1.
         11   -1    0    0    0    0 -0.00000000000E+00 -0.00000000000E+00 -0.45593999997E+02  0.45594000000E+02  0.51100000000E-03 0. -1.
         23    2    1    2    0    0  0.00000000000E+00  0.00000000000E+00  0.00000000000E+00  0.91188000000E+02  0.91188000000E+02 0.  0.
    9900012    2    3    3    0    0 -0.29987806524E+02 -0.14271650713E+02 -0.15900634932E+02  0.54367099068E+02  0.40000033946E+02 0.  0.
        -12    1    3    3    0    0  0.29987806524E+02  0.14271650713E+02  0.15900634932E+02  0.36820900932E+02  0.00000000000E+00 0.  1.
         11    1    4    4    0    0 -0.63748695514E+01  0.18093325437E+01 -0.33478215122E+01  0.74243218673E+01  0.51100000000E-03 0. -1.
        -11    1    4    4    0    0 -0.20686095743E+02  0.53478301465E+01  0.10515753460E+01  0.21392046544E+02  0.51100000000E-03 0.  1.
         12    1    4    4    0    0 -0.29268412297E+01 -0.21428813403E+02 -0.13604388766E+02  0.25550730657E+02  0.00000000000E+00 0. -1.
</event>
<event>
 8    1  0.1261983E-006  0.9118800E+02  0.7816164E-02  0.1184000E+00
        -11   -1    0    0    0    0  0.00000000000E+00  0.00000000000E+00  0.45593999997E+02  0.45594000000E+02  0.51100000000E-03 0.  1.
         11   -1    0    0    0    0 -0.00000000000E+00 -0.00000000000E+00 -0.45593999997E+02  0.45594000000E+02  0.51100000000E-03 0. -1.
         23    2    1    2    0    0  0.00000000000E+00  0.88817841970E-15  0.35527136788E-14  0.91188000000E+02  0.91188000000E+02 0.  0.
    9900012    2    3    3    0    0  0.18510212202E+02 -0.59747952789E+01 -0.31264240415E+02  0.54367097470E+02  0.40000030302E+02 0.  0.
        -12    1    3    3    0    0 -0.18510212202E+02  0.59747952789E+01  0.31264240415E+02  0.36820902530E+02  0.00000000000E+00 0.  1.
         11    1    4    4    0    0  0.17511433979E+02 -0.13985879101E+02 -0.11937370258E+02  0.25392044879E+02  0.51100000000E-03 0. -1.
        -11    1    4    4    0    0  0.71569061129E+01  0.52838646506E+01 -0.20306030781E+02  0.22169244847E+02  0.51100000000E-03 0.  1.
        -12    1    4    4    0    0 -0.61581278897E+01  0.27272191713E+01  0.97916062363E+00  0.68058077435E+01  0.00000000000E+00 0.  1.
</event>
<event>
 8    1  0.1261983E-006  0.9118800E+02  0.7816164E-02  0.1184000E+00
        -11   -1    0    0    0    0  0.00000000000E+00  0.00000000000E+00  0.45593999997E+02  0.45594000000E+02  0.51100000000E-03 0. -1.
         11   -1    0    0    0    0 -0.00000000000E+00 -0.00000000000E+00 -0.45593999997E+02  0.45594000000E+02  0.51100000000E-03 0.  1.
         23    2    1    2    0    0  0.17763568394E-14  0.00000000000E+00  0.00000000000E+00  0.91188000000E+02  0.91188000000E+02 0.  0.
    9900012    2    3    3    0    0  0.12633088804E+02  0.56337894301E+01  0.34123973481E+02  0.54367080916E+02  0.39999992563E+02 0.  0.
        -12    1    3    3    0    0 -0.12633088804E+02 -0.56337894301E+01 -0.34123973481E+02  0.36820919084E+02  0.00000000000E+00 0.  1.
         11    1    4    4    0    0  0.19204464460E+02  0.26357514733E+01  0.16488818975E+02  0.25448767995E+02  0.51100000000E-03 0. -1.
        -11    1    4    4    0    0  0.22892897301E+01  0.99265419932E+01  0.13548361690E+02  0.16950964225E+02  0.51100000000E-03 0.  1.
        -12    1    4    4    0    0 -0.88606653862E+01 -0.69285040364E+01  0.40867928157E+01  0.11967348695E+02  0.00000000000E+00 0.  1.
</event>
<event>
 8    1  0.1261983E-006  0.9118800E+02  0.7816164E-02  0.1184000E+00
        -11   -1    0    0    0    0  0.00000000000E+00  0.00000000000E+00  0.45593999997E+02  0.45594000000E+02  0.51100000000E-03 0.  1.
         11   -1    0    0    0    0 -0.00000000000E+00 -0.00000000000E+00 -0.45593999997E+02  0.45594000000E+02  0.51100000000E-03 0. -1.
         23    2    1    2    0    0  0.35527136788E-14  0.00000000000E+00  0.35527136788E-14  0.91188000000E+02  0.91188000000E+02 0.  0.
    9900012    2    3    3    0    0 -0.18635302377E+02  0.64802320794E+01 -0.31088744204E+02  0.54367110295E+02  0.40000059539E+02 0.  0.
        -12    1    3    3    0    0  0.18635302377E+02 -0.64802320794E+01  0.31088744204E+02  0.36820889705E+02  0.00000000000E+00 0.  1.
         11    1    4    4    0    0  0.72422531607E+01 -0.11028591206E+01 -0.79186445249E+01  0.10787560450E+02  0.51100000000E-03 0. -1.
        -11    1    4    4    0    0 -0.88806963220E+01  0.15625653860E+02 -0.94770837611E+01  0.20318536921E+02  0.51100000000E-03 0.  1.
         12    1    4    4    0    0 -0.16996859215E+02 -0.80425626604E+01 -0.13693015918E+02  0.23261012924E+02  0.00000000000E+00 0. -1.
</event>
<event>
 8    1  0.1261983E-006  0.9118800E+02  0.7816164E-02  0.1184000E+00
        -11   -1    0    0    0    0  0.00000000000E+00  0.00000000000E+00  0.45593999997E+02  0.45594000000E+02  0.51100000000E-03 0.  1.
         11   -1    0    0    0    0 -0.00000000000E+00 -0.00000000000E+00 -0.45593999997E+02  0.45594000000E+02  0.51100000000E-03 0. -1.
         23    2    1    2    0    0  0.44408920985E-15  0.00000000000E+00 -0.35527136788E-14  0.91188000000E+02  0.91188000000E+02 0.  0.
    9900012    2    3    3    0    0  0.19497723166E+00  0.30264380184E+02  0.20971632390E+02  0.54367080822E+02  0.39999992349E+02 0.  0.
         12    1    3    3    0    0 -0.19497723166E+00 -0.30264380184E+02 -0.20971632390E+02  0.36820919178E+02  0.00000000000E+00 0. -1.
         11    1    4    4    0    0 -0.30273760295E+00  0.16147763867E+01 -0.28063021230E+01  0.32518432776E+01  0.51100000000E-03 0. -1.
        -11    1    4    4    0    0 -0.13640470088E+02  0.22581841094E+01  0.13855796213E+02  0.19574087684E+02  0.51100000000E-03 0.  1.
         12    1    4    4    0    0  0.14138184923E+02  0.26391419687E+02  0.99221383003E+01  0.31541149860E+02  0.00000000000E+00 0. -1.
</event>
<event>
 8    1  0.1261983E-006  0.9118800E+02  0.7816164E-02  0.1184000E+00
        -11   -1    0    0    0    0  0.00000000000E+00  0.00000000000E+00  0.45593999997E+02  0.45594000000E+02  0.51100000000E-03 0.  1.
         11   -1    0    0    0    0 -0.00000000000E+00 -0.00000000000E+00 -0.45593999997E+02  0.45594000000E+02  0.51100000000E-03 0. -1.
         23    2    1    2    0    0  0.71054273576E-14 -0.13322676296E-14 -0.71054273576E-14  0.91188000000E+02  0.91188000000E+02 0.  0.
    9900012    2    3    3    0    0  0.21859774911E+02 -0.32930354114E+01 -0.29446324810E+02  0.54367083577E+02  0.39999998631E+02 0.  0.
        -12    1    3    3    0    0 -0.21859774911E+02  0.32930354114E+01  0.29446324810E+02  0.36820916423E+02  0.00000000000E+00 0.  1.
         11    1    4    4    0    0 -0.11421551148E+01 -0.90745344413E+00 -0.65778689164E+01  0.67376813373E+01  0.51100000000E-03 0. -1.
        -11    1    4    4    0    0  0.24958623345E+02 -0.11258689501E+02 -0.53550764197E+01  0.27899243938E+02  0.51100000000E-03 0.  1.
         12    1    4    4    0    0 -0.19566933191E+01  0.88731075333E+01 -0.17513379474E+02  0.19730158302E+02  0.00000000000E+00 0. -1.
</event>
<event>
 8    1  0.1261983E-006  0.9118800E+02  0.7816164E-02  0.1184000E+00
        -11   -1    0    0    0    0  0.00000000000E+00  0.00000000000E+00  0.45593999997E+02  0.45594000000E+02  0.51100000000E-03 0.  1.
         11   -1    0    0    0    0 -0.00000000000E+00 -0.00000000000E+00 -0.45593999997E+02  0.45594000000E+02  0.51100000000E-03 0. -1.
         23    2    1    2    0    0  0.00000000000E+00  0.35527136788E-14  0.00000000000E+00  0.91188000000E+02  0.91188000000E+02 0.  0.
    9900012    2    3    3    0    0  0.40650456120E+01  0.19201132171E+02  0.31154245814E+02  0.54366876922E+02  0.39999527516E+02 0.  0.
         12    1    3    3    0    0 -0.40650456120E+01 -0.19201132171E+02 -0.31154245814E+02  0.36821123078E+02  0.00000000000E+00 0. -1.
         11    1    4    4    0    0  0.51803066579E+01  0.12011951849E+02  0.23408880070E+02  0.26816006986E+02  0.51100000000E-03 0. -1.
        -11    1    4    4    0    0 -0.12173288324E+00 -0.16270154469E+01  0.15609897311E+02  0.15694932064E+02  0.51100000000E-03 0.  1.
         12    1    4    4    0    0 -0.99352816270E+00  0.88161957697E+01 -0.78645315668E+01  0.11855937872E+02  0.00000000000E+00 0. -1.
</event>
<event>
 8    1  0.1261983E-006  0.9118800E+02  0.7816164E-02  0.1184000E+00
        -11   -1    0    0    0    0  0.00000000000E+00  0.00000000000E+00  0.45593999997E+02  0.45594000000E+02  0.51100000000E-03 0. -1.
         11   -1    0    0    0    0 -0.00000000000E+00 -0.00000000000E+00 -0.45593999997E+02  0.45594000000E+02  0.51100000000E-03 0.  1.
         23    2    1    2    0    0  0.00000000000E+00  0.22204460493E-15  0.00000000000E+00  0.91188000000E+02  0.91188000000E+02 0.  0.
    9900012    2    3    3    0    0  0.83620723294E+01  0.66675686585E+00  0.35852644271E+02  0.54367069545E+02  0.39999966641E+02 0.  0.
        -12    1    3    3    0    0 -0.83620723294E+01 -0.66675686585E+00 -0.35852644271E+02  0.36820930455E+02  0.00000000000E+00 0.  1.
         11    1    4    4    0    0  0.35288586106E+01 -0.12079461425E+02  0.13639311122E+01  0.12658062243E+02  0.51100000000E-03 0. -1.
        -11    1    4    4    0    0  0.18228900922E+00 -0.26845112447E+01 -0.88862541578E+00  0.28336346441E+01  0.51100000000E-03 0.  1.
         12    1    4    4    0    0  0.46509247095E+01  0.15430729535E+02  0.35377338575E+02  0.38875372658E+02  0.00000000000E+00 0. -1.
</event>
<event>
 8    1  0.1261983E-006  0.9118800E+02  0.7816164E-02  0.1184000E+00
        -11   -1    0    0    0    0  0.00000000000E+00  0.00000000000E+00  0.45593999997E+02  0.45594000000E+02  0.51100000000E-03 0. -1.
         11   -1    0    0    0    0 -0.00000000000E+00 -0.00000000000E+00 -0.45593999997E+02  0.45594000000E+02  0.51100000000E-03 0.  1.
         23    2    1    2    0    0  0.00000000000E+00  0.00000000000E+00 -0.35527136788E-14  0.91188000000E+02  0.91188000000E+02 0.  0.
    9900012    2    3    3    0    0  0.12077584941E+02  0.26810931346E+02 -0.22160456684E+02  0.54367082873E+02  0.39999997025E+02 0.  0.
         12    1    3    3    0    0 -0.12077584941E+02 -0.26810931346E+02  0.22160456684E+02  0.36820917127E+02  0.00000000000E+00 0. -1.
         11    1    4    4    0    0 -0.61015264672E+01 -0.36683367767E+01 -0.47351655051E+01  0.85502697360E+01  0.51100000000E-03 0. -1.
        -11    1    4    4    0    0  0.48905574109E+01  0.19819391921E+02  0.13577278573E+01  0.20458965592E+02  0.51100000000E-03 0.  1.
        -12    1    4    4    0    0  0.13288553997E+02  0.10659876202E+02 -0.18783019036E+02  0.25357847544E+02  0.00000000000E+00 0.  1.
</event>
<event>
 8    1  0.1261983E-006  0.9118800E+02  0.7816164E-02  0.1184000E+00
        -11   -1    0    0    0    0  0.00000000000E+00  0.00000000000E+00  0.45593999997E+02  0.45594000000E+02  0.51100000000E-03 0. -1.
         11   -1    0    0    0    0 -0.00000000000E+00 -0.00000000000E+00 -0.45593999997E+02  0.45594000000E+02  0.51100000000E-03 0.  1.
         23    2    1    2    0    0  0.88817841970E-15  0.00000000000E+00 -0.17763568394E-14  0.91188000000E+02  0.91188000000E+02 0.  0.
    9900012    2    3    3    0    0 -0.47193932279E+01  0.34793175411E+02 -0.11087910614E+02  0.54367088966E+02  0.40000010915E+02 0.  0.
         12    1    3    3    0    0  0.47193932279E+01 -0.34793175411E+02  0.11087910614E+02  0.36820911034E+02  0.00000000000E+00 0. -1.
         11    1    4    4    0    0  0.42021449282E+01 -0.50439693304E+01  0.49311729632E+01  0.82107317371E+01  0.51100000000E-03 0. -1.
        -11    1    4    4    0    0 -0.60509140526E+01  0.74705773780E+01 -0.84346899563E+01  0.12789334703E+02  0.51100000000E-03 0.  1.
         12    1    4    4    0    0 -0.28706241036E+01  0.32366567363E+02 -0.75843936214E+01  0.33367022525E+02  0.00000000000E+00 0. -1.
</event>
<event>
 8    1  0.1261983E-006  0.9118800E+02  0.7816164E-02  0.1184000E+00
        -11   -1    0    0    0    0  0.00000000000E+00  0.00000000000E+00  0.45593999997E+02  0.45594000000E+02  0.51100000000E-03 0. -1.
         11   -1    0    0    0    0 -0.00000000000E+00 -0.00000000000E+00 -0.45593999997E+02  0.45594000000E+02  0.51100000000E-03 0.  1.
         23    2    1    2    0    0  0.00000000000E+00  0.44408920985E-15  0.00000000000E+00  0.91188000000E+02  0.91188000000E+02 0.  0.
    9900012    2    3    3    0    0  0.16609750972E+02  0.37192450931E+01 -0.32650601416E+02  0.54367103973E+02  0.40000045128E+02 0.  0.
         12    1    3    3    0    0 -0.16609750972E+02 -0.37192450931E+01  0.32650601416E+02  0.36820896027E+02  0.00000000000E+00 0. -1.
         11    1    4    4    0    0  0.13310305225E+01  0.94389806507E+01  0.16940136396E+01  0.96817188788E+01  0.51100000000E-03 0. -1.
        -11    1    4    4    0    0 -0.35178528136E+01 -0.37384298843E+01 -0.20821848651E+02  0.21445291510E+02  0.51100000000E-03 0.  1.
        -12    1    4    4    0    0  0.18796573263E+02 -0.19813056732E+01 -0.13522766404E+02  0.23240093584E+02  0.00000000000E+00 0.  1.
</event>
<event>
 8    1  0.1261983E-006  0.9118800E+02  0.7816164E-02  0.1184000E+00
        -11   -1    0    0    0    0  0.00000000000E+00  0.00000000000E+00  0.45593999997E+02  0.45594000000E+02  0.51100000000E-03 0. -1.
         11   -1    0    0    0    0 -0.00000000000E+00 -0.00000000000E+00 -0.45593999997E+02  0.45594000000E+02  0.51100000000E-03 0.  1.
         23    2    1    2    0    0  0.00000000000E+00  0.00000000000E+00 -0.17763568394E-14  0.91188000000E+02  0.91188000000E+02 0.  0.
    9900012    2    3    3    0    0  0.24729283487E+02  0.23813665365E+02  0.13309856530E+02  0.54367076590E+02  0.39999982703E+02 0.  0.
        -12    1    3    3    0    0 -0.24729283487E+02 -0.23813665365E+02 -0.13309856530E+02  0.36820923410E+02  0.00000000000E+00 0.  1.
         11    1    4    4    0    0  0.14141004518E+02  0.14190310483E+01 -0.26743127305E+01  0.14461452443E+02  0.51100000000E-03 0. -1.
        -11    1    4    4    0    0  0.75327168916E+01  0.17316609059E+02 -0.37915999431E+01  0.19260919071E+02  0.51100000000E-03 0.  1.
         12    1    4    4    0    0  0.30555620771E+01  0.50780252572E+01  0.19775769203E+02  0.20644705077E+02  0.00000000000E+00 0. -1.
</event>
<event>
 8    1  0.1261983E-006  0.9118800E+02  0.7816164E-02  0.1184000E+00
        -11   -1    0    0    0    0  0.00000000000E+00  0.00000000000E+00  0.45593999997E+02  0.45594000000E+02  0.51100000000E-03 0.  1.
         11   -1    0    0    0    0 -0.00000000000E+00 -0.00000000000E+00 -0.45593999997E+02  0.45594000000E+02  0.51100000000E-03 0. -1.
         23    2    1    2    0    0 -0.17763568394E-14  0.22204460493E-15  0.71054273576E-14  0.91188000000E+02  0.91188000000E+02 0.  0.
    9900012    2    3    3    0    0 -0.83831983355E+01 -0.15137186906E+01  0.35821933537E+02  0.54367078218E+02  0.39999986413E+02 0.  0.
         12    1    3    3    0    0  0.83831983355E+01  0.15137186906E+01 -0.35821933537E+02  0.36820921782E+02  0.00000000000E+00 0. -1.
         11    1    4    4    0    0  0.94368517403E+01 -0.96580509989E+01  0.16274004601E+02  0.21146520893E+02  0.51100000000E-03 0. -1.
        -11    1    4    4    0    0 -0.44561528201E+01  0.11375893544E+02  0.49927655929E+01  0.13198331728E+02  0.51100000000E-03 0.  1.
         12    1    4    4    0    0 -0.13363897256E+02 -0.32315612361E+01  0.14555163342E+02  0.20022225596E+02  0.00000000000E+00 0. -1.
</event>
<event>
 8    1  0.1261983E-006  0.9118800E+02  0.7816164E-02  0.1184000E+00
        -11   -1    0    0    0    0  0.00000000000E+00  0.00000000000E+00  0.45593999997E+02  0.45594000000E+02  0.51100000000E-03 0. -1.
         11   -1    0    0    0    0 -0.00000000000E+00 -0.00000000000E+00 -0.45593999997E+02  0.45594000000E+02  0.51100000000E-03 0.  1.
         23    2    1    2    0    0  0.00000000000E+00  0.00000000000E+00  0.00000000000E+00  0.91188000000E+02  0.91188000000E+02 0.  0.
    9900012    2    3    3    0    0 -0.33423498815E+02 -0.10075040159E+02 -0.11710851978E+02  0.54367071694E+02  0.39999971541E+02 0.  0.
         12    1    3    3    0    0  0.33423498815E+02  0.10075040159E+02  0.11710851978E+02  0.36820928306E+02  0.00000000000E+00 0. -1.
         11    1    4    4    0    0 -0.52633723056E+01  0.78568897694E+01 -0.24191018148E+01  0.97614475734E+01  0.51100000000E-03 0. -1.
        -11    1    4    4    0    0  0.30079805268E+01  0.29315671926E+01 -0.54820526400E+01  0.69061519287E+01  0.51100000000E-03 0.  1.
        -12    1    4    4    0    0 -0.31168107037E+02 -0.20863497121E+02 -0.38096975229E+01  0.37699472192E+02  0.00000000000E+00 0.  1.
</event>
<event>
 8    1  0.1261983E-006  0.9118800E+02  0.7816164E-02  0.1184000E+00
        -11   -1    0    0    0    0  0.00000000000E+00  0.00000000000E+00  0.45593999997E+02  0.45594000000E+02  0.51100000000E-03 0. -1.
         11   -1    0    0    0    0 -0.00000000000E+00 -0.00000000000E+00 -0.45593999997E+02  0.45594000000E+02  0.51100000000E-03 0.  1.
         23    2    1    2    0    0  0.00000000000E+00  0.35527136788E-14  0.00000000000E+00  0.91188000000E+02  0.91188000000E+02 0.  0.
    9900012    2    3    3    0    0  0.18478395919E+02  0.21950955689E+02 -0.23075651367E+02  0.54367064957E+02  0.39999956183E+02 0.  0.
         12    1    3    3    0    0 -0.18478395919E+02 -0.21950955689E+02  0.23075651367E+02  0.36820935043E+02  0.00000000000E+00 0. -1.
         11    1    4    4    0    0  0.91673099373E+01  0.21278134965E+02 -0.93914859778E+01  0.24999972164E+02  0.51100000000E-03 0. -1.
        -11    1    4    4    0    0 -0.16460365822E+01  0.92644248258E+01 -0.12137377403E+02  0.15357569283E+02  0.51100000000E-03 0.  1.
         12    1    4    4    0    0  0.10957122564E+02 -0.85916041014E+01 -0.15467879860E+01  0.14009523511E+02  0.00000000000E+00 0. -1.
</event>
<event>
 8    1  0.1261983E-006  0.9118800E+02  0.7816164E-02  0.1184000E+00
        -11   -1    0    0    0    0  0.00000000000E+00  0.00000000000E+00  0.45593999997E+02  0.45594000000E+02  0.51100000000E-03 0. -1.
         11   -1    0    0    0    0 -0.00000000000E+00 -0.00000000000E+00 -0.45593999997E+02  0.45594000000E+02  0.51100000000E-03 0.  1.
         23    2    1    2    0    0 -0.88817841970E-15  0.00000000000E+00  0.00000000000E+00  0.91188000000E+02  0.91188000000E+02 0.  0.
    9900012    2    3    3    0    0 -0.43866933753E+01  0.51248413008E+01 -0.36197729476E+02  0.54367045418E+02  0.39999911640E+02 0.  0.
         12    1    3    3    0    0  0.43866933753E+01 -0.51248413008E+01  0.36197729476E+02  0.36820954582E+02  0.00000000000E+00 0. -1.
         11    1    4    4    0    0 -0.54933451315E+01 -0.10626708701E+02 -0.12282729201E+02  0.17145530480E+02  0.51100000000E-03 0. -1.
        -11    1    4    4    0    0 -0.73104411202E+01  0.11704563205E+02 -0.27275317564E+01  0.14066939217E+02  0.51100000000E-03 0.  1.
        -12    1    4    4    0    0  0.84170928764E+01  0.40469867965E+01 -0.21187468518E+02  0.23154575721E+02  0.00000000000E+00 0.  1.
</event>
<event>
 8    1  0.1261983E-006  0.9118800E+02  0.7816164E-02  0.1184000E+00
        -11   -1    0    0    0    0  0.00000000000E+00  0.00000000000E+00  0.45593999997E+02  0.45594000000E+02  0.51100000000E-03 0. -1.
         11   -1    0    0    0    0 -0.00000000000E+00 -0.00000000000E+00 -0.45593999997E+02  0.45594000000E+02  0.51100000000E-03 0.  1.
         23    2    1    2    0    0 -0.44408920985E-15  0.00000000000E+00  0.00000000000E+00  0.91188000000E+02  0.91188000000E+02 0.  0.
    9900012    2    3    3    0    0 -0.11206929884E+01  0.76247042242E+01  0.36005388138E+02  0.54367081458E+02  0.39999993800E+02 0.  0.
        -12    1    3    3    0    0  0.11206929884E+01 -0.76247042242E+01 -0.36005388138E+02  0.36820918542E+02  0.00000000000E+00 0.  1.
         11    1    4    4    0    0  0.39306698139E+01  0.86997114170E+01  0.60659985942E+01  0.11310680047E+02  0.51100000000E-03 0. -1.
        -11    1    4    4    0    0 -0.98849079579E+01  0.27669407415E+00 -0.25252255889E+01  0.10206112359E+02  0.51100000000E-03 0.  1.
        -12    1    4    4    0    0  0.48335451557E+01 -0.13517012669E+01  0.32464615133E+02  0.32850289052E+02  0.00000000000E+00 0.  1.
</event>
<event>
 8    1  0.1261983E-006  0.9118800E+02  0.7816164E-02  0.1184000E+00
        -11   -1    0    0    0    0  0.00000000000E+00  0.00000000000E+00  0.45593999997E+02  0.45594000000E+02  0.51100000000E-03 0.  1.
         11   -1    0    0    0    0 -0.00000000000E+00 -0.00000000000E+00 -0.45593999997E+02  0.45594000000E+02  0.51100000000E-03 0. -1.
         23    2    1    2    0    0  0.00000000000E+00  0.00000000000E+00 -0.44408920985E-15  0.91188000000E+02  0.91188000000E+02 0.  0.
    9900012    2    3    3    0    0 -0.25978155043E+02 -0.25968305862E+02  0.25615560927E+01  0.54367095362E+02  0.40000025496E+02 0.  0.
        -12    1    3    3    0    0  0.25978155043E+02  0.25968305862E+02 -0.25615560927E+01  0.36820904638E+02  0.00000000000E+00 0.  1.
         11    1    4    4    0    0 -0.10669053632E+02 -0.30552811553E+02  0.11229930121E+02  0.34255135819E+02  0.51100000000E-03 0.  1.
        -11    1    4    4    0    0 -0.12715358344E+02  0.51600016785E+01 -0.32872659048E+01  0.14110707726E+02  0.51100000000E-03 0. -1.
        -12    1    4    4    0    0 -0.25937430670E+01 -0.57549598688E+00 -0.53811081232E+01  0.60012518162E+01  0.00000000000E+00 0.  1.
</event>
<event>
 8    1  0.1261983E-006  0.9118800E+02  0.7816164E-02  0.1184000E+00
        -11   -1    0    0    0    0  0.00000000000E+00  0.00000000000E+00  0.45593999997E+02  0.45594000000E+02  0.51100000000E-03 0.  1.
         11   -1    0    0    0    0 -0.00000000000E+00 -0.00000000000E+00 -0.45593999997E+02  0.45594000000E+02  0.51100000000E-03 0. -1.
         23    2    1    2    0    0  0.00000000000E+00 -0.88817841970E-15  0.00000000000E+00  0.91188000000E+02  0.91188000000E+02 0.  0.
    9900012    2    3    3    0    0  0.35307312873E+02  0.78037442527E+01  0.69480419333E+01  0.54367081307E+02  0.39999993455E+02 0.  0.
        -12    1    3    3    0    0 -0.35307312873E+02 -0.78037442527E+01 -0.69480419333E+01  0.36820918693E+02  0.00000000000E+00 0.  1.
         11    1    4    4    0    0  0.20283635730E+02  0.12080606443E+02 -0.10003462233E+02  0.25640518469E+02  0.51100000000E-03 0. -1.
        -11    1    4    4    0    0 -0.35813332387E+01 -0.27167913839E+01  0.27595412898E+01  0.52746536931E+01  0.51100000000E-03 0.  1.
         12    1    4    4    0    0  0.18605010382E+02 -0.15600708066E+01  0.14191962877E+02  0.23451909145E+02  0.00000000000E+00 0. -1.
</event>
<event>
 8    1  0.1261983E-006  0.9118800E+02  0.7816164E-02  0.1184000E+00
        -11   -1    0    0    0    0  0.00000000000E+00  0.00000000000E+00  0.45593999997E+02  0.45594000000E+02  0.51100000000E-03 0. -1.
         11   -1    0    0    0    0 -0.00000000000E+00 -0.00000000000E+00 -0.45593999997E+02  0.45594000000E+02  0.51100000000E-03 0.  1.
         23    2    1    2    0    0 -0.17763568394E-14  0.17763568394E-14  0.00000000000E+00  0.91188000000E+02  0.91188000000E+02 0.  0.
    9900012    2    3    3    0    0 -0.88420667537E+01  0.71851741067E+01 -0.35013862263E+02  0.54367089881E+02  0.40000013001E+02 0.  0.
         12    1    3    3    0    0  0.88420667537E+01 -0.71851741067E+01  0.35013862263E+02  0.36820910119E+02  0.00000000000E+00 0. -1.
         11    1    4    4    0    0 -0.16057332808E+02 -0.69432338091E+01 -0.93136039229E+01  0.19818921538E+02  0.51100000000E-03 0.  1.
        -11    1    4    4    0    0  0.56878858537E+01 -0.33363576346E+00 -0.16212088924E+02  0.17184155081E+02  0.51100000000E-03 0. -1.
        -12    1    4    4    0    0  0.15273802008E+01  0.14462043679E+02 -0.94881694166E+01  0.17364013261E+02  0.00000000000E+00 0.  1.
</event>
<event>
 8    1  0.1261983E-006  0.9118800E+02  0.7816164E-02  0.1184000E+00
        -11   -1    0    0    0    0  0.00000000000E+00  0.00000000000E+00  0.45593999997E+02  0.45594000000E+02  0.51100000000E-03 0. -1.
         11   -1    0    0    0    0 -0.00000000000E+00 -0.00000000000E+00 -0.45593999997E+02  0.45594000000E+02  0.51100000000E-03 0.  1.
         23    2    1    2    0    0  0.00000000000E+00  0.17763568394E-14  0.00000000000E+00  0.91188000000E+02  0.91188000000E+02 0.  0.
    9900012    2    3    3    0    0  0.26788844419E+02  0.60158426918E+01  0.24534594930E+02  0.54367097010E+02  0.40000029254E+02 0.  0.
        -12    1    3    3    0    0 -0.26788844419E+02 -0.60158426918E+01 -0.24534594930E+02  0.36820902990E+02  0.00000000000E+00 0.  1.
         11    1    4    4    0    0  0.24814314299E+02 -0.11821160872E+02  0.18733184832E+02  0.33262926100E+02  0.51100000000E-03 0. -1.
        -11    1    4    4    0    0 -0.23310764376E+01  0.31391639137E+01  0.41468855994E+01  0.56995550590E+01  0.51100000000E-03 0.  1.
         12    1    4    4    0    0  0.43056065569E+01  0.14697839650E+02  0.16545244990E+01  0.15404615851E+02  0.00000000000E+00 0. -1.
</event>
<event>
 8    1  0.1261983E-006  0.9118800E+02  0.7816164E-02  0.1184000E+00
        -11   -1    0    0    0    0  0.00000000000E+00  0.00000000000E+00  0.45593999997E+02  0.45594000000E+02  0.51100000000E-03 0. -1.
         11   -1    0    0    0    0 -0.00000000000E+00 -0.00000000000E+00 -0.45593999997E+02  0.45594000000E+02  0.51100000000E-03 0.  1.
         23    2    1    2    0    0  0.16653345369E-15  0.35527136788E-14  0.00000000000E+00  0.91188000000E+02  0.91188000000E+02 0.  0.
    9900012    2    3    3    0    0 -0.43835984680E+00  0.11473879958E+02  0.34984822032E+02  0.54367084025E+02  0.39999999651E+02 0.  0.
        -12    1    3    3    0    0  0.43835984680E+00 -0.11473879958E+02 -0.34984822032E+02  0.36820915975E+02  0.00000000000E+00 0.  1.
         11    1    4    4    0    0  0.55914716904E+01 -0.53825967861E+01  0.25668441292E+02  0.26816147793E+02  0.51100000000E-03 0. -1.
        -11    1    4    4    0    0 -0.68919601512E+01 -0.92958729960E+00 -0.91440882228E+00  0.70142277571E+01  0.51100000000E-03 0.  1.
        -12    1    4    4    0    0  0.86212861399E+00  0.17786064043E+02  0.10230789562E+02  0.20536708475E+02  0.00000000000E+00 0.  1.
</event>
<event>
 8    1  0.1261983E-006  0.9118800E+02  0.7816164E-02  0.1184000E+00
        -11   -1    0    0    0    0  0.00000000000E+00  0.00000000000E+00  0.45593999997E+02  0.45594000000E+02  0.51100000000E-03 0.  1.
         11   -1    0    0    0    0 -0.00000000000E+00 -0.00000000000E+00 -0.45593999997E+02  0.45594000000E+02  0.51100000000E-03 0. -1.
         23    2    1    2    0    0  0.00000000000E+00  0.00000000000E+00  0.00000000000E+00  0.91188000000E+02  0.91188000000E+02 0.  0.
    9900012    2    3    3    0    0 -0.53577764125E+01  0.35186102375E+02 -0.94345704571E+01  0.54367099846E+02  0.40000035719E+02 0.  0.
         12    1    3    3    0    0  0.53577764125E+01 -0.35186102375E+02  0.94345704571E+01  0.36820900154E+02  0.00000000000E+00 0. -1.
         11    1    4    4    0    0  0.14897764767E+01  0.51084260124E+00 -0.42706475898E+01  0.45517936257E+01  0.51100000000E-03 0.  1.
        -11    1    4    4    0    0 -0.20188995599E+02  0.13029349050E+02 -0.99688345357E+00  0.24048976212E+02  0.51100000000E-03 0. -1.
        -12    1    4    4    0    0  0.13341442710E+02  0.21645910724E+02 -0.41670394137E+01  0.25766330009E+02  0.00000000000E+00 0.  1.
</event>
<event>
 8    1  0.1261983E-006  0.9118800E+02  0.7816164E-02  0.1184000E+00
        -11   -1    0    0    0    0  0.00000000000E+00  0.00000000000E+00  0.45593999997E+02  0.45594000000E+02  0.51100000000E-03 0.  1.
         11   -1    0    0    0    0 -0.00000000000E+00 -0.00000000000E+00 -0.45593999997E+02  0.45594000000E+02  0.51100000000E-03 0. -1.
         23    2    1    2    0    0  0.35527136788E-14  0.00000000000E+00  0.35527136788E-14  0.91188000000E+02  0.91188000000E+02 0.  0.
    9900012    2    3    3    0    0  0.31974670251E+02  0.22316481600E+01 -0.18122352704E+02  0.54367089382E+02  0.40000011865E+02 0.  0.
        -12    1    3    3    0    0 -0.31974670251E+02 -0.22316481600E+01  0.18122352704E+02  0.36820910618E+02  0.00000000000E+00 0.  1.
         11    1    4    4    0    0  0.13222195616E+02 -0.37519887428E+01 -0.17550514278E+02  0.22291801814E+02  0.51100000000E-03 0. -1.
        -11    1    4    4    0    0  0.76237301244E+01 -0.75272661104E+01 -0.76810867306E+01  0.13182567646E+02  0.51100000000E-03 0.  1.
         12    1    4    4    0    0  0.11128744511E+02  0.13510903013E+02  0.71092483048E+01  0.18892719923E+02  0.00000000000E+00 0. -1.
</event>
<event>
 8    1  0.1261983E-006  0.9118800E+02  0.7816164E-02  0.1184000E+00
        -11   -1    0    0    0    0  0.00000000000E+00  0.00000000000E+00  0.45593999997E+02  0.45594000000E+02  0.51100000000E-03 0.  1.
         11   -1    0    0    0    0 -0.00000000000E+00 -0.00000000000E+00 -0.45593999997E+02  0.45594000000E+02  0.51100000000E-03 0. -1.
         23    2    1    2    0    0 -0.88817841970E-15 -0.35527136788E-14  0.35527136788E-14  0.91188000000E+02  0.91188000000E+02 0.  0.
    9900012    2    3    3    0    0  0.46263188179E+01 -0.29767975027E+02  0.21171823494E+02  0.54367064745E+02  0.39999955698E+02 0.  0.
         12    1    3    3    0    0 -0.46263188179E+01  0.29767975027E+02 -0.21171823494E+02  0.36820935255E+02  0.00000000000E+00 0. -1.
         11    1    4    4    0    0  0.28105643433E+01 -0.72072031510E+01  0.11881103314E+02  0.14177576147E+02  0.51100000000E-03 0. -1.
        -11    1    4    4    0    0  0.11888682175E+02 -0.21971551599E+02  0.14446811686E+02  0.28858278044E+02  0.51100000000E-03 0.  1.
         12    1    4    4    0    0 -0.10072927700E+02 -0.58922027719E+00 -0.51560915059E+01  0.11331210553E+02  0.00000000000E+00 0. -1.
</event>
<event>
 8    1  0.1261983E-006  0.9118800E+02  0.7816164E-02  0.1184000E+00
        -11   -1    0    0    0    0  0.00000000000E+00  0.00000000000E+00  0.45593999997E+02  0.45594000000E+02  0.51100000000E-03 0. -1.
         11   -1    0    0    0    0 -0.00000000000E+00 -0.00000000000E+00 -0.45593999997E+02  0.45594000000E+02  0.51100000000E-03 0.  1.
         23    2    1    2    0    0 -0.35527136788E-14  0.00000000000E+00 -0.35527136788E-14  0.91188000000E+02  0.91188000000E+02 0.  0.
    9900012    2    3    3    0    0  0.24355515876E+02  0.17941336818E+02 -0.20992756402E+02  0.54367101834E+02  0.40000040251E+02 0.  0.
         12    1    3    3    0    0 -0.24355515876E+02 -0.17941336818E+02  0.20992756402E+02  0.36820898166E+02  0.00000000000E+00 0. -1.
         11    1    4    4    0    0  0.80361106172E+01  0.15680688586E+02 -0.38343818368E+01  0.18032347399E+02  0.51100000000E-03 0. -1.
        -11    1    4    4    0    0  0.23712700077E+02  0.48223238732E+01 -0.12672486084E+02  0.27315542394E+02  0.51100000000E-03 0.  1.
         12    1    4    4    0    0 -0.73932948185E+01 -0.25616756412E+01 -0.44858884810E+01  0.90192120403E+01  0.00000000000E+00 0. -1.
</event>
<event>
 8    1  0.1261983E-006  0.9118800E+02  0.7816164E-02  0.1184000E+00
        -11   -1    0    0    0    0  0.00000000000E+00  0.00000000000E+00  0.45593999997E+02  0.45594000000E+02  0.51100000000E-03 0. -1.
         11   -1    0    0    0    0 -0.00000000000E+00 -0.00000000000E+00 -0.45593999997E+02  0.45594000000E+02  0.51100000000E-03 0.  1.
         23    2    1    2    0    0  0.00000000000E+00  0.00000000000E+00  0.00000000000E+00  0.91188000000E+02  0.91188000000E+02 0.  0.
    9900012    2    3    3    0    0  0.11587812675E+02 -0.33147272355E+02  0.11080277809E+02  0.54366924195E+02  0.39999635285E+02 0.  0.
        -12    1    3    3    0    0 -0.11587812675E+02  0.33147272355E+02 -0.11080277809E+02  0.36821075805E+02  0.00000000000E+00 0.  1.
         11    1    4    4    0    0 -0.86144781055E+01 -0.12198328837E+02 -0.14624094007E+01  0.15004902564E+02  0.51100000000E-03 0. -1.
        -11    1    4    4    0    0  0.24317492553E+02 -0.11534338960E+02  0.76408229524E+01  0.27977912627E+02  0.51100000000E-03 0.  1.
        -12    1    4    4    0    0 -0.41152017729E+01 -0.94146045576E+01  0.49018642570E+01  0.11384109003E+02  0.00000000000E+00 0.  1.
</event>
<event>
 8    1  0.1261983E-006  0.9118800E+02  0.7816164E-02  0.1184000E+00
        -11   -1    0    0    0    0  0.00000000000E+00  0.00000000000E+00  0.45593999997E+02  0.45594000000E+02  0.51100000000E-03 0.  1.
         11   -1    0    0    0    0 -0.00000000000E+00 -0.00000000000E+00 -0.45593999997E+02  0.45594000000E+02  0.51100000000E-03 0. -1.
         23    2    1    2    0    0  0.00000000000E+00  0.00000000000E+00 -0.88817841970E-15  0.91188000000E+02  0.91188000000E+02 0.  0.
    9900012    2    3    3    0    0 -0.11694887407E+02 -0.34550572191E+02 -0.50261312753E+01  0.54367157725E+02  0.40000167666E+02 0.  0.
        -12    1    3    3    0    0  0.11694887407E+02  0.34550572191E+02  0.50261312753E+01  0.36820842275E+02  0.00000000000E+00 0.  1.
         11    1    4    4    0    0 -0.90895019299E+01 -0.14228368009E+02 -0.20899119822E+01  0.17012737401E+02  0.51100000000E-03 0. -1.
        -11    1    4    4    0    0  0.14045204432E+02 -0.10514010535E+02 -0.40205249740E+01  0.17999355722E+02  0.51100000000E-03 0.  1.
         12    1    4    4    0    0 -0.16650589909E+02 -0.98081936475E+01  0.10843056809E+01  0.19355064602E+02  0.00000000000E+00 0. -1.
</event>
<event>
 8    1  0.1261983E-006  0.9118800E+02  0.7816164E-02  0.1184000E+00
        -11   -1    0    0    0    0  0.00000000000E+00  0.00000000000E+00  0.45593999997E+02  0.45594000000E+02  0.51100000000E-03 0.  1.
         11   -1    0    0    0    0 -0.00000000000E+00 -0.00000000000E+00 -0.45593999997E+02  0.45594000000E+02  0.51100000000E-03 0. -1.
         23    2    1    2    0    0  0.00000000000E+00  0.35527136788E-14 -0.35527136788E-14  0.91188000000E+02  0.91188000000E+02 0.  0.
    9900012    2    3    3    0    0  0.22441655479E+02  0.21951529137E+02  0.19242707475E+02  0.54367091225E+02  0.40000016065E+02 0.  0.
         12    1    3    3    0    0 -0.22441655479E+02 -0.21951529137E+02 -0.19242707475E+02  0.36820908775E+02  0.00000000000E+00 0. -1.
         11    1    4    4    0    0  0.21004722142E+01 -0.20581631376E+00  0.67083418116E+01  0.70325097938E+01  0.51100000000E-03 0. -1.
        -11    1    4    4    0    0  0.10370530856E+02  0.25268121758E+02  0.20539956719E+02  0.34174781780E+02  0.51100000000E-03 0.  1.
         12    1    4    4    0    0  0.99706524089E+01 -0.31107763074E+01 -0.80055910559E+01  0.13159799651E+02  0.00000000000E+00 0. -1.
</event>
<event>
 8    1  0.1261983E-006  0.9118800E+02  0.7816164E-02  0.1184000E+00
        -11   -1    0    0    0    0  0.00000000000E+00  0.00000000000E+00  0.45593999997E+02  0.45594000000E+02  0.51100000000E-03 0.  1.
         11   -1    0    0    0    0 -0.00000000000E+00 -0.00000000000E+00 -0.45593999997E+02  0.45594000000E+02  0.51100000000E-03 0. -1.
         23    2    1    2    0    0 -0.35527136788E-14  0.00000000000E+00  0.00000000000E+00  0.91188000000E+02  0.91188000000E+02 0.  0.
    9900012    2    3    3    0    0  0.19330244185E+02  0.30041187766E+02 -0.89245050782E+01  0.54367107920E+02  0.40000054126E+02 0.  0.
        -12    1    3    3    0    0 -0.19330244185E+02 -0.30041187766E+02  0.89245050782E+01  0.36820892080E+02  0.00000000000E+00 0.  1.
         11    1    4    4    0    0 -0.60962064887E+01  0.42422898820E+01 -0.51745511345E+01  0.90518913328E+01  0.51100000000E-03 0.  1.
        -11    1    4    4    0    0 -0.27352979007E+01  0.14198164227E+02  0.98084116274E+00  0.14492472932E+02  0.51100000000E-03 0. -1.
        -12    1    4    4    0    0  0.28161748574E+02  0.11600733657E+02 -0.47307951065E+01  0.30822743656E+02  0.00000000000E+00 0.  1.
</event>
<event>
 8    1  0.1261983E-006  0.9118800E+02  0.7816164E-02  0.1184000E+00
        -11   -1    0    0    0    0  0.00000000000E+00  0.00000000000E+00  0.45593999997E+02  0.45594000000E+02  0.51100000000E-03 0. -1.
         11   -1    0    0    0    0 -0.00000000000E+00 -0.00000000000E+00 -0.45593999997E+02  0.45594000000E+02  0.51100000000E-03 0.  1.
         23    2    1    2    0    0  0.35527136788E-14 -0.35527136788E-14  0.17763568394E-14  0.91188000000E+02  0.91188000000E+02 0.  0.
    9900012    2    3    3    0    0 -0.26387656480E+02  0.23484373939E+02 -0.10390139755E+02  0.54367092380E+02  0.40000018699E+02 0.  0.
         12    1    3    3    0    0  0.26387656480E+02 -0.23484373939E+02  0.10390139755E+02  0.36820907620E+02  0.00000000000E+00 0. -1.
         11    1    4    4    0    0 -0.11103804329E+02  0.13777053077E+02 -0.51572045813E+00  0.17702192800E+02  0.51100000000E-03 0. -1.
        -11    1    4    4    0    0 -0.19224058655E+02  0.53577715312E+01 -0.17841739793E+02  0.26769344894E+02  0.51100000000E-03 0.  1.
         12    1    4    4    0    0  0.39402065045E+01  0.43495493303E+01  0.79673204955E+01  0.98955546864E+01  0.00000000000E+00 0. -1.
</event>
<event>
 8    1  0.1261983E-006  0.9118800E+02  0.7816164E-02  0.1184000E+00
        -11   -1    0    0    0    0  0.00000000000E+00  0.00000000000E+00  0.45593999997E+02  0.45594000000E+02  0.51100000000E-03 0. -1.
         11   -1    0    0    0    0 -0.00000000000E+00 -0.00000000000E+00 -0.45593999997E+02  0.45594000000E+02  0.51100000000E-03 0.  1.
         23    2    1    2    0    0  0.00000000000E+00  0.00000000000E+00  0.00000000000E+00  0.91188000000E+02  0.91188000000E+02 0.  0.
    9900012    2    3    3    0    0 -0.84469215664E+01 -0.16688833078E+02  0.31716124409E+02  0.54367079575E+02  0.39999989507E+02 0.  0.
        -12    1    3    3    0    0  0.84469215664E+01  0.16688833078E+02 -0.31716124409E+02  0.36820920425E+02  0.00000000000E+00 0.  1.
         11    1    4    4    0    0 -0.84486104969E+00 -0.57836244812E+01 -0.55606141412E+01  0.80674985108E+01  0.51100000000E-03 0. -1.
        -11    1    4    4    0    0 -0.53296485572E+01 -0.66601012224E+01 -0.18261931499E+00  0.85320250885E+01  0.51100000000E-03 0.  1.
         12    1    4    4    0    0 -0.22724119595E+01 -0.42451073740E+01  0.37459357865E+02  0.37767555976E+02  0.00000000000E+00 0. -1.
</event>
<event>
 8    1  0.1261983E-006  0.9118800E+02  0.7816164E-02  0.1184000E+00
        -11   -1    0    0    0    0  0.00000000000E+00  0.00000000000E+00  0.45593999997E+02  0.45594000000E+02  0.51100000000E-03 0. -1.
         11   -1    0    0    0    0 -0.00000000000E+00 -0.00000000000E+00 -0.45593999997E+02  0.45594000000E+02  0.51100000000E-03 0.  1.
         23    2    1    2    0    0  0.17763568394E-14  0.71054273576E-14  0.00000000000E+00  0.91188000000E+02  0.91188000000E+02 0.  0.
    9900012    2    3    3    0    0 -0.15256923742E+02  0.32677783248E+02  0.74275662037E+01  0.54367082306E+02  0.39999995734E+02 0.  0.
        -12    1    3    3    0    0  0.15256923742E+02 -0.32677783248E+02 -0.74275662037E+01  0.36820917694E+02  0.00000000000E+00 0.  1.
         11    1    4    4    0    0  0.32195614995E+01 -0.58669023598E+01  0.58120294311E+01  0.88637354382E+01  0.51100000000E-03 0. -1.
        -11    1    4    4    0    0  0.17180741735E+01  0.76642116570E+00 -0.17033985932E+01  0.25378627420E+01  0.51100000000E-03 0.  1.
         12    1    4    4    0    0 -0.20194559415E+02  0.37778264443E+02  0.33189353658E+01  0.42965484126E+02  0.00000000000E+00 0. -1.
</event>
<event>
 8    1  0.1261983E-006  0.9118800E+02  0.7816164E-02  0.1184000E+00
        -11   -1    0    0    0    0  0.00000000000E+00  0.00000000000E+00  0.45593999997E+02  0.45594000000E+02  0.51100000000E-03 0.  1.
         11   -1    0    0    0    0 -0.00000000000E+00 -0.00000000000E+00 -0.45593999997E+02  0.45594000000E+02  0.51100000000E-03 0. -1.
         23    2    1    2    0    0 -0.13322676296E-14  0.88817841970E-15 -0.71054273576E-14  0.91188000000E+02  0.91188000000E+02 0.  0.
    9900012    2    3    3    0    0 -0.35090215078E+01  0.50779681292E+01 -0.36299866255E+02  0.54367091776E+02  0.40000017322E+02 0.  0.
        -12    1    3    3    0    0  0.35090215078E+01 -0.50779681292E+01  0.36299866255E+02  0.36820908224E+02  0.00000000000E+00 0.  1.
         11    1    4    4    0    0  0.31429558817E+00 -0.88374479394E+01  0.24409881253E+01  0.91737501103E+01  0.51100000000E-03 0. -1.
        -11    1    4    4    0    0  0.36164156012E+00 -0.39815961192E+01 -0.12736861197E+02  0.13349588971E+02  0.51100000000E-03 0.  1.
         12    1    4    4    0    0 -0.41849586561E+01  0.17897012188E+02 -0.26003993184E+02  0.31843752695E+02  0.00000000000E+00 0. -1.
</event>
<event>
 8    1  0.1261983E-006  0.9118800E+02  0.7816164E-02  0.1184000E+00
        -11   -1    0    0    0    0  0.00000000000E+00  0.00000000000E+00  0.45593999997E+02  0.45594000000E+02  0.51100000000E-03 0.  1.
         11   -1    0    0    0    0 -0.00000000000E+00 -0.00000000000E+00 -0.45593999997E+02  0.45594000000E+02  0.51100000000E-03 0. -1.
         23    2    1    2    0    0  0.88817841970E-15  0.17763568394E-14  0.00000000000E+00  0.91188000000E+02  0.91188000000E+02 0.  0.
    9900012    2    3    3    0    0  0.42484646541E+01  0.99832065985E+01  0.35186335442E+02  0.54366918162E+02  0.39999621531E+02 0.  0.
         12    1    3    3    0    0 -0.42484646541E+01 -0.99832065985E+01 -0.35186335442E+02  0.36821081838E+02  0.00000000000E+00 0. -1.
         11    1    4    4    0    0  0.12393877588E+02  0.16809046494E+01  0.62060728020E+01  0.13962413186E+02  0.51100000000E-03 0. -1.
        -11    1    4    4    0    0 -0.38644711724E+01 -0.60020248609E+01  0.23399992103E+02  0.24464628969E+02  0.51100000000E-03 0.  1.
        -12    1    4    4    0    0 -0.42809417611E+01  0.14304326810E+02  0.55802705366E+01  0.15939876007E+02  0.00000000000E+00 0.  1.
</event>
<event>
 8    1  0.1261983E-006  0.9118800E+02  0.7816164E-02  0.1184000E+00
        -11   -1    0    0    0    0  0.00000000000E+00  0.00000000000E+00  0.45593999997E+02  0.45594000000E+02  0.51100000000E-03 0. -1.
         11   -1    0    0    0    0 -0.00000000000E+00 -0.00000000000E+00 -0.45593999997E+02  0.45594000000E+02  0.51100000000E-03 0.  1.
         23    2    1    2    0    0  0.88817841970E-15  0.00000000000E+00  0.17763568394E-14  0.91188000000E+02  0.91188000000E+02 0.  0.
    9900012    2    3    3    0    0  0.21395863520E+01 -0.34008659856E+02 -0.13950351839E+02  0.54367094370E+02  0.40000023236E+02 0.  0.
         12    1    3    3    0    0 -0.21395863520E+01  0.34008659856E+02  0.13950351839E+02  0.36820905630E+02  0.00000000000E+00 0. -1.
         11    1    4    4    0    0  0.48567495702E+01 -0.13711014846E+02  0.50925321519E+01  0.15411483656E+02  0.51100000000E-03 0. -1.
        -11    1    4    4    0    0  0.60072920460E+01 -0.19878869243E+02 -0.21490394303E+02  0.29884679146E+02  0.51100000000E-03 0.  1.
        -12    1    4    4    0    0 -0.87244552642E+01 -0.41877576750E+00  0.24475103118E+01  0.90709315688E+01  0.00000000000E+00 0.  1.
</event>
<event>
 8    1  0.1261983E-006  0.9118800E+02  0.7816164E-02  0.1184000E+00
        -11   -1    0    0    0    0  0.00000000000E+00  0.00000000000E+00  0.45593999997E+02  0.45594000000E+02  0.51100000000E-03 0. -1.
         11   -1    0    0    0    0 -0.00000000000E+00 -0.00000000000E+00 -0.45593999997E+02  0.45594000000E+02  0.51100000000E-03 0.  1.
         23    2    1    2    0    0 -0.11102230246E-14 -0.17763568394E-14  0.00000000000E+00  0.91188000000E+02  0.91188000000E+02 0.  0.
    9900012    2    3    3    0    0 -0.17463550435E+01 -0.84109427249E+01 -0.35804824238E+02  0.54367093545E+02  0.40000021354E+02 0.  0.
         12    1    3    3    0    0  0.17463550435E+01  0.84109427249E+01  0.35804824238E+02  0.36820906455E+02  0.00000000000E+00 0. -1.
         11    1    4    4    0    0 -0.30321217037E+01 -0.20834405359E+00  0.15747784641E+01  0.34230245022E+01  0.51100000000E-03 0. -1.
        -11    1    4    4    0    0 -0.72328673260E+01 -0.15095090256E+02 -0.61244660806E+01  0.17823725891E+02  0.51100000000E-03 0.  1.
        -12    1    4    4    0    0  0.85186339863E+01  0.68924915848E+01 -0.31255136622E+02  0.33120343152E+02  0.00000000000E+00 0.  1.
</event>
<event>
 8    1  0.1261983E-006  0.9118800E+02  0.7816164E-02  0.1184000E+00
        -11   -1    0    0    0    0  0.00000000000E+00  0.00000000000E+00  0.45593999997E+02  0.45594000000E+02  0.51100000000E-03 0. -1.
         11   -1    0    0    0    0 -0.00000000000E+00 -0.00000000000E+00 -0.45593999997E+02  0.45594000000E+02  0.51100000000E-03 0.  1.
         23    2    1    2    0    0 -0.35527136788E-14  0.00000000000E+00 -0.17763568394E-14  0.91188000000E+02  0.91188000000E+02 0.  0.
    9900012    2    3    3    0    0 -0.27256080384E+02  0.20219735488E+02 -0.14284415806E+02  0.54367134230E+02  0.40000114104E+02 0.  0.
        -12    1    3    3    0    0  0.27256080384E+02 -0.20219735488E+02  0.14284415806E+02  0.36820865770E+02  0.00000000000E+00 0.  1.
         11    1    4    4    0    0 -0.12420065121E+02  0.10003915522E+02 -0.17206353866E+02  0.23460497800E+02  0.51100000000E-03 0. -1.
        -11    1    4    4    0    0  0.68573347300E+01  0.25218671220E+00  0.47455294289E-01  0.68621345078E+01  0.51100000000E-03 0.  1.
         12    1    4    4    0    0 -0.21693349993E+02  0.99636332535E+01  0.28744827653E+01  0.24044501922E+02  0.00000000000E+00 0. -1.
</event>
<event>
 8    1  0.1261983E-006  0.9118800E+02  0.7816164E-02  0.1184000E+00
        -11   -1    0    0    0    0  0.00000000000E+00  0.00000000000E+00  0.45593999997E+02  0.45594000000E+02  0.51100000000E-03 0.  1.
         11   -1    0    0    0    0 -0.00000000000E+00 -0.00000000000E+00 -0.45593999997E+02  0.45594000000E+02  0.51100000000E-03 0. -1.
         23    2    1    2    0    0  0.00000000000E+00  0.88817841970E-15  0.00000000000E+00  0.91188000000E+02  0.91188000000E+02 0.  0.
    9900012    2    3    3    0    0  0.54162981196E+01 -0.29500069035E+01  0.36300710508E+02  0.54367076473E+02  0.39999982435E+02 0.  0.
         12    1    3    3    0    0 -0.54162981196E+01  0.29500069035E+01 -0.36300710508E+02  0.36820923527E+02  0.00000000000E+00 0. -1.
         11    1    4    4    0    0  0.16224304745E+01  0.14837910075E+02  0.22322347891E+02  0.26852989995E+02  0.51100000000E-03 0. -1.
        -11    1    4    4    0    0  0.43952714280E+01 -0.97770245877E+00  0.88485449259E+01  0.99282959560E+01  0.51100000000E-03 0.  1.
        -12    1    4    4    0    0 -0.60140378287E+00 -0.16810214520E+02  0.51298176908E+01  0.17585790521E+02  0.00000000000E+00 0.  1.
</event>
<event>
 8    1  0.1261983E-006  0.9118800E+02  0.7816164E-02  0.1184000E+00
        -11   -1    0    0    0    0  0.00000000000E+00  0.00000000000E+00  0.45593999997E+02  0.45594000000E+02  0.51100000000E-03 0.  1.
         11   -1    0    0    0    0 -0.00000000000E+00 -0.00000000000E+00 -0.45593999997E+02  0.45594000000E+02  0.51100000000E-03 0. -1.
         23    2    1    2    0    0  0.00000000000E+00 -0.35527136788E-14  0.00000000000E+00  0.91188000000E+02  0.91188000000E+02 0.  0.
    9900012    2    3    3    0    0  0.29891627116E+02 -0.18844396969E+02 -0.10351788559E+02  0.54367079382E+02  0.39999989067E+02 0.  0.
        -12    1    3    3    0    0 -0.29891627116E+02  0.18844396969E+02  0.10351788559E+02  0.36820920618E+02  0.00000000000E+00 0.  1.
         11    1    4    4    0    0  0.76971870390E+01  0.76142145177E+01 -0.63359083978E+01  0.12544587937E+02  0.51100000000E-03 0. -1.
        -11    1    4    4    0    0  0.23815077726E+02 -0.21804607483E+02  0.38731003712E+01  0.32520758622E+02  0.51100000000E-03 0.  1.
         12    1    4    4    0    0 -0.16206376487E+01 -0.46540040040E+01 -0.78889805326E+01  0.93017328225E+01  0.00000000000E+00 0. -1.
</event>
<event>
 8    1  0.1261983E-006  0.9118800E+02  0.7816164E-02  0.1184000E+00
        -11   -1    0    0    0    0  0.00000000000E+00  0.00000000000E+00  0.45593999997E+02  0.45594000000E+02  0.51100000000E-03 0.  1.
         11   -1    0    0    0    0 -0.00000000000E+00 -0.00000000000E+00 -0.45593999997E+02  0.45594000000E+02  0.51100000000E-03 0. -1.
         23    2    1    2    0    0  0.00000000000E+00  0.00000000000E+00  0.00000000000E+00  0.91188000000E+02  0.91188000000E+02 0.  0.
    9900012    2    3    3    0    0 -0.31852166340E+02 -0.91032240566E+01 -0.16073175202E+02  0.54367134314E+02  0.40000114295E+02 0.  0.
        -12    1    3    3    0    0  0.31852166340E+02  0.91032240566E+01  0.16073175202E+02  0.36820865686E+02  0.00000000000E+00 0.  1.
         11    1    4    4    0    0 -0.22281226983E+02 -0.96426152304E+01 -0.16318763286E+02  0.29252950959E+02  0.51100000000E-03 0. -1.
        -11    1    4    4    0    0 -0.58978446883E-01 -0.99266346279E+01 -0.34282685880E+01  0.10502122608E+02  0.51100000000E-03 0.  1.
        -12    1    4    4    0    0 -0.95119609107E+01  0.10466025802E+02  0.36738566722E+01  0.14612060748E+02  0.00000000000E+00 0.  1.
</event>
<event>
 8    1  0.1261983E-006  0.9118800E+02  0.7816164E-02  0.1184000E+00
        -11   -1    0    0    0    0  0.00000000000E+00  0.00000000000E+00  0.45593999997E+02  0.45594000000E+02  0.51100000000E-03 0. -1.
         11   -1    0    0    0    0 -0.00000000000E+00 -0.00000000000E+00 -0.45593999997E+02  0.45594000000E+02  0.51100000000E-03 0.  1.
         23    2    1    2    0    0  0.00000000000E+00  0.00000000000E+00  0.00000000000E+00  0.91188000000E+02  0.91188000000E+02 0.  0.
    9900012    2    3    3    0    0 -0.92191199840E+01 -0.34445467342E+02 -0.91813787856E+01  0.54367080538E+02  0.39999991701E+02 0.  0.
        -12    1    3    3    0    0  0.92191199840E+01  0.34445467342E+02  0.91813787856E+01  0.36820919462E+02  0.00000000000E+00 0.  1.
         11    1    4    4    0    0  0.18559044153E+01  0.11790708769E+01  0.14268367774E+01  0.26211548565E+01  0.51100000000E-03 0. -1.
        -11    1    4    4    0    0 -0.13244448496E+02 -0.24997200385E+02 -0.22133873608E+02  0.35919128667E+02  0.51100000000E-03 0.  1.
        -12    1    4    4    0    0  0.21694240970E+01 -0.10627337833E+02  0.11525658045E+02  0.15826797014E+02  0.00000000000E+00 0.  1.
</event>
<event>
 8    1  0.1261983E-006  0.9118800E+02  0.7816164E-02  0.1184000E+00
        -11   -1    0    0    0    0  0.00000000000E+00  0.00000000000E+00  0.45593999997E+02  0.45594000000E+02  0.51100000000E-03 0. -1.
         11   -1    0    0    0    0 -0.00000000000E+00 -0.00000000000E+00 -0.45593999997E+02  0.45594000000E+02  0.51100000000E-03 0.  1.
         23    2    1    2    0    0  0.00000000000E+00  0.17763568394E-14 -0.35527136788E-14  0.91188000000E+02  0.91188000000E+02 0.  0.
    9900012    2    3    3    0    0  0.22387972715E+02  0.15191028478E+02 -0.24975803752E+02  0.54367089615E+02  0.40000012396E+02 0.  0.
         12    1    3    3    0    0 -0.22387972715E+02 -0.15191028478E+02  0.24975803752E+02  0.36820910385E+02  0.00000000000E+00 0. -1.
         11    1    4    4    0    0  0.69197545998E+01  0.88291786836E+00  0.65185254889E+01  0.95474458624E+01  0.51100000000E-03 0. -1.
        -11    1    4    4    0    0  0.21582784848E+02  0.12475582589E+02 -0.21288340933E+02  0.32781858133E+02  0.51100000000E-03 0.  1.
        -12    1    4    4    0    0 -0.61145667332E+01  0.18325280210E+01 -0.10205988308E+02  0.12037785620E+02  0.00000000000E+00 0.  1.
</event>
<event>
 8    1  0.1261983E-006  0.9118800E+02  0.7816164E-02  0.1184000E+00
        -11   -1    0    0    0    0  0.00000000000E+00  0.00000000000E+00  0.45593999997E+02  0.45594000000E+02  0.51100000000E-03 0.  1.
         11   -1    0    0    0    0 -0.00000000000E+00 -0.00000000000E+00 -0.45593999997E+02  0.45594000000E+02  0.51100000000E-03 0. -1.
         23    2    1    2    0    0  0.15543122345E-14  0.00000000000E+00 -0.71054273576E-14  0.91188000000E+02  0.91188000000E+02 0.  0.
    9900012    2    3    3    0    0  0.85809466970E+00 -0.14606969614E+02 -0.33788768112E+02  0.54367072006E+02  0.39999972253E+02 0.  0.
        -12    1    3    3    0    0 -0.85809466970E+00  0.14606969614E+02  0.33788768112E+02  0.36820927994E+02  0.00000000000E+00 0.  1.
         11    1    4    4    0    0 -0.79157507687E+01  0.17304716297E+01 -0.10376669368E+02  0.13165443773E+02  0.51100000000E-03 0. -1.
        -11    1    4    4    0    0 -0.96770456685E+01 -0.28347735140E+01 -0.29187212310E+01  0.10497622951E+02  0.51100000000E-03 0.  1.
         12    1    4    4    0    0  0.18450891107E+02 -0.13502667730E+02 -0.20493377513E+02  0.30704005282E+02  0.00000000000E+00 0. -1.
</event>
<event>
 8    1  0.1261983E-006  0.9118800E+02  0.7816164E-02  0.1184000E+00
        -11   -1    0    0    0    0  0.00000000000E+00  0.00000000000E+00  0.45593999997E+02  0.45594000000E+02  0.51100000000E-03 0.  1.
         11   -1    0    0    0    0 -0.00000000000E+00 -0.00000000000E+00 -0.45593999997E+02  0.45594000000E+02  0.51100000000E-03 0. -1.
         23    2    1    2    0    0  0.35527136788E-14  0.00000000000E+00  0.00000000000E+00  0.91188000000E+02  0.91188000000E+02 0.  0.
    9900012    2    3    3    0    0  0.25879071970E+02 -0.15746442269E+02  0.20930885157E+02  0.54367098821E+02  0.40000033383E+02 0.  0.
         12    1    3    3    0    0 -0.25879071970E+02  0.15746442269E+02 -0.20930885157E+02  0.36820901179E+02  0.00000000000E+00 0. -1.
         11    1    4    4    0    0  0.68252734748E+01 -0.72821433835E+01 -0.25895809267E+01  0.10311154150E+02  0.51100000000E-03 0. -1.
        -11    1    4    4    0    0 -0.34032752370E+01  0.62119276215E+01  0.13818472255E+02  0.15528055347E+02  0.51100000000E-03 0.  1.
        -12    1    4    4    0    0  0.22457073733E+02 -0.14676226507E+02  0.97019938281E+01  0.28527889325E+02  0.00000000000E+00 0.  1.
</event>
<event>
 8    1  0.1261983E-006  0.9118800E+02  0.7816164E-02  0.1184000E+00
        -11   -1    0    0    0    0  0.00000000000E+00  0.00000000000E+00  0.45593999997E+02  0.45594000000E+02  0.51100000000E-03 0.  1.
         11   -1    0    0    0    0 -0.00000000000E+00 -0.00000000000E+00 -0.45593999997E+02  0.45594000000E+02  0.51100000000E-03 0. -1.
         23    2    1    2    0    0  0.00000000000E+00 -0.17763568394E-14  0.00000000000E+00  0.91188000000E+02  0.91188000000E+02 0.  0.
    9900012    2    3    3    0    0  0.31612402630E+02  0.70546613577E+01 -0.17511922266E+02  0.54367086536E+02  0.40000005376E+02 0.  0.
        -12    1    3    3    0    0 -0.31612402630E+02 -0.70546613577E+01  0.17511922266E+02  0.36820913464E+02  0.00000000000E+00 0.  1.
         11    1    4    4    0    0  0.15915274613E+02 -0.68857982231E+01 -0.45549768342E+01  0.17929249772E+02  0.51100000000E-03 0. -1.
        -11    1    4    4    0    0 -0.64753250902E+01  0.89734215249E+01 -0.21331800935E+01  0.11269542425E+02  0.51100000000E-03 0.  1.
         12    1    4    4    0    0  0.22172453107E+02  0.49670380559E+01 -0.10823765338E+02  0.25168294339E+02  0.00000000000E+00 0. -1.
</event>
<event>
 8    1  0.1261983E-006  0.9118800E+02  0.7816164E-02  0.1184000E+00
        -11   -1    0    0    0    0  0.00000000000E+00  0.00000000000E+00  0.45593999997E+02  0.45594000000E+02  0.51100000000E-03 0.  1.
         11   -1    0    0    0    0 -0.00000000000E+00 -0.00000000000E+00 -0.45593999997E+02  0.45594000000E+02  0.51100000000E-03 0. -1.
         23    2    1    2    0    0  0.00000000000E+00 -0.35527136788E-14  0.44408920985E-15  0.91188000000E+02  0.91188000000E+02 0.  0.
    9900012    2    3    3    0    0  0.30640956116E+02 -0.20105806365E+02  0.35592919813E+01  0.54367079307E+02  0.39999988897E+02 0.  0.
         12    1    3    3    0    0 -0.30640956116E+02  0.20105806365E+02 -0.35592919813E+01  0.36820920693E+02  0.00000000000E+00 0. -1.
         11    1    4    4    0    0  0.10329949879E+02  0.28462961477E+01 -0.35928200541E+01  0.11301222167E+02  0.51100000000E-03 0. -1.
        -11    1    4    4    0    0  0.13919901069E+02 -0.21114597778E+01 -0.83023231022E+01  0.16344738521E+02  0.51100000000E-03 0.  1.
         12    1    4    4    0    0  0.63911051677E+01 -0.20840642735E+02  0.15454435138E+02  0.26721118620E+02  0.00000000000E+00 0. -1.
</event>
<event>
 8    1  0.1261983E-006  0.9118800E+02  0.7816164E-02  0.1184000E+00
        -11   -1    0    0    0    0  0.00000000000E+00  0.00000000000E+00  0.45593999997E+02  0.45594000000E+02  0.51100000000E-03 0. -1.
         11   -1    0    0    0    0 -0.00000000000E+00 -0.00000000000E+00 -0.45593999997E+02  0.45594000000E+02  0.51100000000E-03 0.  1.
         23    2    1    2    0    0  0.00000000000E+00  0.00000000000E+00  0.88817841970E-15  0.91188000000E+02  0.91188000000E+02 0.  0.
    9900012    2    3    3    0    0  0.21161688084E+02 -0.29423692730E+02 -0.64970500052E+01  0.54367049507E+02  0.39999920960E+02 0.  0.
        -12    1    3    3    0    0 -0.21161688084E+02  0.29423692730E+02  0.64970500052E+01  0.36820950493E+02  0.00000000000E+00 0.  1.
         11    1    4    4    0    0  0.97474949713E+01  0.53940593250E+01  0.40757954216E+01  0.11862615344E+02  0.51100000000E-03 0. -1.
        -11    1    4    4    0    0  0.15133775964E+02 -0.18664473158E+02 -0.96765099510E+01  0.25904219314E+02  0.51100000000E-03 0.  1.
         12    1    4    4    0    0 -0.37195828511E+01 -0.16153278898E+02 -0.89633547578E+00  0.16600214849E+02  0.00000000000E+00 0. -1.
</event>
<event>
 8    1  0.1261983E-006  0.9118800E+02  0.7816164E-02  0.1184000E+00
        -11   -1    0    0    0    0  0.00000000000E+00  0.00000000000E+00  0.45593999997E+02  0.45594000000E+02  0.51100000000E-03 0. -1.
         11   -1    0    0    0    0 -0.00000000000E+00 -0.00000000000E+00 -0.45593999997E+02  0.45594000000E+02  0.51100000000E-03 0.  1.
         23    2    1    2    0    0 -0.71054273576E-14  0.44408920985E-15 -0.22204460493E-15  0.91188000000E+02  0.91188000000E+02 0.  0.
    9900012    2    3    3    0    0 -0.36646536324E+02 -0.31281326195E+01 -0.17398155251E+01  0.54367071219E+02  0.39999970459E+02 0.  0.
         12    1    3    3    0    0  0.36646536324E+02  0.31281326195E+01  0.17398155251E+01  0.36820928781E+02  0.00000000000E+00 0. -1.
         11    1    4    4    0    0  0.85991242454E+00  0.58039315115E+01 -0.60501880461E+01  0.84279206227E+01  0.51100000000E-03 0. -1.
        -11    1    4    4    0    0 -0.50944110164E+00 -0.30986225194E+01  0.77160366019E+01  0.83305589763E+01  0.51100000000E-03 0.  1.
        -12    1    4    4    0    0 -0.36997007647E+02 -0.58334416117E+01 -0.34056640809E+01  0.37608591620E+02  0.00000000000E+00 0.  1.
</event>
<event>
 8    1  0.1261983E-006  0.9118800E+02  0.7816164E-02  0.1184000E+00
        -11   -1    0    0    0    0  0.00000000000E+00  0.00000000000E+00  0.45593999997E+02  0.45594000000E+02  0.51100000000E-03 0.  1.
         11   -1    0    0    0    0 -0.00000000000E+00 -0.00000000000E+00 -0.45593999997E+02  0.45594000000E+02  0.51100000000E-03 0. -1.
         23    2    1    2    0    0 -0.35527136788E-14  0.00000000000E+00 -0.22204460493E-15  0.91188000000E+02  0.91188000000E+02 0.  0.
    9900012    2    3    3    0    0 -0.31174113994E+02 -0.19585413620E+02 -0.60311816351E+00  0.54367115145E+02  0.40000070597E+02 0.  0.
        -12    1    3    3    0    0  0.31174113994E+02  0.19585413620E+02  0.60311816351E+00  0.36820884855E+02  0.00000000000E+00 0.  1.
         11    1    4    4    0    0 -0.13641509422E+02  0.11759987550E+01 -0.72768009804E+00  0.13711428480E+02  0.51100000000E-03 0. -1.
        -11    1    4    4    0    0  0.81015306361E+01 -0.98096537996E+01  0.10402226773E+01  0.12765037007E+02  0.51100000000E-03 0.  1.
        -12    1    4    4    0    0 -0.25634135208E+02 -0.10951758576E+02 -0.91566074274E+00  0.27890649658E+02  0.00000000000E+00 0.  1.
</event>
<event>
 8    1  0.1261983E-006  0.9118800E+02  0.7816164E-02  0.1184000E+00
        -11   -1    0    0    0    0  0.00000000000E+00  0.00000000000E+00  0.45593999997E+02  0.45594000000E+02  0.51100000000E-03 0.  1.
         11   -1    0    0    0    0 -0.00000000000E+00 -0.00000000000E+00 -0.45593999997E+02  0.45594000000E+02  0.51100000000E-03 0. -1.
         23    2    1    2    0    0 -0.88817841970E-15 -0.71054273576E-14  0.88817841970E-15  0.91188000000E+02  0.91188000000E+02 0.  0.
    9900012    2    3    3    0    0  0.76000638029E+01 -0.35690888613E+02 -0.49172683798E+01  0.54367081651E+02  0.39999994239E+02 0.  0.
        -12    1    3    3    0    0 -0.76000638029E+01  0.35690888613E+02  0.49172683798E+01  0.36820918349E+02  0.00000000000E+00 0.  1.
         11    1    4    4    0    0 -0.89305110044E+01 -0.55921768543E+01  0.21472868504E+01  0.10753478965E+02  0.51100000000E-03 0.  1.
        -11    1    4    4    0    0  0.12572382454E+02 -0.20532499455E+01 -0.83993584474E+01  0.15258763334E+02  0.51100000000E-03 0. -1.
        -12    1    4    4    0    0  0.39581923534E+01 -0.28045461813E+02  0.13348032172E+01  0.28354839351E+02  0.00000000000E+00 0.  1.
</event>
<event>
 8    1  0.1261983E-006  0.9118800E+02  0.7816164E-02  0.1184000E+00
        -11   -1    0    0    0    0  0.00000000000E+00  0.00000000000E+00  0.45593999997E+02  0.45594000000E+02  0.51100000000E-03 0. -1.
         11   -1    0    0    0    0 -0.00000000000E+00 -0.00000000000E+00 -0.45593999997E+02  0.45594000000E+02  0.51100000000E-03 0.  1.
         23    2    1    2    0    0  0.00000000000E+00  0.11102230246E-15  0.00000000000E+00  0.91188000000E+02  0.91188000000E+02 0.  0.
    9900012    2    3    3    0    0 -0.32384357467E+02  0.82797576615E+00 -0.17502777530E+02  0.54367090537E+02  0.40000014498E+02 0.  0.
        -12    1    3    3    0    0  0.32384357467E+02 -0.82797576615E+00  0.17502777530E+02  0.36820909463E+02  0.00000000000E+00 0.  1.
         11    1    4    4    0    0 -0.27213225090E+02 -0.41339198537E+01 -0.81770925556E+01  0.28714347565E+02  0.51100000000E-03 0. -1.
        -11    1    4    4    0    0 -0.71997927600E+01  0.24625896352E+01 -0.16290491565E+02  0.17980030010E+02  0.51100000000E-03 0.  1.
        -12    1    4    4    0    0  0.20286603833E+01  0.24993059847E+01  0.69648065901E+01  0.76727129617E+01  0.00000000000E+00 0.  1.
</event>
<event>
 8    1  0.1261983E-006  0.9118800E+02  0.7816164E-02  0.1184000E+00
        -11   -1    0    0    0    0  0.00000000000E+00  0.00000000000E+00  0.45593999997E+02  0.45594000000E+02  0.51100000000E-03 0.  1.
         11   -1    0    0    0    0 -0.00000000000E+00 -0.00000000000E+00 -0.45593999997E+02  0.45594000000E+02  0.51100000000E-03 0. -1.
         23    2    1    2    0    0 -0.35527136788E-14 -0.35527136788E-14  0.00000000000E+00  0.91188000000E+02  0.91188000000E+02 0.  0.
    9900012    2    3    3    0    0 -0.24821390588E+02 -0.22187552041E+02 -0.15728655110E+02  0.54367088987E+02  0.40000010963E+02 0.  0.
        -12    1    3    3    0    0  0.24821390588E+02  0.22187552041E+02  0.15728655110E+02  0.36820911013E+02  0.00000000000E+00 0.  1.
         11    1    4    4    0    0 -0.42992406607E+01 -0.27065271478E+02 -0.25446569007E+01  0.27522493881E+02  0.51100000000E-03 0. -1.
        -11    1    4    4    0    0 -0.13848310918E+02  0.31320209675E+01 -0.29477627437E+01  0.14500847426E+02  0.51100000000E-03 0.  1.
         12    1    4    4    0    0 -0.66738390091E+01  0.17456984697E+01 -0.10236235465E+02  0.12343747679E+02  0.00000000000E+00 0. -1.
</event>
<event>
 8    1  0.1261983E-006  0.9118800E+02  0.7816164E-02  0.1184000E+00
        -11   -1    0    0    0    0  0.00000000000E+00  0.00000000000E+00  0.45593999997E+02  0.45594000000E+02  0.51100000000E-03 0. -1.
         11   -1    0    0    0    0 -0.00000000000E+00 -0.00000000000E+00 -0.45593999997E+02  0.45594000000E+02  0.51100000000E-03 0.  1.
         23    2    1    2    0    0  0.17763568394E-14  0.00000000000E+00 -0.88817841970E-15  0.91188000000E+02  0.91188000000E+02 0.  0.
    9900012    2    3    3    0    0  0.15429004142E+02 -0.33016732147E+02  0.52557602109E+01  0.54367057781E+02  0.39999939824E+02 0.  0.
         12    1    3    3    0    0 -0.15429004142E+02  0.33016732147E+02 -0.52557602109E+01  0.36820942219E+02  0.00000000000E+00 0. -1.
         11    1    4    4    0    0  0.60516272898E+01  0.73680347734E+01 -0.29907217237E+01  0.99927246517E+01  0.51100000000E-03 0. -1.
        -11    1    4    4    0    0  0.98948887200E+00 -0.15721536994E+02  0.93171568689E+01  0.18301782046E+02  0.51100000000E-03 0.  1.
        -12    1    4    4    0    0  0.83878879799E+01 -0.24663229927E+02 -0.10706749344E+01  0.26072551084E+02  0.00000000000E+00 0.  1.
</event>
<event>
 8    1  0.1261983E-006  0.9118800E+02  0.7816164E-02  0.1184000E+00
        -11   -1    0    0    0    0  0.00000000000E+00  0.00000000000E+00  0.45593999997E+02  0.45594000000E+02  0.51100000000E-03 0.  1.
         11   -1    0    0    0    0 -0.00000000000E+00 -0.00000000000E+00 -0.45593999997E+02  0.45594000000E+02  0.51100000000E-03 0. -1.
         23    2    1    2    0    0  0.00000000000E+00  0.00000000000E+00  0.00000000000E+00  0.91188000000E+02  0.91188000000E+02 0.  0.
    9900012    2    3    3    0    0  0.18648391629E+02 -0.31234508040E+02 -0.56942435993E+01  0.54367062844E+02  0.39999951365E+02 0.  0.
         12    1    3    3    0    0 -0.18648391629E+02  0.31234508040E+02  0.56942435993E+01  0.36820937156E+02  0.00000000000E+00 0. -1.
         11    1    4    4    0    0 -0.22022535179E+00  0.16747047559E+01  0.11654072368E+02  0.11775845543E+02  0.51100000000E-03 0. -1.
        -11    1    4    4    0    0  0.95365830549E+01 -0.18222961320E+02 -0.13977077170E+02  0.24867276129E+02  0.51100000000E-03 0.  1.
        -12    1    4    4    0    0  0.93320339261E+01 -0.14686251476E+02 -0.33712387976E+01  0.17723941172E+02  0.00000000000E+00 0.  1.
</event>
<event>
 8    1  0.1261983E-006  0.9118800E+02  0.7816164E-02  0.1184000E+00
        -11   -1    0    0    0    0  0.00000000000E+00  0.00000000000E+00  0.45593999997E+02  0.45594000000E+02  0.51100000000E-03 0.  1.
         11   -1    0    0    0    0 -0.00000000000E+00 -0.00000000000E+00 -0.45593999997E+02  0.45594000000E+02  0.51100000000E-03 0. -1.
         23    2    1    2    0    0  0.35527136788E-14  0.00000000000E+00  0.00000000000E+00  0.91188000000E+02  0.91188000000E+02 0.  0.
    9900012    2    3    3    0    0 -0.28339205944E+02  0.19549466199E+02 -0.13057110628E+02  0.54367077141E+02  0.39999983959E+02 0.  0.
         12    1    3    3    0    0  0.28339205944E+02 -0.19549466199E+02  0.13057110628E+02  0.36820922859E+02  0.00000000000E+00 0. -1.
         11    1    4    4    0    0 -0.63333651226E+01 -0.11380761175E+01 -0.13996375901E+02  0.15404715825E+02  0.51100000000E-03 0. -1.
        -11    1    4    4    0    0 -0.16612905472E+02  0.48202423564E+00  0.55971592331E+01  0.17537079784E+02  0.51100000000E-03 0.  1.
        -12    1    4    4    0    0 -0.53929353495E+01  0.20205518081E+02 -0.46578939596E+01  0.21425281533E+02  0.00000000000E+00 0.  1.
</event>
<event>
 8    1  0.1261983E-006  0.9118800E+02  0.7816164E-02  0.1184000E+00
        -11   -1    0    0    0    0  0.00000000000E+00  0.00000000000E+00  0.45593999997E+02  0.45594000000E+02  0.51100000000E-03 0. -1.
         11   -1    0    0    0    0 -0.00000000000E+00 -0.00000000000E+00 -0.45593999997E+02  0.45594000000E+02  0.51100000000E-03 0.  1.
         23    2    1    2    0    0  0.00000000000E+00  0.22204460493E-15  0.00000000000E+00  0.91188000000E+02  0.91188000000E+02 0.  0.
    9900012    2    3    3    0    0 -0.17635009264E+02 -0.25102622015E+00  0.32322104555E+02  0.54367149810E+02  0.40000149621E+02 0.  0.
        -12    1    3    3    0    0  0.17635009264E+02  0.25102622015E+00 -0.32322104555E+02  0.36820850190E+02  0.00000000000E+00 0.  1.
         11    1    4    4    0    0 -0.16887882523E+02  0.75960283552E+00  0.39687758870E+02  0.43138101221E+02  0.51100000000E-03 0. -1.
        -11    1    4    4    0    0  0.85008794143E+00 -0.18957049056E+01  0.12482426053E+01  0.24237278024E+01  0.51100000000E-03 0.  1.
         12    1    4    4    0    0 -0.15972146820E+01  0.88507584990E+00 -0.86138969201E+01  0.88053207863E+01  0.00000000000E+00 0. -1.
</event>
<event>
 8    1  0.1261983E-006  0.9118800E+02  0.7816164E-02  0.1184000E+00
        -11   -1    0    0    0    0  0.00000000000E+00  0.00000000000E+00  0.45593999997E+02  0.45594000000E+02  0.51100000000E-03 0. -1.
         11   -1    0    0    0    0 -0.00000000000E+00 -0.00000000000E+00 -0.45593999997E+02  0.45594000000E+02  0.51100000000E-03 0.  1.
         23    2    1    2    0    0  0.00000000000E+00  0.17763568394E-14  0.00000000000E+00  0.91188000000E+02  0.91188000000E+02 0.  0.
    9900012    2    3    3    0    0  0.32186626110E+02 -0.13704649375E+02  0.11488402899E+02  0.54367085889E+02  0.40000003900E+02 0.  0.
         12    1    3    3    0    0 -0.32186626110E+02  0.13704649375E+02 -0.11488402899E+02  0.36820914111E+02  0.00000000000E+00 0. -1.
         11    1    4    4    0    0  0.22422101426E+02 -0.15526282903E+02  0.31440330919E+01  0.27453616109E+02  0.51100000000E-03 0. -1.
        -11    1    4    4    0    0  0.79726703389E+01 -0.61266220113E+01 -0.50376391449E+01  0.11246189489E+02  0.51100000000E-03 0.  1.
         12    1    4    4    0    0  0.17918543452E+01  0.79482555394E+01  0.13382008952E+02  0.15667280290E+02  0.00000000000E+00 0. -1.
</event>
<event>
 8    1  0.1261983E-006  0.9118800E+02  0.7816164E-02  0.1184000E+00
        -11   -1    0    0    0    0  0.00000000000E+00  0.00000000000E+00  0.45593999997E+02  0.45594000000E+02  0.51100000000E-03 0. -1.
         11   -1    0    0    0    0 -0.00000000000E+00 -0.00000000000E+00 -0.45593999997E+02  0.45594000000E+02  0.51100000000E-03 0.  1.
         23    2    1    2    0    0 -0.35527136788E-14  0.35527136788E-14 -0.88817841970E-15  0.91188000000E+02  0.91188000000E+02 0.  0.
    9900012    2    3    3    0    0  0.30174245569E+02  0.20573487482E+02 -0.46933160487E+01  0.54367072549E+02  0.39999973490E+02 0.  0.
         12    1    3    3    0    0 -0.30174245569E+02 -0.20573487482E+02  0.46933160487E+01  0.36820927451E+02  0.00000000000E+00 0. -1.
         11    1    4    4    0    0 -0.54645571159E+01  0.10686795918E+02 -0.63983001076E+01  0.13601736507E+02  0.51100000000E-03 0.  1.
        -11    1    4    4    0    0  0.94784253308E+01  0.40438672228E+01  0.82178491505E+01  0.13180533137E+02  0.51100000000E-03 0. -1.
        -12    1    4    4    0    0  0.26160377354E+02  0.58428243409E+01 -0.65128650915E+01  0.27584802904E+02  0.00000000000E+00 0.  1.
</event>
<event>
 8    1  0.1261983E-006  0.9118800E+02  0.7816164E-02  0.1184000E+00
        -11   -1    0    0    0    0  0.00000000000E+00  0.00000000000E+00  0.45593999997E+02  0.45594000000E+02  0.51100000000E-03 0.  1.
         11   -1    0    0    0    0 -0.00000000000E+00 -0.00000000000E+00 -0.45593999997E+02  0.45594000000E+02  0.51100000000E-03 0. -1.
         23    2    1    2    0    0  0.00000000000E+00  0.00000000000E+00  0.00000000000E+00  0.91188000000E+02  0.91188000000E+02 0.  0.
    9900012    2    3    3    0    0  0.95115544060E+01  0.15548747554E+02  0.31992929011E+02  0.54367072195E+02  0.39999972683E+02 0.  0.
         12    1    3    3    0    0 -0.95115544060E+01 -0.15548747554E+02 -0.31992929011E+02  0.36820927805E+02  0.00000000000E+00 0. -1.
         11    1    4    4    0    0  0.27105592021E+01 -0.55205035952E+01 -0.31568929974E+01  0.69129635317E+01  0.51100000000E-03 0. -1.
        -11    1    4    4    0    0  0.16771847022E+01  0.23599918930E+02  0.34312007722E+02  0.41678327656E+02  0.51100000000E-03 0.  1.
        -12    1    4    4    0    0  0.51238105017E+01 -0.25306677804E+01  0.83781428661E+00  0.57757810079E+01  0.00000000000E+00 0.  1.
</event>
<event>
 8    1  0.1261983E-006  0.9118800E+02  0.7816164E-02  0.1184000E+00
        -11   -1    0    0    0    0  0.00000000000E+00  0.00000000000E+00  0.45593999997E+02  0.45594000000E+02  0.51100000000E-03 0.  1.
         11   -1    0    0    0    0 -0.00000000000E+00 -0.00000000000E+00 -0.45593999997E+02  0.45594000000E+02  0.51100000000E-03 0. -1.
         23    2    1    2    0    0  0.00000000000E+00  0.35527136788E-14  0.00000000000E+00  0.91188000000E+02  0.91188000000E+02 0.  0.
    9900012    2    3    3    0    0 -0.21503054223E+02  0.29429104734E+02 -0.52273448533E+01  0.54367099949E+02  0.40000035953E+02 0.  0.
        -12    1    3    3    0    0  0.21503054223E+02 -0.29429104734E+02  0.52273448533E+01  0.36820900051E+02  0.00000000000E+00 0.  1.
         11    1    4    4    0    0 -0.52831601056E+01  0.94456070840E+01 -0.59483252960E+01  0.12349649711E+02  0.51100000000E-03 0. -1.
        -11    1    4    4    0    0 -0.95682466929E+01  0.23807280063E+02  0.12040503909E+02  0.28342753279E+02  0.51100000000E-03 0.  1.
         12    1    4    4    0    0 -0.66516474248E+01 -0.38237824134E+01 -0.11319523466E+02  0.13674696959E+02  0.00000000000E+00 0. -1.
</event>
<event>
 8    1  0.1261983E-006  0.9118800E+02  0.7816164E-02  0.1184000E+00
        -11   -1    0    0    0    0  0.00000000000E+00  0.00000000000E+00  0.45593999997E+02  0.45594000000E+02  0.51100000000E-03 0.  1.
         11   -1    0    0    0    0 -0.00000000000E+00 -0.00000000000E+00 -0.45593999997E+02  0.45594000000E+02  0.51100000000E-03 0. -1.
         23    2    1    2    0    0 -0.35527136788E-14  0.17763568394E-14 -0.35527136788E-14  0.91188000000E+02  0.91188000000E+02 0.  0.
    9900012    2    3    3    0    0  0.28540881127E+02 -0.68033208634E+01  0.22246626125E+02  0.54367089579E+02  0.40000012313E+02 0.  0.
         12    1    3    3    0    0 -0.28540881127E+02  0.68033208634E+01 -0.22246626125E+02  0.36820910421E+02  0.00000000000E+00 0. -1.
         11    1    4    4    0    0  0.14561886851E+02  0.22620319538E+01  0.20158325071E+02  0.24970450680E+02  0.51100000000E-03 0. -1.
        -11    1    4    4    0    0  0.14413336196E+02 -0.23235224565E+01  0.10952806598E+02  0.18251218851E+02  0.51100000000E-03 0.  1.
         12    1    4    4    0    0 -0.43434192012E+00 -0.67418303607E+01 -0.88645055438E+01  0.11145420048E+02  0.00000000000E+00 0. -1.
</event>
<event>
 8    1  0.1261983E-006  0.9118800E+02  0.7816164E-02  0.1184000E+00
        -11   -1    0    0    0    0  0.00000000000E+00  0.00000000000E+00  0.45593999997E+02  0.45594000000E+02  0.51100000000E-03 0. -1.
         11   -1    0    0    0    0 -0.00000000000E+00 -0.00000000000E+00 -0.45593999997E+02  0.45594000000E+02  0.51100000000E-03 0.  1.
         23    2    1    2    0    0 -0.17763568394E-14  0.00000000000E+00 -0.71054273576E-14  0.91188000000E+02  0.91188000000E+02 0.  0.
    9900012    2    3    3    0    0  0.15168749174E+02  0.17699622899E+02  0.28502918719E+02  0.54367028017E+02  0.39999871970E+02 0.  0.
        -12    1    3    3    0    0 -0.15168749174E+02 -0.17699622899E+02 -0.28502918719E+02  0.36820971983E+02  0.00000000000E+00 0.  1.
         11    1    4    4    0    0 -0.67722213975E+00  0.10623131986E+02  0.10470390026E+00  0.10645211420E+02  0.51100000000E-03 0. -1.
        -11    1    4    4    0    0  0.33196888054E+01  0.11842412970E+01 -0.58231045383E+01  0.68067105080E+01  0.51100000000E-03 0.  1.
         12    1    4    4    0    0  0.12526282509E+02  0.58922496158E+01  0.34221319357E+02  0.36915106089E+02  0.00000000000E+00 0. -1.
</event>
<event>
 8    1  0.1261983E-006  0.9118800E+02  0.7816164E-02  0.1184000E+00
        -11   -1    0    0    0    0  0.00000000000E+00  0.00000000000E+00  0.45593999997E+02  0.45594000000E+02  0.51100000000E-03 0.  1.
         11   -1    0    0    0    0 -0.00000000000E+00 -0.00000000000E+00 -0.45593999997E+02  0.45594000000E+02  0.51100000000E-03 0. -1.
         23    2    1    2    0    0  0.00000000000E+00 -0.26645352591E-14  0.88817841970E-15  0.91188000000E+02  0.91188000000E+02 0.  0.
    9900012    2    3    3    0    0 -0.36286925845E+02 -0.61045433706E+01 -0.13314901048E+01  0.54367091498E+02  0.40000016687E+02 0.  0.
         12    1    3    3    0    0  0.36286925845E+02  0.61045433706E+01  0.13314901048E+01  0.36820908502E+02  0.00000000000E+00 0. -1.
         11    1    4    4    0    0  0.68775042996E+00  0.64096407235E+01  0.35458324583E+01  0.73572700740E+01  0.51100000000E-03 0. -1.
        -11    1    4    4    0    0 -0.21417593855E+02 -0.16913490187E+02  0.54448081903E+01  0.27828500019E+02  0.51100000000E-03 0.  1.
        -12    1    4    4    0    0 -0.15557082420E+02  0.43993060930E+01 -0.10322130753E+02  0.19181321404E+02  0.00000000000E+00 0.  1.
</event>
<event>
 8    1  0.1261983E-006  0.9118800E+02  0.7816164E-02  0.1184000E+00
        -11   -1    0    0    0    0  0.00000000000E+00  0.00000000000E+00  0.45593999997E+02  0.45594000000E+02  0.51100000000E-03 0.  1.
         11   -1    0    0    0    0 -0.00000000000E+00 -0.00000000000E+00 -0.45593999997E+02  0.45594000000E+02  0.51100000000E-03 0. -1.
         23    2    1    2    0    0  0.00000000000E+00  0.00000000000E+00 -0.17763568394E-14  0.91188000000E+02  0.91188000000E+02 0.  0.
    9900012    2    3    3    0    0 -0.14677650761E+02  0.33045775142E+02  0.69521634304E+01  0.54366956249E+02  0.39999708359E+02 0.  0.
         12    1    3    3    0    0  0.14677650761E+02 -0.33045775142E+02 -0.69521634304E+01  0.36821043751E+02  0.00000000000E+00 0. -1.
         11    1    4    4    0    0 -0.76635810679E+01  0.12550734237E+02 -0.10179630570E+02  0.17885085504E+02  0.51100000000E-03 0. -1.
        -11    1    4    4    0    0 -0.63144511799E+01 -0.21650914909E+01 -0.18353706173E+01  0.69230412704E+01  0.51100000000E-03 0.  1.
         12    1    4    4    0    0 -0.69961851295E+00  0.22660132396E+02  0.18967164618E+02  0.29558829475E+02  0.00000000000E+00 0. -1.
</event>
<event>
 8    1  0.1261983E-006  0.9118800E+02  0.7816164E-02  0.1184000E+00
        -11   -1    0    0    0    0  0.00000000000E+00  0.00000000000E+00  0.45593999997E+02  0.45594000000E+02  0.51100000000E-03 0. -1.
         11   -1    0    0    0    0 -0.00000000000E+00 -0.00000000000E+00 -0.45593999997E+02  0.45594000000E+02  0.51100000000E-03 0.  1.
         23    2    1    2    0    0  0.88817841970E-15  0.35527136788E-14  0.00000000000E+00  0.91188000000E+02  0.91188000000E+02 0.  0.
    9900012    2    3    3    0    0 -0.75022008807E+01 -0.26151416241E+02  0.24811249089E+02  0.54367113661E+02  0.40000067212E+02 0.  0.
        -12    1    3    3    0    0  0.75022008807E+01  0.26151416241E+02 -0.24811249089E+02  0.36820886339E+02  0.00000000000E+00 0.  1.
         11    1    4    4    0    0  0.36523833782E+01  0.36134791556E+01  0.17431572766E+02  0.18172970735E+02  0.51100000000E-03 0. -1.
        -11    1    4    4    0    0 -0.68826296734E+01 -0.23013244557E+01  0.37363404604E+01  0.81625318235E+01  0.51100000000E-03 0.  1.
         12    1    4    4    0    0 -0.42719545854E+01 -0.27463570941E+02  0.36433358622E+01  0.28031611103E+02  0.00000000000E+00 0. -1.
</event>
<event>
 8    1  0.1261983E-006  0.9118800E+02  0.7816164E-02  0.1184000E+00
        -11   -1    0    0    0    0  0.00000000000E+00  0.00000000000E+00  0.45593999997E+02  0.45594000000E+02  0.51100000000E-03 0. -1.
         11   -1    0    0    0    0 -0.00000000000E+00 -0.00000000000E+00 -0.45593999997E+02  0.45594000000E+02  0.51100000000E-03 0.  1.
         23    2    1    2    0    0  0.71054273576E-14  0.35527136788E-14  0.00000000000E+00  0.91188000000E+02  0.91188000000E+02 0.  0.
    9900012    2    3    3    0    0 -0.29635504055E+02 -0.19706184870E+02 -0.94435321999E+01  0.54367121098E+02  0.40000084167E+02 0.  0.
         12    1    3    3    0    0  0.29635504055E+02  0.19706184870E+02  0.94435321999E+01  0.36820878902E+02  0.00000000000E+00 0. -1.
         11    1    4    4    0    0  0.33426782555E+01 -0.22189872781E+01 -0.66471247145E+01  0.77641271042E+01  0.51100000000E-03 0. -1.
        -11    1    4    4    0    0 -0.12416439553E+02  0.87152871630E+00 -0.12248069176E+02  0.17462609549E+02  0.51100000000E-03 0.  1.
         12    1    4    4    0    0 -0.20561742757E+02 -0.18358726308E+02  0.94516616901E+01  0.29140384445E+02  0.00000000000E+00 0. -1.
</event>
