<event>
 8    1  0.1210161E-006  0.9118800E+02  0.7816164E-02  0.1184000E+00
        -11   -1    0    0    0    0  0.00000000000E+00  0.00000000000E+00  0.45593999997E+02  0.45594000000E+02  0.51100000000E-03 0.  1.
         11   -1    0    0    0    0 -0.00000000000E+00 -0.00000000000E+00 -0.45593999997E+02  0.45594000000E+02  0.51100000000E-03 0. -1.
         23    2    1    2    0    0  0.00000000000E+00  0.35527136788E-14 -0.17763568394E-14  0.91188000000E+02  0.91188000000E+02 0.  0.
    9900012    2    3    3    0    0  0.19617216330E+02 -0.26959556318E+02  0.15624579406E+02  0.54367077483E+02  0.39999984737E+02 0.  0.
         12    1    3    3    0    0 -0.19617216330E+02  0.26959556318E+02 -0.15624579406E+02  0.36820922517E+02  0.00000000000E+00 0. -1.
         11    1    4    4    0    0 -0.47924785998E+01 -0.78271990555E+01 -0.87903647686E+01  0.12708399160E+02  0.51100000000E-03 0. -1.
        -11    1    4    4    0    0  0.24909619849E+02 -0.20518830718E+02  0.23157306315E+02  0.39721183405E+02  0.51100000000E-03 0.  1.
        -12    1    4    4    0    0 -0.49992491924E+00  0.13864734556E+01  0.12576378604E+01  0.19374949177E+01  0.00000000000E+00 0.  1.
</event>
<event>
 8    1  0.1210161E-006  0.9118800E+02  0.7816164E-02  0.1184000E+00
        -11   -1    0    0    0    0  0.00000000000E+00  0.00000000000E+00  0.45593999997E+02  0.45594000000E+02  0.51100000000E-03 0. -1.
         11   -1    0    0    0    0 -0.00000000000E+00 -0.00000000000E+00 -0.45593999997E+02  0.45594000000E+02  0.51100000000E-03 0.  1.
         23    2    1    2    0    0  0.17763568394E-14 -0.71054273576E-14  0.17763568394E-14  0.91188000000E+02  0.91188000000E+02 0.  0.
    9900012    2    3    3    0    0 -0.15189337515E+02  0.31943651562E+02  0.10230630459E+02  0.54367100380E+02  0.40000036936E+02 0.  0.
        -12    1    3    3    0    0  0.15189337515E+02 -0.31943651562E+02 -0.10230630459E+02  0.36820899620E+02  0.00000000000E+00 0.  1.
         11    1    4    4    0    0 -0.81130219481E+01  0.10222284851E+02 -0.14267966596E+02  0.19336263956E+02  0.51100000000E-03 0. -1.
        -11    1    4    4    0    0 -0.26201622210E+01  0.11015953310E+02  0.50735962301E+01  0.12407975514E+02  0.51100000000E-03 0.  1.
        -12    1    4    4    0    0 -0.44561533459E+01  0.10705413401E+02  0.19425000825E+02  0.22622860910E+02  0.00000000000E+00 0.  1.
</event>
<event>
 8    1  0.1210161E-006  0.9118800E+02  0.7816164E-02  0.1184000E+00
        -11   -1    0    0    0    0  0.00000000000E+00  0.00000000000E+00  0.45593999997E+02  0.45594000000E+02  0.51100000000E-03 0.  1.
         11   -1    0    0    0    0 -0.00000000000E+00 -0.00000000000E+00 -0.45593999997E+02  0.45594000000E+02  0.51100000000E-03 0. -1.
         23    2    1    2    0    0  0.26645352591E-14  0.00000000000E+00  0.00000000000E+00  0.91188000000E+02  0.91188000000E+02 0.  0.
    9900012    2    3    3    0    0 -0.42315115912E+01 -0.33976795509E+02 -0.13544428731E+02  0.54367083756E+02  0.39999999038E+02 0.  0.
         12    1    3    3    0    0  0.42315115912E+01  0.33976795509E+02  0.13544428731E+02  0.36820916244E+02  0.00000000000E+00 0. -1.
         11    1    4    4    0    0  0.55281782821E+01 -0.20402641130E+02 -0.16213967871E+02  0.26640594487E+02  0.51100000000E-03 0. -1.
        -11    1    4    4    0    0  0.65870545786E+01 -0.77001425631E+01 -0.11961273474E+00  0.10133893180E+02  0.51100000000E-03 0.  1.
         12    1    4    4    0    0 -0.16346744452E+02 -0.58740118155E+01  0.27891518747E+01  0.17592596089E+02  0.00000000000E+00 0. -1.
</event>
<event>
 8    1  0.1210161E-006  0.9118800E+02  0.7816164E-02  0.1184000E+00
        -11   -1    0    0    0    0  0.00000000000E+00  0.00000000000E+00  0.45593999997E+02  0.45594000000E+02  0.51100000000E-03 0. -1.
         11   -1    0    0    0    0 -0.00000000000E+00 -0.00000000000E+00 -0.45593999997E+02  0.45594000000E+02  0.51100000000E-03 0.  1.
         23    2    1    2    0    0  0.00000000000E+00  0.17763568394E-14  0.00000000000E+00  0.91188000000E+02  0.91188000000E+02 0.  0.
    9900012    2    3    3    0    0  0.13581583471E+02  0.13488740791E+02  0.31454291971E+02  0.54367108904E+02  0.40000056368E+02 0.  0.
        -12    1    3    3    0    0 -0.13581583471E+02 -0.13488740791E+02 -0.31454291971E+02  0.36820891096E+02  0.00000000000E+00 0.  1.
         11    1    4    4    0    0  0.11427538148E+02  0.42136836512E+01  0.14734112631E+02  0.19116428362E+02  0.51100000000E-03 0. -1.
        -11    1    4    4    0    0  0.12868208863E+02 -0.37620960656E+01  0.36178898015E+01  0.13886442778E+02  0.51100000000E-03 0.  1.
         12    1    4    4    0    0 -0.10714163540E+02  0.13037153205E+02  0.13102289539E+02  0.21364237764E+02  0.00000000000E+00 0. -1.
</event>
<event>
 8    1  0.1210161E-006  0.9118800E+02  0.7816164E-02  0.1184000E+00
        -11   -1    0    0    0    0  0.00000000000E+00  0.00000000000E+00  0.45593999997E+02  0.45594000000E+02  0.51100000000E-03 0.  1.
         11   -1    0    0    0    0 -0.00000000000E+00 -0.00000000000E+00 -0.45593999997E+02  0.45594000000E+02  0.51100000000E-03 0. -1.
         23    2    1    2    0    0  0.00000000000E+00  0.00000000000E+00  0.00000000000E+00  0.91188000000E+02  0.91188000000E+02 0.  0.
    9900012    2    3    3    0    0  0.20961812377E+02  0.13828808961E+02  0.26928547449E+02  0.54367079274E+02  0.39999988821E+02 0.  0.
         12    1    3    3    0    0 -0.20961812377E+02 -0.13828808961E+02 -0.26928547449E+02  0.36820920726E+02  0.00000000000E+00 0. -1.
         11    1    4    4    0    0  0.95224897555E+01  0.45189092146E+01  0.11368176121E+02  0.15502702352E+02  0.51100000000E-03 0. -1.
        -11    1    4    4    0    0  0.54171801745E+01 -0.12152809105E+02  0.52486909273E+01  0.14303334119E+02  0.51100000000E-03 0.  1.
         12    1    4    4    0    0  0.60221424472E+01  0.21462708852E+02  0.10311680401E+02  0.24561042804E+02  0.00000000000E+00 0. -1.
</event>
<event>
 8    1  0.1210161E-006  0.9118800E+02  0.7816164E-02  0.1184000E+00
        -11   -1    0    0    0    0  0.00000000000E+00  0.00000000000E+00  0.45593999997E+02  0.45594000000E+02  0.51100000000E-03 0. -1.
         11   -1    0    0    0    0 -0.00000000000E+00 -0.00000000000E+00 -0.45593999997E+02  0.45594000000E+02  0.51100000000E-03 0.  1.
         23    2    1    2    0    0  0.00000000000E+00 -0.71054273576E-14  0.00000000000E+00  0.91188000000E+02  0.91188000000E+02 0.  0.
    9900012    2    3    3    0    0 -0.27570894243E+01  0.31836322395E+02  0.18292834226E+02  0.54367071851E+02  0.39999971898E+02 0.  0.
        -12    1    3    3    0    0  0.27570894243E+01 -0.31836322395E+02 -0.18292834226E+02  0.36820928149E+02  0.00000000000E+00 0.  1.
         11    1    4    4    0    0  0.49107959897E+01  0.10290677020E+02  0.24650716568E+02  0.27160113740E+02  0.51100000000E-03 0. -1.
        -11    1    4    4    0    0 -0.54562333321E+01  0.10407362588E+01 -0.29954737410E+01  0.63108222387E+01  0.51100000000E-03 0.  1.
         12    1    4    4    0    0 -0.22116520818E+01  0.20504909116E+02 -0.33624086010E+01  0.20896135872E+02  0.00000000000E+00 0. -1.
</event>
<event>
 8    1  0.1210161E-006  0.9118800E+02  0.7816164E-02  0.1184000E+00
        -11   -1    0    0    0    0  0.00000000000E+00  0.00000000000E+00  0.45593999997E+02  0.45594000000E+02  0.51100000000E-03 0.  1.
         11   -1    0    0    0    0 -0.00000000000E+00 -0.00000000000E+00 -0.45593999997E+02  0.45594000000E+02  0.51100000000E-03 0. -1.
         23    2    1    2    0    0  0.00000000000E+00  0.88817841970E-15  0.00000000000E+00  0.91188000000E+02  0.91188000000E+02 0.  0.
    9900012    2    3    3    0    0 -0.23679365394E+01 -0.46815475848E+01  0.36445259973E+02  0.54367068647E+02  0.39999964594E+02 0.  0.
         12    1    3    3    0    0  0.23679365394E+01  0.46815475848E+01 -0.36445259973E+02  0.36820931353E+02  0.00000000000E+00 0. -1.
         11    1    4    4    0    0  0.11767327909E+01 -0.66028796404E+01  0.36631829085E+02  0.37240752167E+02  0.51100000000E-03 0. -1.
        -11    1    4    4    0    0  0.73655472117E+00 -0.63925183436E+01  0.31923576699E+01  0.71831714015E+01  0.51100000000E-03 0.  1.
         12    1    4    4    0    0 -0.42812240516E+01  0.83138503992E+01 -0.33789267822E+01  0.99431450778E+01  0.00000000000E+00 0. -1.
</event>
<event>
 8    1  0.1210161E-006  0.9118800E+02  0.7816164E-02  0.1184000E+00
        -11   -1    0    0    0    0  0.00000000000E+00  0.00000000000E+00  0.45593999997E+02  0.45594000000E+02  0.51100000000E-03 0.  1.
         11   -1    0    0    0    0 -0.00000000000E+00 -0.00000000000E+00 -0.45593999997E+02  0.45594000000E+02  0.51100000000E-03 0. -1.
         23    2    1    2    0    0 -0.35527136788E-14 -0.88817841970E-15  0.35527136788E-14  0.91188000000E+02  0.91188000000E+02 0.  0.
    9900012    2    3    3    0    0  0.30580047530E+02 -0.42525099914E+01  0.20063828416E+02  0.54367077159E+02  0.39999984000E+02 0.  0.
         12    1    3    3    0    0 -0.30580047530E+02  0.42525099914E+01 -0.20063828416E+02  0.36820922841E+02  0.00000000000E+00 0. -1.
         11    1    4    4    0    0 -0.58471279527E+01  0.35822126144E+01 -0.56944797110E+01  0.89133748911E+01  0.51100000000E-03 0. -1.
        -11    1    4    4    0    0  0.28573880849E+02 -0.47931380290E+01  0.18899578446E+02  0.34592411084E+02  0.51100000000E-03 0.  1.
         12    1    4    4    0    0  0.78532946340E+01 -0.30415845768E+01  0.68587296812E+01  0.10861291184E+02  0.00000000000E+00 0. -1.
</event>
<event>
 8    1  0.1210161E-006  0.9118800E+02  0.7816164E-02  0.1184000E+00
        -11   -1    0    0    0    0  0.00000000000E+00  0.00000000000E+00  0.45593999997E+02  0.45594000000E+02  0.51100000000E-03 0.  1.
         11   -1    0    0    0    0 -0.00000000000E+00 -0.00000000000E+00 -0.45593999997E+02  0.45594000000E+02  0.51100000000E-03 0. -1.
         23    2    1    2    0    0  0.00000000000E+00  0.55511151231E-15  0.00000000000E+00  0.91188000000E+02  0.91188000000E+02 0.  0.
    9900012    2    3    3    0    0  0.35011228525E+02 -0.66364953746E+00  0.11382088638E+02  0.54367102465E+02  0.40000041689E+02 0.  0.
         12    1    3    3    0    0 -0.35011228525E+02  0.66364953746E+00 -0.11382088638E+02  0.36820897535E+02  0.00000000000E+00 0. -1.
         11    1    4    4    0    0 -0.17262375569E+01  0.44008084904E+01 -0.52829229912E+01  0.70891668808E+01  0.51100000000E-03 0. -1.
        -11    1    4    4    0    0  0.16618229864E+02  0.53142225734E+01  0.17382087796E+02  0.24628103902E+02  0.51100000000E-03 0.  1.
         12    1    4    4    0    0  0.20119236218E+02 -0.10378680601E+02 -0.71707616676E+00  0.22649831682E+02  0.00000000000E+00 0. -1.
</event>
<event>
 8    1  0.1210161E-006  0.9118800E+02  0.7816164E-02  0.1184000E+00
        -11   -1    0    0    0    0  0.00000000000E+00  0.00000000000E+00  0.45593999997E+02  0.45594000000E+02  0.51100000000E-03 0.  1.
         11   -1    0    0    0    0 -0.00000000000E+00 -0.00000000000E+00 -0.45593999997E+02  0.45594000000E+02  0.51100000000E-03 0. -1.
         23    2    1    2    0    0  0.00000000000E+00  0.00000000000E+00  0.00000000000E+00  0.91188000000E+02  0.91188000000E+02 0.  0.
    9900012    2    3    3    0    0 -0.25370260126E+02 -0.18392639361E+02  0.19334977020E+02  0.54367073642E+02  0.39999975981E+02 0.  0.
         12    1    3    3    0    0  0.25370260126E+02  0.18392639361E+02 -0.19334977020E+02  0.36820926358E+02  0.00000000000E+00 0. -1.
         11    1    4    4    0    0 -0.13638916328E+02 -0.18384488140E+02  0.13104442711E+02  0.26376805376E+02  0.51100000000E-03 0. -1.
        -11    1    4    4    0    0 -0.14603549027E+02  0.11518224780E+01  0.13604685132E+02  0.19991943302E+02  0.51100000000E-03 0.  1.
         12    1    4    4    0    0  0.28722052290E+01 -0.11599736992E+01 -0.73741508237E+01  0.79983249640E+01  0.00000000000E+00 0. -1.
</event>
<event>
 8    1  0.1210161E-006  0.9118800E+02  0.7816164E-02  0.1184000E+00
        -11   -1    0    0    0    0  0.00000000000E+00  0.00000000000E+00  0.45593999997E+02  0.45594000000E+02  0.51100000000E-03 0. -1.
         11   -1    0    0    0    0 -0.00000000000E+00 -0.00000000000E+00 -0.45593999997E+02  0.45594000000E+02  0.51100000000E-03 0.  1.
         23    2    1    2    0    0  0.88817841970E-15  0.35527136788E-14 -0.71054273576E-14  0.91188000000E+02  0.91188000000E+02 0.  0.
    9900012    2    3    3    0    0 -0.51184984291E+01 -0.25557751560E+02  0.26007340706E+02  0.54367089344E+02  0.40000011777E+02 0.  0.
        -12    1    3    3    0    0  0.51184984291E+01  0.25557751560E+02 -0.26007340706E+02  0.36820910656E+02  0.00000000000E+00 0.  1.
         11    1    4    4    0    0 -0.57682857932E+01 -0.91531852952E+01 -0.32000802609E+01  0.11282483591E+02  0.51100000000E-03 0.  1.
        -11    1    4    4    0    0 -0.13185755844E+02 -0.71985341496E+01  0.14839738077E+02  0.21116365159E+02  0.51100000000E-03 0. -1.
         12    1    4    4    0    0  0.13835543208E+02 -0.92060321152E+01  0.14367682889E+02  0.21968240594E+02  0.00000000000E+00 0. -1.
</event>
<event>
 8    1  0.1210161E-006  0.9118800E+02  0.7816164E-02  0.1184000E+00
        -11   -1    0    0    0    0  0.00000000000E+00  0.00000000000E+00  0.45593999997E+02  0.45594000000E+02  0.51100000000E-03 0.  1.
         11   -1    0    0    0    0 -0.00000000000E+00 -0.00000000000E+00 -0.45593999997E+02  0.45594000000E+02  0.51100000000E-03 0. -1.
         23    2    1    2    0    0 -0.22204460493E-15  0.00000000000E+00 -0.71054273576E-14  0.91188000000E+02  0.91188000000E+02 0.  0.
    9900012    2    3    3    0    0 -0.74030695578E+00 -0.15971774412E+02 -0.33168279119E+02  0.54367076981E+02  0.39999983593E+02 0.  0.
        -12    1    3    3    0    0  0.74030695578E+00  0.15971774412E+02  0.33168279119E+02  0.36820923019E+02  0.00000000000E+00 0.  1.
         11    1    4    4    0    0 -0.85771399291E+01  0.17964709117E+01 -0.74437376732E+00  0.87948126567E+01  0.51100000000E-03 0. -1.
        -11    1    4    4    0    0  0.15752234796E+02 -0.64239577137E+01 -0.11665861160E+02  0.20627468352E+02  0.51100000000E-03 0.  1.
         12    1    4    4    0    0 -0.79154018223E+01 -0.11344287610E+02 -0.20758044192E+02  0.24944795972E+02  0.00000000000E+00 0. -1.
</event>
<event>
 8    1  0.1210161E-006  0.9118800E+02  0.7816164E-02  0.1184000E+00
        -11   -1    0    0    0    0  0.00000000000E+00  0.00000000000E+00  0.45593999997E+02  0.45594000000E+02  0.51100000000E-03 0. -1.
         11   -1    0    0    0    0 -0.00000000000E+00 -0.00000000000E+00 -0.45593999997E+02  0.45594000000E+02  0.51100000000E-03 0.  1.
         23    2    1    2    0    0  0.88817841970E-15  0.00000000000E+00  0.71054273576E-14  0.91188000000E+02  0.91188000000E+02 0.  0.
    9900012    2    3    3    0    0 -0.42046469106E+01 -0.14390547830E+02 -0.33630546085E+02  0.54367074530E+02  0.39999978006E+02 0.  0.
         12    1    3    3    0    0  0.42046469106E+01  0.14390547830E+02  0.33630546085E+02  0.36820925470E+02  0.00000000000E+00 0. -1.
         11    1    4    4    0    0 -0.36322554946E+01 -0.73101681035E+01  0.63804916522E+00  0.81877313511E+01  0.51100000000E-03 0. -1.
        -11    1    4    4    0    0  0.10292705215E+02 -0.43156024128E+01 -0.11563462389E+01  0.11220576710E+02  0.51100000000E-03 0.  1.
        -12    1    4    4    0    0 -0.10865096631E+02 -0.27647773140E+01 -0.33112249011E+02  0.34958766468E+02  0.00000000000E+00 0.  1.
</event>
<event>
 8    1  0.1210161E-006  0.9118800E+02  0.7816164E-02  0.1184000E+00
        -11   -1    0    0    0    0  0.00000000000E+00  0.00000000000E+00  0.45593999997E+02  0.45594000000E+02  0.51100000000E-03 0.  1.
         11   -1    0    0    0    0 -0.00000000000E+00 -0.00000000000E+00 -0.45593999997E+02  0.45594000000E+02  0.51100000000E-03 0. -1.
         23    2    1    2    0    0 -0.35527136788E-14 -0.35527136788E-14  0.00000000000E+00  0.91188000000E+02  0.91188000000E+02 0.  0.
    9900012    2    3    3    0    0 -0.19370259459E+02 -0.26027123263E+02  0.17411532601E+02  0.54367087948E+02  0.40000008594E+02 0.  0.
         12    1    3    3    0    0  0.19370259459E+02  0.26027123263E+02 -0.17411532601E+02  0.36820912052E+02  0.00000000000E+00 0. -1.
         11    1    4    4    0    0 -0.11698051528E+02  0.10020687925E+01  0.50342334555E+01  0.12774664699E+02  0.51100000000E-03 0.  1.
        -11    1    4    4    0    0 -0.10917233777E+02 -0.10363326268E+02 -0.63294675776E+01  0.16329319789E+02  0.51100000000E-03 0. -1.
         12    1    4    4    0    0  0.32450258470E+01 -0.16665865788E+02  0.18706766723E+02  0.25263103460E+02  0.00000000000E+00 0. -1.
</event>
<event>
 8    1  0.1210161E-006  0.9118800E+02  0.7816164E-02  0.1184000E+00
        -11   -1    0    0    0    0  0.00000000000E+00  0.00000000000E+00  0.45593999997E+02  0.45594000000E+02  0.51100000000E-03 0.  1.
         11   -1    0    0    0    0 -0.00000000000E+00 -0.00000000000E+00 -0.45593999997E+02  0.45594000000E+02  0.51100000000E-03 0. -1.
         23    2    1    2    0    0 -0.71054273576E-14 -0.17763568394E-14  0.35527136788E-14  0.91188000000E+02  0.91188000000E+02 0.  0.
    9900012    2    3    3    0    0  0.29628323007E+02  0.11684098468E+02 -0.18478117713E+02  0.54366857766E+02  0.39999483846E+02 0.  0.
        -12    1    3    3    0    0 -0.29628323007E+02 -0.11684098468E+02  0.18478117713E+02  0.36821142234E+02  0.00000000000E+00 0.  1.
         11    1    4    4    0    0  0.21168410528E+02  0.15865163265E+02 -0.21837782091E+02  0.34302969793E+02  0.51100000000E-03 0. -1.
        -11    1    4    4    0    0 -0.47205115162E+01 -0.40571793760E+01  0.29205331147E+01  0.68755688782E+01  0.51100000000E-03 0.  1.
        -12    1    4    4    0    0  0.13180423995E+02 -0.12388542088E+00  0.43913126318E+00  0.13188319095E+02  0.00000000000E+00 0.  1.
</event>
<event>
 8    1  0.1210161E-006  0.9118800E+02  0.7816164E-02  0.1184000E+00
        -11   -1    0    0    0    0  0.00000000000E+00  0.00000000000E+00  0.45593999997E+02  0.45594000000E+02  0.51100000000E-03 0.  1.
         11   -1    0    0    0    0 -0.00000000000E+00 -0.00000000000E+00 -0.45593999997E+02  0.45594000000E+02  0.51100000000E-03 0. -1.
         23    2    1    2    0    0  0.00000000000E+00  0.00000000000E+00  0.17763568394E-14  0.91188000000E+02  0.91188000000E+02 0.  0.
    9900012    2    3    3    0    0  0.12912601651E+02  0.32880333851E+02  0.10388858994E+02  0.54367081669E+02  0.39999994281E+02 0.  0.
         12    1    3    3    0    0 -0.12912601651E+02 -0.32880333851E+02 -0.10388858994E+02  0.36820918331E+02  0.00000000000E+00 0. -1.
         11    1    4    4    0    0 -0.10817816491E+01 -0.23712143947E+01 -0.46186307138E+01  0.53032687254E+01  0.51100000000E-03 0. -1.
        -11    1    4    4    0    0  0.15738799359E+02  0.15455195149E+02  0.18618224983E+02  0.28865397350E+02  0.51100000000E-03 0.  1.
        -12    1    4    4    0    0 -0.17444160593E+01  0.19796353096E+02 -0.36107352745E+01  0.20198415594E+02  0.00000000000E+00 0.  1.
</event>
<event>
 8    1  0.1210161E-006  0.9118800E+02  0.7816164E-02  0.1184000E+00
        -11   -1    0    0    0    0  0.00000000000E+00  0.00000000000E+00  0.45593999997E+02  0.45594000000E+02  0.51100000000E-03 0. -1.
         11   -1    0    0    0    0 -0.00000000000E+00 -0.00000000000E+00 -0.45593999997E+02  0.45594000000E+02  0.51100000000E-03 0.  1.
         23    2    1    2    0    0  0.11102230246E-14  0.00000000000E+00  0.00000000000E+00  0.91188000000E+02  0.91188000000E+02 0.  0.
    9900012    2    3    3    0    0  0.19615452819E+01 -0.47008717379E+01 -0.36466883749E+02  0.54367089292E+02  0.40000011660E+02 0.  0.
         12    1    3    3    0    0 -0.19615452819E+01  0.47008717379E+01  0.36466883749E+02  0.36820910708E+02  0.00000000000E+00 0. -1.
         11    1    4    4    0    0 -0.38175736825E+01  0.60243586206E+01 -0.22074385195E+01  0.74658924912E+01  0.51100000000E-03 0. -1.
        -11    1    4    4    0    0 -0.92452800062E+01 -0.36556024168E+01 -0.27012780111E+02  0.28784178310E+02  0.51100000000E-03 0.  1.
        -12    1    4    4    0    0  0.15024398971E+02 -0.70696279417E+01 -0.72466651187E+01  0.18117018491E+02  0.00000000000E+00 0.  1.
</event>
<event>
 8    1  0.1210161E-006  0.9118800E+02  0.7816164E-02  0.1184000E+00
        -11   -1    0    0    0    0  0.00000000000E+00  0.00000000000E+00  0.45593999997E+02  0.45594000000E+02  0.51100000000E-03 0.  1.
         11   -1    0    0    0    0 -0.00000000000E+00 -0.00000000000E+00 -0.45593999997E+02  0.45594000000E+02  0.51100000000E-03 0. -1.
         23    2    1    2    0    0  0.00000000000E+00  0.00000000000E+00 -0.35527136788E-14  0.91188000000E+02  0.91188000000E+02 0.  0.
    9900012    2    3    3    0    0  0.23294108327E+02  0.15481112572E+02 -0.23947901486E+02  0.54367050599E+02  0.39999923450E+02 0.  0.
        -12    1    3    3    0    0 -0.23294108327E+02 -0.15481112572E+02  0.23947901486E+02  0.36820949401E+02  0.00000000000E+00 0.  1.
         11    1    4    4    0    0  0.32875765721E+01  0.12200101193E+02 -0.15981826431E+01  0.12735965486E+02  0.51100000000E-03 0. -1.
        -11    1    4    4    0    0  0.19005111938E+02  0.10488134767E+02 -0.42440972973E+01  0.22118038177E+02  0.51100000000E-03 0.  1.
         12    1    4    4    0    0  0.10014198169E+01 -0.72071233882E+01 -0.18105621545E+02  0.19513046936E+02  0.00000000000E+00 0. -1.
</event>
<event>
 8    1  0.1210161E-006  0.9118800E+02  0.7816164E-02  0.1184000E+00
        -11   -1    0    0    0    0  0.00000000000E+00  0.00000000000E+00  0.45593999997E+02  0.45594000000E+02  0.51100000000E-03 0. -1.
         11   -1    0    0    0    0 -0.00000000000E+00 -0.00000000000E+00 -0.45593999997E+02  0.45594000000E+02  0.51100000000E-03 0.  1.
         23    2    1    2    0    0  0.00000000000E+00  0.53290705182E-14  0.00000000000E+00  0.91188000000E+02  0.91188000000E+02 0.  0.
    9900012    2    3    3    0    0 -0.33103946858E+02  0.10113831231E+02 -0.12554646366E+02  0.54367081691E+02  0.39999994330E+02 0.  0.
        -12    1    3    3    0    0  0.33103946858E+02 -0.10113831231E+02  0.12554646366E+02  0.36820918309E+02  0.00000000000E+00 0.  1.
         11    1    4    4    0    0 -0.52578993333E+01 -0.54052113900E+01  0.56305336336E+01  0.94108833183E+01  0.51100000000E-03 0. -1.
        -11    1    4    4    0    0 -0.63299350336E+01 -0.72827317149E+01 -0.28847967211E+01  0.10071162353E+02  0.51100000000E-03 0.  1.
         12    1    4    4    0    0 -0.21516112491E+02  0.22801774336E+02 -0.15300383279E+02  0.34885036019E+02  0.00000000000E+00 0. -1.
</event>
<event>
 8    1  0.1210161E-006  0.9118800E+02  0.7816164E-02  0.1184000E+00
        -11   -1    0    0    0    0  0.00000000000E+00  0.00000000000E+00  0.45593999997E+02  0.45594000000E+02  0.51100000000E-03 0. -1.
         11   -1    0    0    0    0 -0.00000000000E+00 -0.00000000000E+00 -0.45593999997E+02  0.45594000000E+02  0.51100000000E-03 0.  1.
         23    2    1    2    0    0 -0.35527136788E-14  0.00000000000E+00 -0.17763568394E-14  0.91188000000E+02  0.91188000000E+02 0.  0.
    9900012    2    3    3    0    0 -0.21677389426E+02  0.26496179734E+02  0.13558148450E+02  0.54367080101E+02  0.39999990705E+02 0.  0.
        -12    1    3    3    0    0  0.21677389426E+02 -0.26496179734E+02 -0.13558148450E+02  0.36820919899E+02  0.00000000000E+00 0.  1.
         11    1    4    4    0    0  0.34396025982E+01 -0.48057349208E+01  0.66424105797E+01  0.88908701898E+01  0.51100000000E-03 0.  1.
        -11    1    4    4    0    0 -0.70606370413E+01  0.18139063913E+01 -0.50711780889E+01  0.88802983788E+01  0.51100000000E-03 0. -1.
         12    1    4    4    0    0 -0.18056354983E+02  0.29488008264E+02  0.11986915959E+02  0.36595911532E+02  0.00000000000E+00 0. -1.
</event>
<event>
 8    1  0.1210161E-006  0.9118800E+02  0.7816164E-02  0.1184000E+00
        -11   -1    0    0    0    0  0.00000000000E+00  0.00000000000E+00  0.45593999997E+02  0.45594000000E+02  0.51100000000E-03 0.  1.
         11   -1    0    0    0    0 -0.00000000000E+00 -0.00000000000E+00 -0.45593999997E+02  0.45594000000E+02  0.51100000000E-03 0. -1.
         23    2    1    2    0    0 -0.88817841970E-15  0.35527136788E-14  0.35527136788E-14  0.91188000000E+02  0.91188000000E+02 0.  0.
    9900012    2    3    3    0    0 -0.60889801883E+01  0.19481538909E+02  0.30645730851E+02  0.54367260499E+02  0.40000401958E+02 0.  0.
         12    1    3    3    0    0  0.60889801883E+01 -0.19481538909E+02 -0.30645730851E+02  0.36820739501E+02  0.00000000000E+00 0. -1.
         11    1    4    4    0    0  0.49902534200E+00  0.15904728333E+02  0.82167347623E+01  0.17908772712E+02  0.51100000000E-03 0. -1.
        -11    1    4    4    0    0 -0.12867993259E+02  0.11001922037E+02  0.72179919204E+01  0.18404536035E+02  0.51100000000E-03 0.  1.
        -12    1    4    4    0    0  0.62799877290E+01 -0.74251114608E+01  0.15211004168E+02  0.18053951752E+02  0.00000000000E+00 0.  1.
</event>
<event>
 8    1  0.1210161E-006  0.9118800E+02  0.7816164E-02  0.1184000E+00
        -11   -1    0    0    0    0  0.00000000000E+00  0.00000000000E+00  0.45593999997E+02  0.45594000000E+02  0.51100000000E-03 0. -1.
         11   -1    0    0    0    0 -0.00000000000E+00 -0.00000000000E+00 -0.45593999997E+02  0.45594000000E+02  0.51100000000E-03 0.  1.
         23    2    1    2    0    0  0.00000000000E+00 -0.17763568394E-14  0.00000000000E+00  0.91188000000E+02  0.91188000000E+02 0.  0.
    9900012    2    3    3    0    0 -0.33165034034E+02 -0.92730816766E+01 -0.13033424678E+02  0.54367086308E+02  0.40000004856E+02 0.  0.
         12    1    3    3    0    0  0.33165034034E+02  0.92730816766E+01  0.13033424678E+02  0.36820913692E+02  0.00000000000E+00 0. -1.
         11    1    4    4    0    0 -0.27871939476E+02 -0.51219839671E+01  0.22522173540E+01  0.28428018101E+02  0.51100000000E-03 0. -1.
        -11    1    4    4    0    0  0.54590908626E+01 -0.73889548783E+01 -0.40039483015E+01  0.10021473420E+02  0.51100000000E-03 0.  1.
        -12    1    4    4    0    0 -0.10752185422E+02  0.32378571688E+01 -0.11281693730E+02  0.15917594787E+02  0.00000000000E+00 0.  1.
</event>
<event>
 8    1  0.1210161E-006  0.9118800E+02  0.7816164E-02  0.1184000E+00
        -11   -1    0    0    0    0  0.00000000000E+00  0.00000000000E+00  0.45593999997E+02  0.45594000000E+02  0.51100000000E-03 0.  1.
         11   -1    0    0    0    0 -0.00000000000E+00 -0.00000000000E+00 -0.45593999997E+02  0.45594000000E+02  0.51100000000E-03 0. -1.
         23    2    1    2    0    0  0.00000000000E+00  0.35527136788E-14 -0.35527136788E-14  0.91188000000E+02  0.91188000000E+02 0.  0.
    9900012    2    3    3    0    0 -0.10621939608E+02 -0.27404642747E+02  0.22179716947E+02  0.54367083539E+02  0.39999998545E+02 0.  0.
         12    1    3    3    0    0  0.10621939608E+02  0.27404642747E+02 -0.22179716947E+02  0.36820916461E+02  0.00000000000E+00 0. -1.
         11    1    4    4    0    0 -0.57504869658E+01 -0.24024350256E+01  0.74446803363E+01  0.97089165187E+01  0.51100000000E-03 0. -1.
        -11    1    4    4    0    0 -0.82840363343E+01 -0.49686439983E+01  0.21229180751E+02  0.23323610287E+02  0.51100000000E-03 0.  1.
         12    1    4    4    0    0  0.34125836921E+01 -0.20033563723E+02 -0.64941441407E+01  0.21334556734E+02  0.00000000000E+00 0. -1.
</event>
<event>
 8    1  0.1210161E-006  0.9118800E+02  0.7816164E-02  0.1184000E+00
        -11   -1    0    0    0    0  0.00000000000E+00  0.00000000000E+00  0.45593999997E+02  0.45594000000E+02  0.51100000000E-03 0. -1.
         11   -1    0    0    0    0 -0.00000000000E+00 -0.00000000000E+00 -0.45593999997E+02  0.45594000000E+02  0.51100000000E-03 0.  1.
         23    2    1    2    0    0  0.00000000000E+00  0.00000000000E+00 -0.35527136788E-14  0.91188000000E+02  0.91188000000E+02 0.  0.
    9900012    2    3    3    0    0 -0.16261500632E+02  0.28240930511E+02 -0.17140296596E+02  0.54367131918E+02  0.40000108834E+02 0.  0.
         12    1    3    3    0    0  0.16261500632E+02 -0.28240930511E+02  0.17140296596E+02  0.36820868082E+02  0.00000000000E+00 0. -1.
         11    1    4    4    0    0  0.18028927670E+01 -0.10084377996E+01  0.39411378940E+01  0.44497120452E+01  0.51100000000E-03 0. -1.
        -11    1    4    4    0    0  0.48663821423E+01  0.16859832149E+02 -0.20977830655E+01  0.17673039051E+02  0.51100000000E-03 0.  1.
        -12    1    4    4    0    0 -0.22930775541E+02  0.12389536161E+02 -0.18983651424E+02  0.32244380822E+02  0.00000000000E+00 0.  1.
</event>
<event>
 8    1  0.1210161E-006  0.9118800E+02  0.7816164E-02  0.1184000E+00
        -11   -1    0    0    0    0  0.00000000000E+00  0.00000000000E+00  0.45593999997E+02  0.45594000000E+02  0.51100000000E-03 0.  1.
         11   -1    0    0    0    0 -0.00000000000E+00 -0.00000000000E+00 -0.45593999997E+02  0.45594000000E+02  0.51100000000E-03 0. -1.
         23    2    1    2    0    0  0.00000000000E+00  0.00000000000E+00  0.00000000000E+00  0.91188000000E+02  0.91188000000E+02 0.  0.
    9900012    2    3    3    0    0 -0.49539898512E+01 -0.16338558567E+02  0.32623446858E+02  0.54367084797E+02  0.40000001411E+02 0.  0.
         12    1    3    3    0    0  0.49539898512E+01  0.16338558567E+02 -0.32623446858E+02  0.36820915203E+02  0.00000000000E+00 0. -1.
         11    1    4    4    0    0 -0.55075056458E+01 -0.88559887407E+01  0.14717113314E+01  0.10532193006E+02  0.51100000000E-03 0. -1.
        -11    1    4    4    0    0 -0.12212131296E+01  0.10798856551E+02  0.18752736975E+02  0.21674219909E+02  0.51100000000E-03 0.  1.
         12    1    4    4    0    0  0.17747289242E+01 -0.18281426378E+02  0.12398998551E+02  0.22160671882E+02  0.00000000000E+00 0. -1.
</event>
<event>
 8    1  0.1210161E-006  0.9118800E+02  0.7816164E-02  0.1184000E+00
        -11   -1    0    0    0    0  0.00000000000E+00  0.00000000000E+00  0.45593999997E+02  0.45594000000E+02  0.51100000000E-03 0.  1.
         11   -1    0    0    0    0 -0.00000000000E+00 -0.00000000000E+00 -0.45593999997E+02  0.45594000000E+02  0.51100000000E-03 0. -1.
         23    2    1    2    0    0  0.71054273576E-14 -0.17763568394E-14 -0.17763568394E-14  0.91188000000E+02  0.91188000000E+02 0.  0.
    9900012    2    3    3    0    0 -0.35820364912E+02 -0.46272433494E+01  0.71604424888E+01  0.54367056774E+02  0.39999937528E+02 0.  0.
         12    1    3    3    0    0  0.35820364912E+02  0.46272433494E+01 -0.71604424888E+01  0.36820943226E+02  0.00000000000E+00 0. -1.
         11    1    4    4    0    0 -0.56854574814E+01  0.51502100828E+01 -0.10377606900E+02  0.12905185621E+02  0.51100000000E-03 0. -1.
        -11    1    4    4    0    0 -0.12131957848E+02  0.44270814893E+00  0.16825515360E+02  0.20747972410E+02  0.51100000000E-03 0.  1.
         12    1    4    4    0    0 -0.18002949582E+02 -0.10220161581E+02  0.71253402911E+00  0.20713898743E+02  0.00000000000E+00 0. -1.
</event>
<event>
 8    1  0.1210161E-006  0.9118800E+02  0.7816164E-02  0.1184000E+00
        -11   -1    0    0    0    0  0.00000000000E+00  0.00000000000E+00  0.45593999997E+02  0.45594000000E+02  0.51100000000E-03 0. -1.
         11   -1    0    0    0    0 -0.00000000000E+00 -0.00000000000E+00 -0.45593999997E+02  0.45594000000E+02  0.51100000000E-03 0.  1.
         23    2    1    2    0    0  0.00000000000E+00  0.00000000000E+00  0.00000000000E+00  0.91188000000E+02  0.91188000000E+02 0.  0.
    9900012    2    3    3    0    0 -0.22496772135E+02  0.16686749011E+02 -0.23900374875E+02  0.54367078390E+02  0.39999986806E+02 0.  0.
         12    1    3    3    0    0  0.22496772135E+02 -0.16686749011E+02  0.23900374875E+02  0.36820921610E+02  0.00000000000E+00 0. -1.
         11    1    4    4    0    0 -0.13937214681E+01  0.39587433989E+01  0.88536542304E+01  0.97980254297E+01  0.51100000000E-03 0. -1.
        -11    1    4    4    0    0 -0.82634159087E+01 -0.29374135858E+01 -0.16153010338E+02  0.18380211759E+02  0.51100000000E-03 0.  1.
        -12    1    4    4    0    0 -0.12839634758E+02  0.15665419198E+02 -0.16601018767E+02  0.26188841202E+02  0.00000000000E+00 0.  1.
</event>
<event>
 8    1  0.1210161E-006  0.9118800E+02  0.7816164E-02  0.1184000E+00
        -11   -1    0    0    0    0  0.00000000000E+00  0.00000000000E+00  0.45593999997E+02  0.45594000000E+02  0.51100000000E-03 0. -1.
         11   -1    0    0    0    0 -0.00000000000E+00 -0.00000000000E+00 -0.45593999997E+02  0.45594000000E+02  0.51100000000E-03 0.  1.
         23    2    1    2    0    0  0.00000000000E+00  0.35527136788E-14  0.13322676296E-14  0.91188000000E+02  0.91188000000E+02 0.  0.
    9900012    2    3    3    0    0 -0.32851874345E+02 -0.16175604446E+02  0.38579739573E+01  0.54367084881E+02  0.40000001603E+02 0.  0.
        -12    1    3    3    0    0  0.32851874345E+02  0.16175604446E+02 -0.38579739573E+01  0.36820915119E+02  0.00000000000E+00 0.  1.
         11    1    4    4    0    0 -0.35662553638E+02 -0.88631764247E+01  0.10860537612E+02  0.38318727873E+02  0.51100000000E-03 0. -1.
        -11    1    4    4    0    0  0.59005780306E+01 -0.84375550827E+01 -0.27206722294E+01  0.10649470152E+02  0.51100000000E-03 0.  1.
         12    1    4    4    0    0 -0.30898987373E+01  0.11251270613E+01 -0.42818914249E+01  0.53988868561E+01  0.00000000000E+00 0. -1.
</event>
<event>
 8    1  0.1210161E-006  0.9118800E+02  0.7816164E-02  0.1184000E+00
        -11   -1    0    0    0    0  0.00000000000E+00  0.00000000000E+00  0.45593999997E+02  0.45594000000E+02  0.51100000000E-03 0.  1.
         11   -1    0    0    0    0 -0.00000000000E+00 -0.00000000000E+00 -0.45593999997E+02  0.45594000000E+02  0.51100000000E-03 0. -1.
         23    2    1    2    0    0  0.00000000000E+00  0.00000000000E+00 -0.35527136788E-14  0.91188000000E+02  0.91188000000E+02 0.  0.
    9900012    2    3    3    0    0 -0.29062371435E+02  0.13086663930E+02 -0.18436432897E+02  0.54367024127E+02  0.39999863103E+02 0.  0.
        -12    1    3    3    0    0  0.29062371435E+02 -0.13086663930E+02  0.18436432897E+02  0.36820975873E+02  0.00000000000E+00 0.  1.
         11    1    4    4    0    0 -0.36926363062E+01  0.49819471843E+01 -0.42552771502E+00  0.62158213242E+01  0.51100000000E-03 0. -1.
        -11    1    4    4    0    0 -0.59141096694E+01  0.14284094097E+02  0.60463649787E+01  0.16600318282E+02  0.51100000000E-03 0.  1.
         12    1    4    4    0    0 -0.19455625459E+02 -0.61793773509E+01 -0.24057270161E+02  0.31550884521E+02  0.00000000000E+00 0. -1.
</event>
<event>
 8    1  0.1210161E-006  0.9118800E+02  0.7816164E-02  0.1184000E+00
        -11   -1    0    0    0    0  0.00000000000E+00  0.00000000000E+00  0.45593999997E+02  0.45594000000E+02  0.51100000000E-03 0.  1.
         11   -1    0    0    0    0 -0.00000000000E+00 -0.00000000000E+00 -0.45593999997E+02  0.45594000000E+02  0.51100000000E-03 0. -1.
         23    2    1    2    0    0  0.17763568394E-14  0.00000000000E+00  0.00000000000E+00  0.91188000000E+02  0.91188000000E+02 0.  0.
    9900012    2    3    3    0    0 -0.20832506559E+01 -0.24472989076E+02 -0.27432037864E+02  0.54367030038E+02  0.39999876577E+02 0.  0.
        -12    1    3    3    0    0  0.20832506559E+01  0.24472989076E+02  0.27432037864E+02  0.36820969962E+02  0.00000000000E+00 0.  1.
         11    1    4    4    0    0  0.74379156101E+00 -0.12068577524E+02 -0.10000608598E+02  0.15691270246E+02  0.51100000000E-03 0. -1.
        -11    1    4    4    0    0  0.12089343318E+02 -0.12926101902E+02 -0.30697028412E+01  0.17962722735E+02  0.51100000000E-03 0.  1.
        -12    1    4    4    0    0 -0.14916385535E+02  0.52169034988E+00 -0.14361726424E+02  0.20713037057E+02  0.00000000000E+00 0.  1.
</event>
<event>
 8    1  0.1210161E-006  0.9118800E+02  0.7816164E-02  0.1184000E+00
        -11   -1    0    0    0    0  0.00000000000E+00  0.00000000000E+00  0.45593999997E+02  0.45594000000E+02  0.51100000000E-03 0. -1.
         11   -1    0    0    0    0 -0.00000000000E+00 -0.00000000000E+00 -0.45593999997E+02  0.45594000000E+02  0.51100000000E-03 0.  1.
         23    2    1    2    0    0 -0.17763568394E-14 -0.35527136788E-14  0.17763568394E-14  0.91188000000E+02  0.91188000000E+02 0.  0.
    9900012    2    3    3    0    0  0.12735504434E+02  0.30935792819E+02 -0.15380629780E+02  0.54367080363E+02  0.39999991304E+02 0.  0.
        -12    1    3    3    0    0 -0.12735504434E+02 -0.30935792819E+02  0.15380629780E+02  0.36820919637E+02  0.00000000000E+00 0.  1.
         11    1    4    4    0    0  0.90778983286E+01  0.20702047313E+02 -0.91736421033E+01  0.24395464962E+02  0.51100000000E-03 0. -1.
        -11    1    4    4    0    0 -0.65189094603E+01 -0.64881839437E+00 -0.12251326417E+02  0.13892881094E+02  0.51100000000E-03 0.  1.
         12    1    4    4    0    0  0.10176515566E+02  0.10882563900E+02  0.60443387408E+01  0.16078734307E+02  0.00000000000E+00 0. -1.
</event>
<event>
 8    1  0.1210161E-006  0.9118800E+02  0.7816164E-02  0.1184000E+00
        -11   -1    0    0    0    0  0.00000000000E+00  0.00000000000E+00  0.45593999997E+02  0.45594000000E+02  0.51100000000E-03 0.  1.
         11   -1    0    0    0    0 -0.00000000000E+00 -0.00000000000E+00 -0.45593999997E+02  0.45594000000E+02  0.51100000000E-03 0. -1.
         23    2    1    2    0    0  0.00000000000E+00 -0.17763568394E-14  0.71054273576E-14  0.91188000000E+02  0.91188000000E+02 0.  0.
    9900012    2    3    3    0    0  0.48388145015E+01 -0.12818948893E+02  0.34176606615E+02  0.54367081812E+02  0.39999994607E+02 0.  0.
         12    1    3    3    0    0 -0.48388145015E+01  0.12818948893E+02 -0.34176606615E+02  0.36820918188E+02  0.00000000000E+00 0. -1.
         11    1    4    4    0    0  0.31775054580E+00 -0.56777508939E+01 -0.64834279272E+01  0.86239584050E+01  0.51100000000E-03 0. -1.
        -11    1    4    4    0    0  0.10139306055E+02 -0.10328294354E+02  0.27077806578E+02  0.30703205059E+02  0.51100000000E-03 0.  1.
         12    1    4    4    0    0 -0.56182420994E+01  0.31870963546E+01  0.13582227964E+02  0.15039918348E+02  0.00000000000E+00 0. -1.
</event>
<event>
 8    1  0.1210161E-006  0.9118800E+02  0.7816164E-02  0.1184000E+00
        -11   -1    0    0    0    0  0.00000000000E+00  0.00000000000E+00  0.45593999997E+02  0.45594000000E+02  0.51100000000E-03 0.  1.
         11   -1    0    0    0    0 -0.00000000000E+00 -0.00000000000E+00 -0.45593999997E+02  0.45594000000E+02  0.51100000000E-03 0. -1.
         23    2    1    2    0    0  0.00000000000E+00  0.17763568394E-14  0.00000000000E+00  0.91188000000E+02  0.91188000000E+02 0.  0.
    9900012    2    3    3    0    0  0.29290857342E+02 -0.97671110368E+01  0.20060659881E+02  0.54367070399E+02  0.39999968588E+02 0.  0.
         12    1    3    3    0    0 -0.29290857342E+02  0.97671110368E+01 -0.20060659881E+02  0.36820929601E+02  0.00000000000E+00 0. -1.
         11    1    4    4    0    0  0.10184994730E+02 -0.17733913264E+02  0.83782220879E+01  0.22100235359E+02  0.51100000000E-03 0. -1.
        -11    1    4    4    0    0  0.11322065913E+02  0.62335302288E+01  0.17953627506E+02  0.22121908067E+02  0.51100000000E-03 0.  1.
         12    1    4    4    0    0  0.77837966983E+01  0.17332719980E+01 -0.62711897130E+01  0.10144926972E+02  0.00000000000E+00 0. -1.
</event>
<event>
 8    1  0.1210161E-006  0.9118800E+02  0.7816164E-02  0.1184000E+00
        -11   -1    0    0    0    0  0.00000000000E+00  0.00000000000E+00  0.45593999997E+02  0.45594000000E+02  0.51100000000E-03 0. -1.
         11   -1    0    0    0    0 -0.00000000000E+00 -0.00000000000E+00 -0.45593999997E+02  0.45594000000E+02  0.51100000000E-03 0.  1.
         23    2    1    2    0    0 -0.17763568394E-14  0.00000000000E+00  0.00000000000E+00  0.91188000000E+02  0.91188000000E+02 0.  0.
    9900012    2    3    3    0    0  0.15921686675E+02  0.97601685705E+01  0.31733554308E+02  0.54367089282E+02  0.40000011637E+02 0.  0.
        -12    1    3    3    0    0 -0.15921686675E+02 -0.97601685705E+01 -0.31733554308E+02  0.36820910718E+02  0.00000000000E+00 0.  1.
         11    1    4    4    0    0 -0.35701602723E+01  0.14869057880E+02 -0.12887078773E+01  0.15345868983E+02  0.51100000000E-03 0.  1.
        -11    1    4    4    0    0  0.10889883010E+02 -0.26293562081E+01  0.22997871230E+02  0.25581343737E+02  0.51100000000E-03 0. -1.
        -12    1    4    4    0    0  0.86019639371E+01 -0.24795331011E+01  0.10024390955E+02  0.13439876562E+02  0.00000000000E+00 0.  1.
</event>
<event>
 8    1  0.1210161E-006  0.9118800E+02  0.7816164E-02  0.1184000E+00
        -11   -1    0    0    0    0  0.00000000000E+00  0.00000000000E+00  0.45593999997E+02  0.45594000000E+02  0.51100000000E-03 0. -1.
         11   -1    0    0    0    0 -0.00000000000E+00 -0.00000000000E+00 -0.45593999997E+02  0.45594000000E+02  0.51100000000E-03 0.  1.
         23    2    1    2    0    0  0.00000000000E+00 -0.35527136788E-14  0.00000000000E+00  0.91188000000E+02  0.91188000000E+02 0.  0.
    9900012    2    3    3    0    0  0.28360281681E+02 -0.22592379600E+02 -0.64076759801E+01  0.54367088761E+02  0.40000010448E+02 0.  0.
         12    1    3    3    0    0 -0.28360281681E+02  0.22592379600E+02  0.64076759801E+01  0.36820911239E+02  0.00000000000E+00 0. -1.
         11    1    4    4    0    0  0.10609585075E+02  0.45760559003E+01  0.53635866664E+01  0.12738588826E+02  0.51100000000E-03 0. -1.
        -11    1    4    4    0    0  0.13016703500E+02 -0.69221447580E+01  0.42909838611E+01  0.15354582405E+02  0.51100000000E-03 0.  1.
        -12    1    4    4    0    0  0.47339931055E+01 -0.20246290742E+02 -0.16062246508E+02  0.26273917531E+02  0.00000000000E+00 0.  1.
</event>
<event>
 8    1  0.1210161E-006  0.9118800E+02  0.7816164E-02  0.1184000E+00
        -11   -1    0    0    0    0  0.00000000000E+00  0.00000000000E+00  0.45593999997E+02  0.45594000000E+02  0.51100000000E-03 0.  1.
         11   -1    0    0    0    0 -0.00000000000E+00 -0.00000000000E+00 -0.45593999997E+02  0.45594000000E+02  0.51100000000E-03 0. -1.
         23    2    1    2    0    0  0.00000000000E+00  0.00000000000E+00 -0.17763568394E-14  0.91188000000E+02  0.91188000000E+02 0.  0.
    9900012    2    3    3    0    0 -0.31939358519E+02  0.10074520400E+02 -0.15302318755E+02  0.54367088236E+02  0.40000009251E+02 0.  0.
        -12    1    3    3    0    0  0.31939358519E+02 -0.10074520400E+02  0.15302318755E+02  0.36820911764E+02  0.00000000000E+00 0.  1.
         11    1    4    4    0    0 -0.60150304472E+01  0.78739857481E+01 -0.11381673776E+02  0.15090485117E+02  0.51100000000E-03 0. -1.
        -11    1    4    4    0    0 -0.16003760825E+00  0.81892653673E+01 -0.91850154840E+01  0.12306672539E+02  0.51100000000E-03 0.  1.
        -12    1    4    4    0    0 -0.25764290463E+02 -0.59887307152E+01  0.52643705055E+01  0.26969930580E+02  0.00000000000E+00 0.  1.
</event>
<event>
 8    1  0.1210161E-006  0.9118800E+02  0.7816164E-02  0.1184000E+00
        -11   -1    0    0    0    0  0.00000000000E+00  0.00000000000E+00  0.45593999997E+02  0.45594000000E+02  0.51100000000E-03 0.  1.
         11   -1    0    0    0    0 -0.00000000000E+00 -0.00000000000E+00 -0.45593999997E+02  0.45594000000E+02  0.51100000000E-03 0. -1.
         23    2    1    2    0    0  0.22204460493E-15  0.00000000000E+00 -0.14210854715E-13  0.91188000000E+02  0.91188000000E+02 0.  0.
    9900012    2    3    3    0    0  0.18311355986E+01 -0.64393030100E+01  0.36207217524E+02  0.54367078207E+02  0.39999986388E+02 0.  0.
         12    1    3    3    0    0 -0.18311355986E+01  0.64393030100E+01 -0.36207217524E+02  0.36820921793E+02  0.00000000000E+00 0. -1.
         11    1    4    4    0    0  0.11741922751E+02 -0.28572936790E+01  0.50997941932E+01  0.13116584088E+02  0.51100000000E-03 0. -1.
        -11    1    4    4    0    0  0.12522865029E+01  0.34606673137E+01 -0.29552615806E+01  0.47199587935E+01  0.51100000000E-03 0.  1.
        -12    1    4    4    0    0 -0.11163073655E+02 -0.70426766447E+01  0.34062684912E+02  0.36530535325E+02  0.00000000000E+00 0.  1.
</event>
<event>
 8    1  0.1210161E-006  0.9118800E+02  0.7816164E-02  0.1184000E+00
        -11   -1    0    0    0    0  0.00000000000E+00  0.00000000000E+00  0.45593999997E+02  0.45594000000E+02  0.51100000000E-03 0.  1.
         11   -1    0    0    0    0 -0.00000000000E+00 -0.00000000000E+00 -0.45593999997E+02  0.45594000000E+02  0.51100000000E-03 0. -1.
         23    2    1    2    0    0  0.00000000000E+00  0.00000000000E+00  0.00000000000E+00  0.91188000000E+02  0.91188000000E+02 0.  0.
    9900012    2    3    3    0    0 -0.27399810215E+02  0.17319832391E+02  0.17465750621E+02  0.54367100519E+02  0.40000037253E+02 0.  0.
         12    1    3    3    0    0  0.27399810215E+02 -0.17319832391E+02 -0.17465750621E+02  0.36820899481E+02  0.00000000000E+00 0. -1.
         11    1    4    4    0    0 -0.49764437627E+01 -0.36782632530E+00 -0.33230005331E+01  0.59952165543E+01  0.51100000000E-03 0. -1.
        -11    1    4    4    0    0 -0.56180640037E+01  0.18678903108E+02  0.24315191874E+02  0.31171984547E+02  0.51100000000E-03 0.  1.
        -12    1    4    4    0    0 -0.16805302448E+02 -0.99124439165E+00 -0.35264407202E+01  0.17199899418E+02  0.00000000000E+00 0.  1.
</event>
<event>
 8    1  0.1210161E-006  0.9118800E+02  0.7816164E-02  0.1184000E+00
        -11   -1    0    0    0    0  0.00000000000E+00  0.00000000000E+00  0.45593999997E+02  0.45594000000E+02  0.51100000000E-03 0. -1.
         11   -1    0    0    0    0 -0.00000000000E+00 -0.00000000000E+00 -0.45593999997E+02  0.45594000000E+02  0.51100000000E-03 0.  1.
         23    2    1    2    0    0 -0.53290705182E-14 -0.35527136788E-14  0.35527136788E-14  0.91188000000E+02  0.91188000000E+02 0.  0.
    9900012    2    3    3    0    0 -0.14030901894E+02 -0.25946692498E+02  0.22038021437E+02  0.54367198157E+02  0.40000259837E+02 0.  0.
        -12    1    3    3    0    0  0.14030901894E+02  0.25946692498E+02 -0.22038021437E+02  0.36820801843E+02  0.00000000000E+00 0.  1.
         11    1    4    4    0    0 -0.23183717345E+02 -0.18160164988E+02  0.14447854439E+02  0.32802695628E+02  0.51100000000E-03 0. -1.
        -11    1    4    4    0    0 -0.23392918270E+01  0.29547565216E+01 -0.62183112170E+00  0.38196264947E+01  0.51100000000E-03 0.  1.
        -12    1    4    4    0    0  0.11492107278E+02 -0.10741284032E+02  0.82119981194E+01  0.17744876034E+02  0.00000000000E+00 0.  1.
</event>
<event>
 8    1  0.1210161E-006  0.9118800E+02  0.7816164E-02  0.1184000E+00
        -11   -1    0    0    0    0  0.00000000000E+00  0.00000000000E+00  0.45593999997E+02  0.45594000000E+02  0.51100000000E-03 0.  1.
         11   -1    0    0    0    0 -0.00000000000E+00 -0.00000000000E+00 -0.45593999997E+02  0.45594000000E+02  0.51100000000E-03 0. -1.
         23    2    1    2    0    0  0.35527136788E-14  0.00000000000E+00  0.00000000000E+00  0.91188000000E+02  0.91188000000E+02 0.  0.
    9900012    2    3    3    0    0 -0.28851254838E+02 -0.50583164597E+01  0.22311407708E+02  0.54367076803E+02  0.39999983189E+02 0.  0.
         12    1    3    3    0    0  0.28851254838E+02  0.50583164597E+01 -0.22311407708E+02  0.36820923197E+02  0.00000000000E+00 0. -1.
         11    1    4    4    0    0 -0.21566627010E+02 -0.24654135148E+01  0.10786330451E+02  0.24239277820E+02  0.51100000000E-03 0. -1.
        -11    1    4    4    0    0  0.15881198762E+00 -0.12529469155E+01  0.19264918522E+02  0.19306273155E+02  0.51100000000E-03 0.  1.
        -12    1    4    4    0    0 -0.74434398156E+01 -0.13399560294E+01 -0.77398412646E+01  0.10821525828E+02  0.00000000000E+00 0.  1.
</event>
<event>
 8    1  0.1210161E-006  0.9118800E+02  0.7816164E-02  0.1184000E+00
        -11   -1    0    0    0    0  0.00000000000E+00  0.00000000000E+00  0.45593999997E+02  0.45594000000E+02  0.51100000000E-03 0.  1.
         11   -1    0    0    0    0 -0.00000000000E+00 -0.00000000000E+00 -0.45593999997E+02  0.45594000000E+02  0.51100000000E-03 0. -1.
         23    2    1    2    0    0  0.88817841970E-15 -0.88817841970E-15  0.00000000000E+00  0.91188000000E+02  0.91188000000E+02 0.  0.
    9900012    2    3    3    0    0  0.16573060662E+01  0.58829779786E+01  0.36310075635E+02  0.54367113456E+02  0.40000066745E+02 0.  0.
         12    1    3    3    0    0 -0.16573060662E+01 -0.58829779786E+01 -0.36310075635E+02  0.36820886544E+02  0.00000000000E+00 0. -1.
         11    1    4    4    0    0 -0.48081349583E+01 -0.89388227981E+01  0.70219898511E+01  0.12342165795E+02  0.51100000000E-03 0. -1.
        -11    1    4    4    0    0 -0.91167992978E+01  0.10583171612E+02  0.14370093007E+02  0.20040437223E+02  0.51100000000E-03 0.  1.
         12    1    4    4    0    0  0.15582240322E+02  0.42386291648E+01  0.14917992777E+02  0.21984510437E+02  0.00000000000E+00 0. -1.
</event>
<event>
 8    1  0.1210161E-006  0.9118800E+02  0.7816164E-02  0.1184000E+00
        -11   -1    0    0    0    0  0.00000000000E+00  0.00000000000E+00  0.45593999997E+02  0.45594000000E+02  0.51100000000E-03 0.  1.
         11   -1    0    0    0    0 -0.00000000000E+00 -0.00000000000E+00 -0.45593999997E+02  0.45594000000E+02  0.51100000000E-03 0. -1.
         23    2    1    2    0    0 -0.17763568394E-14  0.00000000000E+00  0.00000000000E+00  0.91188000000E+02  0.91188000000E+02 0.  0.
    9900012    2    3    3    0    0  0.13440605276E+02 -0.78491383429E+01 -0.33369452839E+02  0.54367092547E+02  0.40000019079E+02 0.  0.
        -12    1    3    3    0    0 -0.13440605276E+02  0.78491383429E+01  0.33369452839E+02  0.36820907453E+02  0.00000000000E+00 0.  1.
         11    1    4    4    0    0  0.94193129068E+01 -0.12280536953E+02 -0.59689822038E+01  0.16588061740E+02  0.51100000000E-03 0. -1.
        -11    1    4    4    0    0  0.35472508741E+00  0.27664564550E+01  0.46793184693E+01  0.54474886694E+01  0.51100000000E-03 0.  1.
         12    1    4    4    0    0  0.36665672819E+01  0.16649421546E+01 -0.32079789104E+02  0.32331542137E+02  0.00000000000E+00 0. -1.
</event>
<event>
 8    1  0.1210161E-006  0.9118800E+02  0.7816164E-02  0.1184000E+00
        -11   -1    0    0    0    0  0.00000000000E+00  0.00000000000E+00  0.45593999997E+02  0.45594000000E+02  0.51100000000E-03 0.  1.
         11   -1    0    0    0    0 -0.00000000000E+00 -0.00000000000E+00 -0.45593999997E+02  0.45594000000E+02  0.51100000000E-03 0. -1.
         23    2    1    2    0    0  0.00000000000E+00  0.00000000000E+00  0.00000000000E+00  0.91188000000E+02  0.91188000000E+02 0.  0.
    9900012    2    3    3    0    0  0.20710405187E+01 -0.88960963961E+01  0.35670105802E+02  0.54366998006E+02  0.39999803554E+02 0.  0.
         12    1    3    3    0    0 -0.20710405187E+01  0.88960963961E+01 -0.35670105802E+02  0.36821001994E+02  0.00000000000E+00 0. -1.
         11    1    4    4    0    0 -0.10765219224E+02 -0.76921178572E+01  0.12554898016E+02  0.18239629561E+02  0.51100000000E-03 0. -1.
        -11    1    4    4    0    0 -0.25246585327E+01 -0.47198427619E+01  0.19141657310E+02  0.19875961894E+02  0.51100000000E-03 0.  1.
         12    1    4    4    0    0  0.15360918275E+02  0.35158642230E+01  0.39735504766E+01  0.16251406551E+02  0.00000000000E+00 0. -1.
</event>
<event>
 8    1  0.1210161E-006  0.9118800E+02  0.7816164E-02  0.1184000E+00
        -11   -1    0    0    0    0  0.00000000000E+00  0.00000000000E+00  0.45593999997E+02  0.45594000000E+02  0.51100000000E-03 0. -1.
         11   -1    0    0    0    0 -0.00000000000E+00 -0.00000000000E+00 -0.45593999997E+02  0.45594000000E+02  0.51100000000E-03 0.  1.
         23    2    1    2    0    0 -0.71054273576E-14  0.22204460493E-15  0.17763568394E-14  0.91188000000E+02  0.91188000000E+02 0.  0.
    9900012    2    3    3    0    0 -0.35032392975E+02  0.14817137721E+01 -0.11239064137E+02  0.54367073940E+02  0.39999976660E+02 0.  0.
        -12    1    3    3    0    0  0.35032392975E+02 -0.14817137721E+01  0.11239064137E+02  0.36820926060E+02  0.00000000000E+00 0.  1.
         11    1    4    4    0    0 -0.14271588645E+02  0.24570003114E+00 -0.23196049792E+01  0.14460953581E+02  0.51100000000E-03 0. -1.
        -11    1    4    4    0    0 -0.98692960998E+01  0.14451792646E+02 -0.13587599879E+02  0.22155816097E+02  0.51100000000E-03 0.  1.
         12    1    4    4    0    0 -0.10891508231E+02 -0.13215778905E+02  0.46681407209E+01  0.17750304262E+02  0.00000000000E+00 0. -1.
</event>
<event>
 8    1  0.1210161E-006  0.9118800E+02  0.7816164E-02  0.1184000E+00
        -11   -1    0    0    0    0  0.00000000000E+00  0.00000000000E+00  0.45593999997E+02  0.45594000000E+02  0.51100000000E-03 0. -1.
         11   -1    0    0    0    0 -0.00000000000E+00 -0.00000000000E+00 -0.45593999997E+02  0.45594000000E+02  0.51100000000E-03 0.  1.
         23    2    1    2    0    0  0.35527136788E-14  0.35527136788E-14  0.17763568394E-14  0.91188000000E+02  0.91188000000E+02 0.  0.
    9900012    2    3    3    0    0 -0.21496050044E+02 -0.28626917788E+02 -0.86138921554E+01  0.54367085731E+02  0.40000003541E+02 0.  0.
         12    1    3    3    0    0  0.21496050044E+02  0.28626917788E+02  0.86138921554E+01  0.36820914269E+02  0.00000000000E+00 0. -1.
         11    1    4    4    0    0  0.77110993029E+01 -0.52255395199E+01 -0.27022744955E+01  0.96989485741E+01  0.51100000000E-03 0. -1.
        -11    1    4    4    0    0 -0.47048761219E+01 -0.18747589277E+02 -0.22174805675E+01  0.19455723666E+02  0.51100000000E-03 0.  1.
        -12    1    4    4    0    0 -0.24502273225E+02 -0.46537889906E+01 -0.36941370925E+01  0.25212413491E+02  0.00000000000E+00 0.  1.
</event>
<event>
 8    1  0.1210161E-006  0.9118800E+02  0.7816164E-02  0.1184000E+00
        -11   -1    0    0    0    0  0.00000000000E+00  0.00000000000E+00  0.45593999997E+02  0.45594000000E+02  0.51100000000E-03 0. -1.
         11   -1    0    0    0    0 -0.00000000000E+00 -0.00000000000E+00 -0.45593999997E+02  0.45594000000E+02  0.51100000000E-03 0.  1.
         23    2    1    2    0    0  0.88817841970E-15  0.71054273576E-14  0.11102230246E-14  0.91188000000E+02  0.91188000000E+02 0.  0.
    9900012    2    3    3    0    0 -0.79643552926E+01  0.35903417486E+02  0.18151267124E+01  0.54367068081E+02  0.39999963305E+02 0.  0.
        -12    1    3    3    0    0  0.79643552926E+01 -0.35903417486E+02 -0.18151267124E+01  0.36820931919E+02  0.00000000000E+00 0.  1.
         11    1    4    4    0    0 -0.13505814764E+02  0.31211446994E+01  0.64156228078E+01  0.15274449023E+02  0.51100000000E-03 0. -1.
        -11    1    4    4    0    0 -0.16038092721E+01  0.15840476314E+02 -0.11299219311E+02  0.19523453879E+02  0.51100000000E-03 0.  1.
         12    1    4    4    0    0  0.71452687439E+01  0.16941796472E+02  0.66987232156E+01  0.19569165180E+02  0.00000000000E+00 0. -1.
</event>
<event>
 8    1  0.1210161E-006  0.9118800E+02  0.7816164E-02  0.1184000E+00
        -11   -1    0    0    0    0  0.00000000000E+00  0.00000000000E+00  0.45593999997E+02  0.45594000000E+02  0.51100000000E-03 0. -1.
         11   -1    0    0    0    0 -0.00000000000E+00 -0.00000000000E+00 -0.45593999997E+02  0.45594000000E+02  0.51100000000E-03 0.  1.
         23    2    1    2    0    0  0.35527136788E-14  0.17763568394E-14  0.00000000000E+00  0.91188000000E+02  0.91188000000E+02 0.  0.
    9900012    2    3    3    0    0  0.29572140268E+02  0.12598334201E+02  0.17959670685E+02  0.54367091866E+02  0.40000017527E+02 0.  0.
        -12    1    3    3    0    0 -0.29572140268E+02 -0.12598334201E+02 -0.17959670685E+02  0.36820908134E+02  0.00000000000E+00 0.  1.
         11    1    4    4    0    0 -0.31867503861E+01  0.53435396048E+01  0.50981672739E-01  0.62218480313E+01  0.51100000000E-03 0. -1.
        -11    1    4    4    0    0  0.31029423583E+01 -0.47004066470E+00  0.17207862077E+02  0.17491703949E+02  0.51100000000E-03 0.  1.
         12    1    4    4    0    0  0.29655948296E+02  0.77248352612E+01  0.70082693559E+00  0.30653539886E+02  0.00000000000E+00 0. -1.
</event>
<event>
 8    1  0.1210161E-006  0.9118800E+02  0.7816164E-02  0.1184000E+00
        -11   -1    0    0    0    0  0.00000000000E+00  0.00000000000E+00  0.45593999997E+02  0.45594000000E+02  0.51100000000E-03 0.  1.
         11   -1    0    0    0    0 -0.00000000000E+00 -0.00000000000E+00 -0.45593999997E+02  0.45594000000E+02  0.51100000000E-03 0. -1.
         23    2    1    2    0    0  0.00000000000E+00  0.17763568394E-14  0.00000000000E+00  0.91188000000E+02  0.91188000000E+02 0.  0.
    9900012    2    3    3    0    0 -0.23265480875E+02  0.20883555200E+01  0.28462872091E+02  0.54367096741E+02  0.40000028640E+02 0.  0.
         12    1    3    3    0    0  0.23265480875E+02 -0.20883555200E+01 -0.28462872091E+02  0.36820903259E+02  0.00000000000E+00 0. -1.
         11    1    4    4    0    0 -0.14111235197E+02 -0.12058892106E+02  0.36893193381E+01  0.18924981243E+02  0.51100000000E-03 0. -1.
        -11    1    4    4    0    0  0.47387527614E+01  0.51205510812E+01  0.19594776028E+01  0.72467491916E+01  0.51100000000E-03 0.  1.
        -12    1    4    4    0    0 -0.13892998440E+02  0.90266965452E+01  0.22814075150E+02  0.28195366306E+02  0.00000000000E+00 0.  1.
</event>
<event>
 8    1  0.1210161E-006  0.9118800E+02  0.7816164E-02  0.1184000E+00
        -11   -1    0    0    0    0  0.00000000000E+00  0.00000000000E+00  0.45593999997E+02  0.45594000000E+02  0.51100000000E-03 0.  1.
         11   -1    0    0    0    0 -0.00000000000E+00 -0.00000000000E+00 -0.45593999997E+02  0.45594000000E+02  0.51100000000E-03 0. -1.
         23    2    1    2    0    0  0.00000000000E+00  0.00000000000E+00  0.00000000000E+00  0.91188000000E+02  0.91188000000E+02 0.  0.
    9900012    2    3    3    0    0 -0.83037647773E+01  0.10061237480E+02 -0.34432593560E+02  0.54367020812E+02  0.39999855545E+02 0.  0.
        -12    1    3    3    0    0  0.83037647773E+01 -0.10061237480E+02  0.34432593560E+02  0.36820979188E+02  0.00000000000E+00 0.  1.
         11    1    4    4    0    0 -0.16223195202E+01 -0.33578411308E+01 -0.36262396964E+02  0.36453647987E+02  0.51100000000E-03 0. -1.
        -11    1    4    4    0    0 -0.45310755434E+01  0.12803499337E+02  0.46122089387E+01  0.14343385667E+02  0.51100000000E-03 0.  1.
        -12    1    4    4    0    0 -0.21503697136E+01  0.61557927369E+00 -0.27824055347E+01  0.35699871578E+01  0.00000000000E+00 0.  1.
</event>
<event>
 8    1  0.1210161E-006  0.9118800E+02  0.7816164E-02  0.1184000E+00
        -11   -1    0    0    0    0  0.00000000000E+00  0.00000000000E+00  0.45593999997E+02  0.45594000000E+02  0.51100000000E-03 0.  1.
         11   -1    0    0    0    0 -0.00000000000E+00 -0.00000000000E+00 -0.45593999997E+02  0.45594000000E+02  0.51100000000E-03 0. -1.
         23    2    1    2    0    0 -0.71054273576E-14  0.17763568394E-14  0.17763568394E-14  0.91188000000E+02  0.91188000000E+02 0.  0.
    9900012    2    3    3    0    0 -0.33538858731E+02  0.95173131556E+01  0.11846622021E+02  0.54367126192E+02  0.40000095780E+02 0.  0.
         12    1    3    3    0    0  0.33538858731E+02 -0.95173131556E+01 -0.11846622021E+02  0.36820873808E+02  0.00000000000E+00 0. -1.
         11    1    4    4    0    0 -0.64615948980E+01 -0.58938631535E+01  0.12129674587E+02  0.14953890375E+02  0.51100000000E-03 0. -1.
        -11    1    4    4    0    0 -0.24616579219E+02  0.51829812212E+01  0.75866340486E+01  0.26275393113E+02  0.51100000000E-03 0.  1.
         12    1    4    4    0    0 -0.24606846140E+01  0.10228195088E+02 -0.78696866145E+01  0.13137842705E+02  0.00000000000E+00 0. -1.
</event>
<event>
 8    1  0.1210161E-006  0.9118800E+02  0.7816164E-02  0.1184000E+00
        -11   -1    0    0    0    0  0.00000000000E+00  0.00000000000E+00  0.45593999997E+02  0.45594000000E+02  0.51100000000E-03 0.  1.
         11   -1    0    0    0    0 -0.00000000000E+00 -0.00000000000E+00 -0.45593999997E+02  0.45594000000E+02  0.51100000000E-03 0. -1.
         23    2    1    2    0    0  0.00000000000E+00 -0.44408920985E-15  0.00000000000E+00  0.91188000000E+02  0.91188000000E+02 0.  0.
    9900012    2    3    3    0    0 -0.10393643591E+02 -0.10084351079E+01  0.35309144646E+02  0.54367075730E+02  0.39999980741E+02 0.  0.
         12    1    3    3    0    0  0.10393643591E+02  0.10084351079E+01 -0.35309144646E+02  0.36820924270E+02  0.00000000000E+00 0. -1.
         11    1    4    4    0    0  0.60108114517E+01 -0.59447385936E+01  0.75345734153E+01  0.11324291062E+02  0.51100000000E-03 0. -1.
        -11    1    4    4    0    0  0.29377044346E+00 -0.13884307855E+01  0.24919732759E+02  0.24960110620E+02  0.51100000000E-03 0.  1.
        -12    1    4    4    0    0 -0.16698225486E+02  0.63247342712E+01  0.28548384720E+01  0.18082674047E+02  0.00000000000E+00 0.  1.
</event>
<event>
 8    1  0.1210161E-006  0.9118800E+02  0.7816164E-02  0.1184000E+00
        -11   -1    0    0    0    0  0.00000000000E+00  0.00000000000E+00  0.45593999997E+02  0.45594000000E+02  0.51100000000E-03 0.  1.
         11   -1    0    0    0    0 -0.00000000000E+00 -0.00000000000E+00 -0.45593999997E+02  0.45594000000E+02  0.51100000000E-03 0. -1.
         23    2    1    2    0    0  0.00000000000E+00  0.00000000000E+00  0.00000000000E+00  0.91188000000E+02  0.91188000000E+02 0.  0.
    9900012    2    3    3    0    0  0.88443926173E+01 -0.26458290100E+01 -0.35644862042E+02  0.54367083636E+02  0.39999998764E+02 0.  0.
        -12    1    3    3    0    0 -0.88443926173E+01  0.26458290100E+01  0.35644862042E+02  0.36820916364E+02  0.00000000000E+00 0.  1.
         11    1    4    4    0    0 -0.13126021930E+02 -0.95605779796E+01 -0.12639061292E+02  0.20577730040E+02  0.51100000000E-03 0. -1.
        -11    1    4    4    0    0  0.13372125032E+02  0.28493663028E+00 -0.92373612205E+01  0.16254961068E+02  0.51100000000E-03 0.  1.
        -12    1    4    4    0    0  0.85982895151E+01  0.66298123393E+01 -0.13768439529E+02  0.17534392527E+02  0.00000000000E+00 0.  1.
</event>
<event>
 8    1  0.1210161E-006  0.9118800E+02  0.7816164E-02  0.1184000E+00
        -11   -1    0    0    0    0  0.00000000000E+00  0.00000000000E+00  0.45593999997E+02  0.45594000000E+02  0.51100000000E-03 0. -1.
         11   -1    0    0    0    0 -0.00000000000E+00 -0.00000000000E+00 -0.45593999997E+02  0.45594000000E+02  0.51100000000E-03 0.  1.
         23    2    1    2    0    0  0.00000000000E+00  0.35527136788E-14  0.00000000000E+00  0.91188000000E+02  0.91188000000E+02 0.  0.
    9900012    2    3    3    0    0  0.24411510815E+02  0.27199841466E+02  0.44751815531E+01  0.54367075433E+02  0.39999980064E+02 0.  0.
        -12    1    3    3    0    0 -0.24411510815E+02 -0.27199841466E+02 -0.44751815531E+01  0.36820924567E+02  0.00000000000E+00 0.  1.
         11    1    4    4    0    0  0.14662120732E+02  0.81121728312E+01  0.21378855056E+01  0.16892474274E+02  0.51100000000E-03 0. -1.
        -11    1    4    4    0    0  0.20409707131E+02  0.15334459758E+02 -0.14112742637E+01  0.25567430386E+02  0.51100000000E-03 0.  1.
        -12    1    4    4    0    0 -0.10660317048E+02  0.37532088762E+01  0.37485703112E+01  0.11907170772E+02  0.00000000000E+00 0.  1.
</event>
<event>
 8    1  0.1210161E-006  0.9118800E+02  0.7816164E-02  0.1184000E+00
        -11   -1    0    0    0    0  0.00000000000E+00  0.00000000000E+00  0.45593999997E+02  0.45594000000E+02  0.51100000000E-03 0.  1.
         11   -1    0    0    0    0 -0.00000000000E+00 -0.00000000000E+00 -0.45593999997E+02  0.45594000000E+02  0.51100000000E-03 0. -1.
         23    2    1    2    0    0 -0.17763568394E-14  0.00000000000E+00  0.00000000000E+00  0.91188000000E+02  0.91188000000E+02 0.  0.
    9900012    2    3    3    0    0 -0.65852727216E+01 -0.31052050701E+02 -0.18659661004E+02  0.54367100794E+02  0.40000037880E+02 0.  0.
        -12    1    3    3    0    0  0.65852727216E+01  0.31052050701E+02  0.18659661004E+02  0.36820899206E+02  0.00000000000E+00 0.  1.
         11    1    4    4    0    0 -0.15781371689E+02 -0.16559939202E+02 -0.62654827246E+01  0.23717916283E+02  0.51100000000E-03 0. -1.
        -11    1    4    4    0    0  0.78090359713E+01 -0.20413081851E+02 -0.10710996305E+02  0.24339276808E+02  0.51100000000E-03 0.  1.
        -12    1    4    4    0    0  0.13870629960E+01  0.59209703520E+01 -0.16831819744E+01  0.63099077032E+01  0.00000000000E+00 0.  1.
</event>
<event>
 8    1  0.1210161E-006  0.9118800E+02  0.7816164E-02  0.1184000E+00
        -11   -1    0    0    0    0  0.00000000000E+00  0.00000000000E+00  0.45593999997E+02  0.45594000000E+02  0.51100000000E-03 0.  1.
         11   -1    0    0    0    0 -0.00000000000E+00 -0.00000000000E+00 -0.45593999997E+02  0.45594000000E+02  0.51100000000E-03 0. -1.
         23    2    1    2    0    0  0.00000000000E+00  0.00000000000E+00 -0.35527136788E-14  0.91188000000E+02  0.91188000000E+02 0.  0.
    9900012    2    3    3    0    0 -0.31135718615E+02 -0.10945260498E+02 -0.16326314190E+02  0.54367078826E+02  0.39999987800E+02 0.  0.
        -12    1    3    3    0    0  0.31135718615E+02  0.10945260498E+02  0.16326314190E+02  0.36820921174E+02  0.00000000000E+00 0.  1.
         11    1    4    4    0    0 -0.28875547071E+02 -0.10614232618E+01 -0.25715004629E+02  0.38680554564E+02  0.51100000000E-03 0. -1.
        -11    1    4    4    0    0  0.39491945599E+00 -0.34851052453E+01  0.78385739972E+01  0.85875003649E+01  0.51100000000E-03 0.  1.
         12    1    4    4    0    0 -0.26550909997E+01 -0.63987319913E+01  0.15501164425E+01  0.70990238976E+01  0.00000000000E+00 0. -1.
</event>
<event>
 8    1  0.1210161E-006  0.9118800E+02  0.7816164E-02  0.1184000E+00
        -11   -1    0    0    0    0  0.00000000000E+00  0.00000000000E+00  0.45593999997E+02  0.45594000000E+02  0.51100000000E-03 0. -1.
         11   -1    0    0    0    0 -0.00000000000E+00 -0.00000000000E+00 -0.45593999997E+02  0.45594000000E+02  0.51100000000E-03 0.  1.
         23    2    1    2    0    0  0.00000000000E+00 -0.17763568394E-14  0.00000000000E+00  0.91188000000E+02  0.91188000000E+02 0.  0.
    9900012    2    3    3    0    0 -0.17148109817E+02 -0.85828099508E+01  0.31433386462E+02  0.54367080927E+02  0.39999992588E+02 0.  0.
        -12    1    3    3    0    0  0.17148109817E+02  0.85828099508E+01 -0.31433386462E+02  0.36820919073E+02  0.00000000000E+00 0.  1.
         11    1    4    4    0    0  0.65732394241E+01  0.75873310593E+01 -0.14304929415E+00  0.10039697829E+02  0.51100000000E-03 0. -1.
        -11    1    4    4    0    0 -0.16317694876E+02 -0.72103740578E+01  0.11802625351E+02  0.21390620037E+02  0.51100000000E-03 0.  1.
         12    1    4    4    0    0 -0.74036543656E+01 -0.89597669523E+01  0.19773810404E+02  0.22936763061E+02  0.00000000000E+00 0. -1.
</event>
<event>
 8    1  0.1210161E-006  0.9118800E+02  0.7816164E-02  0.1184000E+00
        -11   -1    0    0    0    0  0.00000000000E+00  0.00000000000E+00  0.45593999997E+02  0.45594000000E+02  0.51100000000E-03 0. -1.
         11   -1    0    0    0    0 -0.00000000000E+00 -0.00000000000E+00 -0.45593999997E+02  0.45594000000E+02  0.51100000000E-03 0.  1.
         23    2    1    2    0    0  0.17763568394E-14 -0.22204460493E-14  0.00000000000E+00  0.91188000000E+02  0.91188000000E+02 0.  0.
    9900012    2    3    3    0    0 -0.90410977401E+01  0.31277784506E+01 -0.35556399276E+02  0.54367055202E+02  0.39999933943E+02 0.  0.
         12    1    3    3    0    0  0.90410977401E+01 -0.31277784506E+01  0.35556399276E+02  0.36820944798E+02  0.00000000000E+00 0. -1.
         11    1    4    4    0    0  0.37866901326E+01 -0.45012521879E+01 -0.60995510232E+01  0.84737722629E+01  0.51100000000E-03 0. -1.
        -11    1    4    4    0    0 -0.25324006643E+01 -0.95082159348E+01 -0.22782547715E+02  0.24816601380E+02  0.51100000000E-03 0.  1.
         12    1    4    4    0    0 -0.10295387208E+02  0.17137246573E+02 -0.66743005375E+01  0.21076681559E+02  0.00000000000E+00 0. -1.
</event>
<event>
 8    1  0.1210161E-006  0.9118800E+02  0.7816164E-02  0.1184000E+00
        -11   -1    0    0    0    0  0.00000000000E+00  0.00000000000E+00  0.45593999997E+02  0.45594000000E+02  0.51100000000E-03 0.  1.
         11   -1    0    0    0    0 -0.00000000000E+00 -0.00000000000E+00 -0.45593999997E+02  0.45594000000E+02  0.51100000000E-03 0. -1.
         23    2    1    2    0    0  0.88817841970E-15  0.00000000000E+00  0.00000000000E+00  0.91188000000E+02  0.91188000000E+02 0.  0.
    9900012    2    3    3    0    0 -0.12606532242E+01 -0.17526168822E+02 -0.32357755219E+02  0.54367079820E+02  0.39999990065E+02 0.  0.
        -12    1    3    3    0    0  0.12606532242E+01  0.17526168822E+02  0.32357755219E+02  0.36820920180E+02  0.00000000000E+00 0.  1.
         11    1    4    4    0    0 -0.11900590582E+02 -0.11171590579E+01 -0.56842943190E+01  0.13235682933E+02  0.51100000000E-03 0. -1.
        -11    1    4    4    0    0 -0.39754457014E-01  0.46983788512E+01  0.91829964453E+00  0.47874438633E+01  0.51100000000E-03 0.  1.
         12    1    4    4    0    0  0.10679691814E+02 -0.21107388615E+02 -0.27591760544E+02  0.36343953023E+02  0.00000000000E+00 0. -1.
</event>
<event>
 8    1  0.1210161E-006  0.9118800E+02  0.7816164E-02  0.1184000E+00
        -11   -1    0    0    0    0  0.00000000000E+00  0.00000000000E+00  0.45593999997E+02  0.45594000000E+02  0.51100000000E-03 0. -1.
         11   -1    0    0    0    0 -0.00000000000E+00 -0.00000000000E+00 -0.45593999997E+02  0.45594000000E+02  0.51100000000E-03 0.  1.
         23    2    1    2    0    0  0.00000000000E+00  0.00000000000E+00 -0.35527136788E-14  0.91188000000E+02  0.91188000000E+02 0.  0.
    9900012    2    3    3    0    0  0.24380091634E+02  0.12750458172E+02  0.24470732966E+02  0.54367084428E+02  0.40000000571E+02 0.  0.
         12    1    3    3    0    0 -0.24380091634E+02 -0.12750458172E+02 -0.24470732966E+02  0.36820915572E+02  0.00000000000E+00 0. -1.
         11    1    4    4    0    0  0.35418643394E+01 -0.10111320685E+02  0.16445939168E+01  0.10839201927E+02  0.51100000000E-03 0. -1.
        -11    1    4    4    0    0  0.17265506133E+01  0.29496809220E+00  0.11858770175E+02  0.11987427310E+02  0.51100000000E-03 0.  1.
        -12    1    4    4    0    0  0.19111676681E+02  0.22566810765E+02  0.10967368875E+02  0.31540455191E+02  0.00000000000E+00 0.  1.
</event>
<event>
 8    1  0.1210161E-006  0.9118800E+02  0.7816164E-02  0.1184000E+00
        -11   -1    0    0    0    0  0.00000000000E+00  0.00000000000E+00  0.45593999997E+02  0.45594000000E+02  0.51100000000E-03 0.  1.
         11   -1    0    0    0    0 -0.00000000000E+00 -0.00000000000E+00 -0.45593999997E+02  0.45594000000E+02  0.51100000000E-03 0. -1.
         23    2    1    2    0    0  0.00000000000E+00 -0.44408920985E-15  0.35527136788E-14  0.91188000000E+02  0.91188000000E+02 0.  0.
    9900012    2    3    3    0    0  0.34496502851E+02 -0.38661005984E+01  0.12281030278E+02  0.54367093609E+02  0.40000021499E+02 0.  0.
         12    1    3    3    0    0 -0.34496502851E+02  0.38661005984E+01 -0.12281030278E+02  0.36820906391E+02  0.00000000000E+00 0. -1.
         11    1    4    4    0    0 -0.15189516950E+01 -0.32103676867E+01 -0.33487552724E+01  0.48813765550E+01  0.51100000000E-03 0. -1.
        -11    1    4    4    0    0  0.75588741803E+01 -0.11568025165E+02 -0.24721658341E+01  0.14038069286E+02  0.51100000000E-03 0.  1.
         12    1    4    4    0    0  0.28456580366E+02  0.10912292254E+02  0.18101951385E+02  0.35447647768E+02  0.00000000000E+00 0. -1.
</event>
<event>
 8    1  0.1210161E-006  0.9118800E+02  0.7816164E-02  0.1184000E+00
        -11   -1    0    0    0    0  0.00000000000E+00  0.00000000000E+00  0.45593999997E+02  0.45594000000E+02  0.51100000000E-03 0.  1.
         11   -1    0    0    0    0 -0.00000000000E+00 -0.00000000000E+00 -0.45593999997E+02  0.45594000000E+02  0.51100000000E-03 0. -1.
         23    2    1    2    0    0  0.35527136788E-14 -0.22204460493E-15  0.00000000000E+00  0.91188000000E+02  0.91188000000E+02 0.  0.
    9900012    2    3    3    0    0  0.17310492774E+02  0.13004642446E+01  0.32472082371E+02  0.54367075231E+02  0.39999979605E+02 0.  0.
         12    1    3    3    0    0 -0.17310492774E+02 -0.13004642446E+01 -0.32472082371E+02  0.36820924769E+02  0.00000000000E+00 0. -1.
         11    1    4    4    0    0 -0.36952639503E+01 -0.20502859537E+00  0.50124646906E+01  0.62307154423E+01  0.51100000000E-03 0. -1.
        -11    1    4    4    0    0  0.10255490619E+02  0.14101395542E+02  0.26275253206E+02  0.31534320594E+02  0.51100000000E-03 0.  1.
         12    1    4    4    0    0  0.10750266106E+02 -0.12595902702E+02  0.11843644743E+01  0.16602039195E+02  0.00000000000E+00 0. -1.
</event>
<event>
 8    1  0.1210161E-006  0.9118800E+02  0.7816164E-02  0.1184000E+00
        -11   -1    0    0    0    0  0.00000000000E+00  0.00000000000E+00  0.45593999997E+02  0.45594000000E+02  0.51100000000E-03 0.  1.
         11   -1    0    0    0    0 -0.00000000000E+00 -0.00000000000E+00 -0.45593999997E+02  0.45594000000E+02  0.51100000000E-03 0. -1.
         23    2    1    2    0    0  0.00000000000E+00  0.35527136788E-14  0.00000000000E+00  0.91188000000E+02  0.91188000000E+02 0.  0.
    9900012    2    3    3    0    0 -0.14515560614E+02 -0.18882120370E+02  0.28081035495E+02  0.54367074916E+02  0.39999978885E+02 0.  0.
         12    1    3    3    0    0  0.14515560614E+02  0.18882120370E+02 -0.28081035495E+02  0.36820925084E+02  0.00000000000E+00 0. -1.
         11    1    4    4    0    0 -0.79925356673E+01 -0.11744424306E+02 -0.56365885929E+01  0.15283430895E+02  0.51100000000E-03 0. -1.
        -11    1    4    4    0    0 -0.10714322888E+02 -0.14270513685E+01  0.27888610524E+02  0.29909994780E+02  0.51100000000E-03 0.  1.
        -12    1    4    4    0    0  0.41912979411E+01 -0.57106446946E+01  0.58290135641E+01  0.91736492406E+01  0.00000000000E+00 0.  1.
</event>
<event>
 8    1  0.1210161E-006  0.9118800E+02  0.7816164E-02  0.1184000E+00
        -11   -1    0    0    0    0  0.00000000000E+00  0.00000000000E+00  0.45593999997E+02  0.45594000000E+02  0.51100000000E-03 0. -1.
         11   -1    0    0    0    0 -0.00000000000E+00 -0.00000000000E+00 -0.45593999997E+02  0.45594000000E+02  0.51100000000E-03 0.  1.
         23    2    1    2    0    0 -0.22204460493E-14 -0.71054273576E-14  0.00000000000E+00  0.91188000000E+02  0.91188000000E+02 0.  0.
    9900012    2    3    3    0    0  0.33608812025E+01  0.33651323760E+02  0.14562745478E+02  0.54367072946E+02  0.39999974395E+02 0.  0.
        -12    1    3    3    0    0 -0.33608812025E+01 -0.33651323760E+02 -0.14562745478E+02  0.36820927054E+02  0.00000000000E+00 0.  1.
         11    1    4    4    0    0 -0.29134567526E+01  0.81771389617E+01  0.12003051075E+02  0.14813070823E+02  0.51100000000E-03 0. -1.
        -11    1    4    4    0    0  0.12378286951E+02  0.29481012571E+02  0.36095890368E+01  0.32177340216E+02  0.51100000000E-03 0.  1.
         12    1    4    4    0    0 -0.61039489962E+01 -0.40068277728E+01 -0.10498946340E+01  0.73766619071E+01  0.00000000000E+00 0. -1.
</event>
<event>
 8    1  0.1210161E-006  0.9118800E+02  0.7816164E-02  0.1184000E+00
        -11   -1    0    0    0    0  0.00000000000E+00  0.00000000000E+00  0.45593999997E+02  0.45594000000E+02  0.51100000000E-03 0.  1.
         11   -1    0    0    0    0 -0.00000000000E+00 -0.00000000000E+00 -0.45593999997E+02  0.45594000000E+02  0.51100000000E-03 0. -1.
         23    2    1    2    0    0  0.00000000000E+00  0.00000000000E+00  0.00000000000E+00  0.91188000000E+02  0.91188000000E+02 0.  0.
    9900012    2    3    3    0    0  0.25749990091E+02  0.26141130907E+02  0.30575650945E+01  0.54367225713E+02  0.40000322657E+02 0.  0.
        -12    1    3    3    0    0 -0.25749990091E+02 -0.26141130907E+02 -0.30575650945E+01  0.36820774287E+02  0.00000000000E+00 0.  1.
         11    1    4    4    0    0 -0.22827709374E+01  0.65277905675E+01 -0.17809906250E+01  0.71410798003E+01  0.51100000000E-03 0. -1.
        -11    1    4    4    0    0 -0.52397576957E+01 -0.34763831348E+01  0.21192460569E+01  0.66356238984E+01  0.51100000000E-03 0.  1.
         12    1    4    4    0    0  0.33272518724E+02  0.23089723474E+02  0.27193096625E+01  0.40590522014E+02  0.00000000000E+00 0. -1.
</event>
<event>
 8    1  0.1210161E-006  0.9118800E+02  0.7816164E-02  0.1184000E+00
        -11   -1    0    0    0    0  0.00000000000E+00  0.00000000000E+00  0.45593999997E+02  0.45594000000E+02  0.51100000000E-03 0.  1.
         11   -1    0    0    0    0 -0.00000000000E+00 -0.00000000000E+00 -0.45593999997E+02  0.45594000000E+02  0.51100000000E-03 0. -1.
         23    2    1    2    0    0  0.00000000000E+00  0.00000000000E+00  0.00000000000E+00  0.91188000000E+02  0.91188000000E+02 0.  0.
    9900012    2    3    3    0    0  0.67132004882E+01  0.16866937800E+02 -0.32034584794E+02  0.54367146201E+02  0.40000141395E+02 0.  0.
        -12    1    3    3    0    0 -0.67132004882E+01 -0.16866937800E+02  0.32034584794E+02  0.36820853799E+02  0.00000000000E+00 0.  1.
         11    1    4    4    0    0  0.12965390615E+02 -0.33450930526E-01 -0.31221384855E+02  0.33806468986E+02  0.51100000000E-03 0. -1.
        -11    1    4    4    0    0 -0.35970301325E+01  0.12158606966E+01  0.21734963928E+01  0.43750462670E+01  0.51100000000E-03 0.  1.
         12    1    4    4    0    0 -0.26551599945E+01  0.15684528033E+02 -0.29866963324E+01  0.16185630949E+02  0.00000000000E+00 0. -1.
</event>
<event>
 8    1  0.1210161E-006  0.9118800E+02  0.7816164E-02  0.1184000E+00
        -11   -1    0    0    0    0  0.00000000000E+00  0.00000000000E+00  0.45593999997E+02  0.45594000000E+02  0.51100000000E-03 0.  1.
         11   -1    0    0    0    0 -0.00000000000E+00 -0.00000000000E+00 -0.45593999997E+02  0.45594000000E+02  0.51100000000E-03 0. -1.
         23    2    1    2    0    0  0.00000000000E+00  0.88817841970E-15 -0.35527136788E-14  0.91188000000E+02  0.91188000000E+02 0.  0.
    9900012    2    3    3    0    0 -0.30158342026E+02 -0.36724668351E+01 -0.20803141878E+02  0.54367036971E+02  0.39999892383E+02 0.  0.
        -12    1    3    3    0    0  0.30158342026E+02  0.36724668351E+01  0.20803141878E+02  0.36820963029E+02  0.00000000000E+00 0.  1.
         11    1    4    4    0    0 -0.37676942805E+02 -0.11120496648E+02 -0.15063963825E+02  0.42073037343E+02  0.51100000000E-03 0. -1.
        -11    1    4    4    0    0  0.23237280544E+01  0.28183984033E+01 -0.32932173372E+01  0.49181665610E+01  0.51100000000E-03 0.  1.
         12    1    4    4    0    0  0.51948727251E+01  0.46296314096E+01 -0.24459607154E+01  0.73758330675E+01  0.00000000000E+00 0. -1.
</event>
<event>
 8    1  0.1210161E-006  0.9118800E+02  0.7816164E-02  0.1184000E+00
        -11   -1    0    0    0    0  0.00000000000E+00  0.00000000000E+00  0.45593999997E+02  0.45594000000E+02  0.51100000000E-03 0.  1.
         11   -1    0    0    0    0 -0.00000000000E+00 -0.00000000000E+00 -0.45593999997E+02  0.45594000000E+02  0.51100000000E-03 0. -1.
         23    2    1    2    0    0  0.17763568394E-14  0.00000000000E+00 -0.35527136788E-14  0.91188000000E+02  0.91188000000E+02 0.  0.
    9900012    2    3    3    0    0  0.15745957480E+02  0.22515833152E+02  0.24512887406E+02  0.54367087892E+02  0.40000008467E+02 0.  0.
         12    1    3    3    0    0 -0.15745957480E+02 -0.22515833152E+02 -0.24512887406E+02  0.36820912108E+02  0.00000000000E+00 0. -1.
         11    1    4    4    0    0  0.12297973333E+02  0.35543852735E+01  0.87066772241E+01  0.15481602996E+02  0.51100000000E-03 0. -1.
        -11    1    4    4    0    0  0.45980196862E+01 -0.18814174429E+01 -0.66008838250E+01  0.82615485328E+01  0.51100000000E-03 0.  1.
        -12    1    4    4    0    0 -0.11500355396E+01  0.20842865322E+02  0.22407094006E+02  0.30623936363E+02  0.00000000000E+00 0.  1.
</event>
<event>
 8    1  0.1210161E-006  0.9118800E+02  0.7816164E-02  0.1184000E+00
        -11   -1    0    0    0    0  0.00000000000E+00  0.00000000000E+00  0.45593999997E+02  0.45594000000E+02  0.51100000000E-03 0.  1.
         11   -1    0    0    0    0 -0.00000000000E+00 -0.00000000000E+00 -0.45593999997E+02  0.45594000000E+02  0.51100000000E-03 0. -1.
         23    2    1    2    0    0 -0.35527136788E-14  0.00000000000E+00  0.17763568394E-14  0.91188000000E+02  0.91188000000E+02 0.  0.
    9900012    2    3    3    0    0  0.12711728433E+02  0.31326954528E+02 -0.14588051952E+02  0.54367117616E+02  0.40000076230E+02 0.  0.
         12    1    3    3    0    0 -0.12711728433E+02 -0.31326954528E+02  0.14588051952E+02  0.36820882384E+02  0.00000000000E+00 0. -1.
         11    1    4    4    0    0 -0.31481176132E+00 -0.41806451628E+01 -0.70823860182E+00  0.42518822421E+01  0.51100000000E-03 0. -1.
        -11    1    4    4    0    0 -0.70531949883E+01 -0.34481645278E+00 -0.19375749948E+01  0.73226125836E+01  0.51100000000E-03 0.  1.
        -12    1    4    4    0    0  0.20079735182E+02  0.35852416144E+02 -0.11942238355E+02  0.42792622790E+02  0.00000000000E+00 0.  1.
</event>
<event>
 8    1  0.1210161E-006  0.9118800E+02  0.7816164E-02  0.1184000E+00
        -11   -1    0    0    0    0  0.00000000000E+00  0.00000000000E+00  0.45593999997E+02  0.45594000000E+02  0.51100000000E-03 0. -1.
         11   -1    0    0    0    0 -0.00000000000E+00 -0.00000000000E+00 -0.45593999997E+02  0.45594000000E+02  0.51100000000E-03 0.  1.
         23    2    1    2    0    0  0.22204460493E-15 -0.35527136788E-14 -0.35527136788E-14  0.91188000000E+02  0.91188000000E+02 0.  0.
    9900012    2    3    3    0    0 -0.72903399135E+00  0.24655584227E+02  0.27337818652E+02  0.54367005272E+02  0.39999820118E+02 0.  0.
        -12    1    3    3    0    0  0.72903399135E+00 -0.24655584227E+02 -0.27337818652E+02  0.36820994728E+02  0.00000000000E+00 0.  1.
         11    1    4    4    0    0 -0.32128980174E+01  0.19359309340E+02  0.28878009446E+02  0.34914824955E+02  0.51100000000E-03 0. -1.
        -11    1    4    4    0    0  0.39174352231E+01  0.11783356019E+02 -0.27012524748E+01  0.12707892941E+02  0.51100000000E-03 0.  1.
        -12    1    4    4    0    0 -0.14335711970E+01 -0.64870811317E+01  0.11610616801E+01  0.67442873761E+01  0.00000000000E+00 0.  1.
</event>
<event>
 8    1  0.1210161E-006  0.9118800E+02  0.7816164E-02  0.1184000E+00
        -11   -1    0    0    0    0  0.00000000000E+00  0.00000000000E+00  0.45593999997E+02  0.45594000000E+02  0.51100000000E-03 0.  1.
         11   -1    0    0    0    0 -0.00000000000E+00 -0.00000000000E+00 -0.45593999997E+02  0.45594000000E+02  0.51100000000E-03 0. -1.
         23    2    1    2    0    0  0.35527136788E-14  0.35527136788E-14  0.00000000000E+00  0.91188000000E+02  0.91188000000E+02 0.  0.
    9900012    2    3    3    0    0  0.29073542585E+02  0.19567082068E+02  0.11297849360E+02  0.54367041576E+02  0.39999902882E+02 0.  0.
         12    1    3    3    0    0 -0.29073542585E+02 -0.19567082068E+02 -0.11297849360E+02  0.36820958424E+02  0.00000000000E+00 0. -1.
         11    1    4    4    0    0  0.62788341207E+01 -0.52622458035E+01  0.12937214660E+02  0.15312952433E+02  0.51100000000E-03 0.  1.
        -11    1    4    4    0    0  0.10638102132E+02  0.28859989168E+01 -0.74500629504E+01  0.13304196516E+02  0.51100000000E-03 0. -1.
        -12    1    4    4    0    0  0.12156606332E+02  0.21943328955E+02  0.58106976505E+01  0.25749892627E+02  0.00000000000E+00 0.  1.
</event>
<event>
 8    1  0.1210161E-006  0.9118800E+02  0.7816164E-02  0.1184000E+00
        -11   -1    0    0    0    0  0.00000000000E+00  0.00000000000E+00  0.45593999997E+02  0.45594000000E+02  0.51100000000E-03 0.  1.
         11   -1    0    0    0    0 -0.00000000000E+00 -0.00000000000E+00 -0.45593999997E+02  0.45594000000E+02  0.51100000000E-03 0. -1.
         23    2    1    2    0    0  0.00000000000E+00  0.00000000000E+00  0.17763568394E-14  0.91188000000E+02  0.91188000000E+02 0.  0.
    9900012    2    3    3    0    0 -0.29485714543E+02  0.16978947538E+02 -0.14074362349E+02  0.54367086145E+02  0.40000004484E+02 0.  0.
        -12    1    3    3    0    0  0.29485714543E+02 -0.16978947538E+02  0.14074362349E+02  0.36820913855E+02  0.00000000000E+00 0.  1.
         11    1    4    4    0    0 -0.13143716250E+02  0.39542745111E+01 -0.12875413167E+02  0.18819400316E+02  0.51100000000E-03 0. -1.
        -11    1    4    4    0    0  0.82257860344E+01  0.14183221657E+01  0.55899414400E-01  0.83473539913E+01  0.51100000000E-03 0.  1.
         12    1    4    4    0    0 -0.24567784327E+02  0.11606350861E+02 -0.12548485965E+01  0.27200331837E+02  0.00000000000E+00 0. -1.
</event>
<event>
 8    1  0.1210161E-006  0.9118800E+02  0.7816164E-02  0.1184000E+00
        -11   -1    0    0    0    0  0.00000000000E+00  0.00000000000E+00  0.45593999997E+02  0.45594000000E+02  0.51100000000E-03 0. -1.
         11   -1    0    0    0    0 -0.00000000000E+00 -0.00000000000E+00 -0.45593999997E+02  0.45594000000E+02  0.51100000000E-03 0.  1.
         23    2    1    2    0    0  0.00000000000E+00  0.44408920985E-15 -0.35527136788E-14  0.91188000000E+02  0.91188000000E+02 0.  0.
    9900012    2    3    3    0    0  0.23703415627E+02 -0.36116652183E+01  0.27944327575E+02  0.54367061912E+02  0.39999949241E+02 0.  0.
        -12    1    3    3    0    0 -0.23703415627E+02  0.36116652183E+01 -0.27944327575E+02  0.36820938088E+02  0.00000000000E+00 0.  1.
         11    1    4    4    0    0  0.75742491186E+01  0.11100818654E+02  0.19012882488E+02  0.23282764554E+02  0.51100000000E-03 0. -1.
        -11    1    4    4    0    0  0.13933971595E+02  0.34505127318E+00  0.11292000013E+01  0.13983909242E+02  0.51100000000E-03 0.  1.
        -12    1    4    4    0    0  0.21951949137E+01 -0.15057535145E+02  0.78022450853E+01  0.17100388116E+02  0.00000000000E+00 0.  1.
</event>
<event>
 8    1  0.1210161E-006  0.9118800E+02  0.7816164E-02  0.1184000E+00
        -11   -1    0    0    0    0  0.00000000000E+00  0.00000000000E+00  0.45593999997E+02  0.45594000000E+02  0.51100000000E-03 0. -1.
         11   -1    0    0    0    0 -0.00000000000E+00 -0.00000000000E+00 -0.45593999997E+02  0.45594000000E+02  0.51100000000E-03 0.  1.
         23    2    1    2    0    0  0.00000000000E+00 -0.35527136788E-14  0.00000000000E+00  0.91188000000E+02  0.91188000000E+02 0.  0.
    9900012    2    3    3    0    0  0.25224928027E+02 -0.16015954419E+02 -0.21516808846E+02  0.54367070452E+02  0.39999968709E+02 0.  0.
         12    1    3    3    0    0 -0.25224928027E+02  0.16015954419E+02  0.21516808846E+02  0.36820929548E+02  0.00000000000E+00 0. -1.
         11    1    4    4    0    0  0.12360891225E+02 -0.24361519009E+00  0.41214232592E+01  0.13032156774E+02  0.51100000000E-03 0.  1.
        -11    1    4    4    0    0 -0.52675384481E+01  0.29027533185E+01 -0.25177573865E+01  0.65201258154E+01  0.51100000000E-03 0. -1.
         12    1    4    4    0    0  0.18131575250E+02 -0.18675092547E+02 -0.23120474718E+02  0.34814787862E+02  0.00000000000E+00 0. -1.
</event>
<event>
 8    1  0.1210161E-006  0.9118800E+02  0.7816164E-02  0.1184000E+00
        -11   -1    0    0    0    0  0.00000000000E+00  0.00000000000E+00  0.45593999997E+02  0.45594000000E+02  0.51100000000E-03 0. -1.
         11   -1    0    0    0    0 -0.00000000000E+00 -0.00000000000E+00 -0.45593999997E+02  0.45594000000E+02  0.51100000000E-03 0.  1.
         23    2    1    2    0    0  0.33306690739E-15  0.35527136788E-14  0.35527136788E-14  0.91188000000E+02  0.91188000000E+02 0.  0.
    9900012    2    3    3    0    0  0.30514644654E+00  0.30326109348E+02 -0.20880891363E+02  0.54367113989E+02  0.40000067961E+02 0.  0.
         12    1    3    3    0    0 -0.30514644654E+00 -0.30326109348E+02  0.20880891363E+02  0.36820886011E+02  0.00000000000E+00 0. -1.
         11    1    4    4    0    0 -0.51152019094E+01  0.37794662062E+01  0.15375800027E+01  0.65432261082E+01  0.51100000000E-03 0. -1.
        -11    1    4    4    0    0  0.53502109584E+01  0.32099534291E+02 -0.25616901050E+02  0.41415341102E+02  0.51100000000E-03 0.  1.
         12    1    4    4    0    0  0.70137397553E-01 -0.55528911489E+01  0.31984296843E+01  0.64085467784E+01  0.00000000000E+00 0. -1.
</event>
<event>
 8    1  0.1210161E-006  0.9118800E+02  0.7816164E-02  0.1184000E+00
        -11   -1    0    0    0    0  0.00000000000E+00  0.00000000000E+00  0.45593999997E+02  0.45594000000E+02  0.51100000000E-03 0.  1.
         11   -1    0    0    0    0 -0.00000000000E+00 -0.00000000000E+00 -0.45593999997E+02  0.45594000000E+02  0.51100000000E-03 0. -1.
         23    2    1    2    0    0  0.00000000000E+00  0.00000000000E+00  0.00000000000E+00  0.91188000000E+02  0.91188000000E+02 0.  0.
    9900012    2    3    3    0    0  0.10123376013E+02  0.74309575115E+01  0.34613268165E+02  0.54367079255E+02  0.39999988778E+02 0.  0.
         12    1    3    3    0    0 -0.10123376013E+02 -0.74309575115E+01 -0.34613268165E+02  0.36820920745E+02  0.00000000000E+00 0. -1.
         11    1    4    4    0    0 -0.96980480460E+01  0.95801609055E+01  0.32012834284E+01  0.14002850950E+02  0.51100000000E-03 0. -1.
        -11    1    4    4    0    0  0.82298425366E+01 -0.60945581127E+01  0.53160175813E+01  0.11538370334E+02  0.51100000000E-03 0.  1.
         12    1    4    4    0    0  0.11591581522E+02  0.39453547187E+01  0.26095967155E+02  0.28825857972E+02  0.00000000000E+00 0. -1.
</event>
<event>
 8    1  0.1210161E-006  0.9118800E+02  0.7816164E-02  0.1184000E+00
        -11   -1    0    0    0    0  0.00000000000E+00  0.00000000000E+00  0.45593999997E+02  0.45594000000E+02  0.51100000000E-03 0.  1.
         11   -1    0    0    0    0 -0.00000000000E+00 -0.00000000000E+00 -0.45593999997E+02  0.45594000000E+02  0.51100000000E-03 0. -1.
         23    2    1    2    0    0 -0.35527136788E-14  0.00000000000E+00  0.17763568394E-14  0.91188000000E+02  0.91188000000E+02 0.  0.
    9900012    2    3    3    0    0 -0.27089751292E+02  0.19708544955E+02  0.15280681752E+02  0.54367073829E+02  0.39999976407E+02 0.  0.
         12    1    3    3    0    0  0.27089751292E+02 -0.19708544955E+02 -0.15280681752E+02  0.36820926171E+02  0.00000000000E+00 0. -1.
         11    1    4    4    0    0 -0.23105333781E+02  0.44713552881E+01  0.13569982408E+02  0.27166042960E+02  0.51100000000E-03 0.  1.
        -11    1    4    4    0    0  0.61163504582E+01  0.13329053684E+02  0.62779767645E+01  0.15952630114E+02  0.51100000000E-03 0. -1.
        -12    1    4    4    0    0 -0.10100767969E+02  0.19081359826E+01 -0.45672774210E+01  0.11248400754E+02  0.00000000000E+00 0.  1.
</event>
<event>
 8    1  0.1210161E-006  0.9118800E+02  0.7816164E-02  0.1184000E+00
        -11   -1    0    0    0    0  0.00000000000E+00  0.00000000000E+00  0.45593999997E+02  0.45594000000E+02  0.51100000000E-03 0.  1.
         11   -1    0    0    0    0 -0.00000000000E+00 -0.00000000000E+00 -0.45593999997E+02  0.45594000000E+02  0.51100000000E-03 0. -1.
         23    2    1    2    0    0 -0.35527136788E-14  0.00000000000E+00  0.00000000000E+00  0.91188000000E+02  0.91188000000E+02 0.  0.
    9900012    2    3    3    0    0 -0.23241096927E+02 -0.15235617757E+02 -0.24155893800E+02  0.54367084204E+02  0.40000000059E+02 0.  0.
        -12    1    3    3    0    0  0.23241096927E+02  0.15235617757E+02  0.24155893800E+02  0.36820915796E+02  0.00000000000E+00 0.  1.
         11    1    4    4    0    0 -0.31129211206E+01  0.26176107026E+01 -0.26077762853E+01  0.48314243354E+01  0.51100000000E-03 0. -1.
        -11    1    4    4    0    0  0.41995106464E+01  0.78704773631E+01 -0.21982242077E+01  0.91876271975E+01  0.51100000000E-03 0.  1.
         12    1    4    4    0    0 -0.24327686453E+02 -0.25723705823E+02 -0.19349893307E+02  0.40348032671E+02  0.00000000000E+00 0. -1.
</event>
<event>
 8    1  0.1210161E-006  0.9118800E+02  0.7816164E-02  0.1184000E+00
        -11   -1    0    0    0    0  0.00000000000E+00  0.00000000000E+00  0.45593999997E+02  0.45594000000E+02  0.51100000000E-03 0.  1.
         11   -1    0    0    0    0 -0.00000000000E+00 -0.00000000000E+00 -0.45593999997E+02  0.45594000000E+02  0.51100000000E-03 0. -1.
         23    2    1    2    0    0  0.00000000000E+00  0.00000000000E+00  0.00000000000E+00  0.91188000000E+02  0.91188000000E+02 0.  0.
    9900012    2    3    3    0    0 -0.16675497979E+02  0.22414577973E+02  0.23985269100E+02  0.54367100060E+02  0.40000036207E+02 0.  0.
         12    1    3    3    0    0  0.16675497979E+02 -0.22414577973E+02 -0.23985269100E+02  0.36820899940E+02  0.00000000000E+00 0. -1.
         11    1    4    4    0    0 -0.30528724099E+01 -0.67060553682E+01  0.15294450790E+01  0.75253180041E+01  0.51100000000E-03 0. -1.
        -11    1    4    4    0    0 -0.14216306251E+02  0.33338035623E+02  0.22353104675E+02  0.42581560228E+02  0.51100000000E-03 0.  1.
        -12    1    4    4    0    0  0.59368068213E+00 -0.42174022816E+01  0.10271934651E+00  0.42602218277E+01  0.00000000000E+00 0.  1.
</event>
<event>
 8    1  0.1210161E-006  0.9118800E+02  0.7816164E-02  0.1184000E+00
        -11   -1    0    0    0    0  0.00000000000E+00  0.00000000000E+00  0.45593999997E+02  0.45594000000E+02  0.51100000000E-03 0. -1.
         11   -1    0    0    0    0 -0.00000000000E+00 -0.00000000000E+00 -0.45593999997E+02  0.45594000000E+02  0.51100000000E-03 0.  1.
         23    2    1    2    0    0 -0.35527136788E-14  0.35527136788E-14  0.35527136788E-14  0.91188000000E+02  0.91188000000E+02 0.  0.
    9900012    2    3    3    0    0 -0.27567751223E+02  0.95299816707E+01  0.22471713824E+02  0.54367090447E+02  0.40000014293E+02 0.  0.
         12    1    3    3    0    0  0.27567751223E+02 -0.95299816707E+01 -0.22471713824E+02  0.36820909553E+02  0.00000000000E+00 0. -1.
         11    1    4    4    0    0 -0.98376811897E+01 -0.59821649278E+01 -0.94325416524E+00  0.11552315659E+02  0.51100000000E-03 0. -1.
        -11    1    4    4    0    0 -0.17118925360E+02 -0.28069242044E+01  0.13457394945E+02  0.21955361713E+02  0.51100000000E-03 0.  1.
         12    1    4    4    0    0 -0.61114467256E+00  0.18319070803E+02  0.99575730435E+01  0.20859413074E+02  0.00000000000E+00 0. -1.
</event>
<event>
 8    1  0.1210161E-006  0.9118800E+02  0.7816164E-02  0.1184000E+00
        -11   -1    0    0    0    0  0.00000000000E+00  0.00000000000E+00  0.45593999997E+02  0.45594000000E+02  0.51100000000E-03 0. -1.
         11   -1    0    0    0    0 -0.00000000000E+00 -0.00000000000E+00 -0.45593999997E+02  0.45594000000E+02  0.51100000000E-03 0.  1.
         23    2    1    2    0    0  0.00000000000E+00  0.71054273576E-14  0.00000000000E+00  0.91188000000E+02  0.91188000000E+02 0.  0.
    9900012    2    3    3    0    0 -0.59272435944E+01  0.31550080357E+02 -0.18034484300E+02  0.54367049291E+02  0.39999920468E+02 0.  0.
         12    1    3    3    0    0  0.59272435944E+01 -0.31550080357E+02  0.18034484300E+02  0.36820950709E+02  0.00000000000E+00 0. -1.
         11    1    4    4    0    0 -0.70351856873E+01  0.36920790657E+01  0.56496176009E+00  0.79652035462E+01  0.51100000000E-03 0. -1.
        -11    1    4    4    0    0 -0.81302549999E+00  0.61153771682E+01  0.91878099818E+01  0.11066828855E+02  0.51100000000E-03 0.  1.
        -12    1    4    4    0    0  0.19209675928E+01  0.21742624123E+02 -0.27787256042E+02  0.35335016890E+02  0.00000000000E+00 0.  1.
</event>
<event>
 8    1  0.1210161E-006  0.9118800E+02  0.7816164E-02  0.1184000E+00
        -11   -1    0    0    0    0  0.00000000000E+00  0.00000000000E+00  0.45593999997E+02  0.45594000000E+02  0.51100000000E-03 0.  1.
         11   -1    0    0    0    0 -0.00000000000E+00 -0.00000000000E+00 -0.45593999997E+02  0.45594000000E+02  0.51100000000E-03 0. -1.
         23    2    1    2    0    0  0.00000000000E+00  0.35527136788E-14  0.00000000000E+00  0.91188000000E+02  0.91188000000E+02 0.  0.
    9900012    2    3    3    0    0  0.98023793629E+01  0.27779826781E+02 -0.22090097445E+02  0.54367111603E+02  0.40000062522E+02 0.  0.
        -12    1    3    3    0    0 -0.98023793629E+01 -0.27779826781E+02  0.22090097445E+02  0.36820888397E+02  0.00000000000E+00 0.  1.
         11    1    4    4    0    0  0.39177596260E+01  0.30219172875E+01 -0.16736515759E+02  0.17452558110E+02  0.51100000000E-03 0. -1.
        -11    1    4    4    0    0  0.12587348779E+02  0.23590591391E+02 -0.10139096354E+02  0.28596479269E+02  0.51100000000E-03 0.  1.
        -12    1    4    4    0    0 -0.67027290422E+01  0.11673181025E+01  0.47855146671E+01  0.83180742239E+01  0.00000000000E+00 0.  1.
</event>
<event>
 8    1  0.1210161E-006  0.9118800E+02  0.7816164E-02  0.1184000E+00
        -11   -1    0    0    0    0  0.00000000000E+00  0.00000000000E+00  0.45593999997E+02  0.45594000000E+02  0.51100000000E-03 0. -1.
         11   -1    0    0    0    0 -0.00000000000E+00 -0.00000000000E+00 -0.45593999997E+02  0.45594000000E+02  0.51100000000E-03 0.  1.
         23    2    1    2    0    0  0.00000000000E+00  0.00000000000E+00 -0.17763568394E-14  0.91188000000E+02  0.91188000000E+02 0.  0.
    9900012    2    3    3    0    0 -0.33254398075E+02 -0.53193374605E+01 -0.14887234579E+02  0.54367080731E+02  0.39999992143E+02 0.  0.
         12    1    3    3    0    0  0.33254398075E+02  0.53193374605E+01  0.14887234579E+02  0.36820919269E+02  0.00000000000E+00 0. -1.
         11    1    4    4    0    0 -0.62583676992E+00  0.68525314181E+01 -0.91442841371E+01  0.11444072315E+02  0.51100000000E-03 0. -1.
        -11    1    4    4    0    0 -0.12209528791E+02  0.49690234366E+01  0.51113563434E+01  0.14138237200E+02  0.51100000000E-03 0.  1.
        -12    1    4    4    0    0 -0.20419032515E+02 -0.17140892315E+02 -0.10854306785E+02  0.28784771216E+02  0.00000000000E+00 0.  1.
</event>
<event>
 8    1  0.1210161E-006  0.9118800E+02  0.7816164E-02  0.1184000E+00
        -11   -1    0    0    0    0  0.00000000000E+00  0.00000000000E+00  0.45593999997E+02  0.45594000000E+02  0.51100000000E-03 0. -1.
         11   -1    0    0    0    0 -0.00000000000E+00 -0.00000000000E+00 -0.45593999997E+02  0.45594000000E+02  0.51100000000E-03 0.  1.
         23    2    1    2    0    0 -0.26645352591E-14  0.00000000000E+00  0.35527136788E-14  0.91188000000E+02  0.91188000000E+02 0.  0.
    9900012    2    3    3    0    0  0.19701346329E+01  0.32879293375E+02 -0.16457533989E+02  0.54367084907E+02  0.40000001662E+02 0.  0.
         12    1    3    3    0    0 -0.19701346329E+01 -0.32879293375E+02  0.16457533989E+02  0.36820915093E+02  0.00000000000E+00 0. -1.
         11    1    4    4    0    0 -0.84413549582E+01  0.25243849432E+01 -0.36769511049E+01  0.95471965812E+01  0.51100000000E-03 0.  1.
        -11    1    4    4    0    0 -0.52192545443E+01  0.26277616367E+02 -0.74111686781E+01  0.27797107069E+02  0.51100000000E-03 0. -1.
         12    1    4    4    0    0  0.15630744135E+02  0.40772920640E+01 -0.53694142064E+01  0.17022781257E+02  0.00000000000E+00 0. -1.
</event>
<event>
 8    1  0.1210161E-006  0.9118800E+02  0.7816164E-02  0.1184000E+00
        -11   -1    0    0    0    0  0.00000000000E+00  0.00000000000E+00  0.45593999997E+02  0.45594000000E+02  0.51100000000E-03 0. -1.
         11   -1    0    0    0    0 -0.00000000000E+00 -0.00000000000E+00 -0.45593999997E+02  0.45594000000E+02  0.51100000000E-03 0.  1.
         23    2    1    2    0    0  0.00000000000E+00  0.00000000000E+00  0.17763568394E-14  0.91188000000E+02  0.91188000000E+02 0.  0.
    9900012    2    3    3    0    0 -0.28657203920E+02 -0.19481520001E+02 -0.12450525507E+02  0.54367074652E+02  0.39999978285E+02 0.  0.
        -12    1    3    3    0    0  0.28657203920E+02  0.19481520001E+02  0.12450525507E+02  0.36820925348E+02  0.00000000000E+00 0.  1.
         11    1    4    4    0    0 -0.15337363819E+02 -0.17665066873E+02 -0.41317605721E+01  0.23756278375E+02  0.51100000000E-03 0. -1.
        -11    1    4    4    0    0 -0.12476117430E+02 -0.13128431171E+02 -0.48589941999E+01  0.18751507567E+02  0.51100000000E-03 0.  1.
        -12    1    4    4    0    0 -0.84372267158E+00  0.11311978043E+02 -0.34597707346E+01  0.11859288711E+02  0.00000000000E+00 0.  1.
</event>
<event>
 8    1  0.1210161E-006  0.9118800E+02  0.7816164E-02  0.1184000E+00
        -11   -1    0    0    0    0  0.00000000000E+00  0.00000000000E+00  0.45593999997E+02  0.45594000000E+02  0.51100000000E-03 0.  1.
         11   -1    0    0    0    0 -0.00000000000E+00 -0.00000000000E+00 -0.45593999997E+02  0.45594000000E+02  0.51100000000E-03 0. -1.
         23    2    1    2    0    0 -0.35527136788E-14  0.17763568394E-14  0.00000000000E+00  0.91188000000E+02  0.91188000000E+02 0.  0.
    9900012    2    3    3    0    0 -0.27414588639E+02 -0.51852305027E+01  0.24027776974E+02  0.54367077253E+02  0.39999984214E+02 0.  0.
         12    1    3    3    0    0  0.27414588639E+02  0.51852305027E+01 -0.24027776974E+02  0.36820922747E+02  0.00000000000E+00 0. -1.
         11    1    4    4    0    0 -0.95190524818E+01 -0.16831507654E+02  0.18168672510E+01  0.19421972530E+02  0.51100000000E-03 0. -1.
        -11    1    4    4    0    0 -0.11083197182E+02  0.42075232678E+01  0.21841710052E+02  0.24851575606E+02  0.51100000000E-03 0.  1.
        -12    1    4    4    0    0 -0.68123389751E+01  0.74387538839E+01  0.36919967115E+00  0.10093529118E+02  0.00000000000E+00 0.  1.
</event>
<event>
 8    1  0.1210161E-006  0.9118800E+02  0.7816164E-02  0.1184000E+00
        -11   -1    0    0    0    0  0.00000000000E+00  0.00000000000E+00  0.45593999997E+02  0.45594000000E+02  0.51100000000E-03 0.  1.
         11   -1    0    0    0    0 -0.00000000000E+00 -0.00000000000E+00 -0.45593999997E+02  0.45594000000E+02  0.51100000000E-03 0. -1.
         23    2    1    2    0    0  0.00000000000E+00  0.88817841970E-15  0.00000000000E+00  0.91188000000E+02  0.91188000000E+02 0.  0.
    9900012    2    3    3    0    0 -0.33804628574E+02  0.46963658733E+01 -0.13819217298E+02  0.54367088385E+02  0.40000009592E+02 0.  0.
         12    1    3    3    0    0  0.33804628574E+02 -0.46963658733E+01  0.13819217298E+02  0.36820911615E+02  0.00000000000E+00 0. -1.
         11    1    4    4    0    0 -0.31105709969E+02  0.53864550250E+01 -0.23942176008E+02  0.39620788516E+02  0.51100000000E-03 0. -1.
        -11    1    4    4    0    0 -0.57643319937E+01  0.19491854009E+01  0.35977169320E+01  0.70689754876E+01  0.51100000000E-03 0.  1.
         12    1    4    4    0    0  0.30654133887E+01 -0.26392745526E+01  0.65252417775E+01  0.76773243818E+01  0.00000000000E+00 0. -1.
</event>
<event>
 8    1  0.1210161E-006  0.9118800E+02  0.7816164E-02  0.1184000E+00
        -11   -1    0    0    0    0  0.00000000000E+00  0.00000000000E+00  0.45593999997E+02  0.45594000000E+02  0.51100000000E-03 0.  1.
         11   -1    0    0    0    0 -0.00000000000E+00 -0.00000000000E+00 -0.45593999997E+02  0.45594000000E+02  0.51100000000E-03 0. -1.
         23    2    1    2    0    0 -0.17763568394E-14  0.00000000000E+00  0.88817841970E-15  0.91188000000E+02  0.91188000000E+02 0.  0.
    9900012    2    3    3    0    0  0.10658946951E+02  0.34881296183E+02 -0.50459913314E+01  0.54367082005E+02  0.39999995046E+02 0.  0.
        -12    1    3    3    0    0 -0.10658946951E+02 -0.34881296183E+02  0.50459913314E+01  0.36820917995E+02  0.00000000000E+00 0.  1.
         11    1    4    4    0    0  0.78416673482E+01  0.67640117469E+01 -0.30092400845E+01  0.10784207336E+02  0.51100000000E-03 0. -1.
        -11    1    4    4    0    0  0.17623295220E+01  0.11094384488E+00 -0.13271683930E+02  0.13388641025E+02  0.51100000000E-03 0.  1.
        -12    1    4    4    0    0  0.10549500806E+01  0.28006340591E+02  0.11234932683E+02  0.30194233644E+02  0.00000000000E+00 0.  1.
</event>
<event>
 8    1  0.1210161E-006  0.9118800E+02  0.7816164E-02  0.1184000E+00
        -11   -1    0    0    0    0  0.00000000000E+00  0.00000000000E+00  0.45593999997E+02  0.45594000000E+02  0.51100000000E-03 0.  1.
         11   -1    0    0    0    0 -0.00000000000E+00 -0.00000000000E+00 -0.45593999997E+02  0.45594000000E+02  0.51100000000E-03 0. -1.
         23    2    1    2    0    0  0.00000000000E+00 -0.17763568394E-14 -0.71054273576E-14  0.91188000000E+02  0.91188000000E+02 0.  0.
    9900012    2    3    3    0    0  0.98429958166E+01  0.10296852795E+02  0.33953932639E+02  0.54367091731E+02  0.40000017218E+02 0.  0.
         12    1    3    3    0    0 -0.98429958166E+01 -0.10296852795E+02 -0.33953932639E+02  0.36820908269E+02  0.00000000000E+00 0. -1.
         11    1    4    4    0    0  0.86995582989E+01 -0.32810514783E+01  0.33513690023E+02  0.34779520305E+02  0.51100000000E-03 0. -1.
        -11    1    4    4    0    0  0.15478555511E+01  0.53930060888E+01  0.70847889570E+01  0.90374004176E+01  0.51100000000E-03 0.  1.
         12    1    4    4    0    0 -0.40441803342E+00  0.81848981842E+01 -0.66445463410E+01  0.10550171009E+02  0.00000000000E+00 0. -1.
</event>
<event>
 8    1  0.1210161E-006  0.9118800E+02  0.7816164E-02  0.1184000E+00
        -11   -1    0    0    0    0  0.00000000000E+00  0.00000000000E+00  0.45593999997E+02  0.45594000000E+02  0.51100000000E-03 0.  1.
         11   -1    0    0    0    0 -0.00000000000E+00 -0.00000000000E+00 -0.45593999997E+02  0.45594000000E+02  0.51100000000E-03 0. -1.
         23    2    1    2    0    0  0.35527136788E-14  0.00000000000E+00 -0.17763568394E-14  0.91188000000E+02  0.91188000000E+02 0.  0.
    9900012    2    3    3    0    0  0.25000204978E+02 -0.25674248349E+02  0.84618072520E+01  0.54367089375E+02  0.40000011849E+02 0.  0.
         12    1    3    3    0    0 -0.25000204978E+02  0.25674248349E+02 -0.84618072520E+01  0.36820910625E+02  0.00000000000E+00 0. -1.
         11    1    4    4    0    0 -0.78066456783E+01 -0.14001878097E+02 -0.33184631688E+01  0.16370965306E+02  0.51100000000E-03 0. -1.
        -11    1    4    4    0    0  0.27947011980E+02 -0.77902212387E+01  0.62609139904E+01  0.29680331363E+02  0.51100000000E-03 0.  1.
         12    1    4    4    0    0  0.48598386770E+01 -0.38821490135E+01  0.55193564304E+01  0.83157927064E+01  0.00000000000E+00 0. -1.
</event>
<event>
 8    1  0.1210161E-006  0.9118800E+02  0.7816164E-02  0.1184000E+00
        -11   -1    0    0    0    0  0.00000000000E+00  0.00000000000E+00  0.45593999997E+02  0.45594000000E+02  0.51100000000E-03 0.  1.
         11   -1    0    0    0    0 -0.00000000000E+00 -0.00000000000E+00 -0.45593999997E+02  0.45594000000E+02  0.51100000000E-03 0. -1.
         23    2    1    2    0    0  0.88817841970E-15 -0.35527136788E-14 -0.35527136788E-14  0.91188000000E+02  0.91188000000E+02 0.  0.
    9900012    2    3    3    0    0 -0.62789870020E+01  0.28090000701E+02  0.22963209538E+02  0.54367043882E+02  0.39999908138E+02 0.  0.
         12    1    3    3    0    0  0.62789870020E+01 -0.28090000701E+02 -0.22963209538E+02  0.36820956118E+02  0.00000000000E+00 0. -1.
         11    1    4    4    0    0 -0.27271155035E+01  0.18554199931E+02  0.23610144583E+02  0.30151856021E+02  0.51100000000E-03 0. -1.
        -11    1    4    4    0    0 -0.51977103966E+01  0.13500248259E+01  0.95983307480E+01  0.10998486887E+02  0.51100000000E-03 0.  1.
         12    1    4    4    0    0  0.16458388981E+01  0.81857759432E+01 -0.10245265792E+02  0.13216700973E+02  0.00000000000E+00 0. -1.
</event>
<event>
 8    1  0.1210161E-006  0.9118800E+02  0.7816164E-02  0.1184000E+00
        -11   -1    0    0    0    0  0.00000000000E+00  0.00000000000E+00  0.45593999997E+02  0.45594000000E+02  0.51100000000E-03 0.  1.
         11   -1    0    0    0    0 -0.00000000000E+00 -0.00000000000E+00 -0.45593999997E+02  0.45594000000E+02  0.51100000000E-03 0. -1.
         23    2    1    2    0    0  0.00000000000E+00  0.00000000000E+00  0.00000000000E+00  0.91188000000E+02  0.91188000000E+02 0.  0.
    9900012    2    3    3    0    0  0.22908831525E+02 -0.13704517673E+02 -0.25360426903E+02  0.54367087203E+02  0.40000006897E+02 0.  0.
        -12    1    3    3    0    0 -0.22908831525E+02  0.13704517673E+02  0.25360426903E+02  0.36820912797E+02  0.00000000000E+00 0.  1.
         11    1    4    4    0    0 -0.30573573129E+01 -0.17941244406E+01 -0.24938258455E+02  0.25188947006E+02  0.51100000000E-03 0. -1.
        -11    1    4    4    0    0  0.48008358207E+01 -0.32169743262E+01 -0.23003668156E+01  0.62200189823E+01  0.51100000000E-03 0.  1.
         12    1    4    4    0    0  0.21165353017E+02 -0.86934189066E+01  0.18781983671E+01  0.22958121215E+02  0.00000000000E+00 0. -1.
</event>
<event>
 8    1  0.1210161E-006  0.9118800E+02  0.7816164E-02  0.1184000E+00
        -11   -1    0    0    0    0  0.00000000000E+00  0.00000000000E+00  0.45593999997E+02  0.45594000000E+02  0.51100000000E-03 0.  1.
         11   -1    0    0    0    0 -0.00000000000E+00 -0.00000000000E+00 -0.45593999997E+02  0.45594000000E+02  0.51100000000E-03 0. -1.
         23    2    1    2    0    0 -0.55511151231E-15  0.71054273576E-14  0.00000000000E+00  0.91188000000E+02  0.91188000000E+02 0.  0.
    9900012    2    3    3    0    0 -0.78423678682E+00 -0.36002051696E+02 -0.76822091948E+01  0.54367094365E+02  0.40000023225E+02 0.  0.
         12    1    3    3    0    0  0.78423678682E+00  0.36002051696E+02  0.76822091948E+01  0.36820905635E+02  0.00000000000E+00 0. -1.
         11    1    4    4    0    0 -0.23154497146E+01  0.72637541448E+01 -0.64871948656E+01  0.10010351100E+02  0.51100000000E-03 0. -1.
        -11    1    4    4    0    0  0.41840367003E+01 -0.37575226865E+02  0.64891461432E+00  0.37813025898E+02  0.51100000000E-03 0.  1.
         12    1    4    4    0    0 -0.26528237725E+01 -0.56905789753E+01 -0.18439289435E+01  0.65437173678E+01  0.00000000000E+00 0. -1.
</event>
<event>
 8    1  0.1210161E-006  0.9118800E+02  0.7816164E-02  0.1184000E+00
        -11   -1    0    0    0    0  0.00000000000E+00  0.00000000000E+00  0.45593999997E+02  0.45594000000E+02  0.51100000000E-03 0. -1.
         11   -1    0    0    0    0 -0.00000000000E+00 -0.00000000000E+00 -0.45593999997E+02  0.45594000000E+02  0.51100000000E-03 0.  1.
         23    2    1    2    0    0 -0.35527136788E-14 -0.35527136788E-14 -0.35527136788E-14  0.91188000000E+02  0.91188000000E+02 0.  0.
    9900012    2    3    3    0    0 -0.19412166068E+02 -0.17900866632E+02 -0.25661388361E+02  0.54367081078E+02  0.39999992934E+02 0.  0.
         12    1    3    3    0    0  0.19412166068E+02  0.17900866632E+02  0.25661388361E+02  0.36820918922E+02  0.00000000000E+00 0. -1.
         11    1    4    4    0    0  0.62382137595E+01 -0.14627989148E+01 -0.16852944088E+01  0.66253535060E+01  0.51100000000E-03 0. -1.
        -11    1    4    4    0    0 -0.96623808926E+01  0.33214235413E+01  0.30284668842E+01  0.10656691362E+02  0.51100000000E-03 0.  1.
        -12    1    4    4    0    0 -0.15987998935E+02 -0.19759491259E+02 -0.27004560836E+02  0.37085036210E+02  0.00000000000E+00 0.  1.
</event>
<event>
 8    1  0.1210161E-006  0.9118800E+02  0.7816164E-02  0.1184000E+00
        -11   -1    0    0    0    0  0.00000000000E+00  0.00000000000E+00  0.45593999997E+02  0.45594000000E+02  0.51100000000E-03 0. -1.
         11   -1    0    0    0    0 -0.00000000000E+00 -0.00000000000E+00 -0.45593999997E+02  0.45594000000E+02  0.51100000000E-03 0.  1.
         23    2    1    2    0    0  0.00000000000E+00  0.00000000000E+00  0.35527136788E-14  0.91188000000E+02  0.91188000000E+02 0.  0.
    9900012    2    3    3    0    0  0.32951041721E+02  0.30340025510E+01 -0.16149388668E+02  0.54367094575E+02  0.40000023703E+02 0.  0.
         12    1    3    3    0    0 -0.32951041721E+02 -0.30340025510E+01  0.16149388668E+02  0.36820905425E+02  0.00000000000E+00 0. -1.
         11    1    4    4    0    0  0.37471659894E+01  0.46021046158E+01  0.97392689549E+01  0.11404998022E+02  0.51100000000E-03 0. -1.
        -11    1    4    4    0    0  0.19288718949E+02 -0.91392842949E+01 -0.19657404928E+02  0.29017146050E+02  0.51100000000E-03 0.  1.
         12    1    4    4    0    0  0.99151567825E+01  0.75711822300E+01 -0.62312526948E+01  0.13944950503E+02  0.00000000000E+00 0. -1.
</event>
<event>
 8    1  0.1210161E-006  0.9118800E+02  0.7816164E-02  0.1184000E+00
        -11   -1    0    0    0    0  0.00000000000E+00  0.00000000000E+00  0.45593999997E+02  0.45594000000E+02  0.51100000000E-03 0. -1.
         11   -1    0    0    0    0 -0.00000000000E+00 -0.00000000000E+00 -0.45593999997E+02  0.45594000000E+02  0.51100000000E-03 0.  1.
         23    2    1    2    0    0  0.71054273576E-14  0.88817841970E-15  0.00000000000E+00  0.91188000000E+02  0.91188000000E+02 0.  0.
    9900012    2    3    3    0    0 -0.22487296905E+02  0.68802887304E+01  0.28333066437E+02  0.54367088159E+02  0.40000009075E+02 0.  0.
        -12    1    3    3    0    0  0.22487296905E+02 -0.68802887304E+01 -0.28333066437E+02  0.36820911841E+02  0.00000000000E+00 0.  1.
         11    1    4    4    0    0 -0.25653686139E+02  0.11315247339E+02  0.17390094712E+02  0.32993360380E+02  0.51100000000E-03 0. -1.
        -11    1    4    4    0    0 -0.19759691346E+00  0.46411888967E+00  0.14459579323E+02  0.14468375352E+02  0.51100000000E-03 0.  1.
        -12    1    4    4    0    0  0.33639861469E+01 -0.48990774981E+01 -0.35166075980E+01  0.69053524260E+01  0.00000000000E+00 0.  1.
</event>
<event>
 8    1  0.1210161E-006  0.9118800E+02  0.7816164E-02  0.1184000E+00
        -11   -1    0    0    0    0  0.00000000000E+00  0.00000000000E+00  0.45593999997E+02  0.45594000000E+02  0.51100000000E-03 0. -1.
         11   -1    0    0    0    0 -0.00000000000E+00 -0.00000000000E+00 -0.45593999997E+02  0.45594000000E+02  0.51100000000E-03 0.  1.
         23    2    1    2    0    0 -0.88817841970E-15  0.00000000000E+00 -0.17763568394E-14  0.91188000000E+02  0.91188000000E+02 0.  0.
    9900012    2    3    3    0    0 -0.25961353126E+01  0.34359926497E+02  0.12978271709E+02  0.54367081978E+02  0.39999994986E+02 0.  0.
        -12    1    3    3    0    0  0.25961353126E+01 -0.34359926497E+02 -0.12978271709E+02  0.36820918022E+02  0.00000000000E+00 0.  1.
         11    1    4    4    0    0 -0.10383892178E+01  0.13271815961E+01  0.11486578804E+02  0.11609528674E+02  0.51100000000E-03 0. -1.
        -11    1    4    4    0    0 -0.99731400431E+01  0.55426841018E+01  0.71385010320E+01  0.13458940026E+02  0.51100000000E-03 0.  1.
        -12    1    4    4    0    0  0.84153939484E+01  0.27490060799E+02 -0.56468081266E+01  0.29298613279E+02  0.00000000000E+00 0.  1.
</event>
<event>
 8    1  0.1210161E-006  0.9118800E+02  0.7816164E-02  0.1184000E+00
        -11   -1    0    0    0    0  0.00000000000E+00  0.00000000000E+00  0.45593999997E+02  0.45594000000E+02  0.51100000000E-03 0.  1.
         11   -1    0    0    0    0 -0.00000000000E+00 -0.00000000000E+00 -0.45593999997E+02  0.45594000000E+02  0.51100000000E-03 0. -1.
         23    2    1    2    0    0  0.00000000000E+00  0.00000000000E+00  0.00000000000E+00  0.91188000000E+02  0.91188000000E+02 0.  0.
    9900012    2    3    3    0    0 -0.92403393570E+01  0.16926321236E+02  0.31367141477E+02  0.54367057773E+02  0.39999939805E+02 0.  0.
         12    1    3    3    0    0  0.92403393570E+01 -0.16926321236E+02 -0.31367141477E+02  0.36820942227E+02  0.00000000000E+00 0. -1.
         11    1    4    4    0    0 -0.20031696291E+01  0.20635487596E+02  0.28478195001E+01  0.20927162088E+02  0.51100000000E-03 0. -1.
        -11    1    4    4    0    0 -0.47572448696E+01  0.58620311655E+01  0.11486058223E+02  0.13744974423E+02  0.51100000000E-03 0.  1.
        -12    1    4    4    0    0 -0.24799248582E+01 -0.95711975257E+01  0.17033263754E+02  0.19694921261E+02  0.00000000000E+00 0.  1.
</event>
<event>
 8    1  0.1210161E-006  0.9118800E+02  0.7816164E-02  0.1184000E+00
        -11   -1    0    0    0    0  0.00000000000E+00  0.00000000000E+00  0.45593999997E+02  0.45594000000E+02  0.51100000000E-03 0.  1.
         11   -1    0    0    0    0 -0.00000000000E+00 -0.00000000000E+00 -0.45593999997E+02  0.45594000000E+02  0.51100000000E-03 0. -1.
         23    2    1    2    0    0  0.17763568394E-14  0.00000000000E+00  0.17763568394E-14  0.91188000000E+02  0.91188000000E+02 0.  0.
    9900012    2    3    3    0    0  0.12377273554E+02 -0.32329232446E+02 -0.12546339307E+02  0.54366989677E+02  0.39999784566E+02 0.  0.
         12    1    3    3    0    0 -0.12377273554E+02  0.32329232446E+02  0.12546339307E+02  0.36821010323E+02  0.00000000000E+00 0. -1.
         11    1    4    4    0    0 -0.36741525081E+01 -0.34711713842E+01 -0.14348908234E+01  0.52542686806E+01  0.51100000000E-03 0. -1.
        -11    1    4    4    0    0  0.21253412992E+02 -0.15639232179E+02 -0.19321835715E+02  0.32705144589E+02  0.51100000000E-03 0.  1.
        -12    1    4    4    0    0 -0.52019869297E+01 -0.13218828884E+02  0.82103872313E+01  0.16407576407E+02  0.00000000000E+00 0.  1.
</event>
<event>
 8    1  0.1210161E-006  0.9118800E+02  0.7816164E-02  0.1184000E+00
        -11   -1    0    0    0    0  0.00000000000E+00  0.00000000000E+00  0.45593999997E+02  0.45594000000E+02  0.51100000000E-03 0.  1.
         11   -1    0    0    0    0 -0.00000000000E+00 -0.00000000000E+00 -0.45593999997E+02  0.45594000000E+02  0.51100000000E-03 0. -1.
         23    2    1    2    0    0  0.00000000000E+00  0.00000000000E+00  0.00000000000E+00  0.91188000000E+02  0.91188000000E+02 0.  0.
    9900012    2    3    3    0    0  0.29328201829E+02  0.78822426416E+01 -0.20820787667E+02  0.54367104157E+02  0.40000045547E+02 0.  0.
        -12    1    3    3    0    0 -0.29328201829E+02 -0.78822426416E+01  0.20820787667E+02  0.36820895843E+02  0.00000000000E+00 0.  1.
         11    1    4    4    0    0  0.12784475415E+01  0.60048643270E+01  0.49234924524E+01  0.78697904605E+01  0.51100000000E-03 0. -1.
        -11    1    4    4    0    0 -0.43507152201E+01 -0.14908883165E+01  0.55308193974E+00  0.46322101412E+01  0.51100000000E-03 0.  1.
         12    1    4    4    0    0  0.32400469508E+02  0.33682666310E+01 -0.26297362059E+02  0.41865103555E+02  0.00000000000E+00 0. -1.
</event>
<event>
 8    1  0.1210161E-006  0.9118800E+02  0.7816164E-02  0.1184000E+00
        -11   -1    0    0    0    0  0.00000000000E+00  0.00000000000E+00  0.45593999997E+02  0.45594000000E+02  0.51100000000E-03 0.  1.
         11   -1    0    0    0    0 -0.00000000000E+00 -0.00000000000E+00 -0.45593999997E+02  0.45594000000E+02  0.51100000000E-03 0. -1.
         23    2    1    2    0    0 -0.71054273576E-14  0.00000000000E+00  0.00000000000E+00  0.91188000000E+02  0.91188000000E+02 0.  0.
    9900012    2    3    3    0    0 -0.26839465238E+02  0.10384298335E+02 -0.22969316731E+02  0.54367081255E+02  0.39999993337E+02 0.  0.
        -12    1    3    3    0    0  0.26839465238E+02 -0.10384298335E+02  0.22969316731E+02  0.36820918745E+02  0.00000000000E+00 0.  1.
         11    1    4    4    0    0  0.88863922507E+01  0.57812850851E+01 -0.74661006418E+01  0.12966645037E+02  0.51100000000E-03 0.  1.
        -11    1    4    4    0    0 -0.28190572198E+02 -0.15953137023E+01 -0.88470811382E+01  0.29589258720E+02  0.51100000000E-03 0. -1.
         12    1    4    4    0    0 -0.75352852904E+01  0.61983269518E+01 -0.66561349506E+01  0.11811177498E+02  0.00000000000E+00 0. -1.
</event>
<event>
 8    1  0.1210161E-006  0.9118800E+02  0.7816164E-02  0.1184000E+00
        -11   -1    0    0    0    0  0.00000000000E+00  0.00000000000E+00  0.45593999997E+02  0.45594000000E+02  0.51100000000E-03 0.  1.
         11   -1    0    0    0    0 -0.00000000000E+00 -0.00000000000E+00 -0.45593999997E+02  0.45594000000E+02  0.51100000000E-03 0. -1.
         23    2    1    2    0    0  0.00000000000E+00 -0.17763568394E-14 -0.35527136788E-14  0.91188000000E+02  0.91188000000E+02 0.  0.
    9900012    2    3    3    0    0 -0.32434495113E+02  0.94690770021E+01  0.14632832213E+02  0.54367086499E+02  0.40000005291E+02 0.  0.
         12    1    3    3    0    0  0.32434495113E+02 -0.94690770021E+01 -0.14632832213E+02  0.36820913501E+02  0.00000000000E+00 0. -1.
         11    1    4    4    0    0  0.42727874439E+01  0.11101193724E+01  0.26375227048E+01  0.51425289344E+01  0.51100000000E-03 0. -1.
        -11    1    4    4    0    0 -0.19376583143E+02 -0.41017406581E+01  0.18301663054E+02  0.26967148932E+02  0.51100000000E-03 0.  1.
         12    1    4    4    0    0 -0.17330699413E+02  0.12460698288E+02 -0.63063535454E+01  0.22257408632E+02  0.00000000000E+00 0. -1.
</event>
<event>
 8    1  0.1210161E-006  0.9118800E+02  0.7816164E-02  0.1184000E+00
        -11   -1    0    0    0    0  0.00000000000E+00  0.00000000000E+00  0.45593999997E+02  0.45594000000E+02  0.51100000000E-03 0.  1.
         11   -1    0    0    0    0 -0.00000000000E+00 -0.00000000000E+00 -0.45593999997E+02  0.45594000000E+02  0.51100000000E-03 0. -1.
         23    2    1    2    0    0  0.00000000000E+00 -0.17763568394E-14  0.00000000000E+00  0.91188000000E+02  0.91188000000E+02 0.  0.
    9900012    2    3    3    0    0 -0.66754432684E+01 -0.25824009054E+01  0.36118497814E+02  0.54367133340E+02  0.40000112075E+02 0.  0.
         12    1    3    3    0    0  0.66754432684E+01  0.25824009054E+01 -0.36118497814E+02  0.36820866660E+02  0.00000000000E+00 0. -1.
         11    1    4    4    0    0 -0.47856457504E+01  0.49798698361E+01 -0.39715747765E+01  0.79671146157E+01  0.51100000000E-03 0. -1.
        -11    1    4    4    0    0 -0.88000977218E+01 -0.81578414629E+01  0.10302527361E+02  0.15815630482E+02  0.51100000000E-03 0.  1.
        -12    1    4    4    0    0  0.69103002038E+01  0.59557072136E+00  0.29787545229E+02  0.30584388242E+02  0.00000000000E+00 0.  1.
</event>
<event>
 8    1  0.1210161E-006  0.9118800E+02  0.7816164E-02  0.1184000E+00
        -11   -1    0    0    0    0  0.00000000000E+00  0.00000000000E+00  0.45593999997E+02  0.45594000000E+02  0.51100000000E-03 0.  1.
         11   -1    0    0    0    0 -0.00000000000E+00 -0.00000000000E+00 -0.45593999997E+02  0.45594000000E+02  0.51100000000E-03 0. -1.
         23    2    1    2    0    0  0.00000000000E+00 -0.44408920985E-15  0.71054273576E-14  0.91188000000E+02  0.91188000000E+02 0.  0.
    9900012    2    3    3    0    0 -0.34967753835E+01  0.24341549953E+01 -0.36573582614E+02  0.54367088906E+02  0.40000010778E+02 0.  0.
        -12    1    3    3    0    0  0.34967753835E+01 -0.24341549953E+01  0.36573582614E+02  0.36820911094E+02  0.00000000000E+00 0.  1.
         11    1    4    4    0    0 -0.46068556039E+01 -0.65434071281E+01 -0.25020368755E+01  0.83844787666E+01  0.51100000000E-03 0. -1.
        -11    1    4    4    0    0  0.37393498552E+01 -0.65353888893E+01  0.94971864482E+00  0.75892035840E+01  0.51100000000E-03 0.  1.
         12    1    4    4    0    0 -0.26292696348E+01  0.15512951013E+02 -0.35021264383E+02  0.38393406555E+02  0.00000000000E+00 0. -1.
</event>
<event>
 8    1  0.1210161E-006  0.9118800E+02  0.7816164E-02  0.1184000E+00
        -11   -1    0    0    0    0  0.00000000000E+00  0.00000000000E+00  0.45593999997E+02  0.45594000000E+02  0.51100000000E-03 0.  1.
         11   -1    0    0    0    0 -0.00000000000E+00 -0.00000000000E+00 -0.45593999997E+02  0.45594000000E+02  0.51100000000E-03 0. -1.
         23    2    1    2    0    0  0.35527136788E-14 -0.35527136788E-14  0.00000000000E+00  0.91188000000E+02  0.91188000000E+02 0.  0.
    9900012    2    3    3    0    0  0.16716419014E+02 -0.31475914494E+02 -0.92524766858E+01  0.54367079551E+02  0.39999989452E+02 0.  0.
        -12    1    3    3    0    0 -0.16716419014E+02  0.31475914494E+02  0.92524766858E+01  0.36820920449E+02  0.00000000000E+00 0.  1.
         11    1    4    4    0    0 -0.98803244886E+01 -0.12071795430E+02 -0.67772848997E+01  0.17008252343E+02  0.51100000000E-03 0. -1.
        -11    1    4    4    0    0  0.27771925322E+02 -0.13097734303E+02 -0.74471360739E+00  0.30714574368E+02  0.51100000000E-03 0.  1.
        -12    1    4    4    0    0 -0.11751818196E+01 -0.63063847613E+01 -0.17304781787E+01  0.66442528394E+01  0.00000000000E+00 0.  1.
</event>
<event>
 8    1  0.1210161E-006  0.9118800E+02  0.7816164E-02  0.1184000E+00
        -11   -1    0    0    0    0  0.00000000000E+00  0.00000000000E+00  0.45593999997E+02  0.45594000000E+02  0.51100000000E-03 0.  1.
         11   -1    0    0    0    0 -0.00000000000E+00 -0.00000000000E+00 -0.45593999997E+02  0.45594000000E+02  0.51100000000E-03 0. -1.
         23    2    1    2    0    0 -0.71054273576E-14 -0.17763568394E-14 -0.55511151231E-15  0.91188000000E+02  0.91188000000E+02 0.  0.
    9900012    2    3    3    0    0 -0.33528778488E+02  0.15201537201E+02  0.71360582477E+00  0.54367150560E+02  0.40000151332E+02 0.  0.
         12    1    3    3    0    0  0.33528778488E+02 -0.15201537201E+02 -0.71360582477E+00  0.36820849440E+02  0.00000000000E+00 0. -1.
         11    1    4    4    0    0 -0.76874832301E+00  0.39718011573E+01  0.85524767007E+01  0.94610272378E+01  0.51100000000E-03 0.  1.
        -11    1    4    4    0    0  0.38032174346E+01 -0.15242268749E+01  0.25333927362E+01  0.48172408532E+01  0.51100000000E-03 0. -1.
        -12    1    4    4    0    0 -0.36563247600E+02  0.12753962919E+02 -0.10372263612E+02  0.40088882469E+02  0.00000000000E+00 0.  1.
</event>
<event>
 8    1  0.1210161E-006  0.9118800E+02  0.7816164E-02  0.1184000E+00
        -11   -1    0    0    0    0  0.00000000000E+00  0.00000000000E+00  0.45593999997E+02  0.45594000000E+02  0.51100000000E-03 0. -1.
         11   -1    0    0    0    0 -0.00000000000E+00 -0.00000000000E+00 -0.45593999997E+02  0.45594000000E+02  0.51100000000E-03 0.  1.
         23    2    1    2    0    0  0.00000000000E+00  0.00000000000E+00 -0.17763568394E-14  0.91188000000E+02  0.91188000000E+02 0.  0.
    9900012    2    3    3    0    0  0.78403458424E+01 -0.35039359681E+02  0.81577468011E+01  0.54367128437E+02  0.40000100898E+02 0.  0.
         12    1    3    3    0    0 -0.78403458424E+01  0.35039359681E+02 -0.81577468011E+01  0.36820871563E+02  0.00000000000E+00 0. -1.
         11    1    4    4    0    0  0.36800959558E+01 -0.30735212453E+01  0.14304747800E+02  0.15086929739E+02  0.51100000000E-03 0. -1.
        -11    1    4    4    0    0  0.80863916447E-01 -0.18955050446E+02  0.71269297854E+01  0.20250768006E+02  0.51100000000E-03 0.  1.
         12    1    4    4    0    0  0.40793859702E+01 -0.13010787989E+02 -0.13273930784E+02  0.19029430692E+02  0.00000000000E+00 0. -1.
</event>
<event>
 8    1  0.1210161E-006  0.9118800E+02  0.7816164E-02  0.1184000E+00
        -11   -1    0    0    0    0  0.00000000000E+00  0.00000000000E+00  0.45593999997E+02  0.45594000000E+02  0.51100000000E-03 0.  1.
         11   -1    0    0    0    0 -0.00000000000E+00 -0.00000000000E+00 -0.45593999997E+02  0.45594000000E+02  0.51100000000E-03 0. -1.
         23    2    1    2    0    0  0.00000000000E+00  0.00000000000E+00  0.00000000000E+00  0.91188000000E+02  0.91188000000E+02 0.  0.
    9900012    2    3    3    0    0  0.23302452592E+02 -0.20573025205E+02 -0.19736422117E+02  0.54367081749E+02  0.39999994462E+02 0.  0.
        -12    1    3    3    0    0 -0.23302452592E+02  0.20573025205E+02  0.19736422117E+02  0.36820918251E+02  0.00000000000E+00 0.  1.
         11    1    4    4    0    0 -0.68382290723E+00 -0.18255154593E+01 -0.16508558145E+02  0.16623255179E+02  0.51100000000E-03 0. -1.
        -11    1    4    4    0    0  0.15751626276E+02 -0.18066450963E+02  0.66416677306E+01  0.24872115536E+02  0.51100000000E-03 0.  1.
         12    1    4    4    0    0  0.82346492230E+01 -0.68105878280E+00 -0.98695317033E+01  0.12871711034E+02  0.00000000000E+00 0. -1.
</event>
<event>
 8    1  0.1210161E-006  0.9118800E+02  0.7816164E-02  0.1184000E+00
        -11   -1    0    0    0    0  0.00000000000E+00  0.00000000000E+00  0.45593999997E+02  0.45594000000E+02  0.51100000000E-03 0. -1.
         11   -1    0    0    0    0 -0.00000000000E+00 -0.00000000000E+00 -0.45593999997E+02  0.45594000000E+02  0.51100000000E-03 0.  1.
         23    2    1    2    0    0  0.35527136788E-14 -0.35527136788E-14  0.00000000000E+00  0.91188000000E+02  0.91188000000E+02 0.  0.
    9900012    2    3    3    0    0 -0.28932150936E+02 -0.15683405867E+02  0.16514837162E+02  0.54367103435E+02  0.40000043900E+02 0.  0.
         12    1    3    3    0    0  0.28932150936E+02  0.15683405867E+02 -0.16514837162E+02  0.36820896565E+02  0.00000000000E+00 0. -1.
         11    1    4    4    0    0 -0.12276624850E+02 -0.38139584253E+01 -0.11171890999E+02  0.17031527980E+02  0.51100000000E-03 0. -1.
        -11    1    4    4    0    0 -0.17653715447E+02 -0.10464636191E+02  0.17400920090E+02  0.26906398866E+02  0.51100000000E-03 0.  1.
         12    1    4    4    0    0  0.99818936073E+00 -0.14048112509E+01  0.10285808070E+02  0.10429176588E+02  0.00000000000E+00 0. -1.
</event>
<event>
 8    1  0.1210161E-006  0.9118800E+02  0.7816164E-02  0.1184000E+00
        -11   -1    0    0    0    0  0.00000000000E+00  0.00000000000E+00  0.45593999997E+02  0.45594000000E+02  0.51100000000E-03 0. -1.
         11   -1    0    0    0    0 -0.00000000000E+00 -0.00000000000E+00 -0.45593999997E+02  0.45594000000E+02  0.51100000000E-03 0.  1.
         23    2    1    2    0    0 -0.71054273576E-14  0.00000000000E+00 -0.17763568394E-14  0.91188000000E+02  0.91188000000E+02 0.  0.
    9900012    2    3    3    0    0  0.33646879064E+02  0.13331355950E+02 -0.67780537606E+01  0.54367088347E+02  0.40000009504E+02 0.  0.
         12    1    3    3    0    0 -0.33646879064E+02 -0.13331355950E+02  0.67780537606E+01  0.36820911653E+02  0.00000000000E+00 0. -1.
         11    1    4    4    0    0  0.34811957457E+00 -0.57001744026E-01  0.33588524865E+01  0.33773253803E+01  0.51100000000E-03 0. -1.
        -11    1    4    4    0    0  0.10568994743E+02  0.15528912659E+02 -0.18795218378E+02  0.26572749432E+02  0.51100000000E-03 0.  1.
        -12    1    4    4    0    0  0.22729764746E+02 -0.21405549650E+01  0.86583121307E+01  0.24417013534E+02  0.00000000000E+00 0.  1.
</event>
<event>
 8    1  0.1210161E-006  0.9118800E+02  0.7816164E-02  0.1184000E+00
        -11   -1    0    0    0    0  0.00000000000E+00  0.00000000000E+00  0.45593999997E+02  0.45594000000E+02  0.51100000000E-03 0.  1.
         11   -1    0    0    0    0 -0.00000000000E+00 -0.00000000000E+00 -0.45593999997E+02  0.45594000000E+02  0.51100000000E-03 0. -1.
         23    2    1    2    0    0  0.00000000000E+00  0.00000000000E+00  0.00000000000E+00  0.91188000000E+02  0.91188000000E+02 0.  0.
    9900012    2    3    3    0    0  0.14654967242E+02 -0.17142763796E+02 -0.29105629559E+02  0.54367080844E+02  0.39999992400E+02 0.  0.
        -12    1    3    3    0    0 -0.14654967242E+02  0.17142763796E+02  0.29105629559E+02  0.36820919156E+02  0.00000000000E+00 0.  1.
         11    1    4    4    0    0 -0.96640590480E+01 -0.12053700311E+02 -0.12042873830E+02  0.19588683948E+02  0.51100000000E-03 0. -1.
        -11    1    4    4    0    0  0.14045809773E+02  0.35107455310E+01 -0.15628901000E+02  0.21304287200E+02  0.51100000000E-03 0.  1.
        -12    1    4    4    0    0  0.10273216517E+02 -0.85998090164E+01 -0.14338547291E+01  0.13474109696E+02  0.00000000000E+00 0.  1.
</event>
<event>
 8    1  0.1210161E-006  0.9118800E+02  0.7816164E-02  0.1184000E+00
        -11   -1    0    0    0    0  0.00000000000E+00  0.00000000000E+00  0.45593999997E+02  0.45594000000E+02  0.51100000000E-03 0.  1.
         11   -1    0    0    0    0 -0.00000000000E+00 -0.00000000000E+00 -0.45593999997E+02  0.45594000000E+02  0.51100000000E-03 0. -1.
         23    2    1    2    0    0  0.00000000000E+00  0.35527136788E-14 -0.35527136788E-14  0.91188000000E+02  0.91188000000E+02 0.  0.
    9900012    2    3    3    0    0 -0.24395039075E+02 -0.20256831649E+02  0.18716935839E+02  0.54367070528E+02  0.39999968883E+02 0.  0.
         12    1    3    3    0    0  0.24395039075E+02  0.20256831649E+02 -0.18716935839E+02  0.36820929472E+02  0.00000000000E+00 0. -1.
         11    1    4    4    0    0 -0.96104572808E+00 -0.20208167442E+01 -0.23732302772E+00  0.22502514717E+01  0.51100000000E-03 0. -1.
        -11    1    4    4    0    0  0.91284467021E+01  0.26154646200E+00 -0.17895235643E+01  0.93058766698E+01  0.51100000000E-03 0.  1.
        -12    1    4    4    0    0 -0.32562440049E+02 -0.18497561367E+02  0.20743782431E+02  0.42810942387E+02  0.00000000000E+00 0.  1.
</event>
<event>
 8    1  0.1210161E-006  0.9118800E+02  0.7816164E-02  0.1184000E+00
        -11   -1    0    0    0    0  0.00000000000E+00  0.00000000000E+00  0.45593999997E+02  0.45594000000E+02  0.51100000000E-03 0.  1.
         11   -1    0    0    0    0 -0.00000000000E+00 -0.00000000000E+00 -0.45593999997E+02  0.45594000000E+02  0.51100000000E-03 0. -1.
         23    2    1    2    0    0  0.00000000000E+00  0.00000000000E+00 -0.71054273576E-14  0.91188000000E+02  0.91188000000E+02 0.  0.
    9900012    2    3    3    0    0 -0.11017284053E+02 -0.72951921148E+01 -0.34368295678E+02  0.54367080352E+02  0.39999991279E+02 0.  0.
        -12    1    3    3    0    0  0.11017284053E+02  0.72951921148E+01  0.34368295678E+02  0.36820919648E+02  0.00000000000E+00 0.  1.
         11    1    4    4    0    0 -0.12557549236E+02 -0.58809404740E+01 -0.14401878336E+02  0.19992288602E+02  0.51100000000E-03 0. -1.
        -11    1    4    4    0    0 -0.12948640355E+02  0.14449964270E+01 -0.11331931106E+02  0.17267540779E+02  0.51100000000E-03 0.  1.
        -12    1    4    4    0    0  0.14488905539E+02 -0.28592480677E+01 -0.86344862364E+01  0.17107250971E+02  0.00000000000E+00 0.  1.
</event>
<event>
 8    1  0.1210161E-006  0.9118800E+02  0.7816164E-02  0.1184000E+00
        -11   -1    0    0    0    0  0.00000000000E+00  0.00000000000E+00  0.45593999997E+02  0.45594000000E+02  0.51100000000E-03 0. -1.
         11   -1    0    0    0    0 -0.00000000000E+00 -0.00000000000E+00 -0.45593999997E+02  0.45594000000E+02  0.51100000000E-03 0.  1.
         23    2    1    2    0    0  0.00000000000E+00 -0.71054273576E-14 -0.35527136788E-14  0.91188000000E+02  0.91188000000E+02 0.  0.
    9900012    2    3    3    0    0  0.21065029656E+02  0.24449602260E+02  0.17727446879E+02  0.54367069839E+02  0.39999967312E+02 0.  0.
        -12    1    3    3    0    0 -0.21065029656E+02 -0.24449602260E+02 -0.17727446879E+02  0.36820930161E+02  0.00000000000E+00 0.  1.
         11    1    4    4    0    0  0.70066998174E+01  0.21470182088E+02  0.93987676369E+01  0.24462203388E+02  0.51100000000E-03 0. -1.
        -11    1    4    4    0    0 -0.37791575217E+01 -0.71841434146E+01  0.13998986953E+01  0.82373335973E+01  0.51100000000E-03 0.  1.
        -12    1    4    4    0    0  0.17837487360E+02  0.10163563586E+02  0.69287805468E+01  0.21667532854E+02  0.00000000000E+00 0.  1.
</event>
<event>
 8    1  0.1210161E-006  0.9118800E+02  0.7816164E-02  0.1184000E+00
        -11   -1    0    0    0    0  0.00000000000E+00  0.00000000000E+00  0.45593999997E+02  0.45594000000E+02  0.51100000000E-03 0.  1.
         11   -1    0    0    0    0 -0.00000000000E+00 -0.00000000000E+00 -0.45593999997E+02  0.45594000000E+02  0.51100000000E-03 0. -1.
         23    2    1    2    0    0  0.88817841970E-15 -0.35527136788E-14  0.00000000000E+00  0.91188000000E+02  0.91188000000E+02 0.  0.
    9900012    2    3    3    0    0  0.63050662587E+01  0.21754172192E+02  0.29030809973E+02  0.54367003327E+02  0.39999815685E+02 0.  0.
         12    1    3    3    0    0 -0.63050662587E+01 -0.21754172192E+02 -0.29030809973E+02  0.36820996673E+02  0.00000000000E+00 0. -1.
         11    1    4    4    0    0  0.11818288413E+02 -0.17206350635E+01 -0.43623564826E+01  0.12714663990E+02  0.51100000000E-03 0. -1.
        -11    1    4    4    0    0  0.96023011715E+00  0.29626433276E+01  0.65647097481E+01  0.72659969518E+01  0.51100000000E-03 0.  1.
         12    1    4    4    0    0 -0.64734522718E+01  0.20512163928E+02  0.26828456708E+02  0.34386342385E+02  0.00000000000E+00 0. -1.
</event>
<event>
 8    1  0.1210161E-006  0.9118800E+02  0.7816164E-02  0.1184000E+00
        -11   -1    0    0    0    0  0.00000000000E+00  0.00000000000E+00  0.45593999997E+02  0.45594000000E+02  0.51100000000E-03 0.  1.
         11   -1    0    0    0    0 -0.00000000000E+00 -0.00000000000E+00 -0.45593999997E+02  0.45594000000E+02  0.51100000000E-03 0. -1.
         23    2    1    2    0    0  0.00000000000E+00 -0.88817841970E-15  0.00000000000E+00  0.91188000000E+02  0.91188000000E+02 0.  0.
    9900012    2    3    3    0    0 -0.27656181322E+02 -0.30613590074E+01  0.24115219003E+02  0.54367081057E+02  0.39999992885E+02 0.  0.
         12    1    3    3    0    0  0.27656181322E+02  0.30613590074E+01 -0.24115219003E+02  0.36820918943E+02  0.00000000000E+00 0. -1.
         11    1    4    4    0    0  0.37360164438E+01 -0.98362844297E+01  0.22839486223E+01  0.10766927687E+02  0.51100000000E-03 0. -1.
        -11    1    4    4    0    0 -0.14043180388E+02  0.13097078994E+02  0.12483993629E+02  0.22904027828E+02  0.51100000000E-03 0.  1.
         12    1    4    4    0    0 -0.17349017378E+02 -0.63221535716E+01  0.93472767514E+01  0.20696125541E+02  0.00000000000E+00 0. -1.
</event>
<event>
 8    1  0.1210161E-006  0.9118800E+02  0.7816164E-02  0.1184000E+00
        -11   -1    0    0    0    0  0.00000000000E+00  0.00000000000E+00  0.45593999997E+02  0.45594000000E+02  0.51100000000E-03 0.  1.
         11   -1    0    0    0    0 -0.00000000000E+00 -0.00000000000E+00 -0.45593999997E+02  0.45594000000E+02  0.51100000000E-03 0. -1.
         23    2    1    2    0    0  0.00000000000E+00 -0.17763568394E-14  0.35527136788E-14  0.91188000000E+02  0.91188000000E+02 0.  0.
    9900012    2    3    3    0    0 -0.27845382296E+02  0.78039831556E+01  0.22792825039E+02  0.54367077394E+02  0.39999984535E+02 0.  0.
         12    1    3    3    0    0  0.27845382296E+02 -0.78039831556E+01 -0.22792825039E+02  0.36820922606E+02  0.00000000000E+00 0. -1.
         11    1    4    4    0    0 -0.21588722704E+02 -0.51839260077E+01  0.11232215711E+02  0.24881895163E+02  0.51100000000E-03 0. -1.
        -11    1    4    4    0    0 -0.48254140567E+01 -0.56614814508E+01 -0.10800116293E+00  0.74396678386E+01  0.51100000000E-03 0.  1.
        -12    1    4    4    0    0 -0.14312455355E+01  0.18649390614E+02  0.11668610491E+02  0.22045514393E+02  0.00000000000E+00 0.  1.
</event>
<event>
 8    1  0.1210161E-006  0.9118800E+02  0.7816164E-02  0.1184000E+00
        -11   -1    0    0    0    0  0.00000000000E+00  0.00000000000E+00  0.45593999997E+02  0.45594000000E+02  0.51100000000E-03 0.  1.
         11   -1    0    0    0    0 -0.00000000000E+00 -0.00000000000E+00 -0.45593999997E+02  0.45594000000E+02  0.51100000000E-03 0. -1.
         23    2    1    2    0    0  0.00000000000E+00  0.35527136788E-14 -0.35527136788E-14  0.91188000000E+02  0.91188000000E+02 0.  0.
    9900012    2    3    3    0    0  0.28123689913E+01 -0.20858160341E+02  0.30212702894E+02  0.54367086264E+02  0.40000004757E+02 0.  0.
         12    1    3    3    0    0 -0.28123689913E+01  0.20858160341E+02 -0.30212702894E+02  0.36820913736E+02  0.00000000000E+00 0. -1.
         11    1    4    4    0    0 -0.10750877702E+02 -0.13757243079E+01  0.47887471686E+01  0.11849307509E+02  0.51100000000E-03 0. -1.
        -11    1    4    4    0    0 -0.16221260850E+01 -0.17716060005E+02  0.18719221555E+02  0.25824394108E+02  0.51100000000E-03 0.  1.
         12    1    4    4    0    0  0.15185372778E+02 -0.17663760280E+01  0.67047341707E+01  0.16693384648E+02  0.00000000000E+00 0. -1.
</event>
<event>
 8    1  0.1210161E-006  0.9118800E+02  0.7816164E-02  0.1184000E+00
        -11   -1    0    0    0    0  0.00000000000E+00  0.00000000000E+00  0.45593999997E+02  0.45594000000E+02  0.51100000000E-03 0.  1.
         11   -1    0    0    0    0 -0.00000000000E+00 -0.00000000000E+00 -0.45593999997E+02  0.45594000000E+02  0.51100000000E-03 0. -1.
         23    2    1    2    0    0  0.00000000000E+00  0.71054273576E-14  0.00000000000E+00  0.91188000000E+02  0.91188000000E+02 0.  0.
    9900012    2    3    3    0    0 -0.11526533583E+02  0.30135072169E+02  0.17742606495E+02  0.54367032654E+02  0.39999882541E+02 0.  0.
         12    1    3    3    0    0  0.11526533583E+02 -0.30135072169E+02 -0.17742606495E+02  0.36820967346E+02  0.00000000000E+00 0. -1.
         11    1    4    4    0    0 -0.13080841866E+01 -0.52805916346E+00 -0.64560380696E+01  0.66083552065E+01  0.51100000000E-03 0. -1.
        -11    1    4    4    0    0 -0.15828551390E+02  0.78267728242E+01  0.10216803045E+02  0.20400599909E+02  0.51100000000E-03 0.  1.
        -12    1    4    4    0    0  0.56101019933E+01  0.22836358508E+02  0.13981841520E+02  0.27358077538E+02  0.00000000000E+00 0.  1.
</event>
<event>
 8    1  0.1210161E-006  0.9118800E+02  0.7816164E-02  0.1184000E+00
        -11   -1    0    0    0    0  0.00000000000E+00  0.00000000000E+00  0.45593999997E+02  0.45594000000E+02  0.51100000000E-03 0.  1.
         11   -1    0    0    0    0 -0.00000000000E+00 -0.00000000000E+00 -0.45593999997E+02  0.45594000000E+02  0.51100000000E-03 0. -1.
         23    2    1    2    0    0  0.00000000000E+00 -0.17763568394E-14  0.71054273576E-14  0.91188000000E+02  0.91188000000E+02 0.  0.
    9900012    2    3    3    0    0  0.63087411433E+01 -0.12400504272E+01 -0.36255219924E+02  0.54367096812E+02  0.40000028802E+02 0.  0.
        -12    1    3    3    0    0 -0.63087411433E+01  0.12400504272E+01  0.36255219924E+02  0.36820903188E+02  0.00000000000E+00 0.  1.
         11    1    4    4    0    0  0.18602467509E+01 -0.13019076063E+02 -0.16531500863E+00  0.13152345374E+02  0.51100000000E-03 0. -1.
        -11    1    4    4    0    0 -0.45392315532E+01  0.35389792993E+01 -0.21209719153E+02  0.21976832902E+02  0.51100000000E-03 0.  1.
         12    1    4    4    0    0  0.89877259456E+01  0.82400463368E+01 -0.14880185762E+02  0.19237918536E+02  0.00000000000E+00 0. -1.
</event>
<event>
 8    1  0.1210161E-006  0.9118800E+02  0.7816164E-02  0.1184000E+00
        -11   -1    0    0    0    0  0.00000000000E+00  0.00000000000E+00  0.45593999997E+02  0.45594000000E+02  0.51100000000E-03 0. -1.
         11   -1    0    0    0    0 -0.00000000000E+00 -0.00000000000E+00 -0.45593999997E+02  0.45594000000E+02  0.51100000000E-03 0.  1.
         23    2    1    2    0    0 -0.71054273576E-14 -0.26645352591E-14  0.00000000000E+00  0.91188000000E+02  0.91188000000E+02 0.  0.
    9900012    2    3    3    0    0 -0.35911101110E+02 -0.47361726985E+01 -0.66139875189E+01  0.54367036601E+02  0.39999891539E+02 0.  0.
         12    1    3    3    0    0  0.35911101110E+02  0.47361726985E+01  0.66139875189E+01  0.36820963399E+02  0.00000000000E+00 0. -1.
         11    1    4    4    0    0 -0.57626212458E+01  0.14217203971E+02 -0.20675665657E+01  0.15479390302E+02  0.51100000000E-03 0. -1.
        -11    1    4    4    0    0 -0.11838399657E+02 -0.16056319050E+02 -0.73661814169E+00  0.19962356935E+02  0.51100000000E-03 0.  1.
        -12    1    4    4    0    0 -0.18310080207E+02 -0.28970576197E+01 -0.38098028115E+01  0.18925289364E+02  0.00000000000E+00 0.  1.
</event>
<event>
 8    1  0.1210161E-006  0.9118800E+02  0.7816164E-02  0.1184000E+00
        -11   -1    0    0    0    0  0.00000000000E+00  0.00000000000E+00  0.45593999997E+02  0.45594000000E+02  0.51100000000E-03 0.  1.
         11   -1    0    0    0    0 -0.00000000000E+00 -0.00000000000E+00 -0.45593999997E+02  0.45594000000E+02  0.51100000000E-03 0. -1.
         23    2    1    2    0    0 -0.35527136788E-14 -0.35527136788E-14 -0.88817841970E-15  0.91188000000E+02  0.91188000000E+02 0.  0.
    9900012    2    3    3    0    0  0.26018860025E+02  0.25764722504E+02  0.38700111163E+01  0.54367095764E+02  0.40000026414E+02 0.  0.
        -12    1    3    3    0    0 -0.26018860025E+02 -0.25764722504E+02 -0.38700111163E+01  0.36820904236E+02  0.00000000000E+00 0.  1.
         11    1    4    4    0    0  0.22563240545E+02 -0.60098861988E+00  0.19081862076E+01  0.22651759006E+02  0.51100000000E-03 0. -1.
        -11    1    4    4    0    0  0.92576318153E+01  0.19374452399E+02  0.51595553532E+01  0.22083798683E+02  0.51100000000E-03 0.  1.
        -12    1    4    4    0    0 -0.58020123352E+01  0.69912587251E+01 -0.31977304444E+01  0.96315380752E+01  0.00000000000E+00 0.  1.
</event>
<event>
 8    1  0.1210161E-006  0.9118800E+02  0.7816164E-02  0.1184000E+00
        -11   -1    0    0    0    0  0.00000000000E+00  0.00000000000E+00  0.45593999997E+02  0.45594000000E+02  0.51100000000E-03 0.  1.
         11   -1    0    0    0    0 -0.00000000000E+00 -0.00000000000E+00 -0.45593999997E+02  0.45594000000E+02  0.51100000000E-03 0. -1.
         23    2    1    2    0    0  0.00000000000E+00 -0.35527136788E-14  0.00000000000E+00  0.91188000000E+02  0.91188000000E+02 0.  0.
    9900012    2    3    3    0    0 -0.63638271245E+01  0.20659583399E+02  0.29807107834E+02  0.54367077153E+02  0.39999983986E+02 0.  0.
         12    1    3    3    0    0  0.63638271245E+01 -0.20659583399E+02 -0.29807107834E+02  0.36820922847E+02  0.00000000000E+00 0. -1.
         11    1    4    4    0    0 -0.13511717459E+02  0.83924747004E+01  0.11520108219E+02  0.19639578252E+02  0.51100000000E-03 0. -1.
        -11    1    4    4    0    0  0.78124316192E+01  0.15128383063E+02  0.23335388339E+02  0.28886716863E+02  0.51100000000E-03 0.  1.
        -12    1    4    4    0    0 -0.66454128471E+00 -0.28612743651E+01 -0.50483887236E+01  0.58407820380E+01  0.00000000000E+00 0.  1.
</event>
<event>
 8    1  0.1210161E-006  0.9118800E+02  0.7816164E-02  0.1184000E+00
        -11   -1    0    0    0    0  0.00000000000E+00  0.00000000000E+00  0.45593999997E+02  0.45594000000E+02  0.51100000000E-03 0. -1.
         11   -1    0    0    0    0 -0.00000000000E+00 -0.00000000000E+00 -0.45593999997E+02  0.45594000000E+02  0.51100000000E-03 0.  1.
         23    2    1    2    0    0 -0.35527136788E-14  0.00000000000E+00  0.00000000000E+00  0.91188000000E+02  0.91188000000E+02 0.  0.
    9900012    2    3    3    0    0  0.27507036595E+02  0.12968347507E+02  0.20759633084E+02  0.54367116455E+02  0.40000073582E+02 0.  0.
        -12    1    3    3    0    0 -0.27507036595E+02 -0.12968347507E+02 -0.20759633084E+02  0.36820883545E+02  0.00000000000E+00 0.  1.
         11    1    4    4    0    0  0.22844395556E+02  0.10705719809E+02  0.16184484648E+02  0.29973594855E+02  0.51100000000E-03 0. -1.
        -11    1    4    4    0    0 -0.15736750222E+01 -0.45568161353E+01 -0.76660342148E+01  0.90558879857E+01  0.51100000000E-03 0.  1.
         12    1    4    4    0    0  0.62363160615E+01  0.68194438333E+01  0.12241182650E+02  0.15337633614E+02  0.00000000000E+00 0. -1.
</event>
<event>
 8    1  0.1210161E-006  0.9118800E+02  0.7816164E-02  0.1184000E+00
        -11   -1    0    0    0    0  0.00000000000E+00  0.00000000000E+00  0.45593999997E+02  0.45594000000E+02  0.51100000000E-03 0.  1.
         11   -1    0    0    0    0 -0.00000000000E+00 -0.00000000000E+00 -0.45593999997E+02  0.45594000000E+02  0.51100000000E-03 0. -1.
         23    2    1    2    0    0  0.00000000000E+00  0.35527136788E-14  0.00000000000E+00  0.91188000000E+02  0.91188000000E+02 0.  0.
    9900012    2    3    3    0    0 -0.25350177313E+02 -0.25277016616E+02 -0.86151648466E+01  0.54367080347E+02  0.39999991267E+02 0.  0.
        -12    1    3    3    0    0  0.25350177313E+02  0.25277016616E+02  0.86151648466E+01  0.36820919653E+02  0.00000000000E+00 0.  1.
         11    1    4    4    0    0 -0.10481737184E+02 -0.57980233739E+01 -0.14332815937E+01  0.12063920831E+02  0.51100000000E-03 0. -1.
        -11    1    4    4    0    0 -0.99071856528E+01  0.53180205074E+01 -0.12124802588E+02  0.16536157587E+02  0.51100000000E-03 0.  1.
        -12    1    4    4    0    0 -0.49612544757E+01 -0.24797013749E+02  0.49429193352E+01  0.25767001929E+02  0.00000000000E+00 0.  1.
</event>
<event>
 8    1  0.1210161E-006  0.9118800E+02  0.7816164E-02  0.1184000E+00
        -11   -1    0    0    0    0  0.00000000000E+00  0.00000000000E+00  0.45593999997E+02  0.45594000000E+02  0.51100000000E-03 0. -1.
         11   -1    0    0    0    0 -0.00000000000E+00 -0.00000000000E+00 -0.45593999997E+02  0.45594000000E+02  0.51100000000E-03 0.  1.
         23    2    1    2    0    0 -0.35527136788E-14  0.17763568394E-14  0.35527136788E-14  0.91188000000E+02  0.91188000000E+02 0.  0.
    9900012    2    3    3    0    0 -0.31390503897E+02  0.98142181042E+01  0.16555808678E+02  0.54367117163E+02  0.40000075196E+02 0.  0.
        -12    1    3    3    0    0  0.31390503897E+02 -0.98142181042E+01 -0.16555808678E+02  0.36820882837E+02  0.00000000000E+00 0.  1.
         11    1    4    4    0    0 -0.28862719497E+01  0.43549257832E+00  0.38797181073E+01  0.48551449418E+01  0.51100000000E-03 0. -1.
        -11    1    4    4    0    0 -0.30285012061E+02  0.14132231354E+02 -0.24960808138E+01  0.33513166641E+02  0.51100000000E-03 0.  1.
         12    1    4    4    0    0  0.17807801134E+01 -0.47535058284E+01  0.15172171385E+02  0.15998805580E+02  0.00000000000E+00 0. -1.
</event>
<event>
 8    1  0.1210161E-006  0.9118800E+02  0.7816164E-02  0.1184000E+00
        -11   -1    0    0    0    0  0.00000000000E+00  0.00000000000E+00  0.45593999997E+02  0.45594000000E+02  0.51100000000E-03 0. -1.
         11   -1    0    0    0    0 -0.00000000000E+00 -0.00000000000E+00 -0.45593999997E+02  0.45594000000E+02  0.51100000000E-03 0.  1.
         23    2    1    2    0    0  0.35527136788E-14  0.00000000000E+00 -0.33306690739E-15  0.91188000000E+02  0.91188000000E+02 0.  0.
    9900012    2    3    3    0    0  0.29039817093E+02 -0.22621319685E+02 -0.86364586138E+00  0.54367068925E+02  0.39999965229E+02 0.  0.
         12    1    3    3    0    0 -0.29039817093E+02  0.22621319685E+02  0.86364586138E+00  0.36820931075E+02  0.00000000000E+00 0. -1.
         11    1    4    4    0    0  0.12479920545E+01 -0.48682153610E+01  0.23766025583E+01  0.55592485959E+01  0.51100000000E-03 0. -1.
        -11    1    4    4    0    0  0.25051136696E+02 -0.28005949717E+02  0.43190150149E+00  0.37577642401E+02  0.51100000000E-03 0.  1.
        -12    1    4    4    0    0  0.27406883425E+01  0.10252845393E+02 -0.36721499212E+01  0.11230177928E+02  0.00000000000E+00 0.  1.
</event>
<event>
 8    1  0.1210161E-006  0.9118800E+02  0.7816164E-02  0.1184000E+00
        -11   -1    0    0    0    0  0.00000000000E+00  0.00000000000E+00  0.45593999997E+02  0.45594000000E+02  0.51100000000E-03 0.  1.
         11   -1    0    0    0    0 -0.00000000000E+00 -0.00000000000E+00 -0.45593999997E+02  0.45594000000E+02  0.51100000000E-03 0. -1.
         23    2    1    2    0    0  0.88817841970E-15  0.00000000000E+00  0.00000000000E+00  0.91188000000E+02  0.91188000000E+02 0.  0.
    9900012    2    3    3    0    0  0.43408739894E+01  0.25529833263E+02  0.26175638435E+02  0.54367087179E+02  0.40000006843E+02 0.  0.
         12    1    3    3    0    0 -0.43408739894E+01 -0.25529833263E+02 -0.26175638435E+02  0.36820912821E+02  0.00000000000E+00 0. -1.
         11    1    4    4    0    0 -0.29172724868E+01  0.12820943138E+02  0.24041736857E+02  0.27402411811E+02  0.51100000000E-03 0. -1.
        -11    1    4    4    0    0 -0.69173314896E+01  0.10436904421E+02  0.11808955777E+01  0.12576683325E+02  0.51100000000E-03 0.  1.
         12    1    4    4    0    0  0.14175477966E+02  0.22719857046E+01  0.95300600090E+00  0.14387992043E+02  0.00000000000E+00 0. -1.
</event>
<event>
 8    1  0.1210161E-006  0.9118800E+02  0.7816164E-02  0.1184000E+00
        -11   -1    0    0    0    0  0.00000000000E+00  0.00000000000E+00  0.45593999997E+02  0.45594000000E+02  0.51100000000E-03 0.  1.
         11   -1    0    0    0    0 -0.00000000000E+00 -0.00000000000E+00 -0.45593999997E+02  0.45594000000E+02  0.51100000000E-03 0. -1.
         23    2    1    2    0    0 -0.66613381478E-15  0.00000000000E+00  0.00000000000E+00  0.91188000000E+02  0.91188000000E+02 0.  0.
    9900012    2    3    3    0    0 -0.17886926957E+01  0.35190166956E+02  0.10687452722E+02  0.54367232523E+02  0.40000338180E+02 0.  0.
         12    1    3    3    0    0  0.17886926957E+01 -0.35190166956E+02 -0.10687452722E+02  0.36820767477E+02  0.00000000000E+00 0. -1.
         11    1    4    4    0    0 -0.57222551021E+01  0.81646753836E+01 -0.83862679291E+01  0.13028262264E+02  0.51100000000E-03 0. -1.
        -11    1    4    4    0    0 -0.69513119180E+01  0.17450475810E+02  0.19230826210E+01  0.18882216247E+02  0.51100000000E-03 0.  1.
        -12    1    4    4    0    0  0.10884874324E+02  0.95750157626E+01  0.17150638030E+02  0.22456754012E+02  0.00000000000E+00 0.  1.
</event>
<event>
 8    1  0.1210161E-006  0.9118800E+02  0.7816164E-02  0.1184000E+00
        -11   -1    0    0    0    0  0.00000000000E+00  0.00000000000E+00  0.45593999997E+02  0.45594000000E+02  0.51100000000E-03 0.  1.
         11   -1    0    0    0    0 -0.00000000000E+00 -0.00000000000E+00 -0.45593999997E+02  0.45594000000E+02  0.51100000000E-03 0. -1.
         23    2    1    2    0    0  0.00000000000E+00  0.00000000000E+00 -0.35527136788E-14  0.91188000000E+02  0.91188000000E+02 0.  0.
    9900012    2    3    3    0    0  0.21305249589E+02  0.17861471518E+02 -0.24141952133E+02  0.54367086410E+02  0.40000005088E+02 0.  0.
        -12    1    3    3    0    0 -0.21305249589E+02 -0.17861471518E+02  0.24141952133E+02  0.36820913590E+02  0.00000000000E+00 0.  1.
         11    1    4    4    0    0  0.55833426959E+01  0.99098890954E+01 -0.19332197247E+02  0.22430190998E+02  0.51100000000E-03 0. -1.
        -11    1    4    4    0    0  0.97336111122E+01  0.43757474855E+01  0.10587980095E+02  0.15033152500E+02  0.51100000000E-03 0.  1.
        -12    1    4    4    0    0  0.59882957812E+01  0.35758349375E+01 -0.15397734981E+02  0.16903742911E+02  0.00000000000E+00 0.  1.
</event>
<event>
 8    1  0.1210161E-006  0.9118800E+02  0.7816164E-02  0.1184000E+00
        -11   -1    0    0    0    0  0.00000000000E+00  0.00000000000E+00  0.45593999997E+02  0.45594000000E+02  0.51100000000E-03 0. -1.
         11   -1    0    0    0    0 -0.00000000000E+00 -0.00000000000E+00 -0.45593999997E+02  0.45594000000E+02  0.51100000000E-03 0.  1.
         23    2    1    2    0    0  0.17763568394E-14 -0.35527136788E-14  0.00000000000E+00  0.91188000000E+02  0.91188000000E+02 0.  0.
    9900012    2    3    3    0    0  0.55076395753E+01 -0.18249845518E+02 -0.31502211892E+02  0.54367077834E+02  0.39999985537E+02 0.  0.
         12    1    3    3    0    0 -0.55076395753E+01  0.18249845518E+02  0.31502211892E+02  0.36820922166E+02  0.00000000000E+00 0. -1.
         11    1    4    4    0    0 -0.90125046862E+01 -0.86221495970E+01 -0.16064274096E+02  0.20337836829E+02  0.51100000000E-03 0. -1.
        -11    1    4    4    0    0 -0.13206515102E+01  0.56195810147E+01  0.18478809598E+01  0.60612272268E+01  0.51100000000E-03 0.  1.
         12    1    4    4    0    0  0.15840795772E+02 -0.15247276935E+02 -0.17285818756E+02  0.27968013778E+02  0.00000000000E+00 0. -1.
</event>
<event>
 8    1  0.1210161E-006  0.9118800E+02  0.7816164E-02  0.1184000E+00
        -11   -1    0    0    0    0  0.00000000000E+00  0.00000000000E+00  0.45593999997E+02  0.45594000000E+02  0.51100000000E-03 0. -1.
         11   -1    0    0    0    0 -0.00000000000E+00 -0.00000000000E+00 -0.45593999997E+02  0.45594000000E+02  0.51100000000E-03 0.  1.
         23    2    1    2    0    0  0.00000000000E+00  0.00000000000E+00  0.00000000000E+00  0.91188000000E+02  0.91188000000E+02 0.  0.
    9900012    2    3    3    0    0  0.21946883418E+02  0.98542342139E+01 -0.27874860343E+02  0.54367089326E+02  0.40000011736E+02 0.  0.
         12    1    3    3    0    0 -0.21946883418E+02 -0.98542342139E+01  0.27874860343E+02  0.36820910674E+02  0.00000000000E+00 0. -1.
         11    1    4    4    0    0  0.22390765789E+02 -0.47877431833E+01 -0.96239502374E+01  0.24837256206E+02  0.51100000000E-03 0. -1.
        -11    1    4    4    0    0 -0.62274833413E+01  0.15826460582E+02 -0.11344154131E+02  0.20443782344E+02  0.51100000000E-03 0.  1.
        -12    1    4    4    0    0  0.57836009700E+01 -0.11844831854E+01 -0.69067559746E+01  0.90860507752E+01  0.00000000000E+00 0.  1.
</event>
<event>
 8    1  0.1210161E-006  0.9118800E+02  0.7816164E-02  0.1184000E+00
        -11   -1    0    0    0    0  0.00000000000E+00  0.00000000000E+00  0.45593999997E+02  0.45594000000E+02  0.51100000000E-03 0. -1.
         11   -1    0    0    0    0 -0.00000000000E+00 -0.00000000000E+00 -0.45593999997E+02  0.45594000000E+02  0.51100000000E-03 0.  1.
         23    2    1    2    0    0  0.35527136788E-14  0.00000000000E+00 -0.35527136788E-14  0.91188000000E+02  0.91188000000E+02 0.  0.
    9900012    2    3    3    0    0  0.25955178201E+02 -0.11166801907E+02 -0.23609547935E+02  0.54367088904E+02  0.40000010774E+02 0.  0.
         12    1    3    3    0    0 -0.25955178201E+02  0.11166801907E+02  0.23609547935E+02  0.36820911096E+02  0.00000000000E+00 0. -1.
         11    1    4    4    0    0  0.61803685955E+01 -0.19115799668E+02 -0.66177310612E+01  0.21151953044E+02  0.51100000000E-03 0. -1.
        -11    1    4    4    0    0  0.41324323392E+00  0.18947500548E+01 -0.12223269223E+02  0.12376152815E+02  0.51100000000E-03 0.  1.
         12    1    4    4    0    0  0.19361566371E+02  0.60542477064E+01 -0.47685476508E+01  0.20838983045E+02  0.00000000000E+00 0. -1.
</event>
<event>
 8    1  0.1210161E-006  0.9118800E+02  0.7816164E-02  0.1184000E+00
        -11   -1    0    0    0    0  0.00000000000E+00  0.00000000000E+00  0.45593999997E+02  0.45594000000E+02  0.51100000000E-03 0. -1.
         11   -1    0    0    0    0 -0.00000000000E+00 -0.00000000000E+00 -0.45593999997E+02  0.45594000000E+02  0.51100000000E-03 0.  1.
         23    2    1    2    0    0  0.17763568394E-14  0.00000000000E+00  0.71054273576E-14  0.91188000000E+02  0.91188000000E+02 0.  0.
    9900012    2    3    3    0    0  0.13166855380E+02  0.63837503230E+01  0.33788480181E+02  0.54367085539E+02  0.40000003103E+02 0.  0.
        -12    1    3    3    0    0 -0.13166855380E+02 -0.63837503230E+01 -0.33788480181E+02  0.36820914461E+02  0.00000000000E+00 0.  1.
         11    1    4    4    0    0  0.64202804750E+01  0.14041164600E+02  0.13481893405E+02  0.20497213341E+02  0.51100000000E-03 0. -1.
        -11    1    4    4    0    0  0.15688161422E+00 -0.59981734291E+01  0.24935793278E+02  0.25647543410E+02  0.51100000000E-03 0.  1.
        -12    1    4    4    0    0  0.65896932907E+01 -0.16592408474E+01 -0.46292065021E+01  0.82223287878E+01  0.00000000000E+00 0.  1.
</event>
<event>
 8    1  0.1210161E-006  0.9118800E+02  0.7816164E-02  0.1184000E+00
        -11   -1    0    0    0    0  0.00000000000E+00  0.00000000000E+00  0.45593999997E+02  0.45594000000E+02  0.51100000000E-03 0. -1.
         11   -1    0    0    0    0 -0.00000000000E+00 -0.00000000000E+00 -0.45593999997E+02  0.45594000000E+02  0.51100000000E-03 0.  1.
         23    2    1    2    0    0  0.00000000000E+00 -0.44408920985E-15  0.00000000000E+00  0.91188000000E+02  0.91188000000E+02 0.  0.
    9900012    2    3    3    0    0 -0.24986545150E+02 -0.28918434380E+01 -0.26890321721E+02  0.54367087473E+02  0.40000007513E+02 0.  0.
         12    1    3    3    0    0  0.24986545150E+02  0.28918434380E+01  0.26890321721E+02  0.36820912527E+02  0.00000000000E+00 0. -1.
         11    1    4    4    0    0 -0.15952937171E+02 -0.10914698713E+02 -0.51007479550E+01  0.19991110082E+02  0.51100000000E-03 0. -1.
        -11    1    4    4    0    0  0.19618404818E+01  0.12833848172E+02 -0.53983836904E+01  0.14060548485E+02  0.51100000000E-03 0.  1.
        -12    1    4    4    0    0 -0.10995448462E+02 -0.48109928969E+01 -0.16391190076E+02  0.20315428906E+02  0.00000000000E+00 0.  1.
</event>
<event>
 8    1  0.1210161E-006  0.9118800E+02  0.7816164E-02  0.1184000E+00
        -11   -1    0    0    0    0  0.00000000000E+00  0.00000000000E+00  0.45593999997E+02  0.45594000000E+02  0.51100000000E-03 0.  1.
         11   -1    0    0    0    0 -0.00000000000E+00 -0.00000000000E+00 -0.45593999997E+02  0.45594000000E+02  0.51100000000E-03 0. -1.
         23    2    1    2    0    0  0.17763568394E-14  0.35527136788E-14  0.35527136788E-14  0.91188000000E+02  0.91188000000E+02 0.  0.
    9900012    2    3    3    0    0  0.80912752985E+01  0.16982293991E+02  0.31653024974E+02  0.54367067976E+02  0.39999963065E+02 0.  0.
         12    1    3    3    0    0 -0.80912752985E+01 -0.16982293991E+02 -0.31653024974E+02  0.36820932024E+02  0.00000000000E+00 0. -1.
         11    1    4    4    0    0  0.12841437063E+01  0.19067031059E+02 -0.71284567875E+00  0.19123515568E+02  0.51100000000E-03 0. -1.
        -11    1    4    4    0    0  0.96015186220E+01  0.77928657318E+00  0.25970834541E+02  0.27699832029E+02  0.51100000000E-03 0.  1.
         12    1    4    4    0    0 -0.27943870298E+01 -0.28640236416E+01  0.63950361117E+01  0.75437203793E+01  0.00000000000E+00 0. -1.
</event>
<event>
 8    1  0.1210161E-006  0.9118800E+02  0.7816164E-02  0.1184000E+00
        -11   -1    0    0    0    0  0.00000000000E+00  0.00000000000E+00  0.45593999997E+02  0.45594000000E+02  0.51100000000E-03 0. -1.
         11   -1    0    0    0    0 -0.00000000000E+00 -0.00000000000E+00 -0.45593999997E+02  0.45594000000E+02  0.51100000000E-03 0.  1.
         23    2    1    2    0    0  0.17763568394E-14 -0.17763568394E-14  0.00000000000E+00  0.91188000000E+02  0.91188000000E+02 0.  0.
    9900012    2    3    3    0    0 -0.14545187960E+02  0.28213143450E+01  0.33708412188E+02  0.54367090727E+02  0.40000014931E+02 0.  0.
        -12    1    3    3    0    0  0.14545187960E+02 -0.28213143450E+01 -0.33708412188E+02  0.36820909273E+02  0.00000000000E+00 0.  1.
         11    1    4    4    0    0 -0.20788457166E+01 -0.29484990590E+01  0.11792270309E+02  0.12331783550E+02  0.51100000000E-03 0. -1.
        -11    1    4    4    0    0 -0.90108018510E+01 -0.13425630204E+02  0.12133622194E+02  0.20215510980E+02  0.51100000000E-03 0.  1.
         12    1    4    4    0    0 -0.34555403922E+01  0.19195443608E+02  0.97825196847E+01  0.21819796197E+02  0.00000000000E+00 0. -1.
</event>
<event>
 8    1  0.1210161E-006  0.9118800E+02  0.7816164E-02  0.1184000E+00
        -11   -1    0    0    0    0  0.00000000000E+00  0.00000000000E+00  0.45593999997E+02  0.45594000000E+02  0.51100000000E-03 0.  1.
         11   -1    0    0    0    0 -0.00000000000E+00 -0.00000000000E+00 -0.45593999997E+02  0.45594000000E+02  0.51100000000E-03 0. -1.
         23    2    1    2    0    0  0.00000000000E+00  0.00000000000E+00  0.00000000000E+00  0.91188000000E+02  0.91188000000E+02 0.  0.
    9900012    2    3    3    0    0 -0.25592920309E+02  0.19713055399E+02  0.17668546203E+02  0.54367086812E+02  0.40000006004E+02 0.  0.
         12    1    3    3    0    0  0.25592920309E+02 -0.19713055399E+02 -0.17668546203E+02  0.36820913188E+02  0.00000000000E+00 0. -1.
         11    1    4    4    0    0 -0.11275963467E+02  0.23119328255E+01 -0.21173858382E+00  0.11512481009E+02  0.51100000000E-03 0. -1.
        -11    1    4    4    0    0 -0.17702524000E+02  0.12837636973E+02  0.25344101368E+02  0.33473986220E+02  0.51100000000E-03 0.  1.
         12    1    4    4    0    0  0.33855671579E+01  0.45634856004E+01 -0.74638165810E+01  0.93806195829E+01  0.00000000000E+00 0. -1.
</event>
<event>
 8    1  0.1210161E-006  0.9118800E+02  0.7816164E-02  0.1184000E+00
        -11   -1    0    0    0    0  0.00000000000E+00  0.00000000000E+00  0.45593999997E+02  0.45594000000E+02  0.51100000000E-03 0. -1.
         11   -1    0    0    0    0 -0.00000000000E+00 -0.00000000000E+00 -0.45593999997E+02  0.45594000000E+02  0.51100000000E-03 0.  1.
         23    2    1    2    0    0  0.35527136788E-14  0.00000000000E+00  0.17763568394E-14  0.91188000000E+02  0.91188000000E+02 0.  0.
    9900012    2    3    3    0    0 -0.21376768579E+02  0.26464363209E+02  0.14087282976E+02  0.54367078005E+02  0.39999985928E+02 0.  0.
        -12    1    3    3    0    0  0.21376768579E+02 -0.26464363209E+02 -0.14087282976E+02  0.36820921995E+02  0.00000000000E+00 0.  1.
         11    1    4    4    0    0  0.87839930347E+00 -0.82992239682E+01  0.29706092665E+01  0.88585113584E+01  0.51100000000E-03 0.  1.
        -11    1    4    4    0    0 -0.10945763553E+02  0.46386843952E+01  0.19187823603E+01  0.12041962410E+02  0.51100000000E-03 0. -1.
        -12    1    4    4    0    0 -0.11309404330E+02  0.30124902782E+02  0.91978913492E+01  0.33466604237E+02  0.00000000000E+00 0.  1.
</event>
<event>
 8    1  0.1210161E-006  0.9118800E+02  0.7816164E-02  0.1184000E+00
        -11   -1    0    0    0    0  0.00000000000E+00  0.00000000000E+00  0.45593999997E+02  0.45594000000E+02  0.51100000000E-03 0. -1.
         11   -1    0    0    0    0 -0.00000000000E+00 -0.00000000000E+00 -0.45593999997E+02  0.45594000000E+02  0.51100000000E-03 0.  1.
         23    2    1    2    0    0  0.00000000000E+00 -0.35527136788E-14  0.00000000000E+00  0.91188000000E+02  0.91188000000E+02 0.  0.
    9900012    2    3    3    0    0 -0.98227469324E+01  0.27783483298E+02  0.22076486017E+02  0.54367088329E+02  0.40000009463E+02 0.  0.
        -12    1    3    3    0    0  0.98227469324E+01 -0.27783483298E+02 -0.22076486017E+02  0.36820911671E+02  0.00000000000E+00 0.  1.
         11    1    4    4    0    0 -0.34537106857E+01  0.31841935718E+02  0.10647254412E+02  0.33752052005E+02  0.51100000000E-03 0. -1.
        -11    1    4    4    0    0  0.31265760270E+01 -0.21383694305E+01  0.10161624323E+02  0.10844662771E+02  0.51100000000E-03 0.  1.
         12    1    4    4    0    0 -0.94956122737E+01 -0.19200829896E+01  0.12676072816E+01  0.97703735528E+01  0.00000000000E+00 0. -1.
</event>
<event>
 8    1  0.1210161E-006  0.9118800E+02  0.7816164E-02  0.1184000E+00
        -11   -1    0    0    0    0  0.00000000000E+00  0.00000000000E+00  0.45593999997E+02  0.45594000000E+02  0.51100000000E-03 0. -1.
         11   -1    0    0    0    0 -0.00000000000E+00 -0.00000000000E+00 -0.45593999997E+02  0.45594000000E+02  0.51100000000E-03 0.  1.
         23    2    1    2    0    0 -0.53290705182E-14  0.35527136788E-14  0.00000000000E+00  0.91188000000E+02  0.91188000000E+02 0.  0.
    9900012    2    3    3    0    0 -0.41115341465E+01  0.26483718505E+02 -0.25248497651E+02  0.54367099787E+02  0.40000035584E+02 0.  0.
         12    1    3    3    0    0  0.41115341465E+01 -0.26483718505E+02  0.25248497651E+02  0.36820900213E+02  0.00000000000E+00 0. -1.
         11    1    4    4    0    0  0.14351483901E+02  0.22128605404E+02 -0.18762450285E+02  0.32367727882E+02  0.51100000000E-03 0. -1.
        -11    1    4    4    0    0 -0.59367464474E+01  0.49448664935E+01 -0.53708965016E+01  0.94097392371E+01  0.51100000000E-03 0.  1.
         12    1    4    4    0    0 -0.12526271600E+02 -0.58975339225E+00 -0.11151508644E+01  0.12589632668E+02  0.00000000000E+00 0. -1.
</event>
<event>
 8    1  0.1210161E-006  0.9118800E+02  0.7816164E-02  0.1184000E+00
        -11   -1    0    0    0    0  0.00000000000E+00  0.00000000000E+00  0.45593999997E+02  0.45594000000E+02  0.51100000000E-03 0.  1.
         11   -1    0    0    0    0 -0.00000000000E+00 -0.00000000000E+00 -0.45593999997E+02  0.45594000000E+02  0.51100000000E-03 0. -1.
         23    2    1    2    0    0  0.00000000000E+00  0.00000000000E+00 -0.88817841970E-15  0.91188000000E+02  0.91188000000E+02 0.  0.
    9900012    2    3    3    0    0 -0.31721848332E+02  0.17879443648E+02 -0.54608658531E+01  0.54367201222E+02  0.40000266826E+02 0.  0.
        -12    1    3    3    0    0  0.31721848332E+02 -0.17879443648E+02  0.54608658531E+01  0.36820798778E+02  0.00000000000E+00 0.  1.
         11    1    4    4    0    0 -0.22504509277E+01  0.15624807582E+02  0.40824361683E+01  0.16305380298E+02  0.51100000000E-03 0. -1.
        -11    1    4    4    0    0 -0.24054023196E+02  0.10672339803E+02 -0.97115810169E+01  0.28050127894E+02  0.51100000000E-03 0.  1.
        -12    1    4    4    0    0 -0.54173742080E+01 -0.84177037363E+01  0.16827899548E+00  0.10011693030E+02  0.00000000000E+00 0.  1.
</event>
<event>
 8    1  0.1210161E-006  0.9118800E+02  0.7816164E-02  0.1184000E+00
        -11   -1    0    0    0    0  0.00000000000E+00  0.00000000000E+00  0.45593999997E+02  0.45594000000E+02  0.51100000000E-03 0.  1.
         11   -1    0    0    0    0 -0.00000000000E+00 -0.00000000000E+00 -0.45593999997E+02  0.45594000000E+02  0.51100000000E-03 0. -1.
         23    2    1    2    0    0  0.17763568394E-14  0.00000000000E+00  0.00000000000E+00  0.91188000000E+02  0.91188000000E+02 0.  0.
    9900012    2    3    3    0    0  0.65342258662E+01  0.19261904985E+02 -0.30693026455E+02  0.54367096096E+02  0.40000027170E+02 0.  0.
        -12    1    3    3    0    0 -0.65342258662E+01 -0.19261904985E+02  0.30693026455E+02  0.36820903904E+02  0.00000000000E+00 0.  1.
         11    1    4    4    0    0  0.64349119733E+01  0.20630984835E+02 -0.10041291253E+02  0.23830089334E+02  0.51100000000E-03 0. -1.
        -11    1    4    4    0    0  0.80920540446E+01 -0.44203515124E+00 -0.20972978912E+02  0.22484274026E+02  0.51100000000E-03 0.  1.
        -12    1    4    4    0    0 -0.79927401518E+01 -0.92704469867E+00  0.32124371035E+00  0.80527327367E+01  0.00000000000E+00 0.  1.
</event>
<event>
 8    1  0.1210161E-006  0.9118800E+02  0.7816164E-02  0.1184000E+00
        -11   -1    0    0    0    0  0.00000000000E+00  0.00000000000E+00  0.45593999997E+02  0.45594000000E+02  0.51100000000E-03 0. -1.
         11   -1    0    0    0    0 -0.00000000000E+00 -0.00000000000E+00 -0.45593999997E+02  0.45594000000E+02  0.51100000000E-03 0.  1.
         23    2    1    2    0    0  0.00000000000E+00  0.00000000000E+00  0.00000000000E+00  0.91188000000E+02  0.91188000000E+02 0.  0.
    9900012    2    3    3    0    0 -0.44815011534E+01 -0.34152674999E+02 -0.13011605951E+02  0.54366933318E+02  0.39999656084E+02 0.  0.
         12    1    3    3    0    0  0.44815011534E+01  0.34152674999E+02  0.13011605951E+02  0.36821066682E+02  0.00000000000E+00 0. -1.
         11    1    4    4    0    0 -0.42697857220E+01 -0.93162287843E+01  0.74181411747E+00  0.10274895489E+02  0.51100000000E-03 0. -1.
        -11    1    4    4    0    0 -0.17704612504E+00 -0.31243493331E+02 -0.18324736012E+02  0.36221308246E+02  0.51100000000E-03 0.  1.
         12    1    4    4    0    0 -0.34669306305E-01  0.64070471169E+01  0.45713159428E+01  0.78707295830E+01  0.00000000000E+00 0. -1.
</event>
<event>
 8    1  0.1210161E-006  0.9118800E+02  0.7816164E-02  0.1184000E+00
        -11   -1    0    0    0    0  0.00000000000E+00  0.00000000000E+00  0.45593999997E+02  0.45594000000E+02  0.51100000000E-03 0. -1.
         11   -1    0    0    0    0 -0.00000000000E+00 -0.00000000000E+00 -0.45593999997E+02  0.45594000000E+02  0.51100000000E-03 0.  1.
         23    2    1    2    0    0  0.00000000000E+00 -0.11102230246E-15 -0.14210854715E-13  0.91188000000E+02  0.91188000000E+02 0.  0.
    9900012    2    3    3    0    0 -0.14174204685E+02  0.64693312985E+00 -0.33977243527E+02  0.54367086396E+02  0.40000005057E+02 0.  0.
         12    1    3    3    0    0  0.14174204685E+02 -0.64693312985E+00  0.33977243527E+02  0.36820913604E+02  0.00000000000E+00 0. -1.
         11    1    4    4    0    0  0.33239542519E+01  0.95672447277E+01 -0.97357997529E+01  0.14048723808E+02  0.51100000000E-03 0. -1.
        -11    1    4    4    0    0 -0.68889766772E+01  0.10165299478E+01  0.43734716132E+01  0.82230521710E+01  0.51100000000E-03 0.  1.
        -12    1    4    4    0    0 -0.10609182260E+02 -0.99368415457E+01 -0.28614915387E+02  0.32095310417E+02  0.00000000000E+00 0.  1.
</event>
<event>
 8    1  0.1210161E-006  0.9118800E+02  0.7816164E-02  0.1184000E+00
        -11   -1    0    0    0    0  0.00000000000E+00  0.00000000000E+00  0.45593999997E+02  0.45594000000E+02  0.51100000000E-03 0.  1.
         11   -1    0    0    0    0 -0.00000000000E+00 -0.00000000000E+00 -0.45593999997E+02  0.45594000000E+02  0.51100000000E-03 0. -1.
         23    2    1    2    0    0  0.00000000000E+00  0.00000000000E+00  0.00000000000E+00  0.91188000000E+02  0.91188000000E+02 0.  0.
    9900012    2    3    3    0    0  0.22550782841E+02 -0.13564799837E+02  0.25753409667E+02  0.54367085959E+02  0.40000004060E+02 0.  0.
         12    1    3    3    0    0 -0.22550782841E+02  0.13564799837E+02 -0.25753409667E+02  0.36820914041E+02  0.00000000000E+00 0. -1.
         11    1    4    4    0    0 -0.41021576991E+01 -0.88611108144E+01  0.26271744112E+01  0.10111826161E+02  0.51100000000E-03 0. -1.
        -11    1    4    4    0    0  0.11866568401E+02 -0.15344881248E+02  0.13662014573E+02  0.23726176864E+02  0.51100000000E-03 0.  1.
        -12    1    4    4    0    0  0.14786372139E+02  0.10641192225E+02  0.94642206832E+01  0.20529082935E+02  0.00000000000E+00 0.  1.
</event>
<event>
 8    1  0.1210161E-006  0.9118800E+02  0.7816164E-02  0.1184000E+00
        -11   -1    0    0    0    0  0.00000000000E+00  0.00000000000E+00  0.45593999997E+02  0.45594000000E+02  0.51100000000E-03 0.  1.
         11   -1    0    0    0    0 -0.00000000000E+00 -0.00000000000E+00 -0.45593999997E+02  0.45594000000E+02  0.51100000000E-03 0. -1.
         23    2    1    2    0    0  0.00000000000E+00  0.35527136788E-14  0.00000000000E+00  0.91188000000E+02  0.91188000000E+02 0.  0.
    9900012    2    3    3    0    0 -0.11421949572E+02 -0.23961362527E+02  0.25518033891E+02  0.54367110822E+02  0.40000060741E+02 0.  0.
        -12    1    3    3    0    0  0.11421949572E+02  0.23961362527E+02 -0.25518033891E+02  0.36820889178E+02  0.00000000000E+00 0.  1.
         11    1    4    4    0    0  0.75342789723E+01 -0.58942995036E+01 -0.11057524131E+01  0.96296840515E+01  0.51100000000E-03 0.  1.
        -11    1    4    4    0    0  0.50351185096E+01 -0.14556440691E+01  0.96432104084E+01  0.10975555808E+02  0.51100000000E-03 0. -1.
         12    1    4    4    0    0 -0.23991347054E+02 -0.16611418954E+02  0.16980575896E+02  0.33761870962E+02  0.00000000000E+00 0. -1.
</event>
<event>
 8    1  0.1210161E-006  0.9118800E+02  0.7816164E-02  0.1184000E+00
        -11   -1    0    0    0    0  0.00000000000E+00  0.00000000000E+00  0.45593999997E+02  0.45594000000E+02  0.51100000000E-03 0.  1.
         11   -1    0    0    0    0 -0.00000000000E+00 -0.00000000000E+00 -0.45593999997E+02  0.45594000000E+02  0.51100000000E-03 0. -1.
         23    2    1    2    0    0 -0.35527136788E-14  0.00000000000E+00 -0.11102230246E-14  0.91188000000E+02  0.91188000000E+02 0.  0.
    9900012    2    3    3    0    0  0.29314189835E+02  0.22259925485E+02 -0.97679870626E+00  0.54367080077E+02  0.39999990651E+02 0.  0.
         12    1    3    3    0    0 -0.29314189835E+02 -0.22259925485E+02  0.97679870626E+00  0.36820919923E+02  0.00000000000E+00 0. -1.
         11    1    4    4    0    0  0.45589572690E+01  0.38447409062E+01 -0.10422388404E+02  0.12008010007E+02  0.51100000000E-03 0. -1.
        -11    1    4    4    0    0  0.24679751898E+02  0.23983182232E+01  0.25706363628E+01  0.24928904020E+02  0.51100000000E-03 0.  1.
        -12    1    4    4    0    0  0.75480667609E-01  0.16016866356E+02  0.68749533351E+01  0.17430166050E+02  0.00000000000E+00 0.  1.
</event>
<event>
 8    1  0.1210161E-006  0.9118800E+02  0.7816164E-02  0.1184000E+00
        -11   -1    0    0    0    0  0.00000000000E+00  0.00000000000E+00  0.45593999997E+02  0.45594000000E+02  0.51100000000E-03 0.  1.
         11   -1    0    0    0    0 -0.00000000000E+00 -0.00000000000E+00 -0.45593999997E+02  0.45594000000E+02  0.51100000000E-03 0. -1.
         23    2    1    2    0    0  0.00000000000E+00 -0.35527136788E-14  0.88817841970E-15  0.91188000000E+02  0.91188000000E+02 0.  0.
    9900012    2    3    3    0    0  0.24944551114E+02  0.26288670325E+02  0.65157519351E+01  0.54367084191E+02  0.40000000030E+02 0.  0.
         12    1    3    3    0    0 -0.24944551114E+02 -0.26288670325E+02 -0.65157519351E+01  0.36820915809E+02  0.00000000000E+00 0. -1.
         11    1    4    4    0    0  0.28332188271E+02  0.88451111346E+01 -0.11869140415E+01  0.29704505524E+02  0.51100000000E-03 0. -1.
        -11    1    4    4    0    0 -0.11957763360E+01  0.17220841758E+02  0.11165292563E+02  0.20558478304E+02  0.51100000000E-03 0.  1.
         12    1    4    4    0    0 -0.21918608211E+01  0.22271743281E+00 -0.34626265862E+01  0.41041003630E+01  0.00000000000E+00 0. -1.
</event>
<event>
 8    1  0.1210161E-006  0.9118800E+02  0.7816164E-02  0.1184000E+00
        -11   -1    0    0    0    0  0.00000000000E+00  0.00000000000E+00  0.45593999997E+02  0.45594000000E+02  0.51100000000E-03 0. -1.
         11   -1    0    0    0    0 -0.00000000000E+00 -0.00000000000E+00 -0.45593999997E+02  0.45594000000E+02  0.51100000000E-03 0.  1.
         23    2    1    2    0    0  0.27755575616E-14  0.00000000000E+00  0.00000000000E+00  0.91188000000E+02  0.91188000000E+02 0.  0.
    9900012    2    3    3    0    0 -0.85099612163E+00 -0.21486996554E+02 -0.29889201828E+02  0.54367087447E+02  0.40000007453E+02 0.  0.
         12    1    3    3    0    0  0.85099612163E+00  0.21486996554E+02  0.29889201828E+02  0.36820912553E+02  0.00000000000E+00 0. -1.
         11    1    4    4    0    0  0.22302911450E+01 -0.67637311580E+01  0.24200873127E+01  0.75219067151E+01  0.51100000000E-03 0. -1.
        -11    1    4    4    0    0  0.12439161736E+02 -0.10698350659E+02 -0.23166119283E+02  0.28387612340E+02  0.51100000000E-03 0.  1.
        -12    1    4    4    0    0 -0.15520449002E+02 -0.40249147369E+01 -0.91431698583E+01  0.18457568392E+02  0.00000000000E+00 0.  1.
</event>
<event>
 8    1  0.1210161E-006  0.9118800E+02  0.7816164E-02  0.1184000E+00
        -11   -1    0    0    0    0  0.00000000000E+00  0.00000000000E+00  0.45593999997E+02  0.45594000000E+02  0.51100000000E-03 0. -1.
         11   -1    0    0    0    0 -0.00000000000E+00 -0.00000000000E+00 -0.45593999997E+02  0.45594000000E+02  0.51100000000E-03 0.  1.
         23    2    1    2    0    0  0.00000000000E+00  0.00000000000E+00 -0.44408920985E-15  0.91188000000E+02  0.91188000000E+02 0.  0.
    9900012    2    3    3    0    0  0.62952008595E+01 -0.36258268687E+02 -0.12275734446E+01  0.54366830293E+02  0.39999421215E+02 0.  0.
        -12    1    3    3    0    0 -0.62952008595E+01  0.36258268687E+02  0.12275734446E+01  0.36821169707E+02  0.00000000000E+00 0.  1.
         11    1    4    4    0    0  0.63650613309E+01 -0.28855751832E+02  0.10586280881E+02  0.31388497299E+02  0.51100000000E-03 0. -1.
        -11    1    4    4    0    0  0.67611551677E+01 -0.96329516626E+01 -0.10289092059E+02  0.15632414804E+02  0.51100000000E-03 0.  1.
         12    1    4    4    0    0 -0.68310156391E+01  0.22304348078E+01 -0.15247622662E+01  0.73459181905E+01  0.00000000000E+00 0. -1.
</event>
<event>
 8    1  0.1210161E-006  0.9118800E+02  0.7816164E-02  0.1184000E+00
        -11   -1    0    0    0    0  0.00000000000E+00  0.00000000000E+00  0.45593999997E+02  0.45594000000E+02  0.51100000000E-03 0.  1.
         11   -1    0    0    0    0 -0.00000000000E+00 -0.00000000000E+00 -0.45593999997E+02  0.45594000000E+02  0.51100000000E-03 0. -1.
         23    2    1    2    0    0  0.00000000000E+00  0.17763568394E-14  0.71054273576E-14  0.91188000000E+02  0.91188000000E+02 0.  0.
    9900012    2    3    3    0    0  0.18822173772E+01 -0.10726715010E+02  0.35173490002E+02  0.54367088060E+02  0.40000008850E+02 0.  0.
         12    1    3    3    0    0 -0.18822173772E+01  0.10726715010E+02 -0.35173490002E+02  0.36820911940E+02  0.00000000000E+00 0. -1.
         11    1    4    4    0    0  0.93319593927E-01  0.43276767853E+01  0.15038872085E+02  0.15649446276E+02  0.51100000000E-03 0. -1.
        -11    1    4    4    0    0 -0.14686482554E+00  0.34435300645E+00  0.22942662250E+02  0.22945716368E+02  0.51100000000E-03 0.  1.
        -12    1    4    4    0    0  0.19357626088E+01 -0.15398744802E+02 -0.28080443323E+01  0.15771925416E+02  0.00000000000E+00 0.  1.
</event>
<event>
 8    1  0.1210161E-006  0.9118800E+02  0.7816164E-02  0.1184000E+00
        -11   -1    0    0    0    0  0.00000000000E+00  0.00000000000E+00  0.45593999997E+02  0.45594000000E+02  0.51100000000E-03 0.  1.
         11   -1    0    0    0    0 -0.00000000000E+00 -0.00000000000E+00 -0.45593999997E+02  0.45594000000E+02  0.51100000000E-03 0. -1.
         23    2    1    2    0    0 -0.13322676296E-14 -0.35527136788E-14  0.00000000000E+00  0.91188000000E+02  0.91188000000E+02 0.  0.
    9900012    2    3    3    0    0 -0.79793794524E+00 -0.30707277823E+02 -0.20302847533E+02  0.54367092431E+02  0.40000018815E+02 0.  0.
        -12    1    3    3    0    0  0.79793794524E+00  0.30707277823E+02  0.20302847533E+02  0.36820907569E+02  0.00000000000E+00 0.  1.
         11    1    4    4    0    0 -0.65089621866E+00 -0.20667163417E+02 -0.17363423863E+02  0.27000811064E+02  0.51100000000E-03 0. -1.
        -11    1    4    4    0    0 -0.10179278646E+02  0.25297131249E+01  0.17050417785E+01  0.10626585998E+02  0.51100000000E-03 0.  1.
        -12    1    4    4    0    0  0.10032236919E+02 -0.12569827530E+02 -0.46444654488E+01  0.16739695369E+02  0.00000000000E+00 0.  1.
</event>
<event>
 8    1  0.1210161E-006  0.9118800E+02  0.7816164E-02  0.1184000E+00
        -11   -1    0    0    0    0  0.00000000000E+00  0.00000000000E+00  0.45593999997E+02  0.45594000000E+02  0.51100000000E-03 0.  1.
         11   -1    0    0    0    0 -0.00000000000E+00 -0.00000000000E+00 -0.45593999997E+02  0.45594000000E+02  0.51100000000E-03 0. -1.
         23    2    1    2    0    0  0.35527136788E-14  0.88817841970E-15  0.35527136788E-14  0.91188000000E+02  0.91188000000E+02 0.  0.
    9900012    2    3    3    0    0  0.26126944962E+02 -0.58146912651E+01 -0.25285409582E+02  0.54367084405E+02  0.40000000517E+02 0.  0.
        -12    1    3    3    0    0 -0.26126944962E+02  0.58146912651E+01  0.25285409582E+02  0.36820915595E+02  0.00000000000E+00 0.  1.
         11    1    4    4    0    0  0.21491002103E+01  0.55753092284E+01  0.12178721829E+01  0.60980257150E+01  0.51100000000E-03 0. -1.
        -11    1    4    4    0    0 -0.73259379079E+01 -0.12680096169E+01 -0.52514076309E+01  0.91024445610E+01  0.51100000000E-03 0.  1.
         12    1    4    4    0    0  0.31303782660E+02 -0.10121990877E+02 -0.21251874134E+02  0.39166614129E+02  0.00000000000E+00 0. -1.
</event>
<event>
 8    1  0.1210161E-006  0.9118800E+02  0.7816164E-02  0.1184000E+00
        -11   -1    0    0    0    0  0.00000000000E+00  0.00000000000E+00  0.45593999997E+02  0.45594000000E+02  0.51100000000E-03 0.  1.
         11   -1    0    0    0    0 -0.00000000000E+00 -0.00000000000E+00 -0.45593999997E+02  0.45594000000E+02  0.51100000000E-03 0. -1.
         23    2    1    2    0    0  0.00000000000E+00  0.00000000000E+00  0.00000000000E+00  0.91188000000E+02  0.91188000000E+02 0.  0.
    9900012    2    3    3    0    0 -0.28786699894E+02  0.16408722585E+02  0.16057999049E+02  0.54367087448E+02  0.40000007456E+02 0.  0.
         12    1    3    3    0    0  0.28786699894E+02 -0.16408722585E+02 -0.16057999049E+02  0.36820912552E+02  0.00000000000E+00 0. -1.
         11    1    4    4    0    0  0.63937795177E+01  0.95784410518E+01 -0.16143462941E+01  0.11628975179E+02  0.51100000000E-03 0. -1.
        -11    1    4    4    0    0 -0.79202585257E+01  0.63288573238E+01 -0.19535247553E+00  0.10140172237E+02  0.51100000000E-03 0.  1.
         12    1    4    4    0    0 -0.27260220886E+02  0.50142420981E+00  0.17867697819E+02  0.32597940032E+02  0.00000000000E+00 0. -1.
</event>
<event>
 8    1  0.1210161E-006  0.9118800E+02  0.7816164E-02  0.1184000E+00
        -11   -1    0    0    0    0  0.00000000000E+00  0.00000000000E+00  0.45593999997E+02  0.45594000000E+02  0.51100000000E-03 0.  1.
         11   -1    0    0    0    0 -0.00000000000E+00 -0.00000000000E+00 -0.45593999997E+02  0.45594000000E+02  0.51100000000E-03 0. -1.
         23    2    1    2    0    0 -0.35527136788E-14 -0.17763568394E-14  0.00000000000E+00  0.91188000000E+02  0.91188000000E+02 0.  0.
    9900012    2    3    3    0    0  0.29963375447E+02  0.71895608594E+01  0.20156529076E+02  0.54367091295E+02  0.40000016225E+02 0.  0.
         12    1    3    3    0    0 -0.29963375447E+02 -0.71895608594E+01 -0.20156529076E+02  0.36820908705E+02  0.00000000000E+00 0. -1.
         11    1    4    4    0    0  0.67820832376E+01 -0.72513623546E+01 -0.15208085305E+01  0.10044489429E+02  0.51100000000E-03 0. -1.
        -11    1    4    4    0    0  0.76007161086E+01 -0.81963458013E+01  0.63991546370E+01  0.12880223220E+02  0.51100000000E-03 0.  1.
        -12    1    4    4    0    0  0.15580576100E+02  0.22637269015E+02  0.15278182969E+02  0.31442378646E+02  0.00000000000E+00 0.  1.
</event>
<event>
 8    1  0.1210161E-006  0.9118800E+02  0.7816164E-02  0.1184000E+00
        -11   -1    0    0    0    0  0.00000000000E+00  0.00000000000E+00  0.45593999997E+02  0.45594000000E+02  0.51100000000E-03 0. -1.
         11   -1    0    0    0    0 -0.00000000000E+00 -0.00000000000E+00 -0.45593999997E+02  0.45594000000E+02  0.51100000000E-03 0.  1.
         23    2    1    2    0    0 -0.11102230246E-15  0.00000000000E+00  0.00000000000E+00  0.91188000000E+02  0.91188000000E+02 0.  0.
    9900012    2    3    3    0    0  0.92942433081E+00  0.23100779834E+02  0.28657747775E+02  0.54367131379E+02  0.40000107604E+02 0.  0.
        -12    1    3    3    0    0 -0.92942433081E+00 -0.23100779834E+02 -0.28657747775E+02  0.36820868621E+02  0.00000000000E+00 0.  1.
         11    1    4    4    0    0  0.17804301064E+01  0.75530901283E+01  0.19991946662E+02  0.21445210035E+02  0.51100000000E-03 0. -1.
        -11    1    4    4    0    0 -0.31538860280E+01  0.13024678231E+02  0.18310241080E+02  0.22690398162E+02  0.51100000000E-03 0.  1.
        -12    1    4    4    0    0  0.23028802524E+01  0.25230114748E+01 -0.96444399664E+01  0.10231523182E+02  0.00000000000E+00 0.  1.
</event>
<event>
 8    1  0.1210161E-006  0.9118800E+02  0.7816164E-02  0.1184000E+00
        -11   -1    0    0    0    0  0.00000000000E+00  0.00000000000E+00  0.45593999997E+02  0.45594000000E+02  0.51100000000E-03 0.  1.
         11   -1    0    0    0    0 -0.00000000000E+00 -0.00000000000E+00 -0.45593999997E+02  0.45594000000E+02  0.51100000000E-03 0. -1.
         23    2    1    2    0    0  0.00000000000E+00  0.35527136788E-14 -0.35527136788E-14  0.91188000000E+02  0.91188000000E+02 0.  0.
    9900012    2    3    3    0    0 -0.28871378451E+02  0.18074089252E+02 -0.13983939976E+02  0.54367085112E+02  0.40000002130E+02 0.  0.
         12    1    3    3    0    0  0.28871378451E+02 -0.18074089252E+02  0.13983939976E+02  0.36820914888E+02  0.00000000000E+00 0. -1.
         11    1    4    4    0    0 -0.11082236506E+02 -0.45549677251E+01 -0.12130225499E+02  0.17050104629E+02  0.51100000000E-03 0. -1.
        -11    1    4    4    0    0  0.90028428331E+00  0.37951254073E+01  0.80904020097E+01  0.89815418268E+01  0.51100000000E-03 0.  1.
        -12    1    4    4    0    0 -0.18689426228E+02  0.18833931570E+02 -0.99441164867E+01  0.28335438656E+02  0.00000000000E+00 0.  1.
</event>
<event>
 8    1  0.1210161E-006  0.9118800E+02  0.7816164E-02  0.1184000E+00
        -11   -1    0    0    0    0  0.00000000000E+00  0.00000000000E+00  0.45593999997E+02  0.45594000000E+02  0.51100000000E-03 0. -1.
         11   -1    0    0    0    0 -0.00000000000E+00 -0.00000000000E+00 -0.45593999997E+02  0.45594000000E+02  0.51100000000E-03 0.  1.
         23    2    1    2    0    0 -0.35527136788E-14 -0.35527136788E-14 -0.15543122345E-14  0.91188000000E+02  0.91188000000E+02 0.  0.
    9900012    2    3    3    0    0 -0.27864268019E+02 -0.24059624666E+02 -0.70478739680E+00  0.54367086153E+02  0.40000004503E+02 0.  0.
        -12    1    3    3    0    0  0.27864268019E+02  0.24059624666E+02  0.70478739680E+00  0.36820913847E+02  0.00000000000E+00 0.  1.
         11    1    4    4    0    0 -0.33959063048E+01 -0.98868157385E+01  0.95274667983E+01  0.14144042171E+02  0.51100000000E-03 0. -1.
        -11    1    4    4    0    0 -0.17051355133E+02 -0.90004086668E+01  0.72029423169E+01  0.20582479110E+02  0.51100000000E-03 0.  1.
        -12    1    4    4    0    0 -0.74170065808E+01 -0.51724002602E+01 -0.17435196512E+02  0.19640564872E+02  0.00000000000E+00 0.  1.
</event>
<event>
 8    1  0.1210161E-006  0.9118800E+02  0.7816164E-02  0.1184000E+00
        -11   -1    0    0    0    0  0.00000000000E+00  0.00000000000E+00  0.45593999997E+02  0.45594000000E+02  0.51100000000E-03 0.  1.
         11   -1    0    0    0    0 -0.00000000000E+00 -0.00000000000E+00 -0.45593999997E+02  0.45594000000E+02  0.51100000000E-03 0. -1.
         23    2    1    2    0    0 -0.26645352591E-14  0.44408920985E-15  0.00000000000E+00  0.91188000000E+02  0.91188000000E+02 0.  0.
    9900012    2    3    3    0    0  0.78425975162E+01  0.24948408318E+01  0.35889404196E+02  0.54367083389E+02  0.39999998201E+02 0.  0.
         12    1    3    3    0    0 -0.78425975162E+01 -0.24948408318E+01 -0.35889404196E+02  0.36820916611E+02  0.00000000000E+00 0. -1.
         11    1    4    4    0    0  0.57149676934E+01  0.15947146296E+01  0.55198316520E+00  0.59589140086E+01  0.51100000000E-03 0. -1.
        -11    1    4    4    0    0 -0.88175852291E+01 -0.12613055940E+02  0.19886920216E+02  0.25146144542E+02  0.51100000000E-03 0.  1.
        -12    1    4    4    0    0  0.10945215052E+02  0.13513182142E+02  0.15450500815E+02  0.23262024838E+02  0.00000000000E+00 0.  1.
</event>
<event>
 8    1  0.1210161E-006  0.9118800E+02  0.7816164E-02  0.1184000E+00
        -11   -1    0    0    0    0  0.00000000000E+00  0.00000000000E+00  0.45593999997E+02  0.45594000000E+02  0.51100000000E-03 0.  1.
         11   -1    0    0    0    0 -0.00000000000E+00 -0.00000000000E+00 -0.45593999997E+02  0.45594000000E+02  0.51100000000E-03 0. -1.
         23    2    1    2    0    0 -0.16653345369E-14  0.17763568394E-14  0.00000000000E+00  0.91188000000E+02  0.91188000000E+02 0.  0.
    9900012    2    3    3    0    0 -0.84270624332E+00  0.94470904601E+01 -0.35578389501E+02  0.54367089209E+02  0.40000011470E+02 0.  0.
        -12    1    3    3    0    0  0.84270624332E+00 -0.94470904601E+01  0.35578389501E+02  0.36820910791E+02  0.00000000000E+00 0.  1.
         11    1    4    4    0    0 -0.16717859972E+02 -0.18374220950E+01 -0.17803287365E+02  0.24491222984E+02  0.51100000000E-03 0. -1.
        -11    1    4    4    0    0  0.47921735415E+01  0.63659465001E+01 -0.15655554652E+02  0.17566632967E+02  0.51100000000E-03 0.  1.
        -12    1    4    4    0    0  0.11082980187E+02  0.49185660550E+01 -0.21195474851E+01  0.12309233258E+02  0.00000000000E+00 0.  1.
</event>
<event>
 8    1  0.1210161E-006  0.9118800E+02  0.7816164E-02  0.1184000E+00
        -11   -1    0    0    0    0  0.00000000000E+00  0.00000000000E+00  0.45593999997E+02  0.45594000000E+02  0.51100000000E-03 0.  1.
         11   -1    0    0    0    0 -0.00000000000E+00 -0.00000000000E+00 -0.45593999997E+02  0.45594000000E+02  0.51100000000E-03 0. -1.
         23    2    1    2    0    0  0.35527136788E-14  0.00000000000E+00  0.00000000000E+00  0.91188000000E+02  0.91188000000E+02 0.  0.
    9900012    2    3    3    0    0 -0.15019207860E+02 -0.83208946090E+01 -0.32572407383E+02  0.54367141583E+02  0.40000130866E+02 0.  0.
        -12    1    3    3    0    0  0.15019207860E+02  0.83208946090E+01  0.32572407383E+02  0.36820858417E+02  0.00000000000E+00 0.  1.
         11    1    4    4    0    0  0.38464814490E+00  0.46644348397E+01  0.92852328948E+00  0.47714842900E+01  0.51100000000E-03 0. -1.
        -11    1    4    4    0    0 -0.73315846555E+01  0.98361286982E+01 -0.12991493541E+02  0.17868420915E+02  0.51100000000E-03 0.  1.
         12    1    4    4    0    0 -0.80722713497E+01 -0.22821458147E+02 -0.20509437132E+02  0.31727236378E+02  0.00000000000E+00 0. -1.
</event>
<event>
 8    1  0.1210161E-006  0.9118800E+02  0.7816164E-02  0.1184000E+00
        -11   -1    0    0    0    0  0.00000000000E+00  0.00000000000E+00  0.45593999997E+02  0.45594000000E+02  0.51100000000E-03 0. -1.
         11   -1    0    0    0    0 -0.00000000000E+00 -0.00000000000E+00 -0.45593999997E+02  0.45594000000E+02  0.51100000000E-03 0.  1.
         23    2    1    2    0    0  0.71054273576E-14  0.17763568394E-14 -0.17763568394E-14  0.91188000000E+02  0.91188000000E+02 0.  0.
    9900012    2    3    3    0    0  0.32258182540E+02 -0.12942816656E+02  0.12151969028E+02  0.54367120122E+02  0.40000081941E+02 0.  0.
         12    1    3    3    0    0 -0.32258182540E+02  0.12942816656E+02 -0.12151969028E+02  0.36820879878E+02  0.00000000000E+00 0. -1.
         11    1    4    4    0    0  0.11245092542E+01  0.12749724442E+01 -0.17481678960E+01  0.24384763788E+01  0.51100000000E-03 0. -1.
        -11    1    4    4    0    0  0.12045346913E+02 -0.15872572311E+02 -0.91745069715E+01  0.21936283014E+02  0.51100000000E-03 0.  1.
         12    1    4    4    0    0  0.19088326373E+02  0.16547832110E+01  0.23074643896E+02  0.29992360729E+02  0.00000000000E+00 0. -1.
</event>
<event>
 8    1  0.1210161E-006  0.9118800E+02  0.7816164E-02  0.1184000E+00
        -11   -1    0    0    0    0  0.00000000000E+00  0.00000000000E+00  0.45593999997E+02  0.45594000000E+02  0.51100000000E-03 0. -1.
         11   -1    0    0    0    0 -0.00000000000E+00 -0.00000000000E+00 -0.45593999997E+02  0.45594000000E+02  0.51100000000E-03 0.  1.
         23    2    1    2    0    0 -0.44408920985E-15  0.00000000000E+00  0.00000000000E+00  0.91188000000E+02  0.91188000000E+02 0.  0.
    9900012    2    3    3    0    0 -0.14252818335E+01 -0.28915637231E+02 -0.22751576865E+02  0.54367085365E+02  0.40000002706E+02 0.  0.
         12    1    3    3    0    0  0.14252818335E+01  0.28915637231E+02  0.22751576865E+02  0.36820914635E+02  0.00000000000E+00 0. -1.
         11    1    4    4    0    0  0.10200109886E+02 -0.11518613934E+02 -0.77895893217E+01  0.17245243133E+02  0.51100000000E-03 0. -1.
        -11    1    4    4    0    0 -0.81395346804E+01 -0.15294638183E+02 -0.22593906114E+02  0.28472136831E+02  0.51100000000E-03 0.  1.
         12    1    4    4    0    0 -0.34858570387E+01 -0.21023851134E+01  0.76319185708E+01  0.86497054014E+01  0.00000000000E+00 0. -1.
</event>
<event>
 8    1  0.1210161E-006  0.9118800E+02  0.7816164E-02  0.1184000E+00
        -11   -1    0    0    0    0  0.00000000000E+00  0.00000000000E+00  0.45593999997E+02  0.45594000000E+02  0.51100000000E-03 0.  1.
         11   -1    0    0    0    0 -0.00000000000E+00 -0.00000000000E+00 -0.45593999997E+02  0.45594000000E+02  0.51100000000E-03 0. -1.
         23    2    1    2    0    0  0.00000000000E+00  0.00000000000E+00  0.00000000000E+00  0.91188000000E+02  0.91188000000E+02 0.  0.
    9900012    2    3    3    0    0  0.74016955023E+01 -0.34873284474E+02 -0.92113341775E+01  0.54367085513E+02  0.40000003045E+02 0.  0.
        -12    1    3    3    0    0 -0.74016955023E+01  0.34873284474E+02  0.92113341775E+01  0.36820914487E+02  0.00000000000E+00 0.  1.
         11    1    4    4    0    0  0.28283934041E+01 -0.15272809804E+02  0.37945221169E+00  0.15537133353E+02  0.51100000000E-03 0. -1.
        -11    1    4    4    0    0 -0.51807846569E+01 -0.22415919872E+02 -0.14863125243E+02  0.27390262606E+02  0.51100000000E-03 0.  1.
        -12    1    4    4    0    0  0.97540867551E+01  0.28154452028E+01  0.52723388540E+01  0.11439689555E+02  0.00000000000E+00 0.  1.
</event>
<event>
 8    1  0.1210161E-006  0.9118800E+02  0.7816164E-02  0.1184000E+00
        -11   -1    0    0    0    0  0.00000000000E+00  0.00000000000E+00  0.45593999997E+02  0.45594000000E+02  0.51100000000E-03 0.  1.
         11   -1    0    0    0    0 -0.00000000000E+00 -0.00000000000E+00 -0.45593999997E+02  0.45594000000E+02  0.51100000000E-03 0. -1.
         23    2    1    2    0    0  0.33306690739E-15  0.00000000000E+00  0.00000000000E+00  0.91188000000E+02  0.91188000000E+02 0.  0.
    9900012    2    3    3    0    0 -0.48102413253E+00  0.11337377167E+02 -0.35028741584E+02  0.54367078744E+02  0.39999987612E+02 0.  0.
        -12    1    3    3    0    0  0.48102413253E+00 -0.11337377167E+02  0.35028741584E+02  0.36820921256E+02  0.00000000000E+00 0.  1.
         11    1    4    4    0    0 -0.21001771086E+01 -0.25125698443E+01 -0.71400773941E+00  0.33516501045E+01  0.51100000000E-03 0. -1.
        -11    1    4    4    0    0 -0.12538537337E+02  0.95524635312E+01 -0.32484773151E+02  0.36107131774E+02  0.51100000000E-03 0.  1.
        -12    1    4    4    0    0  0.14157690313E+02  0.42974834798E+01 -0.18299606937E+01  0.14908296865E+02  0.00000000000E+00 0.  1.
</event>
<event>
 8    1  0.1210161E-006  0.9118800E+02  0.7816164E-02  0.1184000E+00
        -11   -1    0    0    0    0  0.00000000000E+00  0.00000000000E+00  0.45593999997E+02  0.45594000000E+02  0.51100000000E-03 0. -1.
         11   -1    0    0    0    0 -0.00000000000E+00 -0.00000000000E+00 -0.45593999997E+02  0.45594000000E+02  0.51100000000E-03 0.  1.
         23    2    1    2    0    0  0.17763568394E-14  0.00000000000E+00 -0.35527136788E-14  0.91188000000E+02  0.91188000000E+02 0.  0.
    9900012    2    3    3    0    0  0.89310148544E+01 -0.19849242212E+02 -0.29698982033E+02  0.54367014455E+02  0.39999841052E+02 0.  0.
         12    1    3    3    0    0 -0.89310148544E+01  0.19849242212E+02  0.29698982033E+02  0.36820985545E+02  0.00000000000E+00 0. -1.
         11    1    4    4    0    0  0.21581368760E+01 -0.17859588452E+02 -0.11457349764E+02  0.21328228204E+02  0.51100000000E-03 0. -1.
        -11    1    4    4    0    0 -0.92475286395E+01 -0.52839340626E+01 -0.40842174996E+01  0.11406909220E+02  0.51100000000E-03 0.  1.
        -12    1    4    4    0    0  0.16020406618E+02  0.32942803020E+01 -0.14157414770E+02  0.21631877031E+02  0.00000000000E+00 0.  1.
</event>
<event>
 8    1  0.1210161E-006  0.9118800E+02  0.7816164E-02  0.1184000E+00
        -11   -1    0    0    0    0  0.00000000000E+00  0.00000000000E+00  0.45593999997E+02  0.45594000000E+02  0.51100000000E-03 0.  1.
         11   -1    0    0    0    0 -0.00000000000E+00 -0.00000000000E+00 -0.45593999997E+02  0.45594000000E+02  0.51100000000E-03 0. -1.
         23    2    1    2    0    0  0.00000000000E+00 -0.71054273576E-14 -0.77715611724E-15  0.91188000000E+02  0.91188000000E+02 0.  0.
    9900012    2    3    3    0    0 -0.17687568347E+02 -0.32282810918E+02 -0.86619712601E+00  0.54367078607E+02  0.39999987300E+02 0.  0.
         12    1    3    3    0    0  0.17687568347E+02  0.32282810918E+02  0.86619712601E+00  0.36820921393E+02  0.00000000000E+00 0. -1.
         11    1    4    4    0    0  0.13953966137E+01 -0.21718951990E+02  0.81819768180E+01  0.23250908631E+02  0.51100000000E-03 0. -1.
        -11    1    4    4    0    0 -0.53167543557E+01 -0.14507765983E+02 -0.47582176073E+01  0.16167367929E+02  0.51100000000E-03 0.  1.
        -12    1    4    4    0    0 -0.13766210605E+02  0.39439070549E+01 -0.42899563367E+01  0.14948802047E+02  0.00000000000E+00 0.  1.
</event>
<event>
 8    1  0.1210161E-006  0.9118800E+02  0.7816164E-02  0.1184000E+00
        -11   -1    0    0    0    0  0.00000000000E+00  0.00000000000E+00  0.45593999997E+02  0.45594000000E+02  0.51100000000E-03 0. -1.
         11   -1    0    0    0    0 -0.00000000000E+00 -0.00000000000E+00 -0.45593999997E+02  0.45594000000E+02  0.51100000000E-03 0.  1.
         23    2    1    2    0    0  0.00000000000E+00  0.00000000000E+00  0.00000000000E+00  0.91188000000E+02  0.91188000000E+02 0.  0.
    9900012    2    3    3    0    0 -0.62913833215E+01 -0.12895803100E+02 -0.33910128194E+02  0.54367081545E+02  0.39999993999E+02 0.  0.
         12    1    3    3    0    0  0.62913833215E+01  0.12895803100E+02  0.33910128194E+02  0.36820918455E+02  0.00000000000E+00 0. -1.
         11    1    4    4    0    0  0.13693907155E+02 -0.44206311490E+00 -0.14631496340E+02  0.20044929493E+02  0.51100000000E-03 0. -1.
        -11    1    4    4    0    0 -0.17911895884E+02 -0.64859940571E+01 -0.20393385656E+02  0.27906886459E+02  0.51100000000E-03 0.  1.
         12    1    4    4    0    0 -0.20733945924E+01 -0.59677459284E+01  0.11147538016E+01  0.64152655939E+01  0.00000000000E+00 0. -1.
</event>
<event>
 8    1  0.1210161E-006  0.9118800E+02  0.7816164E-02  0.1184000E+00
        -11   -1    0    0    0    0  0.00000000000E+00  0.00000000000E+00  0.45593999997E+02  0.45594000000E+02  0.51100000000E-03 0.  1.
         11   -1    0    0    0    0 -0.00000000000E+00 -0.00000000000E+00 -0.45593999997E+02  0.45594000000E+02  0.51100000000E-03 0. -1.
         23    2    1    2    0    0  0.00000000000E+00 -0.88817841970E-15  0.00000000000E+00  0.91188000000E+02  0.91188000000E+02 0.  0.
    9900012    2    3    3    0    0  0.15433527299E+02  0.75005198878E+01  0.32578050002E+02  0.54367069737E+02  0.39999967079E+02 0.  0.
         12    1    3    3    0    0 -0.15433527299E+02 -0.75005198878E+01 -0.32578050002E+02  0.36820930263E+02  0.00000000000E+00 0. -1.
         11    1    4    4    0    0  0.10671198103E+02  0.44439535000E+01  0.30213879513E+01  0.11947885883E+02  0.51100000000E-03 0. -1.
        -11    1    4    4    0    0  0.88747782040E+01  0.25884635182E+01  0.34646630257E+02  0.35858762109E+02  0.51100000000E-03 0.  1.
         12    1    4    4    0    0 -0.41124490076E+01  0.46810286958E+00 -0.50899682058E+01  0.65604217451E+01  0.00000000000E+00 0. -1.
</event>
<event>
 8    1  0.1210161E-006  0.9118800E+02  0.7816164E-02  0.1184000E+00
        -11   -1    0    0    0    0  0.00000000000E+00  0.00000000000E+00  0.45593999997E+02  0.45594000000E+02  0.51100000000E-03 0.  1.
         11   -1    0    0    0    0 -0.00000000000E+00 -0.00000000000E+00 -0.45593999997E+02  0.45594000000E+02  0.51100000000E-03 0. -1.
         23    2    1    2    0    0  0.00000000000E+00 -0.35527136788E-14  0.00000000000E+00  0.91188000000E+02  0.91188000000E+02 0.  0.
    9900012    2    3    3    0    0  0.23293639761E+02 -0.14683893838E+02  0.24445237856E+02  0.54367081415E+02  0.39999993702E+02 0.  0.
         12    1    3    3    0    0 -0.23293639761E+02  0.14683893838E+02 -0.24445237856E+02  0.36820918585E+02  0.00000000000E+00 0. -1.
         11    1    4    4    0    0 -0.19876853067E+01  0.34543004177E+01  0.83886286489E+01  0.92872049146E+01  0.51100000000E-03 0. -1.
        -11    1    4    4    0    0  0.14084844243E+01 -0.16429831408E+02  0.42888267174E+00  0.16495670010E+02  0.51100000000E-03 0.  1.
         12    1    4    4    0    0  0.23872840644E+02 -0.17083628479E+01  0.15627726536E+02  0.28584206490E+02  0.00000000000E+00 0. -1.
</event>
<event>
 8    1  0.1210161E-006  0.9118800E+02  0.7816164E-02  0.1184000E+00
        -11   -1    0    0    0    0  0.00000000000E+00  0.00000000000E+00  0.45593999997E+02  0.45594000000E+02  0.51100000000E-03 0.  1.
         11   -1    0    0    0    0 -0.00000000000E+00 -0.00000000000E+00 -0.45593999997E+02  0.45594000000E+02  0.51100000000E-03 0. -1.
         23    2    1    2    0    0  0.00000000000E+00 -0.35527136788E-14  0.00000000000E+00  0.91188000000E+02  0.91188000000E+02 0.  0.
    9900012    2    3    3    0    0 -0.40736201233E+01  0.29523280524E+02 -0.21623144429E+02  0.54367097665E+02  0.40000030746E+02 0.  0.
        -12    1    3    3    0    0  0.40736201233E+01 -0.29523280524E+02  0.21623144429E+02  0.36820902335E+02  0.00000000000E+00 0.  1.
         11    1    4    4    0    0  0.15718742312E+01 -0.12559545352E+01  0.66063747501E+01  0.69059682879E+01  0.51100000000E-03 0. -1.
        -11    1    4    4    0    0  0.66747227956E+01  0.10373756675E+02 -0.28846090863E+01  0.12668374867E+02  0.51100000000E-03 0.  1.
         12    1    4    4    0    0 -0.12320217150E+02  0.20405478385E+02 -0.25344910093E+02  0.34792754509E+02  0.00000000000E+00 0. -1.
</event>
<event>
 8    1  0.1210161E-006  0.9118800E+02  0.7816164E-02  0.1184000E+00
        -11   -1    0    0    0    0  0.00000000000E+00  0.00000000000E+00  0.45593999997E+02  0.45594000000E+02  0.51100000000E-03 0.  1.
         11   -1    0    0    0    0 -0.00000000000E+00 -0.00000000000E+00 -0.45593999997E+02  0.45594000000E+02  0.51100000000E-03 0. -1.
         23    2    1    2    0    0  0.13322676296E-14  0.00000000000E+00  0.00000000000E+00  0.91188000000E+02  0.91188000000E+02 0.  0.
    9900012    2    3    3    0    0  0.39250563613E+01 -0.16668661292E+02 -0.32596453787E+02  0.54367093762E+02  0.40000021849E+02 0.  0.
        -12    1    3    3    0    0 -0.39250563613E+01  0.16668661292E+02  0.32596453787E+02  0.36820906238E+02  0.00000000000E+00 0.  1.
         11    1    4    4    0    0  0.32135127716E+01 -0.14493650545E+01 -0.38391779119E+01  0.52121598877E+01  0.51100000000E-03 0. -1.
        -11    1    4    4    0    0  0.12325302413E+02 -0.21586329877E+02 -0.11466635484E+02  0.27374558384E+02  0.51100000000E-03 0.  1.
         12    1    4    4    0    0 -0.11613758823E+02  0.63670336393E+01 -0.17290640391E+02  0.21780375490E+02  0.00000000000E+00 0. -1.
</event>
<event>
 8    1  0.1210161E-006  0.9118800E+02  0.7816164E-02  0.1184000E+00
        -11   -1    0    0    0    0  0.00000000000E+00  0.00000000000E+00  0.45593999997E+02  0.45594000000E+02  0.51100000000E-03 0.  1.
         11   -1    0    0    0    0 -0.00000000000E+00 -0.00000000000E+00 -0.45593999997E+02  0.45594000000E+02  0.51100000000E-03 0. -1.
         23    2    1    2    0    0  0.88817841970E-15 -0.71054273576E-14 -0.17763568394E-14  0.91188000000E+02  0.91188000000E+02 0.  0.
    9900012    2    3    3    0    0 -0.63577819922E+01 -0.35241781205E+02  0.85658743750E+01  0.54367099167E+02  0.40000034171E+02 0.  0.
         12    1    3    3    0    0  0.63577819922E+01  0.35241781205E+02 -0.85658743750E+01  0.36820900833E+02  0.00000000000E+00 0. -1.
         11    1    4    4    0    0 -0.12887508173E+02 -0.24780451983E+02  0.52746419343E+01  0.28424998069E+02  0.51100000000E-03 0. -1.
        -11    1    4    4    0    0  0.27678417900E+01  0.74867147313E+00  0.11301744330E+02  0.11659797696E+02  0.51100000000E-03 0.  1.
        -12    1    4    4    0    0  0.37618843908E+01 -0.11210000695E+02 -0.80105118893E+01  0.14282303402E+02  0.00000000000E+00 0.  1.
</event>
<event>
 8    1  0.1210161E-006  0.9118800E+02  0.7816164E-02  0.1184000E+00
        -11   -1    0    0    0    0  0.00000000000E+00  0.00000000000E+00  0.45593999997E+02  0.45594000000E+02  0.51100000000E-03 0.  1.
         11   -1    0    0    0    0 -0.00000000000E+00 -0.00000000000E+00 -0.45593999997E+02  0.45594000000E+02  0.51100000000E-03 0. -1.
         23    2    1    2    0    0 -0.35527136788E-14  0.00000000000E+00 -0.17763568394E-14  0.91188000000E+02  0.91188000000E+02 0.  0.
    9900012    2    3    3    0    0  0.30713985418E+02  0.16177767367E+02 -0.12276468888E+02  0.54367071907E+02  0.39999972027E+02 0.  0.
         12    1    3    3    0    0 -0.30713985418E+02 -0.16177767367E+02  0.12276468888E+02  0.36820928093E+02  0.00000000000E+00 0. -1.
         11    1    4    4    0    0  0.53907370530E+01  0.37028600241E+01 -0.39535603735E+01  0.76421108485E+01  0.51100000000E-03 0. -1.
        -11    1    4    4    0    0  0.33895648766E+02  0.13009106830E+02 -0.25904461508E+01  0.36398657631E+02  0.51100000000E-03 0.  1.
         12    1    4    4    0    0 -0.85724004011E+01 -0.53419948709E+00 -0.57324623638E+01  0.10326303428E+02  0.00000000000E+00 0. -1.
</event>
<event>
 8    1  0.1210161E-006  0.9118800E+02  0.7816164E-02  0.1184000E+00
        -11   -1    0    0    0    0  0.00000000000E+00  0.00000000000E+00  0.45593999997E+02  0.45594000000E+02  0.51100000000E-03 0. -1.
         11   -1    0    0    0    0 -0.00000000000E+00 -0.00000000000E+00 -0.45593999997E+02  0.45594000000E+02  0.51100000000E-03 0.  1.
         23    2    1    2    0    0  0.88817841970E-15  0.71054273576E-14  0.00000000000E+00  0.91188000000E+02  0.91188000000E+02 0.  0.
    9900012    2    3    3    0    0 -0.69202305351E+01  0.33226497780E+02  0.14278990555E+02  0.54367091311E+02  0.40000016262E+02 0.  0.
        -12    1    3    3    0    0  0.69202305351E+01 -0.33226497780E+02 -0.14278990555E+02  0.36820908689E+02  0.00000000000E+00 0.  1.
         11    1    4    4    0    0 -0.10247379299E+02  0.27633576621E+02  0.10520310151E+02  0.31293773587E+02  0.51100000000E-03 0. -1.
        -11    1    4    4    0    0 -0.71897587637E+01 -0.40071077874E+01  0.31738401709E+01  0.88217235046E+01  0.51100000000E-03 0.  1.
        -12    1    4    4    0    0  0.10516907527E+02  0.96000289467E+01  0.58484023311E+00  0.14251594220E+02  0.00000000000E+00 0.  1.
</event>
<event>
 8    1  0.1210161E-006  0.9118800E+02  0.7816164E-02  0.1184000E+00
        -11   -1    0    0    0    0  0.00000000000E+00  0.00000000000E+00  0.45593999997E+02  0.45594000000E+02  0.51100000000E-03 0.  1.
         11   -1    0    0    0    0 -0.00000000000E+00 -0.00000000000E+00 -0.45593999997E+02  0.45594000000E+02  0.51100000000E-03 0. -1.
         23    2    1    2    0    0  0.17763568394E-14 -0.35527136788E-14  0.00000000000E+00  0.91188000000E+02  0.91188000000E+02 0.  0.
    9900012    2    3    3    0    0 -0.86152456826E+01  0.14020769337E+02  0.32938963290E+02  0.54367085650E+02  0.40000003355E+02 0.  0.
         12    1    3    3    0    0  0.86152456826E+01 -0.14020769337E+02 -0.32938963290E+02  0.36820914350E+02  0.00000000000E+00 0. -1.
         11    1    4    4    0    0 -0.62115969671E+01  0.32229725013E+01 -0.41047985484E+01  0.81130056089E+01  0.51100000000E-03 0. -1.
        -11    1    4    4    0    0 -0.14802638223E+01 -0.83256005598E+01  0.13178320617E+02  0.15658063105E+02  0.51100000000E-03 0.  1.
        -12    1    4    4    0    0 -0.92338489318E+00  0.19123397395E+02  0.23865441222E+02  0.30596016936E+02  0.00000000000E+00 0.  1.
</event>
<event>
 8    1  0.1210161E-006  0.9118800E+02  0.7816164E-02  0.1184000E+00
        -11   -1    0    0    0    0  0.00000000000E+00  0.00000000000E+00  0.45593999997E+02  0.45594000000E+02  0.51100000000E-03 0.  1.
         11   -1    0    0    0    0 -0.00000000000E+00 -0.00000000000E+00 -0.45593999997E+02  0.45594000000E+02  0.51100000000E-03 0. -1.
         23    2    1    2    0    0  0.88817841970E-15 -0.35527136788E-14 -0.35527136788E-14  0.91188000000E+02  0.91188000000E+02 0.  0.
    9900012    2    3    3    0    0 -0.42944430389E+01  0.21507652888E+02  0.29576323048E+02  0.54367078518E+02  0.39999987097E+02 0.  0.
         12    1    3    3    0    0  0.42944430389E+01 -0.21507652888E+02 -0.29576323048E+02  0.36820921482E+02  0.00000000000E+00 0. -1.
         11    1    4    4    0    0 -0.19094854664E+01  0.11310113090E+02  0.21274450644E+00  0.11472142492E+02  0.51100000000E-03 0. -1.
        -11    1    4    4    0    0  0.12311820607E+02  0.10965718015E+02  0.16891712737E+02  0.23604191529E+02  0.51100000000E-03 0.  1.
        -12    1    4    4    0    0 -0.14696778180E+02 -0.76817821739E+00  0.12471865804E+02  0.19290744498E+02  0.00000000000E+00 0.  1.
</event>
<event>
 8    1  0.1210161E-006  0.9118800E+02  0.7816164E-02  0.1184000E+00
        -11   -1    0    0    0    0  0.00000000000E+00  0.00000000000E+00  0.45593999997E+02  0.45594000000E+02  0.51100000000E-03 0.  1.
         11   -1    0    0    0    0 -0.00000000000E+00 -0.00000000000E+00 -0.45593999997E+02  0.45594000000E+02  0.51100000000E-03 0. -1.
         23    2    1    2    0    0  0.88817841970E-15  0.17763568394E-14  0.00000000000E+00  0.91188000000E+02  0.91188000000E+02 0.  0.
    9900012    2    3    3    0    0 -0.78096003982E+01  0.12326307542E+02 -0.33806113884E+02  0.54367067748E+02  0.39999962544E+02 0.  0.
        -12    1    3    3    0    0  0.78096003982E+01 -0.12326307542E+02  0.33806113884E+02  0.36820932252E+02  0.00000000000E+00 0.  1.
         11    1    4    4    0    0  0.14179762335E+01  0.69878280360E+01 -0.60383945947E+01  0.93435863994E+01  0.51100000000E-03 0. -1.
        -11    1    4    4    0    0  0.11943107254E+02  0.73164538824E+01 -0.88856370269E+01  0.16586827724E+02  0.51100000000E-03 0.  1.
         12    1    4    4    0    0 -0.21170683886E+02 -0.19779743759E+01 -0.18882082262E+02  0.28436653625E+02  0.00000000000E+00 0. -1.
</event>
<event>
 8    1  0.1210161E-006  0.9118800E+02  0.7816164E-02  0.1184000E+00
        -11   -1    0    0    0    0  0.00000000000E+00  0.00000000000E+00  0.45593999997E+02  0.45594000000E+02  0.51100000000E-03 0.  1.
         11   -1    0    0    0    0 -0.00000000000E+00 -0.00000000000E+00 -0.45593999997E+02  0.45594000000E+02  0.51100000000E-03 0. -1.
         23    2    1    2    0    0  0.00000000000E+00 -0.22204460493E-15  0.00000000000E+00  0.91188000000E+02  0.91188000000E+02 0.  0.
    9900012    2    3    3    0    0 -0.33277657696E+02  0.90559906958E+00 -0.15733950869E+02  0.54367084458E+02  0.40000000638E+02 0.  0.
        -12    1    3    3    0    0  0.33277657696E+02 -0.90559906958E+00  0.15733950869E+02  0.36820915542E+02  0.00000000000E+00 0.  1.
         11    1    4    4    0    0 -0.11180085136E+02  0.95428638296E+01 -0.19219825376E+00  0.14700254901E+02  0.51100000000E-03 0. -1.
        -11    1    4    4    0    0  0.51734824945E+00  0.72988709829E+01  0.10729453895E+01  0.73954295958E+01  0.51100000000E-03 0.  1.
         12    1    4    4    0    0 -0.22614920810E+02 -0.15936135743E+02 -0.16614698005E+02  0.32271399961E+02  0.00000000000E+00 0. -1.
</event>
<event>
 8    1  0.1210161E-006  0.9118800E+02  0.7816164E-02  0.1184000E+00
        -11   -1    0    0    0    0  0.00000000000E+00  0.00000000000E+00  0.45593999997E+02  0.45594000000E+02  0.51100000000E-03 0.  1.
         11   -1    0    0    0    0 -0.00000000000E+00 -0.00000000000E+00 -0.45593999997E+02  0.45594000000E+02  0.51100000000E-03 0. -1.
         23    2    1    2    0    0  0.00000000000E+00  0.00000000000E+00  0.00000000000E+00  0.91188000000E+02  0.91188000000E+02 0.  0.
    9900012    2    3    3    0    0 -0.12875710445E+02  0.16294454569E+02 -0.30405386852E+02  0.54367072271E+02  0.39999972856E+02 0.  0.
        -12    1    3    3    0    0  0.12875710445E+02 -0.16294454569E+02  0.30405386852E+02  0.36820927729E+02  0.00000000000E+00 0.  1.
         11    1    4    4    0    0 -0.20057394549E+02  0.20377347983E+02 -0.97528940861E+01  0.30210169318E+02  0.51100000000E-03 0. -1.
        -11    1    4    4    0    0  0.31295975791E+01  0.10742977497E+01 -0.10271198380E+01  0.34646027312E+01  0.51100000000E-03 0.  1.
         12    1    4    4    0    0  0.40520865248E+01 -0.51571911632E+01 -0.19625372928E+02  0.20692300222E+02  0.00000000000E+00 0. -1.
</event>
<event>
 8    1  0.1210161E-006  0.9118800E+02  0.7816164E-02  0.1184000E+00
        -11   -1    0    0    0    0  0.00000000000E+00  0.00000000000E+00  0.45593999997E+02  0.45594000000E+02  0.51100000000E-03 0.  1.
         11   -1    0    0    0    0 -0.00000000000E+00 -0.00000000000E+00 -0.45593999997E+02  0.45594000000E+02  0.51100000000E-03 0. -1.
         23    2    1    2    0    0  0.00000000000E+00  0.00000000000E+00  0.00000000000E+00  0.91188000000E+02  0.91188000000E+02 0.  0.
    9900012    2    3    3    0    0  0.87302738142E+01  0.31818470072E+02  0.16344621395E+02  0.54367090626E+02  0.40000014700E+02 0.  0.
         12    1    3    3    0    0 -0.87302738142E+01 -0.31818470072E+02 -0.16344621395E+02  0.36820909374E+02  0.00000000000E+00 0. -1.
         11    1    4    4    0    0 -0.61838297684E+01  0.26899874599E+02  0.11208561168E+02  0.29790516071E+02  0.51100000000E-03 0. -1.
        -11    1    4    4    0    0  0.93590068001E+01  0.91051656784E+01  0.96920375577E+01  0.16261323519E+02  0.51100000000E-03 0.  1.
         12    1    4    4    0    0  0.55550967826E+01 -0.41865702054E+01 -0.45559773314E+01  0.83152510361E+01  0.00000000000E+00 0. -1.
</event>
<event>
 8    1  0.1210161E-006  0.9118800E+02  0.7816164E-02  0.1184000E+00
        -11   -1    0    0    0    0  0.00000000000E+00  0.00000000000E+00  0.45593999997E+02  0.45594000000E+02  0.51100000000E-03 0.  1.
         11   -1    0    0    0    0 -0.00000000000E+00 -0.00000000000E+00 -0.45593999997E+02  0.45594000000E+02  0.51100000000E-03 0. -1.
         23    2    1    2    0    0  0.71054273576E-14  0.17763568394E-14 -0.53290705182E-14  0.91188000000E+02  0.91188000000E+02 0.  0.
    9900012    2    3    3    0    0  0.34886785063E+02  0.59074248050E+01 -0.10187924566E+02  0.54367092259E+02  0.40000018424E+02 0.  0.
        -12    1    3    3    0    0 -0.34886785063E+02 -0.59074248050E+01  0.10187924566E+02  0.36820907741E+02  0.00000000000E+00 0.  1.
         11    1    4    4    0    0  0.57462734448E+01 -0.73458887139E+01  0.68149700095E+01  0.11550998052E+02  0.51100000000E-03 0. -1.
        -11    1    4    4    0    0 -0.29090220311E+01  0.39370346426E+01  0.84496623236E+00  0.49675566579E+01  0.51100000000E-03 0.  1.
         12    1    4    4    0    0  0.32049533649E+02  0.93162788764E+01 -0.17847860808E+02  0.37848537550E+02  0.00000000000E+00 0. -1.
</event>
<event>
 8    1  0.1210161E-006  0.9118800E+02  0.7816164E-02  0.1184000E+00
        -11   -1    0    0    0    0  0.00000000000E+00  0.00000000000E+00  0.45593999997E+02  0.45594000000E+02  0.51100000000E-03 0.  1.
         11   -1    0    0    0    0 -0.00000000000E+00 -0.00000000000E+00 -0.45593999997E+02  0.45594000000E+02  0.51100000000E-03 0. -1.
         23    2    1    2    0    0  0.35527136788E-14  0.00000000000E+00  0.71054273576E-14  0.91188000000E+02  0.91188000000E+02 0.  0.
    9900012    2    3    3    0    0 -0.17811756568E+02 -0.54492580354E+01 -0.31762021701E+02  0.54367094149E+02  0.40000022731E+02 0.  0.
        -12    1    3    3    0    0  0.17811756568E+02  0.54492580354E+01  0.31762021701E+02  0.36820905851E+02  0.00000000000E+00 0.  1.
         11    1    4    4    0    0  0.95439780735E+01 -0.10340374219E+01 -0.65620062287E+01  0.11628270588E+02  0.51100000000E-03 0.  1.
        -11    1    4    4    0    0  0.14196648710E+00 -0.69048055866E+01 -0.52545606902E+01  0.86779549999E+01  0.51100000000E-03 0. -1.
         12    1    4    4    0    0 -0.27497701128E+02  0.24895849730E+01 -0.19945454782E+02  0.34060868561E+02  0.00000000000E+00 0. -1.
</event>
<event>
 8    1  0.1210161E-006  0.9118800E+02  0.7816164E-02  0.1184000E+00
        -11   -1    0    0    0    0  0.00000000000E+00  0.00000000000E+00  0.45593999997E+02  0.45594000000E+02  0.51100000000E-03 0. -1.
         11   -1    0    0    0    0 -0.00000000000E+00 -0.00000000000E+00 -0.45593999997E+02  0.45594000000E+02  0.51100000000E-03 0.  1.
         23    2    1    2    0    0 -0.35527136788E-14 -0.35527136788E-14  0.00000000000E+00  0.91188000000E+02  0.91188000000E+02 0.  0.
    9900012    2    3    3    0    0 -0.30048294314E+02 -0.19168471977E+02 -0.92439227924E+01  0.54367076360E+02  0.39999982178E+02 0.  0.
         12    1    3    3    0    0  0.30048294314E+02  0.19168471977E+02  0.92439227924E+01  0.36820923640E+02  0.00000000000E+00 0. -1.
         11    1    4    4    0    0 -0.15053172327E+02 -0.15508098057E+02  0.13184543115E+02  0.25316620625E+02  0.51100000000E-03 0. -1.
        -11    1    4    4    0    0 -0.11747151192E+02 -0.14534673469E+01 -0.84828097527E+01  0.14562492576E+02  0.51100000000E-03 0.  1.
        -12    1    4    4    0    0 -0.32479707953E+01 -0.22069065729E+01 -0.13945656155E+02  0.14487963159E+02  0.00000000000E+00 0.  1.
</event>
<event>
 8    1  0.1210161E-006  0.9118800E+02  0.7816164E-02  0.1184000E+00
        -11   -1    0    0    0    0  0.00000000000E+00  0.00000000000E+00  0.45593999997E+02  0.45594000000E+02  0.51100000000E-03 0. -1.
         11   -1    0    0    0    0 -0.00000000000E+00 -0.00000000000E+00 -0.45593999997E+02  0.45594000000E+02  0.51100000000E-03 0.  1.
         23    2    1    2    0    0  0.35527136788E-14  0.17763568394E-14 -0.35527136788E-14  0.91188000000E+02  0.91188000000E+02 0.  0.
    9900012    2    3    3    0    0  0.28497322287E+02 -0.93477480996E+01 -0.21361230504E+02  0.54367082837E+02  0.39999996944E+02 0.  0.
         12    1    3    3    0    0 -0.28497322287E+02  0.93477480996E+01  0.21361230504E+02  0.36820917163E+02  0.00000000000E+00 0. -1.
         11    1    4    4    0    0  0.17721421678E+02  0.12340161429E+02 -0.11527358055E+01  0.21625382551E+02  0.51100000000E-03 0. -1.
        -11    1    4    4    0    0  0.14844724224E+01  0.35871845282E+00 -0.17512387598E+00  0.15372071866E+01  0.51100000000E-03 0.  1.
         12    1    4    4    0    0  0.92914281860E+01 -0.22046627981E+02 -0.20033370822E+02  0.31204493099E+02  0.00000000000E+00 0. -1.
</event>
<event>
 8    1  0.1210161E-006  0.9118800E+02  0.7816164E-02  0.1184000E+00
        -11   -1    0    0    0    0  0.00000000000E+00  0.00000000000E+00  0.45593999997E+02  0.45594000000E+02  0.51100000000E-03 0.  1.
         11   -1    0    0    0    0 -0.00000000000E+00 -0.00000000000E+00 -0.45593999997E+02  0.45594000000E+02  0.51100000000E-03 0. -1.
         23    2    1    2    0    0  0.17763568394E-14  0.35527136788E-14  0.00000000000E+00  0.91188000000E+02  0.91188000000E+02 0.  0.
    9900012    2    3    3    0    0 -0.11068671385E+02 -0.22101656842E+02  0.27290691406E+02  0.54367074444E+02  0.39999977810E+02 0.  0.
        -12    1    3    3    0    0  0.11068671385E+02  0.22101656842E+02 -0.27290691406E+02  0.36820925556E+02  0.00000000000E+00 0.  1.
         11    1    4    4    0    0 -0.10521377981E+02 -0.94414544064E+01  0.80654235546E+01  0.16275488112E+02  0.51100000000E-03 0. -1.
        -11    1    4    4    0    0 -0.43673204126E+01 -0.12640848121E+02  0.26607468293E+02  0.29779555034E+02  0.51100000000E-03 0.  1.
         12    1    4    4    0    0  0.38200270085E+01 -0.19354315322E-01 -0.73822004416E+01  0.83120312978E+01  0.00000000000E+00 0. -1.
</event>
<event>
 8    1  0.1210161E-006  0.9118800E+02  0.7816164E-02  0.1184000E+00
        -11   -1    0    0    0    0  0.00000000000E+00  0.00000000000E+00  0.45593999997E+02  0.45594000000E+02  0.51100000000E-03 0.  1.
         11   -1    0    0    0    0 -0.00000000000E+00 -0.00000000000E+00 -0.45593999997E+02  0.45594000000E+02  0.51100000000E-03 0. -1.
         23    2    1    2    0    0 -0.35527136788E-14 -0.17763568394E-14 -0.35527136788E-14  0.91188000000E+02  0.91188000000E+02 0.  0.
    9900012    2    3    3    0    0  0.28930527389E+02  0.14646048756E+02  0.17444108737E+02  0.54367094406E+02  0.40000023317E+02 0.  0.
         12    1    3    3    0    0 -0.28930527389E+02 -0.14646048756E+02 -0.17444108737E+02  0.36820905594E+02  0.00000000000E+00 0. -1.
         11    1    4    4    0    0  0.50311351222E+01  0.75446770856E+01  0.60343428287E+01  0.10892555558E+02  0.51100000000E-03 0. -1.
        -11    1    4    4    0    0  0.52063209614E+01  0.12966851827E+02  0.18015486343E+02  0.22799183597E+02  0.51100000000E-03 0.  1.
        -12    1    4    4    0    0  0.18693071305E+02 -0.58654801566E+01 -0.66057204353E+01  0.20675355251E+02  0.00000000000E+00 0.  1.
</event>
<event>
 8    1  0.1210161E-006  0.9118800E+02  0.7816164E-02  0.1184000E+00
        -11   -1    0    0    0    0  0.00000000000E+00  0.00000000000E+00  0.45593999997E+02  0.45594000000E+02  0.51100000000E-03 0.  1.
         11   -1    0    0    0    0 -0.00000000000E+00 -0.00000000000E+00 -0.45593999997E+02  0.45594000000E+02  0.51100000000E-03 0. -1.
         23    2    1    2    0    0  0.17763568394E-14  0.00000000000E+00 -0.71054273576E-14  0.91188000000E+02  0.91188000000E+02 0.  0.
    9900012    2    3    3    0    0 -0.13181005109E+02  0.43689715040E+01  0.34102079839E+02  0.54367100268E+02  0.40000036681E+02 0.  0.
         12    1    3    3    0    0  0.13181005109E+02 -0.43689715040E+01 -0.34102079839E+02  0.36820899732E+02  0.00000000000E+00 0. -1.
         11    1    4    4    0    0 -0.80925334116E+01  0.90729919101E+01 -0.68406862578E+00  0.12176872725E+02  0.51100000000E-03 0. -1.
        -11    1    4    4    0    0 -0.48196778815E+01  0.68645543421E+01  0.39829985755E+01  0.92852398521E+01  0.51100000000E-03 0.  1.
        -12    1    4    4    0    0 -0.26879381613E+00 -0.11568574748E+02  0.30803149890E+02  0.32904987691E+02  0.00000000000E+00 0.  1.
</event>
<event>
 8    1  0.1210161E-006  0.9118800E+02  0.7816164E-02  0.1184000E+00
        -11   -1    0    0    0    0  0.00000000000E+00  0.00000000000E+00  0.45593999997E+02  0.45594000000E+02  0.51100000000E-03 0. -1.
         11   -1    0    0    0    0 -0.00000000000E+00 -0.00000000000E+00 -0.45593999997E+02  0.45594000000E+02  0.51100000000E-03 0.  1.
         23    2    1    2    0    0  0.22204460493E-15  0.35527136788E-14 -0.35527136788E-14  0.91188000000E+02  0.91188000000E+02 0.  0.
    9900012    2    3    3    0    0 -0.19811525919E+01 -0.22005403707E+02  0.29455290152E+02  0.54367124456E+02  0.40000091822E+02 0.  0.
        -12    1    3    3    0    0  0.19811525919E+01  0.22005403707E+02 -0.29455290152E+02  0.36820875544E+02  0.00000000000E+00 0.  1.
         11    1    4    4    0    0 -0.41033619710E+01 -0.23776288012E+02  0.23161689875E+02  0.33445677288E+02  0.51100000000E-03 0. -1.
        -11    1    4    4    0    0 -0.23525731716E+01 -0.44327773013E+01 -0.51280706317E+01  0.71750417278E+01  0.51100000000E-03 0.  1.
         12    1    4    4    0    0  0.44747825507E+01  0.62036616062E+01  0.11421670908E+02  0.13746405441E+02  0.00000000000E+00 0. -1.
</event>
<event>
 8    1  0.1210161E-006  0.9118800E+02  0.7816164E-02  0.1184000E+00
        -11   -1    0    0    0    0  0.00000000000E+00  0.00000000000E+00  0.45593999997E+02  0.45594000000E+02  0.51100000000E-03 0. -1.
         11   -1    0    0    0    0 -0.00000000000E+00 -0.00000000000E+00 -0.45593999997E+02  0.45594000000E+02  0.51100000000E-03 0.  1.
         23    2    1    2    0    0  0.00000000000E+00  0.35527136788E-14  0.17763568394E-14  0.91188000000E+02  0.91188000000E+02 0.  0.
    9900012    2    3    3    0    0  0.19211397407E+02 -0.30769821259E+02 -0.63183138413E+01  0.54367071434E+02  0.39999970949E+02 0.  0.
        -12    1    3    3    0    0 -0.19211397407E+02  0.30769821259E+02  0.63183138413E+01  0.36820928566E+02  0.00000000000E+00 0.  1.
         11    1    4    4    0    0  0.87458923028E+01  0.36629321019E+01  0.11270637568E+01  0.95487159727E+01  0.51100000000E-03 0. -1.
        -11    1    4    4    0    0  0.37786721034E+01  0.28578445807E+01  0.28886187745E+01  0.55488518811E+01  0.51100000000E-03 0.  1.
         12    1    4    4    0    0  0.66868330011E+01 -0.37290597942E+02 -0.10333996373E+02  0.39269503580E+02  0.00000000000E+00 0. -1.
</event>
<event>
 8    1  0.1210161E-006  0.9118800E+02  0.7816164E-02  0.1184000E+00
        -11   -1    0    0    0    0  0.00000000000E+00  0.00000000000E+00  0.45593999997E+02  0.45594000000E+02  0.51100000000E-03 0. -1.
         11   -1    0    0    0    0 -0.00000000000E+00 -0.00000000000E+00 -0.45593999997E+02  0.45594000000E+02  0.51100000000E-03 0.  1.
         23    2    1    2    0    0  0.00000000000E+00  0.00000000000E+00  0.00000000000E+00  0.91188000000E+02  0.91188000000E+02 0.  0.
    9900012    2    3    3    0    0 -0.16973592841E+02  0.21635928619E+02  0.24486041982E+02  0.54367047906E+02  0.39999917312E+02 0.  0.
        -12    1    3    3    0    0  0.16973592841E+02 -0.21635928619E+02 -0.24486041982E+02  0.36820952094E+02  0.00000000000E+00 0.  1.
         11    1    4    4    0    0 -0.12275473186E+02  0.24344712071E+02  0.24357893977E+02  0.36560350751E+02  0.51100000000E-03 0. -1.
        -11    1    4    4    0    0 -0.79848278859E+01 -0.76781105641E+01  0.25635462780E+01  0.11370251887E+02  0.51100000000E-03 0.  1.
         12    1    4    4    0    0  0.32867082312E+01  0.49693271118E+01 -0.24353982727E+01  0.64364452680E+01  0.00000000000E+00 0. -1.
</event>
<event>
 8    1  0.1210161E-006  0.9118800E+02  0.7816164E-02  0.1184000E+00
        -11   -1    0    0    0    0  0.00000000000E+00  0.00000000000E+00  0.45593999997E+02  0.45594000000E+02  0.51100000000E-03 0.  1.
         11   -1    0    0    0    0 -0.00000000000E+00 -0.00000000000E+00 -0.45593999997E+02  0.45594000000E+02  0.51100000000E-03 0. -1.
         23    2    1    2    0    0 -0.35527136788E-14  0.00000000000E+00  0.00000000000E+00  0.91188000000E+02  0.91188000000E+02 0.  0.
    9900012    2    3    3    0    0  0.26321234070E+02 -0.86810172137E+01 -0.24240692346E+02  0.54367101202E+02  0.40000038811E+02 0.  0.
        -12    1    3    3    0    0 -0.26321234070E+02  0.86810172137E+01  0.24240692346E+02  0.36820898798E+02  0.00000000000E+00 0.  1.
         11    1    4    4    0    0  0.74339608379E+01 -0.41037649683E+01  0.92846000993E+00  0.85420547239E+01  0.51100000000E-03 0. -1.
        -11    1    4    4    0    0  0.12356100478E+02 -0.14989874269E+02 -0.19122828661E+01  0.19519896917E+02  0.51100000000E-03 0.  1.
         12    1    4    4    0    0  0.65311727539E+01  0.10412622024E+02 -0.23256869490E+02  0.26305149561E+02  0.00000000000E+00 0. -1.
</event>
<event>
 8    1  0.1210161E-006  0.9118800E+02  0.7816164E-02  0.1184000E+00
        -11   -1    0    0    0    0  0.00000000000E+00  0.00000000000E+00  0.45593999997E+02  0.45594000000E+02  0.51100000000E-03 0.  1.
         11   -1    0    0    0    0 -0.00000000000E+00 -0.00000000000E+00 -0.45593999997E+02  0.45594000000E+02  0.51100000000E-03 0. -1.
         23    2    1    2    0    0 -0.17763568394E-14  0.00000000000E+00  0.00000000000E+00  0.91188000000E+02  0.91188000000E+02 0.  0.
    9900012    2    3    3    0    0 -0.84897074120E+01 -0.16786598862E+02 -0.31653030226E+02  0.54367090780E+02  0.40000015052E+02 0.  0.
        -12    1    3    3    0    0  0.84897074120E+01  0.16786598862E+02  0.31653030226E+02  0.36820909220E+02  0.00000000000E+00 0.  1.
         11    1    4    4    0    0 -0.12433640752E+01 -0.19255599943E+02 -0.13214957114E+02  0.23387158339E+02  0.51100000000E-03 0. -1.
        -11    1    4    4    0    0 -0.15758619160E+02 -0.50618051795E+00 -0.13117845535E+02  0.20510196691E+02  0.51100000000E-03 0.  1.
        -12    1    4    4    0    0  0.85122758229E+01  0.29751815984E+01 -0.53202275759E+01  0.10469735751E+02  0.00000000000E+00 0.  1.
</event>
<event>
 8    1  0.1210161E-006  0.9118800E+02  0.7816164E-02  0.1184000E+00
        -11   -1    0    0    0    0  0.00000000000E+00  0.00000000000E+00  0.45593999997E+02  0.45594000000E+02  0.51100000000E-03 0. -1.
         11   -1    0    0    0    0 -0.00000000000E+00 -0.00000000000E+00 -0.45593999997E+02  0.45594000000E+02  0.51100000000E-03 0.  1.
         23    2    1    2    0    0  0.00000000000E+00  0.35527136788E-14  0.35527136788E-14  0.91188000000E+02  0.91188000000E+02 0.  0.
    9900012    2    3    3    0    0  0.62712895490E+01 -0.20514875249E+02  0.29926392883E+02  0.54367106882E+02  0.40000051758E+02 0.  0.
        -12    1    3    3    0    0 -0.62712895490E+01  0.20514875249E+02 -0.29926392883E+02  0.36820893118E+02  0.00000000000E+00 0.  1.
         11    1    4    4    0    0 -0.99945316354E+00  0.15082119463E+01  0.11809483473E+02  0.11947280446E+02  0.51100000000E-03 0. -1.
        -11    1    4    4    0    0 -0.63590797720E+01  0.13166835261E+00 -0.46283743993E+01  0.78661986972E+01  0.51100000000E-03 0.  1.
         12    1    4    4    0    0  0.13629822485E+02 -0.22154755547E+02  0.22745283809E+02  0.34553627739E+02  0.00000000000E+00 0. -1.
</event>
<event>
 8    1  0.1210161E-006  0.9118800E+02  0.7816164E-02  0.1184000E+00
        -11   -1    0    0    0    0  0.00000000000E+00  0.00000000000E+00  0.45593999997E+02  0.45594000000E+02  0.51100000000E-03 0.  1.
         11   -1    0    0    0    0 -0.00000000000E+00 -0.00000000000E+00 -0.45593999997E+02  0.45594000000E+02  0.51100000000E-03 0. -1.
         23    2    1    2    0    0  0.00000000000E+00 -0.35527136788E-14 -0.11102230246E-14  0.91188000000E+02  0.91188000000E+02 0.  0.
    9900012    2    3    3    0    0  0.25048946174E+02 -0.26968253859E+02 -0.10232235800E+01  0.54367035766E+02  0.39999889635E+02 0.  0.
        -12    1    3    3    0    0 -0.25048946174E+02  0.26968253859E+02  0.10232235800E+01  0.36820964234E+02  0.00000000000E+00 0.  1.
         11    1    4    4    0    0  0.64154386977E+00  0.23818241362E+01  0.48558798891E+01  0.54464882733E+01  0.51100000000E-03 0.  1.
        -11    1    4    4    0    0  0.25616033931E+02 -0.23829208029E+02  0.62496344083E+01  0.35539700057E+02  0.51100000000E-03 0. -1.
         12    1    4    4    0    0 -0.12086316261E+01 -0.55208699663E+01 -0.12128737877E+02  0.13380847435E+02  0.00000000000E+00 0. -1.
</event>
<event>
 8    1  0.1210161E-006  0.9118800E+02  0.7816164E-02  0.1184000E+00
        -11   -1    0    0    0    0  0.00000000000E+00  0.00000000000E+00  0.45593999997E+02  0.45594000000E+02  0.51100000000E-03 0.  1.
         11   -1    0    0    0    0 -0.00000000000E+00 -0.00000000000E+00 -0.45593999997E+02  0.45594000000E+02  0.51100000000E-03 0. -1.
         23    2    1    2    0    0 -0.35527136788E-14  0.00000000000E+00 -0.17763568394E-14  0.91188000000E+02  0.91188000000E+02 0.  0.
    9900012    2    3    3    0    0  0.21644510463E+02  0.29393087692E+02  0.48313634199E+01  0.54367075110E+02  0.39999979328E+02 0.  0.
        -12    1    3    3    0    0 -0.21644510463E+02 -0.29393087692E+02 -0.48313634199E+01  0.36820924890E+02  0.00000000000E+00 0.  1.
         11    1    4    4    0    0  0.10142073544E+02  0.10600680064E+02  0.10968441969E+02  0.18317827193E+02  0.51100000000E-03 0. -1.
        -11    1    4    4    0    0  0.83394344667E+01 -0.29973219878E+01  0.61953939328E+01  0.10812632083E+02  0.51100000000E-03 0.  1.
        -12    1    4    4    0    0  0.31630024530E+01  0.21789729616E+02 -0.12332472482E+02  0.25236615834E+02  0.00000000000E+00 0.  1.
</event>
<event>
 8    1  0.1210161E-006  0.9118800E+02  0.7816164E-02  0.1184000E+00
        -11   -1    0    0    0    0  0.00000000000E+00  0.00000000000E+00  0.45593999997E+02  0.45594000000E+02  0.51100000000E-03 0. -1.
         11   -1    0    0    0    0 -0.00000000000E+00 -0.00000000000E+00 -0.45593999997E+02  0.45594000000E+02  0.51100000000E-03 0.  1.
         23    2    1    2    0    0  0.35527136788E-14  0.88817841970E-15  0.35527136788E-14  0.91188000000E+02  0.91188000000E+02 0.  0.
    9900012    2    3    3    0    0 -0.24046925600E+02  0.67567294185E+01 -0.27053126222E+02  0.54367086627E+02  0.40000005584E+02 0.  0.
         12    1    3    3    0    0  0.24046925600E+02 -0.67567294185E+01  0.27053126222E+02  0.36820913373E+02  0.00000000000E+00 0. -1.
         11    1    4    4    0    0 -0.10280168846E+02  0.17776368721E+02  0.16725805075E+01  0.20602880435E+02  0.51100000000E-03 0. -1.
        -11    1    4    4    0    0 -0.31693732029E+01 -0.18202590593E+01 -0.70755266314E+01  0.79637520626E+01  0.51100000000E-03 0.  1.
         12    1    4    4    0    0 -0.10597383551E+02 -0.91993802434E+01 -0.21650180098E+02  0.25800454129E+02  0.00000000000E+00 0. -1.
</event>
<event>
 8    1  0.1210161E-006  0.9118800E+02  0.7816164E-02  0.1184000E+00
        -11   -1    0    0    0    0  0.00000000000E+00  0.00000000000E+00  0.45593999997E+02  0.45594000000E+02  0.51100000000E-03 0.  1.
         11   -1    0    0    0    0 -0.00000000000E+00 -0.00000000000E+00 -0.45593999997E+02  0.45594000000E+02  0.51100000000E-03 0. -1.
         23    2    1    2    0    0  0.00000000000E+00 -0.88817841970E-15 -0.17763568394E-14  0.91188000000E+02  0.91188000000E+02 0.  0.
    9900012    2    3    3    0    0  0.35765420993E+02  0.29466134116E+01  0.82418431385E+01  0.54367138417E+02  0.40000123648E+02 0.  0.
         12    1    3    3    0    0 -0.35765420993E+02 -0.29466134116E+01 -0.82418431385E+01  0.36820861583E+02  0.00000000000E+00 0. -1.
         11    1    4    4    0    0 -0.14628387938E+01  0.99169066004E+01  0.28199370509E+01  0.10413307788E+02  0.51100000000E-03 0. -1.
        -11    1    4    4    0    0  0.26864010267E+02 -0.59419653027E+01 -0.63493153168E+01  0.28236426908E+02  0.51100000000E-03 0.  1.
        -12    1    4    4    0    0  0.10364249520E+02 -0.10283278860E+01  0.11771221404E+02  0.15717403720E+02  0.00000000000E+00 0.  1.
</event>
<event>
 8    1  0.1210161E-006  0.9118800E+02  0.7816164E-02  0.1184000E+00
        -11   -1    0    0    0    0  0.00000000000E+00  0.00000000000E+00  0.45593999997E+02  0.45594000000E+02  0.51100000000E-03 0. -1.
         11   -1    0    0    0    0 -0.00000000000E+00 -0.00000000000E+00 -0.45593999997E+02  0.45594000000E+02  0.51100000000E-03 0.  1.
         23    2    1    2    0    0  0.22204460493E-14  0.00000000000E+00  0.00000000000E+00  0.91188000000E+02  0.91188000000E+02 0.  0.
    9900012    2    3    3    0    0 -0.61371812610E+00  0.34039776818E+01  0.36658160751E+02  0.54367021419E+02  0.39999856930E+02 0.  0.
        -12    1    3    3    0    0  0.61371812610E+00 -0.34039776818E+01 -0.36658160751E+02  0.36820978581E+02  0.00000000000E+00 0.  1.
         11    1    4    4    0    0 -0.16954698082E+02  0.11756563868E+02  0.14033835951E+02  0.24952497527E+02  0.51100000000E-03 0. -1.
        -11    1    4    4    0    0  0.89291240428E+00 -0.26636801651E+00  0.11071284830E+00  0.93835072219E+00  0.51100000000E-03 0.  1.
         12    1    4    4    0    0  0.15448067551E+02 -0.80862181700E+01  0.22513611951E+02  0.28476173171E+02  0.00000000000E+00 0. -1.
</event>
<event>
 8    1  0.1210161E-006  0.9118800E+02  0.7816164E-02  0.1184000E+00
        -11   -1    0    0    0    0  0.00000000000E+00  0.00000000000E+00  0.45593999997E+02  0.45594000000E+02  0.51100000000E-03 0. -1.
         11   -1    0    0    0    0 -0.00000000000E+00 -0.00000000000E+00 -0.45593999997E+02  0.45594000000E+02  0.51100000000E-03 0.  1.
         23    2    1    2    0    0  0.00000000000E+00  0.88817841970E-15  0.17763568394E-14  0.91188000000E+02  0.91188000000E+02 0.  0.
    9900012    2    3    3    0    0  0.32757935419E+02  0.65221655339E+01  0.15497055407E+02  0.54367086073E+02  0.40000004320E+02 0.  0.
        -12    1    3    3    0    0 -0.32757935419E+02 -0.65221655339E+01 -0.15497055407E+02  0.36820913927E+02  0.00000000000E+00 0.  1.
         11    1    4    4    0    0 -0.26810715757E+01 -0.94789060912E+01  0.44486321861E+01  0.10808706401E+02  0.51100000000E-03 0. -1.
        -11    1    4    4    0    0 -0.18120189463E+00  0.33170728471E+01  0.38201114334E+01  0.50625149900E+01  0.51100000000E-03 0.  1.
        -12    1    4    4    0    0  0.35620208889E+02  0.12683998778E+02  0.72283117871E+01  0.38495864682E+02  0.00000000000E+00 0.  1.
</event>
<event>
 8    1  0.1210161E-006  0.9118800E+02  0.7816164E-02  0.1184000E+00
        -11   -1    0    0    0    0  0.00000000000E+00  0.00000000000E+00  0.45593999997E+02  0.45594000000E+02  0.51100000000E-03 0.  1.
         11   -1    0    0    0    0 -0.00000000000E+00 -0.00000000000E+00 -0.45593999997E+02  0.45594000000E+02  0.51100000000E-03 0. -1.
         23    2    1    2    0    0  0.00000000000E+00  0.00000000000E+00  0.53290705182E-14  0.91188000000E+02  0.91188000000E+02 0.  0.
    9900012    2    3    3    0    0 -0.20024770087E+02  0.28510208516E+02 -0.11914522970E+02  0.54367092023E+02  0.40000017885E+02 0.  0.
        -12    1    3    3    0    0  0.20024770087E+02 -0.28510208516E+02  0.11914522970E+02  0.36820907977E+02  0.00000000000E+00 0.  1.
         11    1    4    4    0    0 -0.58528704656E+01  0.41343958840E+01 -0.15281030005E+02  0.16877772374E+02  0.51100000000E-03 0. -1.
        -11    1    4    4    0    0 -0.11934255341E+02  0.28335102542E+02  0.71582968979E+01  0.31568112097E+02  0.51100000000E-03 0.  1.
        -12    1    4    4    0    0 -0.22376442805E+01 -0.39592899104E+01 -0.37917898623E+01  0.59212075525E+01  0.00000000000E+00 0.  1.
</event>
<event>
 8    1  0.1210161E-006  0.9118800E+02  0.7816164E-02  0.1184000E+00
        -11   -1    0    0    0    0  0.00000000000E+00  0.00000000000E+00  0.45593999997E+02  0.45594000000E+02  0.51100000000E-03 0.  1.
         11   -1    0    0    0    0 -0.00000000000E+00 -0.00000000000E+00 -0.45593999997E+02  0.45594000000E+02  0.51100000000E-03 0. -1.
         23    2    1    2    0    0  0.88817841970E-15  0.00000000000E+00  0.00000000000E+00  0.91188000000E+02  0.91188000000E+02 0.  0.
    9900012    2    3    3    0    0 -0.59286396102E+01  0.23337386422E+02  0.27856729619E+02  0.54367085322E+02  0.40000002609E+02 0.  0.
         12    1    3    3    0    0  0.59286396102E+01 -0.23337386422E+02 -0.27856729619E+02  0.36820914678E+02  0.00000000000E+00 0. -1.
         11    1    4    4    0    0  0.75706486127E+01  0.78975762698E+01  0.10316905159E+02  0.15037452034E+02  0.51100000000E-03 0.  1.
        -11    1    4    4    0    0 -0.15497880151E+02 -0.22724552734E+01  0.14307122669E+02  0.21214195754E+02  0.51100000000E-03 0. -1.
         12    1    4    4    0    0  0.19985919283E+01  0.17712265426E+02  0.32327017911E+01  0.18115437535E+02  0.00000000000E+00 0. -1.
</event>
<event>
 8    1  0.1210161E-006  0.9118800E+02  0.7816164E-02  0.1184000E+00
        -11   -1    0    0    0    0  0.00000000000E+00  0.00000000000E+00  0.45593999997E+02  0.45594000000E+02  0.51100000000E-03 0.  1.
         11   -1    0    0    0    0 -0.00000000000E+00 -0.00000000000E+00 -0.45593999997E+02  0.45594000000E+02  0.51100000000E-03 0. -1.
         23    2    1    2    0    0  0.00000000000E+00  0.00000000000E+00 -0.88817841970E-15  0.91188000000E+02  0.91188000000E+02 0.  0.
    9900012    2    3    3    0    0  0.14678472855E+02 -0.32912274800E+02  0.75565643696E+01  0.54367121915E+02  0.40000086030E+02 0.  0.
         12    1    3    3    0    0 -0.14678472855E+02  0.32912274800E+02 -0.75565643696E+01  0.36820878085E+02  0.00000000000E+00 0. -1.
         11    1    4    4    0    0 -0.55160276151E+01  0.30959895090E+00 -0.68013112563E+00  0.55664163310E+01  0.51100000000E-03 0. -1.
        -11    1    4    4    0    0  0.21430066092E+02 -0.34166616686E+02 -0.88673421251E-01  0.40331294199E+02  0.51100000000E-03 0.  1.
        -12    1    4    4    0    0 -0.12355656218E+01  0.94474293542E+00  0.83253689165E+01  0.84694113854E+01  0.00000000000E+00 0.  1.
</event>
<event>
 8    1  0.1210161E-006  0.9118800E+02  0.7816164E-02  0.1184000E+00
        -11   -1    0    0    0    0  0.00000000000E+00  0.00000000000E+00  0.45593999997E+02  0.45594000000E+02  0.51100000000E-03 0. -1.
         11   -1    0    0    0    0 -0.00000000000E+00 -0.00000000000E+00 -0.45593999997E+02  0.45594000000E+02  0.51100000000E-03 0.  1.
         23    2    1    2    0    0  0.35527136788E-14  0.00000000000E+00  0.00000000000E+00  0.91188000000E+02  0.91188000000E+02 0.  0.
    9900012    2    3    3    0    0  0.22796337845E+02  0.20722831151E+02 -0.20166086486E+02  0.54367084826E+02  0.40000001478E+02 0.  0.
         12    1    3    3    0    0 -0.22796337845E+02 -0.20722831151E+02  0.20166086486E+02  0.36820915174E+02  0.00000000000E+00 0. -1.
         11    1    4    4    0    0  0.17533550349E+01  0.13204758239E+02 -0.13932568455E+02  0.19275797209E+02  0.51100000000E-03 0. -1.
        -11    1    4    4    0    0  0.16093417069E+02  0.10751743524E+02 -0.15021327217E+02  0.24499761905E+02  0.51100000000E-03 0.  1.
         12    1    4    4    0    0  0.49495657405E+01 -0.32336706119E+01  0.87878091853E+01  0.10591525713E+02  0.00000000000E+00 0. -1.
</event>
<event>
 8    1  0.1210161E-006  0.9118800E+02  0.7816164E-02  0.1184000E+00
        -11   -1    0    0    0    0  0.00000000000E+00  0.00000000000E+00  0.45593999997E+02  0.45594000000E+02  0.51100000000E-03 0. -1.
         11   -1    0    0    0    0 -0.00000000000E+00 -0.00000000000E+00 -0.45593999997E+02  0.45594000000E+02  0.51100000000E-03 0.  1.
         23    2    1    2    0    0  0.00000000000E+00  0.00000000000E+00  0.00000000000E+00  0.91188000000E+02  0.91188000000E+02 0.  0.
    9900012    2    3    3    0    0  0.43043269601E+01  0.93470746285E+01  0.35353712995E+02  0.54367081255E+02  0.39999993338E+02 0.  0.
        -12    1    3    3    0    0 -0.43043269601E+01 -0.93470746285E+01 -0.35353712995E+02  0.36820918745E+02  0.00000000000E+00 0.  1.
         11    1    4    4    0    0  0.14002960826E+02  0.44603068674E-03  0.20607145344E+01  0.14153778886E+02  0.51100000000E-03 0. -1.
        -11    1    4    4    0    0  0.20606001250E+01  0.10326001710E+02  0.18543755996E+02  0.21324710335E+02  0.51100000000E-03 0.  1.
         12    1    4    4    0    0 -0.11759233991E+02 -0.97937311177E+00  0.14749242465E+02  0.18888592034E+02  0.00000000000E+00 0. -1.
</event>
<event>
 8    1  0.1210161E-006  0.9118800E+02  0.7816164E-02  0.1184000E+00
        -11   -1    0    0    0    0  0.00000000000E+00  0.00000000000E+00  0.45593999997E+02  0.45594000000E+02  0.51100000000E-03 0. -1.
         11   -1    0    0    0    0 -0.00000000000E+00 -0.00000000000E+00 -0.45593999997E+02  0.45594000000E+02  0.51100000000E-03 0.  1.
         23    2    1    2    0    0  0.53290705182E-14 -0.71054273576E-14  0.00000000000E+00  0.91188000000E+02  0.91188000000E+02 0.  0.
    9900012    2    3    3    0    0  0.12953062232E+02 -0.30516772817E+02  0.16022748640E+02  0.54367031540E+02  0.39999880002E+02 0.  0.
        -12    1    3    3    0    0 -0.12953062232E+02  0.30516772817E+02 -0.16022748640E+02  0.36820968460E+02  0.00000000000E+00 0.  1.
         11    1    4    4    0    0 -0.45947225259E+01 -0.55241468029E+01  0.89929110166E+01  0.11510869724E+02  0.51100000000E-03 0. -1.
        -11    1    4    4    0    0 -0.79049708676E+01 -0.24916624342E+01  0.18293908606E+01  0.84878511583E+01  0.51100000000E-03 0.  1.
         12    1    4    4    0    0  0.25452755625E+02 -0.22500963580E+02  0.52004467629E+01  0.34368310658E+02  0.00000000000E+00 0. -1.
</event>
<event>
 8    1  0.1210161E-006  0.9118800E+02  0.7816164E-02  0.1184000E+00
        -11   -1    0    0    0    0  0.00000000000E+00  0.00000000000E+00  0.45593999997E+02  0.45594000000E+02  0.51100000000E-03 0.  1.
         11   -1    0    0    0    0 -0.00000000000E+00 -0.00000000000E+00 -0.45593999997E+02  0.45594000000E+02  0.51100000000E-03 0. -1.
         23    2    1    2    0    0  0.00000000000E+00  0.00000000000E+00  0.71054273576E-14  0.91188000000E+02  0.91188000000E+02 0.  0.
    9900012    2    3    3    0    0 -0.38606162425E+01  0.19711831918E+02 -0.30859657918E+02  0.54367093410E+02  0.40000021046E+02 0.  0.
        -12    1    3    3    0    0  0.38606162425E+01 -0.19711831918E+02  0.30859657918E+02  0.36820906590E+02  0.00000000000E+00 0.  1.
         11    1    4    4    0    0  0.65156796803E+01  0.13954783505E+02  0.63214349589E+00  0.15413944013E+02  0.51100000000E-03 0. -1.
        -11    1    4    4    0    0  0.38778307868E+01 -0.15452036927E+01 -0.68257208362E+00  0.42297908901E+01  0.51100000000E-03 0.  1.
         12    1    4    4    0    0 -0.14254126710E+02  0.73022521056E+01 -0.30809229330E+02  0.34723358507E+02  0.00000000000E+00 0. -1.
</event>
<event>
 8    1  0.1210161E-006  0.9118800E+02  0.7816164E-02  0.1184000E+00
        -11   -1    0    0    0    0  0.00000000000E+00  0.00000000000E+00  0.45593999997E+02  0.45594000000E+02  0.51100000000E-03 0. -1.
         11   -1    0    0    0    0 -0.00000000000E+00 -0.00000000000E+00 -0.45593999997E+02  0.45594000000E+02  0.51100000000E-03 0.  1.
         23    2    1    2    0    0  0.00000000000E+00  0.00000000000E+00  0.17763568394E-14  0.91188000000E+02  0.91188000000E+02 0.  0.
    9900012    2    3    3    0    0  0.32747189313E+02 -0.16352365697E+02  0.40002043275E+01  0.54367083302E+02  0.39999998004E+02 0.  0.
         12    1    3    3    0    0 -0.32747189313E+02  0.16352365697E+02 -0.40002043275E+01  0.36820916698E+02  0.00000000000E+00 0. -1.
         11    1    4    4    0    0  0.16390603557E+02 -0.12310696578E+02  0.13508773980E+02  0.24549788388E+02  0.51100000000E-03 0. -1.
        -11    1    4    4    0    0  0.30621877583E+01 -0.51419141140E+01 -0.14411686099E+02  0.15604902150E+02  0.51100000000E-03 0.  1.
        -12    1    4    4    0    0  0.13294397999E+02  0.11002449952E+01  0.49031164471E+01  0.14212392764E+02  0.00000000000E+00 0.  1.
</event>
<event>
 8    1  0.1210161E-006  0.9118800E+02  0.7816164E-02  0.1184000E+00
        -11   -1    0    0    0    0  0.00000000000E+00  0.00000000000E+00  0.45593999997E+02  0.45594000000E+02  0.51100000000E-03 0. -1.
         11   -1    0    0    0    0 -0.00000000000E+00 -0.00000000000E+00 -0.45593999997E+02  0.45594000000E+02  0.51100000000E-03 0.  1.
         23    2    1    2    0    0 -0.15543122345E-14 -0.35527136788E-14  0.35527136788E-14  0.91188000000E+02  0.91188000000E+02 0.  0.
    9900012    2    3    3    0    0  0.18542170184E+01 -0.20211212363E+02  0.30722079510E+02  0.54367117401E+02  0.40000075739E+02 0.  0.
        -12    1    3    3    0    0 -0.18542170184E+01  0.20211212363E+02 -0.30722079510E+02  0.36820882599E+02  0.00000000000E+00 0.  1.
         11    1    4    4    0    0 -0.62459764531E+01  0.42484389332E+01 -0.21520714796E+01  0.78544807045E+01  0.51100000000E-03 0. -1.
        -11    1    4    4    0    0  0.11142384104E+02 -0.34694193724E+01  0.10806697891E+02  0.15905166263E+02  0.51100000000E-03 0.  1.
         12    1    4    4    0    0 -0.30421906321E+01 -0.20990231924E+02  0.22067453099E+02  0.30607470434E+02  0.00000000000E+00 0. -1.
</event>
<event>
 8    1  0.1210161E-006  0.9118800E+02  0.7816164E-02  0.1184000E+00
        -11   -1    0    0    0    0  0.00000000000E+00  0.00000000000E+00  0.45593999997E+02  0.45594000000E+02  0.51100000000E-03 0.  1.
         11   -1    0    0    0    0 -0.00000000000E+00 -0.00000000000E+00 -0.45593999997E+02  0.45594000000E+02  0.51100000000E-03 0. -1.
         23    2    1    2    0    0 -0.53290705182E-14  0.35527136788E-14 -0.35527136788E-14  0.91188000000E+02  0.91188000000E+02 0.  0.
    9900012    2    3    3    0    0 -0.10025088331E+02  0.27067728775E+02 -0.22860778798E+02  0.54367088220E+02  0.40000009215E+02 0.  0.
        -12    1    3    3    0    0  0.10025088331E+02 -0.27067728775E+02  0.22860778798E+02  0.36820911780E+02  0.00000000000E+00 0.  1.
         11    1    4    4    0    0  0.37607398554E+01  0.15427409498E+02 -0.10497395567E+02  0.19035320906E+02  0.51100000000E-03 0. -1.
        -11    1    4    4    0    0 -0.21302134076E+02  0.43711485768E+01 -0.12070345997E+02  0.24871290856E+02  0.51100000000E-03 0.  1.
         12    1    4    4    0    0  0.75163058895E+01  0.72691707006E+01 -0.29303723382E+00  0.10460476458E+02  0.00000000000E+00 0. -1.
</event>
<event>
 8    1  0.1210161E-006  0.9118800E+02  0.7816164E-02  0.1184000E+00
        -11   -1    0    0    0    0  0.00000000000E+00  0.00000000000E+00  0.45593999997E+02  0.45594000000E+02  0.51100000000E-03 0. -1.
         11   -1    0    0    0    0 -0.00000000000E+00 -0.00000000000E+00 -0.45593999997E+02  0.45594000000E+02  0.51100000000E-03 0.  1.
         23    2    1    2    0    0  0.00000000000E+00  0.00000000000E+00  0.00000000000E+00  0.91188000000E+02  0.91188000000E+02 0.  0.
    9900012    2    3    3    0    0  0.85113084043E+01 -0.93909723315E+01 -0.34570906860E+02  0.54367077507E+02  0.39999984793E+02 0.  0.
         12    1    3    3    0    0 -0.85113084043E+01  0.93909723315E+01  0.34570906860E+02  0.36820922493E+02  0.00000000000E+00 0. -1.
         11    1    4    4    0    0 -0.29487657602E+01 -0.81960813878E+01  0.35140728294E+01  0.93925330841E+01  0.51100000000E-03 0. -1.
        -11    1    4    4    0    0  0.11291603352E+02 -0.99743964699E+01 -0.22320729525E+02  0.26929609317E+02  0.51100000000E-03 0.  1.
        -12    1    4    4    0    0  0.16847081264E+00  0.87795055263E+01 -0.15764250165E+02  0.18044935106E+02  0.00000000000E+00 0.  1.
</event>
<event>
 8    1  0.1210161E-006  0.9118800E+02  0.7816164E-02  0.1184000E+00
        -11   -1    0    0    0    0  0.00000000000E+00  0.00000000000E+00  0.45593999997E+02  0.45594000000E+02  0.51100000000E-03 0.  1.
         11   -1    0    0    0    0 -0.00000000000E+00 -0.00000000000E+00 -0.45593999997E+02  0.45594000000E+02  0.51100000000E-03 0. -1.
         23    2    1    2    0    0  0.00000000000E+00  0.00000000000E+00  0.00000000000E+00  0.91188000000E+02  0.91188000000E+02 0.  0.
    9900012    2    3    3    0    0  0.14359259895E+02 -0.10400934247E+02 -0.32270950748E+02  0.54367054329E+02  0.39999931953E+02 0.  0.
        -12    1    3    3    0    0 -0.14359259895E+02  0.10400934247E+02  0.32270950748E+02  0.36820945671E+02  0.00000000000E+00 0.  1.
         11    1    4    4    0    0  0.12435537853E+02 -0.14977035073E+02 -0.29257794388E+02  0.35142178560E+02  0.51100000000E-03 0. -1.
        -11    1    4    4    0    0  0.68486563056E+01  0.82380042392E+01  0.24711282051E+01  0.10994329534E+02  0.51100000000E-03 0.  1.
        -12    1    4    4    0    0 -0.49249342640E+01 -0.36619034129E+01 -0.54842845660E+01  0.82305462341E+01  0.00000000000E+00 0.  1.
</event>
<event>
 8    1  0.1210161E-006  0.9118800E+02  0.7816164E-02  0.1184000E+00
        -11   -1    0    0    0    0  0.00000000000E+00  0.00000000000E+00  0.45593999997E+02  0.45594000000E+02  0.51100000000E-03 0.  1.
         11   -1    0    0    0    0 -0.00000000000E+00 -0.00000000000E+00 -0.45593999997E+02  0.45594000000E+02  0.51100000000E-03 0. -1.
         23    2    1    2    0    0 -0.14210854715E-13  0.00000000000E+00  0.17763568394E-14  0.91188000000E+02  0.91188000000E+02 0.  0.
    9900012    2    3    3    0    0  0.35506345844E+02 -0.11431491696E+00 -0.97501638575E+01  0.54367090745E+02  0.40000014972E+02 0.  0.
         12    1    3    3    0    0 -0.35506345844E+02  0.11431491696E+00  0.97501638575E+01  0.36820909255E+02  0.00000000000E+00 0. -1.
         11    1    4    4    0    0  0.11677014263E+02  0.11636559578E+00  0.94437513924E+01  0.15018343573E+02  0.51100000000E-03 0. -1.
        -11    1    4    4    0    0  0.16163030921E+01 -0.14901839545E+01  0.56118602165E+01  0.60271103569E+01  0.51100000000E-03 0.  1.
        -12    1    4    4    0    0  0.22213028489E+02  0.12595034417E+01 -0.24805775466E+02  0.33321636815E+02  0.00000000000E+00 0.  1.
</event>
<event>
 8    1  0.1210161E-006  0.9118800E+02  0.7816164E-02  0.1184000E+00
        -11   -1    0    0    0    0  0.00000000000E+00  0.00000000000E+00  0.45593999997E+02  0.45594000000E+02  0.51100000000E-03 0.  1.
         11   -1    0    0    0    0 -0.00000000000E+00 -0.00000000000E+00 -0.45593999997E+02  0.45594000000E+02  0.51100000000E-03 0. -1.
         23    2    1    2    0    0 -0.35527136788E-14 -0.71054273576E-14 -0.71054273576E-14  0.91188000000E+02  0.91188000000E+02 0.  0.
    9900012    2    3    3    0    0 -0.10471901605E+02 -0.27324660858E+02 -0.22349109715E+02  0.54367074980E+02  0.39999979033E+02 0.  0.
        -12    1    3    3    0    0  0.10471901605E+02  0.27324660858E+02  0.22349109715E+02  0.36820925020E+02  0.00000000000E+00 0.  1.
         11    1    4    4    0    0  0.24887744792E+01 -0.41569154603E+01  0.38527128580E+01  0.61901002561E+01  0.51100000000E-03 0. -1.
        -11    1    4    4    0    0  0.26375364473E+01  0.40269742037E+01  0.27150683970E+01  0.55267274593E+01  0.51100000000E-03 0.  1.
         12    1    4    4    0    0 -0.15598212531E+02 -0.27194719602E+02 -0.28916890970E+02  0.42650247265E+02  0.00000000000E+00 0. -1.
</event>
<event>
 8    1  0.1210161E-006  0.9118800E+02  0.7816164E-02  0.1184000E+00
        -11   -1    0    0    0    0  0.00000000000E+00  0.00000000000E+00  0.45593999997E+02  0.45594000000E+02  0.51100000000E-03 0.  1.
         11   -1    0    0    0    0 -0.00000000000E+00 -0.00000000000E+00 -0.45593999997E+02  0.45594000000E+02  0.51100000000E-03 0. -1.
         23    2    1    2    0    0  0.71054273576E-14  0.44408920985E-15 -0.88817841970E-15  0.91188000000E+02  0.91188000000E+02 0.  0.
    9900012    2    3    3    0    0  0.36283881547E+02 -0.31117262023E+01 -0.54384229477E+01  0.54367090937E+02  0.40000015410E+02 0.  0.
         12    1    3    3    0    0 -0.36283881547E+02  0.31117262023E+01  0.54384229477E+01  0.36820909063E+02  0.00000000000E+00 0. -1.
         11    1    4    4    0    0  0.23292705571E+01  0.46207381179E+01  0.32085956198E+01  0.60886622665E+01  0.51100000000E-03 0. -1.
        -11    1    4    4    0    0  0.28460565793E+02 -0.16726472939E+02  0.22882889417E+01  0.33091010392E+02  0.51100000000E-03 0.  1.
         12    1    4    4    0    0  0.54940451961E+01  0.89940086183E+01 -0.10935307509E+02  0.15187418279E+02  0.00000000000E+00 0. -1.
</event>
<event>
 8    1  0.1210161E-006  0.9118800E+02  0.7816164E-02  0.1184000E+00
        -11   -1    0    0    0    0  0.00000000000E+00  0.00000000000E+00  0.45593999997E+02  0.45594000000E+02  0.51100000000E-03 0. -1.
         11   -1    0    0    0    0 -0.00000000000E+00 -0.00000000000E+00 -0.45593999997E+02  0.45594000000E+02  0.51100000000E-03 0.  1.
         23    2    1    2    0    0 -0.22204460493E-14  0.00000000000E+00  0.00000000000E+00  0.91188000000E+02  0.91188000000E+02 0.  0.
    9900012    2    3    3    0    0 -0.34379015482E+01 -0.26513921914E+02  0.25317432332E+02  0.54367087434E+02  0.40000007423E+02 0.  0.
        -12    1    3    3    0    0  0.34379015482E+01  0.26513921914E+02 -0.25317432332E+02  0.36820912566E+02  0.00000000000E+00 0.  1.
         11    1    4    4    0    0  0.97110513600E+01 -0.12185943713E+02  0.24050666221E+02  0.28657220533E+02  0.51100000000E-03 0. -1.
        -11    1    4    4    0    0  0.17548610883E+01  0.13212674285E+01 -0.29636700213E+01  0.36889870308E+01  0.51100000000E-03 0.  1.
         12    1    4    4    0    0 -0.14903813996E+02 -0.15649245629E+02  0.42304361320E+01  0.22020879870E+02  0.00000000000E+00 0. -1.
</event>
<event>
 8    1  0.1210161E-006  0.9118800E+02  0.7816164E-02  0.1184000E+00
        -11   -1    0    0    0    0  0.00000000000E+00  0.00000000000E+00  0.45593999997E+02  0.45594000000E+02  0.51100000000E-03 0.  1.
         11   -1    0    0    0    0 -0.00000000000E+00 -0.00000000000E+00 -0.45593999997E+02  0.45594000000E+02  0.51100000000E-03 0. -1.
         23    2    1    2    0    0  0.88817841970E-15  0.17763568394E-14  0.00000000000E+00  0.91188000000E+02  0.91188000000E+02 0.  0.
    9900012    2    3    3    0    0  0.79760712038E+01  0.88438681968E+01  0.34841757434E+02  0.54367085052E+02  0.40000001992E+02 0.  0.
         12    1    3    3    0    0 -0.79760712038E+01 -0.88438681968E+01 -0.34841757434E+02  0.36820914948E+02  0.00000000000E+00 0. -1.
         11    1    4    4    0    0  0.63488725249E+01 -0.18295795344E+01  0.26036357464E+01  0.71017225355E+01  0.51100000000E-03 0. -1.
        -11    1    4    4    0    0 -0.94457503699E+01 -0.80824283248E+01  0.15044306282E+02  0.19516121527E+02  0.51100000000E-03 0.  1.
        -12    1    4    4    0    0  0.11072949049E+02  0.18755876056E+02  0.17193815406E+02  0.27749240989E+02  0.00000000000E+00 0.  1.
</event>
<event>
 8    1  0.1210161E-006  0.9118800E+02  0.7816164E-02  0.1184000E+00
        -11   -1    0    0    0    0  0.00000000000E+00  0.00000000000E+00  0.45593999997E+02  0.45594000000E+02  0.51100000000E-03 0. -1.
         11   -1    0    0    0    0 -0.00000000000E+00 -0.00000000000E+00 -0.45593999997E+02  0.45594000000E+02  0.51100000000E-03 0.  1.
         23    2    1    2    0    0  0.00000000000E+00 -0.35527136788E-14  0.00000000000E+00  0.91188000000E+02  0.91188000000E+02 0.  0.
    9900012    2    3    3    0    0 -0.44838951319E+01 -0.26360821254E+02  0.25313650699E+02  0.54367093921E+02  0.40000022212E+02 0.  0.
        -12    1    3    3    0    0  0.44838951319E+01  0.26360821254E+02 -0.25313650699E+02  0.36820906079E+02  0.00000000000E+00 0.  1.
         11    1    4    4    0    0 -0.22407840343E+01  0.16401554859E+01 -0.28616993543E+00  0.27916154104E+01  0.51100000000E-03 0. -1.
        -11    1    4    4    0    0  0.10509278154E+02  0.32040481723E+01  0.50156486461E+01  0.12077565302E+02  0.51100000000E-03 0.  1.
         12    1    4    4    0    0 -0.12752389252E+02 -0.31205024912E+02  0.20584171989E+02  0.39497913209E+02  0.00000000000E+00 0. -1.
</event>
<event>
 8    1  0.1210161E-006  0.9118800E+02  0.7816164E-02  0.1184000E+00
        -11   -1    0    0    0    0  0.00000000000E+00  0.00000000000E+00  0.45593999997E+02  0.45594000000E+02  0.51100000000E-03 0.  1.
         11   -1    0    0    0    0 -0.00000000000E+00 -0.00000000000E+00 -0.45593999997E+02  0.45594000000E+02  0.51100000000E-03 0. -1.
         23    2    1    2    0    0  0.00000000000E+00  0.00000000000E+00  0.00000000000E+00  0.91188000000E+02  0.91188000000E+02 0.  0.
    9900012    2    3    3    0    0  0.29560356758E+02  0.18781119873E+02 -0.11368162962E+02  0.54367078169E+02  0.39999986302E+02 0.  0.
        -12    1    3    3    0    0 -0.29560356758E+02 -0.18781119873E+02  0.11368162962E+02  0.36820921831E+02  0.00000000000E+00 0.  1.
         11    1    4    4    0    0  0.10706043805E+02 -0.19557789502E+01 -0.17834904643E+02  0.20893258940E+02  0.51100000000E-03 0. -1.
        -11    1    4    4    0    0  0.10933665423E+02  0.83254303771E+01 -0.51947493358E+01  0.14691604796E+02  0.51100000000E-03 0.  1.
         12    1    4    4    0    0  0.79206475298E+01  0.12411468446E+02  0.11661491017E+02  0.18782214433E+02  0.00000000000E+00 0. -1.
</event>
<event>
 8    1  0.1210161E-006  0.9118800E+02  0.7816164E-02  0.1184000E+00
        -11   -1    0    0    0    0  0.00000000000E+00  0.00000000000E+00  0.45593999997E+02  0.45594000000E+02  0.51100000000E-03 0.  1.
         11   -1    0    0    0    0 -0.00000000000E+00 -0.00000000000E+00 -0.45593999997E+02  0.45594000000E+02  0.51100000000E-03 0. -1.
         23    2    1    2    0    0  0.00000000000E+00 -0.88817841970E-15  0.00000000000E+00  0.91188000000E+02  0.91188000000E+02 0.  0.
    9900012    2    3    3    0    0  0.18245785530E+02  0.79892231004E+01  0.30968413859E+02  0.54367095173E+02  0.40000025065E+02 0.  0.
         12    1    3    3    0    0 -0.18245785530E+02 -0.79892231004E+01 -0.30968413859E+02  0.36820904827E+02  0.00000000000E+00 0. -1.
         11    1    4    4    0    0  0.13961302886E+01 -0.63734495177E+01  0.50787578849E+01  0.82682416784E+01  0.51100000000E-03 0. -1.
        -11    1    4    4    0    0  0.41737516795E+01  0.15584931933E+01  0.27639909699E+02  0.27996673240E+02  0.51100000000E-03 0.  1.
         12    1    4    4    0    0  0.12675903562E+02  0.12804179425E+02 -0.17502537245E+01  0.18102180254E+02  0.00000000000E+00 0. -1.
</event>
<event>
 8    1  0.1210161E-006  0.9118800E+02  0.7816164E-02  0.1184000E+00
        -11   -1    0    0    0    0  0.00000000000E+00  0.00000000000E+00  0.45593999997E+02  0.45594000000E+02  0.51100000000E-03 0.  1.
         11   -1    0    0    0    0 -0.00000000000E+00 -0.00000000000E+00 -0.45593999997E+02  0.45594000000E+02  0.51100000000E-03 0. -1.
         23    2    1    2    0    0  0.88817841970E-15  0.35527136788E-14  0.00000000000E+00  0.91188000000E+02  0.91188000000E+02 0.  0.
    9900012    2    3    3    0    0 -0.56460076682E+01 -0.14206406334E+02  0.33497427871E+02  0.54367121989E+02  0.40000086199E+02 0.  0.
         12    1    3    3    0    0  0.56460076682E+01  0.14206406334E+02 -0.33497427871E+02  0.36820878011E+02  0.00000000000E+00 0. -1.
         11    1    4    4    0    0  0.28273273048E+01 -0.42403732911E+01  0.70720602476E+01  0.87171429806E+01  0.51100000000E-03 0. -1.
        -11    1    4    4    0    0  0.23141998062E+00  0.72544707077E+01  0.25301208757E+02  0.26321703313E+02  0.51100000000E-03 0.  1.
         12    1    4    4    0    0 -0.87047549537E+01 -0.17220503750E+02  0.11241588663E+01  0.19328275696E+02  0.00000000000E+00 0. -1.
</event>
<event>
 8    1  0.1210161E-006  0.9118800E+02  0.7816164E-02  0.1184000E+00
        -11   -1    0    0    0    0  0.00000000000E+00  0.00000000000E+00  0.45593999997E+02  0.45594000000E+02  0.51100000000E-03 0. -1.
         11   -1    0    0    0    0 -0.00000000000E+00 -0.00000000000E+00 -0.45593999997E+02  0.45594000000E+02  0.51100000000E-03 0.  1.
         23    2    1    2    0    0  0.00000000000E+00  0.00000000000E+00  0.26645352591E-14  0.91188000000E+02  0.91188000000E+02 0.  0.
    9900012    2    3    3    0    0 -0.18888229559E+02 -0.30609912772E+02  0.78769849716E+01  0.54367097404E+02  0.40000030152E+02 0.  0.
        -12    1    3    3    0    0  0.18888229559E+02  0.30609912772E+02 -0.78769849716E+01  0.36820902596E+02  0.00000000000E+00 0.  1.
         11    1    4    4    0    0 -0.13833337813E+02 -0.22044521298E+02 -0.14221488406E+02  0.29657594087E+02  0.51100000000E-03 0. -1.
        -11    1    4    4    0    0 -0.56669478707E+00 -0.38482357581E+01  0.45165205702E+01  0.59606224300E+01  0.51100000000E-03 0.  1.
         12    1    4    4    0    0 -0.44881969584E+01 -0.47171557160E+01  0.17581952807E+02  0.18748880887E+02  0.00000000000E+00 0. -1.
</event>
<event>
 8    1  0.1210161E-006  0.9118800E+02  0.7816164E-02  0.1184000E+00
        -11   -1    0    0    0    0  0.00000000000E+00  0.00000000000E+00  0.45593999997E+02  0.45594000000E+02  0.51100000000E-03 0.  1.
         11   -1    0    0    0    0 -0.00000000000E+00 -0.00000000000E+00 -0.45593999997E+02  0.45594000000E+02  0.51100000000E-03 0. -1.
         23    2    1    2    0    0 -0.35527136788E-14 -0.35527136788E-14  0.00000000000E+00  0.91188000000E+02  0.91188000000E+02 0.  0.
    9900012    2    3    3    0    0  0.15261438886E+02  0.26844012617E+02  0.20056502724E+02  0.54367138633E+02  0.40000124142E+02 0.  0.
         12    1    3    3    0    0 -0.15261438886E+02 -0.26844012617E+02 -0.20056502724E+02  0.36820861367E+02  0.00000000000E+00 0. -1.
         11    1    4    4    0    0 -0.18229762100E+01 -0.17794436916E+01  0.12997990642E+02  0.13245279276E+02  0.51100000000E-03 0. -1.
        -11    1    4    4    0    0  0.11719971126E+02  0.31610196087E+02  0.85977411370E+01  0.34792001563E+02  0.51100000000E-03 0.  1.
         12    1    4    4    0    0  0.53644439700E+01 -0.29867397781E+01 -0.15392290549E+01  0.63298577940E+01  0.00000000000E+00 0. -1.
</event>
<event>
 8    1  0.1210161E-006  0.9118800E+02  0.7816164E-02  0.1184000E+00
        -11   -1    0    0    0    0  0.00000000000E+00  0.00000000000E+00  0.45593999997E+02  0.45594000000E+02  0.51100000000E-03 0. -1.
         11   -1    0    0    0    0 -0.00000000000E+00 -0.00000000000E+00 -0.45593999997E+02  0.45594000000E+02  0.51100000000E-03 0.  1.
         23    2    1    2    0    0  0.35527136788E-14  0.00000000000E+00  0.00000000000E+00  0.91188000000E+02  0.91188000000E+02 0.  0.
    9900012    2    3    3    0    0  0.17772335936E+02 -0.29890530653E+02 -0.12103054912E+02  0.54367031985E+02  0.39999881017E+02 0.  0.
         12    1    3    3    0    0 -0.17772335936E+02  0.29890530653E+02  0.12103054912E+02  0.36820968015E+02  0.00000000000E+00 0. -1.
         11    1    4    4    0    0  0.79914061985E+01  0.69659209315E+01 -0.78066939318E+01  0.13165526874E+02  0.51100000000E-03 0. -1.
        -11    1    4    4    0    0  0.13254758848E+02 -0.29329468182E+02 -0.59957009643E+01  0.32739193122E+02  0.51100000000E-03 0.  1.
        -12    1    4    4    0    0 -0.34738291108E+01 -0.75269834027E+01  0.16993399838E+01  0.84623119900E+01  0.00000000000E+00 0.  1.
</event>
<event>
 8    1  0.1210161E-006  0.9118800E+02  0.7816164E-02  0.1184000E+00
        -11   -1    0    0    0    0  0.00000000000E+00  0.00000000000E+00  0.45593999997E+02  0.45594000000E+02  0.51100000000E-03 0. -1.
         11   -1    0    0    0    0 -0.00000000000E+00 -0.00000000000E+00 -0.45593999997E+02  0.45594000000E+02  0.51100000000E-03 0.  1.
         23    2    1    2    0    0  0.35527136788E-14  0.44408920985E-15 -0.35527136788E-14  0.91188000000E+02  0.91188000000E+02 0.  0.
    9900012    2    3    3    0    0  0.19142160315E+02  0.18622930772E+01  0.31398876725E+02  0.54367083436E+02  0.39999998310E+02 0.  0.
        -12    1    3    3    0    0 -0.19142160315E+02 -0.18622930772E+01 -0.31398876725E+02  0.36820916564E+02  0.00000000000E+00 0.  1.
         11    1    4    4    0    0 -0.47104708743E+01  0.25836299201E+01  0.28714934013E+01  0.60917283291E+01  0.51100000000E-03 0. -1.
        -11    1    4    4    0    0  0.25281994349E+02  0.93958868824E+01  0.13654617796E+02  0.30230952945E+02  0.51100000000E-03 0.  1.
         12    1    4    4    0    0 -0.14293631596E+01 -0.10117223725E+02  0.14872765528E+02  0.18044402162E+02  0.00000000000E+00 0. -1.
</event>
<event>
 8    1  0.1210161E-006  0.9118800E+02  0.7816164E-02  0.1184000E+00
        -11   -1    0    0    0    0  0.00000000000E+00  0.00000000000E+00  0.45593999997E+02  0.45594000000E+02  0.51100000000E-03 0.  1.
         11   -1    0    0    0    0 -0.00000000000E+00 -0.00000000000E+00 -0.45593999997E+02  0.45594000000E+02  0.51100000000E-03 0. -1.
         23    2    1    2    0    0  0.17763568394E-14  0.00000000000E+00  0.00000000000E+00  0.91188000000E+02  0.91188000000E+02 0.  0.
    9900012    2    3    3    0    0  0.93352036462E+01  0.21523218845E+02  0.28379275765E+02  0.54367105531E+02  0.40000048679E+02 0.  0.
         12    1    3    3    0    0 -0.93352036462E+01 -0.21523218845E+02 -0.28379275765E+02  0.36820894469E+02  0.00000000000E+00 0. -1.
         11    1    4    4    0    0  0.14261366220E+02  0.27958056199E+01  0.29782141558E+01  0.14834852724E+02  0.51100000000E-03 0. -1.
        -11    1    4    4    0    0  0.28918434659E+01  0.13832019351E+01  0.19283416465E+02  0.19548047397E+02  0.51100000000E-03 0.  1.
         12    1    4    4    0    0 -0.78180060401E+01  0.17344211290E+02  0.61176451438E+01  0.19984205409E+02  0.00000000000E+00 0. -1.
</event>
<event>
 8    1  0.1210161E-006  0.9118800E+02  0.7816164E-02  0.1184000E+00
        -11   -1    0    0    0    0  0.00000000000E+00  0.00000000000E+00  0.45593999997E+02  0.45594000000E+02  0.51100000000E-03 0. -1.
         11   -1    0    0    0    0 -0.00000000000E+00 -0.00000000000E+00 -0.45593999997E+02  0.45594000000E+02  0.51100000000E-03 0.  1.
         23    2    1    2    0    0 -0.35527136788E-14  0.00000000000E+00  0.00000000000E+00  0.91188000000E+02  0.91188000000E+02 0.  0.
    9900012    2    3    3    0    0 -0.21404696169E+02  0.18063478817E+02  0.23902492770E+02  0.54367089559E+02  0.40000012268E+02 0.  0.
        -12    1    3    3    0    0  0.21404696169E+02 -0.18063478817E+02 -0.23902492770E+02  0.36820910441E+02  0.00000000000E+00 0.  1.
         11    1    4    4    0    0 -0.24781475712E+02  0.16282489600E+02  0.10472997149E+02  0.31447172776E+02  0.51100000000E-03 0. -1.
        -11    1    4    4    0    0  0.17583640541E+01 -0.64292212722E+01 -0.48495856554E+00  0.66829570839E+01  0.51100000000E-03 0.  1.
        -12    1    4    4    0    0  0.16184154885E+01  0.82102104888E+01  0.13914454187E+02  0.16236959699E+02  0.00000000000E+00 0.  1.
</event>
<event>
 8    1  0.1210161E-006  0.9118800E+02  0.7816164E-02  0.1184000E+00
        -11   -1    0    0    0    0  0.00000000000E+00  0.00000000000E+00  0.45593999997E+02  0.45594000000E+02  0.51100000000E-03 0. -1.
         11   -1    0    0    0    0 -0.00000000000E+00 -0.00000000000E+00 -0.45593999997E+02  0.45594000000E+02  0.51100000000E-03 0.  1.
         23    2    1    2    0    0  0.17763568394E-14  0.00000000000E+00  0.71054273576E-14  0.91188000000E+02  0.91188000000E+02 0.  0.
    9900012    2    3    3    0    0  0.10766045184E+02 -0.74891375584E+01 -0.34406177558E+02  0.54367082515E+02  0.39999996210E+02 0.  0.
         12    1    3    3    0    0 -0.10766045184E+02  0.74891375584E+01  0.34406177558E+02  0.36820917485E+02  0.00000000000E+00 0. -1.
         11    1    4    4    0    0  0.65792711752E+01  0.11304024948E+02 -0.63342371488E+01  0.14532389677E+02  0.51100000000E-03 0. -1.
        -11    1    4    4    0    0  0.12645425965E+02 -0.10964395731E+02 -0.16601793541E+02  0.23574230011E+02  0.51100000000E-03 0.  1.
         12    1    4    4    0    0 -0.84586519568E+01 -0.78287667752E+01 -0.11470146869E+02  0.16260462827E+02  0.00000000000E+00 0. -1.
</event>
<event>
 8    1  0.1210161E-006  0.9118800E+02  0.7816164E-02  0.1184000E+00
        -11   -1    0    0    0    0  0.00000000000E+00  0.00000000000E+00  0.45593999997E+02  0.45594000000E+02  0.51100000000E-03 0. -1.
         11   -1    0    0    0    0 -0.00000000000E+00 -0.00000000000E+00 -0.45593999997E+02  0.45594000000E+02  0.51100000000E-03 0.  1.
         23    2    1    2    0    0  0.17763568394E-14  0.00000000000E+00 -0.17763568394E-14  0.91188000000E+02  0.91188000000E+02 0.  0.
    9900012    2    3    3    0    0  0.43125618099E+01  0.35247470196E+02 -0.97363860453E+01  0.54367088037E+02  0.40000008798E+02 0.  0.
        -12    1    3    3    0    0 -0.43125618099E+01 -0.35247470196E+02  0.97363860453E+01  0.36820911963E+02  0.00000000000E+00 0.  1.
         11    1    4    4    0    0 -0.28810203048E+01  0.28534706637E+02 -0.99688749378E+01  0.30362941700E+02  0.51100000000E-03 0. -1.
        -11    1    4    4    0    0 -0.45501497338E+01  0.65377219308E+00  0.75943403774E+01  0.88772341813E+01  0.51100000000E-03 0.  1.
         12    1    4    4    0    0  0.11743731848E+02  0.60589913655E+01 -0.73618514849E+01  0.15126912156E+02  0.00000000000E+00 0. -1.
</event>
<event>
 8    1  0.1210161E-006  0.9118800E+02  0.7816164E-02  0.1184000E+00
        -11   -1    0    0    0    0  0.00000000000E+00  0.00000000000E+00  0.45593999997E+02  0.45594000000E+02  0.51100000000E-03 0. -1.
         11   -1    0    0    0    0 -0.00000000000E+00 -0.00000000000E+00 -0.45593999997E+02  0.45594000000E+02  0.51100000000E-03 0.  1.
         23    2    1    2    0    0  0.00000000000E+00  0.17763568394E-14  0.00000000000E+00  0.91188000000E+02  0.91188000000E+02 0.  0.
    9900012    2    3    3    0    0 -0.19670221760E+02 -0.12269765256E+02 -0.28606248634E+02  0.54367051826E+02  0.39999926248E+02 0.  0.
        -12    1    3    3    0    0  0.19670221760E+02  0.12269765256E+02  0.28606248634E+02  0.36820948174E+02  0.00000000000E+00 0.  1.
         11    1    4    4    0    0 -0.75281836668E+01 -0.12935499966E+02 -0.17987465454E+02  0.23399778255E+02  0.51100000000E-03 0. -1.
        -11    1    4    4    0    0 -0.11323090303E+02 -0.84004073365E+01  0.31641082098E+01  0.14449595097E+02  0.51100000000E-03 0.  1.
        -12    1    4    4    0    0 -0.81894778985E+00  0.90661420472E+01 -0.13782891390E+02  0.16517678474E+02  0.00000000000E+00 0.  1.
</event>
<event>
 8    1  0.1210161E-006  0.9118800E+02  0.7816164E-02  0.1184000E+00
        -11   -1    0    0    0    0  0.00000000000E+00  0.00000000000E+00  0.45593999997E+02  0.45594000000E+02  0.51100000000E-03 0. -1.
         11   -1    0    0    0    0 -0.00000000000E+00 -0.00000000000E+00 -0.45593999997E+02  0.45594000000E+02  0.51100000000E-03 0.  1.
         23    2    1    2    0    0 -0.35527136788E-14 -0.88817841970E-15  0.00000000000E+00  0.91188000000E+02  0.91188000000E+02 0.  0.
    9900012    2    3    3    0    0 -0.16744191486E+02  0.52362524041E+01 -0.32372736086E+02  0.54367077558E+02  0.39999984908E+02 0.  0.
         12    1    3    3    0    0  0.16744191486E+02 -0.52362524041E+01  0.32372736086E+02  0.36820922442E+02  0.00000000000E+00 0. -1.
         11    1    4    4    0    0 -0.11220977564E+02  0.17489955115E+02 -0.78707812074E+01  0.22220667508E+02  0.51100000000E-03 0. -1.
        -11    1    4    4    0    0 -0.25581337516E+01 -0.12373795662E+00 -0.17782882495E+02  0.17966364948E+02  0.51100000000E-03 0.  1.
         12    1    4    4    0    0 -0.29650801707E+01 -0.12129964755E+02 -0.67190723844E+01  0.14180045101E+02  0.00000000000E+00 0. -1.
</event>
<event>
 8    1  0.1210161E-006  0.9118800E+02  0.7816164E-02  0.1184000E+00
        -11   -1    0    0    0    0  0.00000000000E+00  0.00000000000E+00  0.45593999997E+02  0.45594000000E+02  0.51100000000E-03 0. -1.
         11   -1    0    0    0    0 -0.00000000000E+00 -0.00000000000E+00 -0.45593999997E+02  0.45594000000E+02  0.51100000000E-03 0.  1.
         23    2    1    2    0    0  0.17763568394E-14  0.00000000000E+00  0.00000000000E+00  0.91188000000E+02  0.91188000000E+02 0.  0.
    9900012    2    3    3    0    0 -0.69229617748E+00  0.63857043591E+01  0.36256360542E+02  0.54367079670E+02  0.39999989725E+02 0.  0.
        -12    1    3    3    0    0  0.69229617748E+00 -0.63857043591E+01 -0.36256360542E+02  0.36820920330E+02  0.00000000000E+00 0.  1.
         11    1    4    4    0    0  0.12723788627E+02  0.57148426968E+01  0.15346193950E+02  0.20737885454E+02  0.51100000000E-03 0. -1.
        -11    1    4    4    0    0 -0.10760945057E+02  0.78898992641E+01  0.22129698665E+02  0.25841285033E+02  0.51100000000E-03 0.  1.
        -12    1    4    4    0    0 -0.26551397472E+01 -0.72190376017E+01 -0.12195320726E+01  0.77879091834E+01  0.00000000000E+00 0.  1.
</event>
<event>
 8    1  0.1210161E-006  0.9118800E+02  0.7816164E-02  0.1184000E+00
        -11   -1    0    0    0    0  0.00000000000E+00  0.00000000000E+00  0.45593999997E+02  0.45594000000E+02  0.51100000000E-03 0.  1.
         11   -1    0    0    0    0 -0.00000000000E+00 -0.00000000000E+00 -0.45593999997E+02  0.45594000000E+02  0.51100000000E-03 0. -1.
         23    2    1    2    0    0  0.00000000000E+00  0.35527136788E-14 -0.17763568394E-14  0.91188000000E+02  0.91188000000E+02 0.  0.
    9900012    2    3    3    0    0  0.32724463924E+02  0.13744620670E+02 -0.97966815685E+01  0.54367080590E+02  0.39999991821E+02 0.  0.
        -12    1    3    3    0    0 -0.32724463924E+02 -0.13744620670E+02  0.97966815685E+01  0.36820919410E+02  0.00000000000E+00 0.  1.
         11    1    4    4    0    0  0.35746939036E+02  0.47310610138E+01 -0.64422968984E+01  0.36629629787E+02  0.51100000000E-03 0. -1.
        -11    1    4    4    0    0  0.51498086545E+01  0.36383488610E+01  0.19631324247E+01  0.66039382788E+01  0.51100000000E-03 0.  1.
        -12    1    4    4    0    0 -0.81722837670E+01  0.53752107953E+01 -0.53175170947E+01  0.11133512524E+02  0.00000000000E+00 0.  1.
</event>
<event>
 8    1  0.1210161E-006  0.9118800E+02  0.7816164E-02  0.1184000E+00
        -11   -1    0    0    0    0  0.00000000000E+00  0.00000000000E+00  0.45593999997E+02  0.45594000000E+02  0.51100000000E-03 0. -1.
         11   -1    0    0    0    0 -0.00000000000E+00 -0.00000000000E+00 -0.45593999997E+02  0.45594000000E+02  0.51100000000E-03 0.  1.
         23    2    1    2    0    0 -0.35527136788E-14 -0.35527136788E-14  0.00000000000E+00  0.91188000000E+02  0.91188000000E+02 0.  0.
    9900012    2    3    3    0    0  0.23179946436E+02  0.20774239943E+02 -0.19669795521E+02  0.54367084506E+02  0.40000000748E+02 0.  0.
         12    1    3    3    0    0 -0.23179946436E+02 -0.20774239943E+02  0.19669795521E+02  0.36820915494E+02  0.00000000000E+00 0. -1.
         11    1    4    4    0    0  0.20715219103E+02  0.72368288821E+01  0.30255789620E+01  0.22150533246E+02  0.51100000000E-03 0.  1.
        -11    1    4    4    0    0 -0.23915664529E+01 -0.36501400299E+01 -0.78948252059E+01  0.90206084955E+01  0.51100000000E-03 0. -1.
        -12    1    4    4    0    0  0.48562937859E+01  0.17187551090E+02 -0.14800549277E+02  0.23195942764E+02  0.00000000000E+00 0.  1.
</event>
<event>
 8    1  0.1210161E-006  0.9118800E+02  0.7816164E-02  0.1184000E+00
        -11   -1    0    0    0    0  0.00000000000E+00  0.00000000000E+00  0.45593999997E+02  0.45594000000E+02  0.51100000000E-03 0.  1.
         11   -1    0    0    0    0 -0.00000000000E+00 -0.00000000000E+00 -0.45593999997E+02  0.45594000000E+02  0.51100000000E-03 0. -1.
         23    2    1    2    0    0  0.00000000000E+00 -0.17763568394E-14 -0.71054273576E-14  0.91188000000E+02  0.91188000000E+02 0.  0.
    9900012    2    3    3    0    0 -0.10891888116E+01 -0.14409682004E+02 -0.33866713600E+02  0.54367088037E+02  0.40000008797E+02 0.  0.
        -12    1    3    3    0    0  0.10891888116E+01  0.14409682004E+02  0.33866713600E+02  0.36820911963E+02  0.00000000000E+00 0.  1.
         11    1    4    4    0    0  0.38021805018E+01 -0.36070739742E+01 -0.39647766286E+01  0.65716826764E+01  0.51100000000E-03 0.  1.
        -11    1    4    4    0    0 -0.94290159182E+01  0.10697085327E+02 -0.64266467212E+01  0.15640836424E+02  0.51100000000E-03 0. -1.
         12    1    4    4    0    0  0.45376466047E+01 -0.21499693358E+02 -0.23475290250E+02  0.32154568937E+02  0.00000000000E+00 0. -1.
</event>
<event>
 8    1  0.1210161E-006  0.9118800E+02  0.7816164E-02  0.1184000E+00
        -11   -1    0    0    0    0  0.00000000000E+00  0.00000000000E+00  0.45593999997E+02  0.45594000000E+02  0.51100000000E-03 0.  1.
         11   -1    0    0    0    0 -0.00000000000E+00 -0.00000000000E+00 -0.45593999997E+02  0.45594000000E+02  0.51100000000E-03 0. -1.
         23    2    1    2    0    0  0.35527136788E-14  0.00000000000E+00 -0.29143354396E-15  0.91188000000E+02  0.91188000000E+02 0.  0.
    9900012    2    3    3    0    0 -0.16971104276E+02  0.32676452850E+02 -0.10344635123E+00  0.54367086753E+02  0.40000005871E+02 0.  0.
        -12    1    3    3    0    0  0.16971104276E+02 -0.32676452850E+02  0.10344635123E+00  0.36820913247E+02  0.00000000000E+00 0.  1.
         11    1    4    4    0    0 -0.14952910627E+02 -0.41607810868E+01 -0.40086017771E+01  0.16030300183E+02  0.51100000000E-03 0.  1.
        -11    1    4    4    0    0  0.23609932908E+01  0.12998328663E+02  0.48693469274E+01  0.14079821629E+02  0.51100000000E-03 0. -1.
        -12    1    4    4    0    0 -0.43791869390E+01  0.23838905274E+02 -0.96419150152E+00  0.24256964941E+02  0.00000000000E+00 0.  1.
</event>
<event>
 8    1  0.1210161E-006  0.9118800E+02  0.7816164E-02  0.1184000E+00
        -11   -1    0    0    0    0  0.00000000000E+00  0.00000000000E+00  0.45593999997E+02  0.45594000000E+02  0.51100000000E-03 0.  1.
         11   -1    0    0    0    0 -0.00000000000E+00 -0.00000000000E+00 -0.45593999997E+02  0.45594000000E+02  0.51100000000E-03 0. -1.
         23    2    1    2    0    0  0.00000000000E+00 -0.17763568394E-14  0.00000000000E+00  0.91188000000E+02  0.91188000000E+02 0.  0.
    9900012    2    3    3    0    0  0.76050919530E+01 -0.13011381435E+02 -0.33595346795E+02  0.54367071213E+02  0.39999970445E+02 0.  0.
        -12    1    3    3    0    0 -0.76050919530E+01  0.13011381435E+02  0.33595346795E+02  0.36820928787E+02  0.00000000000E+00 0.  1.
         11    1    4    4    0    0 -0.10517976212E+02  0.11847079693E+01 -0.16831028094E+02  0.19882526588E+02  0.51100000000E-03 0. -1.
        -11    1    4    4    0    0  0.13874376093E+02 -0.17892873729E+02 -0.17746262610E+02  0.28767743727E+02  0.51100000000E-03 0.  1.
        -12    1    4    4    0    0  0.42486920720E+01  0.36967843249E+01  0.98194391005E+00  0.57168008982E+01  0.00000000000E+00 0.  1.
</event>
<event>
 8    1  0.1210161E-006  0.9118800E+02  0.7816164E-02  0.1184000E+00
        -11   -1    0    0    0    0  0.00000000000E+00  0.00000000000E+00  0.45593999997E+02  0.45594000000E+02  0.51100000000E-03 0. -1.
         11   -1    0    0    0    0 -0.00000000000E+00 -0.00000000000E+00 -0.45593999997E+02  0.45594000000E+02  0.51100000000E-03 0.  1.
         23    2    1    2    0    0  0.00000000000E+00  0.00000000000E+00  0.83266726847E-15  0.91188000000E+02  0.91188000000E+02 0.  0.
    9900012    2    3    3    0    0 -0.34715659608E+02  0.12270649503E+02  0.18111062793E+00  0.54367100197E+02  0.40000036519E+02 0.  0.
         12    1    3    3    0    0  0.34715659608E+02 -0.12270649503E+02 -0.18111062793E+00  0.36820899803E+02  0.00000000000E+00 0. -1.
         11    1    4    4    0    0  0.28071917749E+01 -0.39255714983E+01 -0.56955813885E+01  0.74652585262E+01  0.51100000000E-03 0. -1.
        -11    1    4    4    0    0 -0.19189830237E+01  0.91810304664E+01 -0.23997924662E+01  0.96815711748E+01  0.51100000000E-03 0.  1.
         12    1    4    4    0    0 -0.35603868359E+02  0.70151905348E+01  0.82764844826E+01  0.37220270496E+02  0.00000000000E+00 0. -1.
</event>
<event>
 8    1  0.1210161E-006  0.9118800E+02  0.7816164E-02  0.1184000E+00
        -11   -1    0    0    0    0  0.00000000000E+00  0.00000000000E+00  0.45593999997E+02  0.45594000000E+02  0.51100000000E-03 0.  1.
         11   -1    0    0    0    0 -0.00000000000E+00 -0.00000000000E+00 -0.45593999997E+02  0.45594000000E+02  0.51100000000E-03 0. -1.
         23    2    1    2    0    0  0.35527136788E-14  0.00000000000E+00  0.71054273576E-14  0.91188000000E+02  0.91188000000E+02 0.  0.
    9900012    2    3    3    0    0  0.23108169327E+02  0.16143547166E+02  0.23689229089E+02  0.54367066014E+02  0.39999958592E+02 0.  0.
         12    1    3    3    0    0 -0.23108169327E+02 -0.16143547166E+02 -0.23689229089E+02  0.36820933986E+02  0.00000000000E+00 0. -1.
         11    1    4    4    0    0  0.24707131511E+02  0.17540439219E+02  0.11153553694E+02  0.32287940717E+02  0.51100000000E-03 0. -1.
        -11    1    4    4    0    0  0.47099333692E+01  0.34178175141E+01 -0.14511977362E+01  0.59975765132E+01  0.51100000000E-03 0.  1.
        -12    1    4    4    0    0 -0.63088955524E+01 -0.48147095673E+01  0.13986873131E+02  0.16081548784E+02  0.00000000000E+00 0.  1.
</event>
<event>
 8    1  0.1210161E-006  0.9118800E+02  0.7816164E-02  0.1184000E+00
        -11   -1    0    0    0    0  0.00000000000E+00  0.00000000000E+00  0.45593999997E+02  0.45594000000E+02  0.51100000000E-03 0.  1.
         11   -1    0    0    0    0 -0.00000000000E+00 -0.00000000000E+00 -0.45593999997E+02  0.45594000000E+02  0.51100000000E-03 0. -1.
         23    2    1    2    0    0 -0.17763568394E-14  0.35527136788E-14 -0.35527136788E-14  0.91188000000E+02  0.91188000000E+02 0.  0.
    9900012    2    3    3    0    0 -0.10235538642E+02  0.16109183263E+02 -0.31488235629E+02  0.54367068185E+02  0.39999963542E+02 0.  0.
        -12    1    3    3    0    0  0.10235538642E+02 -0.16109183263E+02  0.31488235629E+02  0.36820931815E+02  0.00000000000E+00 0.  1.
         11    1    4    4    0    0 -0.14901882341E+02  0.15064257496E+01 -0.27184149634E+02  0.31037290594E+02  0.51100000000E-03 0. -1.
        -11    1    4    4    0    0  0.83124291992E+01  0.16175332346E+01  0.15804356612E+01  0.86145615151E+01  0.51100000000E-03 0.  1.
        -12    1    4    4    0    0 -0.36460855006E+01  0.12985224279E+02 -0.58845216566E+01  0.14715216076E+02  0.00000000000E+00 0.  1.
</event>
<event>
 8    1  0.1210161E-006  0.9118800E+02  0.7816164E-02  0.1184000E+00
        -11   -1    0    0    0    0  0.00000000000E+00  0.00000000000E+00  0.45593999997E+02  0.45594000000E+02  0.51100000000E-03 0.  1.
         11   -1    0    0    0    0 -0.00000000000E+00 -0.00000000000E+00 -0.45593999997E+02  0.45594000000E+02  0.51100000000E-03 0. -1.
         23    2    1    2    0    0  0.71054273576E-14  0.00000000000E+00 -0.35527136788E-14  0.91188000000E+02  0.91188000000E+02 0.  0.
    9900012    2    3    3    0    0  0.27650128602E+02  0.10693583383E+02 -0.21837987824E+02  0.54367081360E+02  0.39999993577E+02 0.  0.
        -12    1    3    3    0    0 -0.27650128602E+02 -0.10693583383E+02  0.21837987824E+02  0.36820918640E+02  0.00000000000E+00 0.  1.
         11    1    4    4    0    0 -0.65825203359E+01  0.57415155152E+01 -0.41662604064E+01  0.96774118657E+01  0.51100000000E-03 0. -1.
        -11    1    4    4    0    0  0.15922785409E+02  0.64116665115E+01  0.25698134248E+01  0.17356511860E+02  0.51100000000E-03 0.  1.
         12    1    4    4    0    0  0.18309863528E+02 -0.14595986433E+01 -0.20241540842E+02  0.27333157635E+02  0.00000000000E+00 0. -1.
</event>
<event>
 8    1  0.1210161E-006  0.9118800E+02  0.7816164E-02  0.1184000E+00
        -11   -1    0    0    0    0  0.00000000000E+00  0.00000000000E+00  0.45593999997E+02  0.45594000000E+02  0.51100000000E-03 0. -1.
         11   -1    0    0    0    0 -0.00000000000E+00 -0.00000000000E+00 -0.45593999997E+02  0.45594000000E+02  0.51100000000E-03 0.  1.
         23    2    1    2    0    0  0.35527136788E-14  0.00000000000E+00  0.00000000000E+00  0.91188000000E+02  0.91188000000E+02 0.  0.
    9900012    2    3    3    0    0 -0.24266052267E+02  0.26435339500E+02  0.82528559163E+01  0.54367107862E+02  0.40000053993E+02 0.  0.
        -12    1    3    3    0    0  0.24266052267E+02 -0.26435339500E+02 -0.82528559163E+01  0.36820892138E+02  0.00000000000E+00 0.  1.
         11    1    4    4    0    0 -0.73071587145E+01  0.73775632724E+01  0.47630511005E+01  0.11424082649E+02  0.51100000000E-03 0. -1.
        -11    1    4    4    0    0 -0.93236438882E+01  0.10327574497E+02 -0.15414035687E+02  0.20764913358E+02  0.51100000000E-03 0.  1.
        -12    1    4    4    0    0 -0.76352496638E+01  0.87302017305E+01  0.18903840503E+02  0.22178111855E+02  0.00000000000E+00 0.  1.
</event>
<event>
 8    1  0.1210161E-006  0.9118800E+02  0.7816164E-02  0.1184000E+00
        -11   -1    0    0    0    0  0.00000000000E+00  0.00000000000E+00  0.45593999997E+02  0.45594000000E+02  0.51100000000E-03 0. -1.
         11   -1    0    0    0    0 -0.00000000000E+00 -0.00000000000E+00 -0.45593999997E+02  0.45594000000E+02  0.51100000000E-03 0.  1.
         23    2    1    2    0    0  0.17763568394E-14 -0.35527136788E-14 -0.35527136788E-14  0.91188000000E+02  0.91188000000E+02 0.  0.
    9900012    2    3    3    0    0 -0.11641849421E+02  0.19153264516E+02  0.29213007582E+02  0.54367081875E+02  0.39999994751E+02 0.  0.
        -12    1    3    3    0    0  0.11641849421E+02 -0.19153264516E+02 -0.29213007582E+02  0.36820918125E+02  0.00000000000E+00 0.  1.
         11    1    4    4    0    0 -0.15506727180E+02 -0.70186555087E+01  0.10597171901E+02  0.20050440533E+02  0.51100000000E-03 0. -1.
        -11    1    4    4    0    0  0.40145815254E+01  0.24695395784E+02  0.20192431403E+02  0.32151418693E+02  0.51100000000E-03 0.  1.
        -12    1    4    4    0    0 -0.14970376581E+00  0.14765242400E+01 -0.15765957218E+01  0.21652226488E+01  0.00000000000E+00 0.  1.
</event>
<event>
 8    1  0.1210161E-006  0.9118800E+02  0.7816164E-02  0.1184000E+00
        -11   -1    0    0    0    0  0.00000000000E+00  0.00000000000E+00  0.45593999997E+02  0.45594000000E+02  0.51100000000E-03 0.  1.
         11   -1    0    0    0    0 -0.00000000000E+00 -0.00000000000E+00 -0.45593999997E+02  0.45594000000E+02  0.51100000000E-03 0. -1.
         23    2    1    2    0    0  0.00000000000E+00  0.11102230246E-15  0.44408920985E-15  0.91188000000E+02  0.91188000000E+02 0.  0.
    9900012    2    3    3    0    0 -0.36646992019E+02 -0.56389672395E+00  0.35298654232E+01  0.54367082664E+02  0.39999996549E+02 0.  0.
        -12    1    3    3    0    0  0.36646992019E+02  0.56389672395E+00 -0.35298654232E+01  0.36820917336E+02  0.00000000000E+00 0.  1.
         11    1    4    4    0    0 -0.28537537072E+02  0.72807290216E+01 -0.95084160762E+01  0.30948505840E+02  0.51100000000E-03 0. -1.
        -11    1    4    4    0    0 -0.11483810523E+02 -0.75330062826E+01  0.14277032229E+02  0.19810546113E+02  0.51100000000E-03 0.  1.
        -12    1    4    4    0    0  0.33743555752E+01 -0.31161946297E+00 -0.12387507298E+01  0.36080307105E+01  0.00000000000E+00 0.  1.
</event>
<event>
 8    1  0.1210161E-006  0.9118800E+02  0.7816164E-02  0.1184000E+00
        -11   -1    0    0    0    0  0.00000000000E+00  0.00000000000E+00  0.45593999997E+02  0.45594000000E+02  0.51100000000E-03 0. -1.
         11   -1    0    0    0    0 -0.00000000000E+00 -0.00000000000E+00 -0.45593999997E+02  0.45594000000E+02  0.51100000000E-03 0.  1.
         23    2    1    2    0    0  0.00000000000E+00  0.00000000000E+00 -0.44408920985E-15  0.91188000000E+02  0.91188000000E+02 0.  0.
    9900012    2    3    3    0    0 -0.25373638242E+02 -0.26390327268E+02  0.39382078662E+01  0.54367076978E+02  0.39999983588E+02 0.  0.
         12    1    3    3    0    0  0.25373638242E+02  0.26390327268E+02 -0.39382078662E+01  0.36820923022E+02  0.00000000000E+00 0. -1.
         11    1    4    4    0    0 -0.13414795861E+02 -0.18452694859E+02  0.42230590119E+01  0.23201140558E+02  0.51100000000E-03 0. -1.
        -11    1    4    4    0    0 -0.73992781348E+01 -0.37904203827E+00  0.13148254404E+02  0.15092037103E+02  0.51100000000E-03 0.  1.
        -12    1    4    4    0    0 -0.45595642464E+01 -0.75585903715E+01 -0.13433105550E+02  0.16073899317E+02  0.00000000000E+00 0.  1.
</event>
<event>
 8    1  0.1210161E-006  0.9118800E+02  0.7816164E-02  0.1184000E+00
        -11   -1    0    0    0    0  0.00000000000E+00  0.00000000000E+00  0.45593999997E+02  0.45594000000E+02  0.51100000000E-03 0. -1.
         11   -1    0    0    0    0 -0.00000000000E+00 -0.00000000000E+00 -0.45593999997E+02  0.45594000000E+02  0.51100000000E-03 0.  1.
         23    2    1    2    0    0  0.00000000000E+00  0.35527136788E-14  0.00000000000E+00  0.91188000000E+02  0.91188000000E+02 0.  0.
    9900012    2    3    3    0    0  0.12352219630E+02  0.31578281831E+02 -0.14353214648E+02  0.54367082250E+02  0.39999995606E+02 0.  0.
         12    1    3    3    0    0 -0.12352219630E+02 -0.31578281831E+02  0.14353214648E+02  0.36820917750E+02  0.00000000000E+00 0. -1.
         11    1    4    4    0    0  0.12927341567E+02  0.12144081713E+02 -0.47289044631E+01  0.18356399928E+02  0.51100000000E-03 0.  1.
        -11    1    4    4    0    0 -0.96212987598E+01  0.22557078964E+02 -0.98762813774E+01  0.26437324662E+02  0.51100000000E-03 0. -1.
        -12    1    4    4    0    0  0.90461768234E+01 -0.31228788452E+01  0.25197119263E+00  0.95733576598E+01  0.00000000000E+00 0.  1.
</event>
<event>
 8    1  0.1210161E-006  0.9118800E+02  0.7816164E-02  0.1184000E+00
        -11   -1    0    0    0    0  0.00000000000E+00  0.00000000000E+00  0.45593999997E+02  0.45594000000E+02  0.51100000000E-03 0.  1.
         11   -1    0    0    0    0 -0.00000000000E+00 -0.00000000000E+00 -0.45593999997E+02  0.45594000000E+02  0.51100000000E-03 0. -1.
         23    2    1    2    0    0  0.00000000000E+00  0.00000000000E+00  0.66613381478E-15  0.91188000000E+02  0.91188000000E+02 0.  0.
    9900012    2    3    3    0    0  0.30700817706E+02  0.20244782106E+02 -0.18412417112E+01  0.54367060559E+02  0.39999946156E+02 0.  0.
        -12    1    3    3    0    0 -0.30700817706E+02 -0.20244782106E+02  0.18412417112E+01  0.36820939441E+02  0.00000000000E+00 0.  1.
         11    1    4    4    0    0  0.10754003197E+02 -0.80498218775E+01  0.85014910148E+01  0.15897281741E+02  0.51100000000E-03 0. -1.
        -11    1    4    4    0    0  0.10603594710E+02  0.15991692024E+02  0.11392755472E+01  0.19221560384E+02  0.51100000000E-03 0.  1.
         12    1    4    4    0    0  0.93432197985E+01  0.12302911959E+02 -0.11482008273E+02  0.19248218433E+02  0.00000000000E+00 0. -1.
</event>
<event>
 8    1  0.1210161E-006  0.9118800E+02  0.7816164E-02  0.1184000E+00
        -11   -1    0    0    0    0  0.00000000000E+00  0.00000000000E+00  0.45593999997E+02  0.45594000000E+02  0.51100000000E-03 0. -1.
         11   -1    0    0    0    0 -0.00000000000E+00 -0.00000000000E+00 -0.45593999997E+02  0.45594000000E+02  0.51100000000E-03 0.  1.
         23    2    1    2    0    0  0.00000000000E+00  0.17763568394E-14 -0.35527136788E-14  0.91188000000E+02  0.91188000000E+02 0.  0.
    9900012    2    3    3    0    0 -0.15870036566E+02  0.15856938644E+02 -0.29197241309E+02  0.54367089314E+02  0.40000011708E+02 0.  0.
         12    1    3    3    0    0  0.15870036566E+02 -0.15856938644E+02  0.29197241309E+02  0.36820910686E+02  0.00000000000E+00 0. -1.
         11    1    4    4    0    0 -0.68795050593E+01 -0.20467486277E+00 -0.71774577491E+01  0.99441129148E+01  0.51100000000E-03 0. -1.
        -11    1    4    4    0    0  0.32617136033E+01 -0.80473591592E+01 -0.13532472030E+02  0.16078761289E+02  0.51100000000E-03 0.  1.
        -12    1    4    4    0    0 -0.12252245110E+02  0.24108972666E+02 -0.84873115294E+01  0.28344215110E+02  0.00000000000E+00 0.  1.
</event>
<event>
 8    1  0.1210161E-006  0.9118800E+02  0.7816164E-02  0.1184000E+00
        -11   -1    0    0    0    0  0.00000000000E+00  0.00000000000E+00  0.45593999997E+02  0.45594000000E+02  0.51100000000E-03 0.  1.
         11   -1    0    0    0    0 -0.00000000000E+00 -0.00000000000E+00 -0.45593999997E+02  0.45594000000E+02  0.51100000000E-03 0. -1.
         23    2    1    2    0    0 -0.66613381478E-15 -0.17763568394E-14 -0.71054273576E-14  0.91188000000E+02  0.91188000000E+02 0.  0.
    9900012    2    3    3    0    0 -0.95620176834E+00 -0.11469871417E+02 -0.34975815024E+02  0.54367083272E+02  0.39999997935E+02 0.  0.
        -12    1    3    3    0    0  0.95620176834E+00  0.11469871417E+02  0.34975815024E+02  0.36820916728E+02  0.00000000000E+00 0.  1.
         11    1    4    4    0    0 -0.13047736464E+02 -0.21617606193E+02 -0.24225286825E+02  0.34991839711E+02  0.51100000000E-03 0. -1.
        -11    1    4    4    0    0  0.40649423164E+01  0.28357035532E+01 -0.16990868187E+01  0.52394529252E+01  0.51100000000E-03 0.  1.
         12    1    4    4    0    0  0.80265923793E+01  0.73120312230E+01 -0.90514413804E+01  0.14135790636E+02  0.00000000000E+00 0. -1.
</event>
<event>
 8    1  0.1210161E-006  0.9118800E+02  0.7816164E-02  0.1184000E+00
        -11   -1    0    0    0    0  0.00000000000E+00  0.00000000000E+00  0.45593999997E+02  0.45594000000E+02  0.51100000000E-03 0.  1.
         11   -1    0    0    0    0 -0.00000000000E+00 -0.00000000000E+00 -0.45593999997E+02  0.45594000000E+02  0.51100000000E-03 0. -1.
         23    2    1    2    0    0  0.26645352591E-14  0.00000000000E+00  0.14210854715E-13  0.91188000000E+02  0.91188000000E+02 0.  0.
    9900012    2    3    3    0    0  0.51878776480E+01  0.16934422231E+02 -0.32281443996E+02  0.54367077180E+02  0.39999984048E+02 0.  0.
        -12    1    3    3    0    0 -0.51878776480E+01 -0.16934422231E+02  0.32281443996E+02  0.36820922820E+02  0.00000000000E+00 0.  1.
         11    1    4    4    0    0  0.90848208049E+00  0.17690071205E+01 -0.65241190922E+01  0.68204733027E+01  0.51100000000E-03 0. -1.
        -11    1    4    4    0    0 -0.55443514537E+01  0.63467614027E+01  0.78017979824E+01  0.11484305176E+02  0.51100000000E-03 0.  1.
        -12    1    4    4    0    0  0.98237470212E+01  0.88186537083E+01 -0.33559122887E+02  0.36062298702E+02  0.00000000000E+00 0.  1.
</event>
<event>
 8    1  0.1210161E-006  0.9118800E+02  0.7816164E-02  0.1184000E+00
        -11   -1    0    0    0    0  0.00000000000E+00  0.00000000000E+00  0.45593999997E+02  0.45594000000E+02  0.51100000000E-03 0. -1.
         11   -1    0    0    0    0 -0.00000000000E+00 -0.00000000000E+00 -0.45593999997E+02  0.45594000000E+02  0.51100000000E-03 0.  1.
         23    2    1    2    0    0  0.17763568394E-14 -0.35527136788E-14  0.00000000000E+00  0.91188000000E+02  0.91188000000E+02 0.  0.
    9900012    2    3    3    0    0 -0.12648702305E+02 -0.27191427025E+02 -0.21363886793E+02  0.54367095169E+02  0.40000025057E+02 0.  0.
         12    1    3    3    0    0  0.12648702305E+02  0.27191427025E+02  0.21363886793E+02  0.36820904831E+02  0.00000000000E+00 0. -1.
         11    1    4    4    0    0 -0.11990931580E+02 -0.12812350474E+02 -0.14988288256E+02  0.23077858435E+02  0.51100000000E-03 0. -1.
        -11    1    4    4    0    0 -0.75293363020E+01 -0.17822070340E+02 -0.11062849735E+02  0.22286851300E+02  0.51100000000E-03 0.  1.
         12    1    4    4    0    0  0.68715655770E+01  0.34429937891E+01  0.46872511983E+01  0.90023854342E+01  0.00000000000E+00 0. -1.
</event>
<event>
 8    1  0.1210161E-006  0.9118800E+02  0.7816164E-02  0.1184000E+00
        -11   -1    0    0    0    0  0.00000000000E+00  0.00000000000E+00  0.45593999997E+02  0.45594000000E+02  0.51100000000E-03 0. -1.
         11   -1    0    0    0    0 -0.00000000000E+00 -0.00000000000E+00 -0.45593999997E+02  0.45594000000E+02  0.51100000000E-03 0.  1.
         23    2    1    2    0    0 -0.35527136788E-14  0.00000000000E+00  0.00000000000E+00  0.91188000000E+02  0.91188000000E+02 0.  0.
    9900012    2    3    3    0    0 -0.26134780621E+02 -0.18163819106E+02  0.18515275646E+02  0.54367265150E+02  0.40000412560E+02 0.  0.
        -12    1    3    3    0    0  0.26134780621E+02  0.18163819106E+02 -0.18515275646E+02  0.36820734850E+02  0.00000000000E+00 0.  1.
         11    1    4    4    0    0  0.20764208351E+01  0.36334786703E+01  0.12903223526E+02  0.13564913135E+02  0.51100000000E-03 0. -1.
        -11    1    4    4    0    0 -0.18769698316E+02 -0.63066651404E+01 -0.41061086707E+01  0.20222159349E+02  0.51100000000E-03 0.  1.
         12    1    4    4    0    0 -0.94415031410E+01 -0.15490632636E+02  0.97181607908E+01  0.20580192666E+02  0.00000000000E+00 0. -1.
</event>
<event>
 8    1  0.1210161E-006  0.9118800E+02  0.7816164E-02  0.1184000E+00
        -11   -1    0    0    0    0  0.00000000000E+00  0.00000000000E+00  0.45593999997E+02  0.45594000000E+02  0.51100000000E-03 0.  1.
         11   -1    0    0    0    0 -0.00000000000E+00 -0.00000000000E+00 -0.45593999997E+02  0.45594000000E+02  0.51100000000E-03 0. -1.
         23    2    1    2    0    0  0.00000000000E+00  0.00000000000E+00 -0.35527136788E-14  0.91188000000E+02  0.91188000000E+02 0.  0.
    9900012    2    3    3    0    0 -0.11063892874E+02  0.21758884550E+02  0.27566627008E+02  0.54367113170E+02  0.40000066093E+02 0.  0.
         12    1    3    3    0    0  0.11063892874E+02 -0.21758884550E+02 -0.27566627008E+02  0.36820886830E+02  0.00000000000E+00 0. -1.
         11    1    4    4    0    0 -0.68066034186E+01 -0.38074690248E+01  0.47897077604E+01  0.91524844258E+01  0.51100000000E-03 0. -1.
        -11    1    4    4    0    0 -0.52078238087E+01  0.39352404819E+01 -0.62262985730E+01  0.90207727304E+01  0.51100000000E-03 0.  1.
        -12    1    4    4    0    0  0.95053435314E+00  0.21631113092E+02  0.29003217821E+02  0.36193856013E+02  0.00000000000E+00 0.  1.
</event>
<event>
 8    1  0.1210161E-006  0.9118800E+02  0.7816164E-02  0.1184000E+00
        -11   -1    0    0    0    0  0.00000000000E+00  0.00000000000E+00  0.45593999997E+02  0.45594000000E+02  0.51100000000E-03 0.  1.
         11   -1    0    0    0    0 -0.00000000000E+00 -0.00000000000E+00 -0.45593999997E+02  0.45594000000E+02  0.51100000000E-03 0. -1.
         23    2    1    2    0    0  0.00000000000E+00  0.00000000000E+00  0.00000000000E+00  0.91188000000E+02  0.91188000000E+02 0.  0.
    9900012    2    3    3    0    0 -0.25749104371E+02  0.10842501039E+02  0.23983405664E+02  0.54367082685E+02  0.39999996596E+02 0.  0.
         12    1    3    3    0    0  0.25749104371E+02 -0.10842501039E+02 -0.23983405664E+02  0.36820917315E+02  0.00000000000E+00 0. -1.
         11    1    4    4    0    0 -0.41467204525E+01  0.29094812676E+01  0.16831032253E+02  0.17576803427E+02  0.51100000000E-03 0. -1.
        -11    1    4    4    0    0 -0.17565881033E+02 -0.28127874385E+01  0.14678900210E+02  0.23063869174E+02  0.51100000000E-03 0.  1.
         12    1    4    4    0    0 -0.40365028857E+01  0.10745807210E+02 -0.75265267986E+01  0.13726410084E+02  0.00000000000E+00 0. -1.
</event>
<event>
 8    1  0.1210161E-006  0.9118800E+02  0.7816164E-02  0.1184000E+00
        -11   -1    0    0    0    0  0.00000000000E+00  0.00000000000E+00  0.45593999997E+02  0.45594000000E+02  0.51100000000E-03 0.  1.
         11   -1    0    0    0    0 -0.00000000000E+00 -0.00000000000E+00 -0.45593999997E+02  0.45594000000E+02  0.51100000000E-03 0. -1.
         23    2    1    2    0    0 -0.35527136788E-14 -0.35527136788E-14 -0.35527136788E-14  0.91188000000E+02  0.91188000000E+02 0.  0.
    9900012    2    3    3    0    0  0.18502278483E+02  0.24485790599E+02  0.20344313131E+02  0.54367091170E+02  0.40000015940E+02 0.  0.
         12    1    3    3    0    0 -0.18502278483E+02 -0.24485790599E+02 -0.20344313131E+02  0.36820908830E+02  0.00000000000E+00 0. -1.
         11    1    4    4    0    0 -0.46121382425E+01  0.44345550977E+00  0.27837602403E+01  0.54053485821E+01  0.51100000000E-03 0. -1.
        -11    1    4    4    0    0  0.82210107045E+01 -0.69882949932E+01  0.12150069067E+01  0.10858062717E+02  0.51100000000E-03 0.  1.
        -12    1    4    4    0    0  0.14893406021E+02  0.31030630083E+02  0.16345545984E+02  0.38103679871E+02  0.00000000000E+00 0.  1.
</event>
<event>
 8    1  0.1210161E-006  0.9118800E+02  0.7816164E-02  0.1184000E+00
        -11   -1    0    0    0    0  0.00000000000E+00  0.00000000000E+00  0.45593999997E+02  0.45594000000E+02  0.51100000000E-03 0. -1.
         11   -1    0    0    0    0 -0.00000000000E+00 -0.00000000000E+00 -0.45593999997E+02  0.45594000000E+02  0.51100000000E-03 0.  1.
         23    2    1    2    0    0  0.00000000000E+00 -0.17763568394E-14 -0.71054273576E-14  0.91188000000E+02  0.91188000000E+02 0.  0.
    9900012    2    3    3    0    0  0.68560160710E+01  0.83038266898E+01 -0.35211115000E+02  0.54367066910E+02  0.39999960634E+02 0.  0.
         12    1    3    3    0    0 -0.68560160710E+01 -0.83038266898E+01  0.35211115000E+02  0.36820933090E+02  0.00000000000E+00 0. -1.
         11    1    4    4    0    0  0.69366078939E+01  0.13169215726E+02  0.32019364789E+01  0.15224886515E+02  0.51100000000E-03 0. -1.
        -11    1    4    4    0    0  0.11832676148E+01 -0.56764200656E+01 -0.26006346180E+02  0.26644922760E+02  0.51100000000E-03 0.  1.
         12    1    4    4    0    0 -0.12638594376E+01  0.81103102938E+00 -0.12406705299E+02  0.12497257635E+02  0.00000000000E+00 0. -1.
</event>
<event>
 8    1  0.1210161E-006  0.9118800E+02  0.7816164E-02  0.1184000E+00
        -11   -1    0    0    0    0  0.00000000000E+00  0.00000000000E+00  0.45593999997E+02  0.45594000000E+02  0.51100000000E-03 0.  1.
         11   -1    0    0    0    0 -0.00000000000E+00 -0.00000000000E+00 -0.45593999997E+02  0.45594000000E+02  0.51100000000E-03 0. -1.
         23    2    1    2    0    0  0.00000000000E+00  0.00000000000E+00  0.44408920985E-15  0.91188000000E+02  0.91188000000E+02 0.  0.
    9900012    2    3    3    0    0  0.33363434516E+02 -0.15398368140E+02  0.23563466974E+01  0.54367070166E+02  0.39999968058E+02 0.  0.
         12    1    3    3    0    0 -0.33363434516E+02  0.15398368140E+02 -0.23563466974E+01  0.36820929834E+02  0.00000000000E+00 0. -1.
         11    1    4    4    0    0  0.63300714944E+01 -0.12753209226E+02  0.75391520149E-01  0.14237971584E+02  0.51100000000E-03 0. -1.
        -11    1    4    4    0    0  0.22784146241E+02 -0.36057621475E+00 -0.11502602671E+02  0.25525618575E+02  0.51100000000E-03 0.  1.
         12    1    4    4    0    0  0.42492167802E+01 -0.22845826994E+01  0.13783557849E+02  0.14603480007E+02  0.00000000000E+00 0. -1.
</event>
<event>
 8    1  0.1210161E-006  0.9118800E+02  0.7816164E-02  0.1184000E+00
        -11   -1    0    0    0    0  0.00000000000E+00  0.00000000000E+00  0.45593999997E+02  0.45594000000E+02  0.51100000000E-03 0.  1.
         11   -1    0    0    0    0 -0.00000000000E+00 -0.00000000000E+00 -0.45593999997E+02  0.45594000000E+02  0.51100000000E-03 0. -1.
         23    2    1    2    0    0  0.35527136788E-14 -0.71054273576E-14  0.17763568394E-14  0.91188000000E+02  0.91188000000E+02 0.  0.
    9900012    2    3    3    0    0  0.28518637429E+02 -0.21429439140E+02  0.91239320484E+01  0.54367086396E+02  0.40000005056E+02 0.  0.
        -12    1    3    3    0    0 -0.28518637429E+02  0.21429439140E+02 -0.91239320484E+01  0.36820913604E+02  0.00000000000E+00 0.  1.
         11    1    4    4    0    0 -0.25549989718E+01  0.66350529154E+01 -0.28292351148E+01  0.76522231104E+01  0.51100000000E-03 0. -1.
        -11    1    4    4    0    0  0.15277612751E+02 -0.20976336927E+02  0.49816961937E+00  0.25954967453E+02  0.51100000000E-03 0.  1.
         12    1    4    4    0    0  0.15796023649E+02 -0.70881551286E+01  0.11454997544E+02  0.20759895833E+02  0.00000000000E+00 0. -1.
</event>
<event>
 8    1  0.1210161E-006  0.9118800E+02  0.7816164E-02  0.1184000E+00
        -11   -1    0    0    0    0  0.00000000000E+00  0.00000000000E+00  0.45593999997E+02  0.45594000000E+02  0.51100000000E-03 0.  1.
         11   -1    0    0    0    0 -0.00000000000E+00 -0.00000000000E+00 -0.45593999997E+02  0.45594000000E+02  0.51100000000E-03 0. -1.
         23    2    1    2    0    0 -0.71054273576E-14 -0.17763568394E-14  0.26645352591E-14  0.91188000000E+02  0.91188000000E+02 0.  0.
    9900012    2    3    3    0    0  0.35462753446E+02  0.82310405703E+01 -0.55157000338E+01  0.54367083964E+02  0.39999999514E+02 0.  0.
         12    1    3    3    0    0 -0.35462753446E+02 -0.82310405703E+01  0.55157000338E+01  0.36820916036E+02  0.00000000000E+00 0. -1.
         11    1    4    4    0    0  0.17585800502E+01 -0.14226450255E+01  0.56106114172E+01  0.60494200877E+01  0.51100000000E-03 0. -1.
        -11    1    4    4    0    0  0.10869392321E+02 -0.89408998334E+01  0.47605935481E+01  0.14857544563E+02  0.51100000000E-03 0.  1.
         12    1    4    4    0    0  0.22834781075E+02  0.18594585429E+02 -0.15886904999E+02  0.33460119313E+02  0.00000000000E+00 0. -1.
</event>
<event>
 8    1  0.1210161E-006  0.9118800E+02  0.7816164E-02  0.1184000E+00
        -11   -1    0    0    0    0  0.00000000000E+00  0.00000000000E+00  0.45593999997E+02  0.45594000000E+02  0.51100000000E-03 0. -1.
         11   -1    0    0    0    0 -0.00000000000E+00 -0.00000000000E+00 -0.45593999997E+02  0.45594000000E+02  0.51100000000E-03 0.  1.
         23    2    1    2    0    0  0.00000000000E+00  0.00000000000E+00  0.88817841970E-15  0.91188000000E+02  0.91188000000E+02 0.  0.
    9900012    2    3    3    0    0  0.34751382617E+02 -0.10459880240E+02 -0.62213489342E+01  0.54367178839E+02  0.40000215798E+02 0.  0.
         12    1    3    3    0    0 -0.34751382617E+02  0.10459880240E+02  0.62213489342E+01  0.36820821161E+02  0.00000000000E+00 0. -1.
         11    1    4    4    0    0  0.12051710018E+02 -0.12083202378E+02 -0.99605471041E+01  0.19760060550E+02  0.51100000000E-03 0.  1.
        -11    1    4    4    0    0 -0.18599646776E+01 -0.76809843616E+01  0.25990109990E+01  0.83193658291E+01  0.51100000000E-03 0. -1.
        -12    1    4    4    0    0  0.24559637277E+02  0.93043064997E+01  0.11401871709E+01  0.26287752460E+02  0.00000000000E+00 0.  1.
</event>
<event>
 8    1  0.1210161E-006  0.9118800E+02  0.7816164E-02  0.1184000E+00
        -11   -1    0    0    0    0  0.00000000000E+00  0.00000000000E+00  0.45593999997E+02  0.45594000000E+02  0.51100000000E-03 0. -1.
         11   -1    0    0    0    0 -0.00000000000E+00 -0.00000000000E+00 -0.45593999997E+02  0.45594000000E+02  0.51100000000E-03 0.  1.
         23    2    1    2    0    0 -0.17763568394E-14  0.00000000000E+00  0.00000000000E+00  0.91188000000E+02  0.91188000000E+02 0.  0.
    9900012    2    3    3    0    0  0.13824418943E+02 -0.79154098730E+01  0.33196555486E+02  0.54367087889E+02  0.40000008460E+02 0.  0.
        -12    1    3    3    0    0 -0.13824418943E+02  0.79154098730E+01 -0.33196555486E+02  0.36820912111E+02  0.00000000000E+00 0.  1.
         11    1    4    4    0    0  0.84462552778E+01 -0.15457021066E+01  0.22807358116E+02  0.24370145829E+02  0.51100000000E-03 0. -1.
        -11    1    4    4    0    0 -0.14426559987E+01 -0.11773557142E+02  0.15794670436E+02  0.19752709144E+02  0.51100000000E-03 0.  1.
        -12    1    4    4    0    0  0.68208196634E+01  0.54038493760E+01 -0.54054730657E+01  0.10244232915E+02  0.00000000000E+00 0.  1.
</event>
<event>
 8    1  0.1210161E-006  0.9118800E+02  0.7816164E-02  0.1184000E+00
        -11   -1    0    0    0    0  0.00000000000E+00  0.00000000000E+00  0.45593999997E+02  0.45594000000E+02  0.51100000000E-03 0.  1.
         11   -1    0    0    0    0 -0.00000000000E+00 -0.00000000000E+00 -0.45593999997E+02  0.45594000000E+02  0.51100000000E-03 0. -1.
         23    2    1    2    0    0  0.88817841970E-15 -0.35527136788E-14 -0.71054273576E-14  0.91188000000E+02  0.91188000000E+02 0.  0.
    9900012    2    3    3    0    0  0.47344643084E+01  0.17494476569E+02 -0.32051643792E+02  0.54367085665E+02  0.40000003390E+02 0.  0.
        -12    1    3    3    0    0 -0.47344643084E+01 -0.17494476569E+02  0.32051643792E+02  0.36820914335E+02  0.00000000000E+00 0.  1.
         11    1    4    4    0    0  0.13124054023E+02  0.31626591540E+00  0.24098526172E+01  0.13347217239E+02  0.51100000000E-03 0. -1.
        -11    1    4    4    0    0 -0.23559700662E+01 -0.72781474482E+00 -0.11461587111E+01  0.27191890901E+01  0.51100000000E-03 0.  1.
         12    1    4    4    0    0 -0.60336196481E+01  0.17906025398E+02 -0.33315337698E+02  0.38300679336E+02  0.00000000000E+00 0. -1.
</event>
<event>
 8    1  0.1210161E-006  0.9118800E+02  0.7816164E-02  0.1184000E+00
        -11   -1    0    0    0    0  0.00000000000E+00  0.00000000000E+00  0.45593999997E+02  0.45594000000E+02  0.51100000000E-03 0.  1.
         11   -1    0    0    0    0 -0.00000000000E+00 -0.00000000000E+00 -0.45593999997E+02  0.45594000000E+02  0.51100000000E-03 0. -1.
         23    2    1    2    0    0  0.00000000000E+00  0.35527136788E-14  0.00000000000E+00  0.91188000000E+02  0.91188000000E+02 0.  0.
    9900012    2    3    3    0    0  0.28269238746E+02 -0.18376246306E+02 -0.14796735692E+02  0.54367086449E+02  0.40000005179E+02 0.  0.
        -12    1    3    3    0    0 -0.28269238746E+02  0.18376246306E+02  0.14796735692E+02  0.36820913551E+02  0.00000000000E+00 0.  1.
         11    1    4    4    0    0  0.11609711205E+02  0.42803350737E+01 -0.11827252192E+02  0.17116966942E+02  0.51100000000E-03 0. -1.
        -11    1    4    4    0    0 -0.57883038894E+01 -0.29391536251E+01 -0.34846456204E+01  0.73678925962E+01  0.51100000000E-03 0.  1.
        -12    1    4    4    0    0  0.22447831431E+02 -0.19717427754E+02  0.51516212083E+00  0.29882226911E+02  0.00000000000E+00 0.  1.
</event>
<event>
 8    1  0.1210161E-006  0.9118800E+02  0.7816164E-02  0.1184000E+00
        -11   -1    0    0    0    0  0.00000000000E+00  0.00000000000E+00  0.45593999997E+02  0.45594000000E+02  0.51100000000E-03 0. -1.
         11   -1    0    0    0    0 -0.00000000000E+00 -0.00000000000E+00 -0.45593999997E+02  0.45594000000E+02  0.51100000000E-03 0.  1.
         23    2    1    2    0    0 -0.35527136788E-14  0.00000000000E+00 -0.35527136788E-14  0.91188000000E+02  0.91188000000E+02 0.  0.
    9900012    2    3    3    0    0 -0.23977025613E+02  0.98748414634E+01  0.26141324630E+02  0.54367094191E+02  0.40000022828E+02 0.  0.
        -12    1    3    3    0    0  0.23977025613E+02 -0.98748414634E+01 -0.26141324630E+02  0.36820905809E+02  0.00000000000E+00 0.  1.
         11    1    4    4    0    0 -0.19816427574E+02  0.12578843518E+02  0.23698118824E+02  0.33354444113E+02  0.51100000000E-03 0. -1.
        -11    1    4    4    0    0 -0.68863364283E+01 -0.10523857435E+02  0.11222099165E+01  0.12626660686E+02  0.51100000000E-03 0.  1.
        -12    1    4    4    0    0  0.27257383899E+01  0.78198553807E+01  0.13209958896E+01  0.83859893922E+01  0.00000000000E+00 0.  1.
</event>
<event>
 8    1  0.1210161E-006  0.9118800E+02  0.7816164E-02  0.1184000E+00
        -11   -1    0    0    0    0  0.00000000000E+00  0.00000000000E+00  0.45593999997E+02  0.45594000000E+02  0.51100000000E-03 0.  1.
         11   -1    0    0    0    0 -0.00000000000E+00 -0.00000000000E+00 -0.45593999997E+02  0.45594000000E+02  0.51100000000E-03 0. -1.
         23    2    1    2    0    0  0.00000000000E+00  0.00000000000E+00  0.17763568394E-14  0.91188000000E+02  0.91188000000E+02 0.  0.
    9900012    2    3    3    0    0 -0.34125166604E+02 -0.10569974606E+02 -0.89178411814E+01  0.54367092213E+02  0.40000018317E+02 0.  0.
        -12    1    3    3    0    0  0.34125166604E+02  0.10569974606E+02  0.89178411814E+01  0.36820907787E+02  0.00000000000E+00 0.  1.
         11    1    4    4    0    0 -0.29552941073E+02  0.11448513021E+01 -0.15849766036E+02  0.33554464595E+02  0.51100000000E-03 0. -1.
        -11    1    4    4    0    0  0.53082140110E+01 -0.60086175336E+01  0.14242416052E+01  0.81430390557E+01  0.51100000000E-03 0.  1.
        -12    1    4    4    0    0 -0.98804395420E+01 -0.57062083746E+01  0.55076832495E+01  0.12669588562E+02  0.00000000000E+00 0.  1.
</event>
<event>
 8    1  0.1210161E-006  0.9118800E+02  0.7816164E-02  0.1184000E+00
        -11   -1    0    0    0    0  0.00000000000E+00  0.00000000000E+00  0.45593999997E+02  0.45594000000E+02  0.51100000000E-03 0.  1.
         11   -1    0    0    0    0 -0.00000000000E+00 -0.00000000000E+00 -0.45593999997E+02  0.45594000000E+02  0.51100000000E-03 0. -1.
         23    2    1    2    0    0 -0.88817841970E-15  0.00000000000E+00  0.17763568394E-14  0.91188000000E+02  0.91188000000E+02 0.  0.
    9900012    2    3    3    0    0 -0.46145095040E+01 -0.33610047666E+02 -0.14312653188E+02  0.54367067864E+02  0.39999962809E+02 0.  0.
        -12    1    3    3    0    0  0.46145095040E+01  0.33610047666E+02  0.14312653188E+02  0.36820932136E+02  0.00000000000E+00 0.  1.
         11    1    4    4    0    0 -0.93498482715E+01 -0.11948641910E+02 -0.11534644689E+02  0.19058796776E+02  0.51100000000E-03 0. -1.
        -11    1    4    4    0    0  0.13439890823E+02 -0.22330699046E+02  0.26008760016E+00  0.26064505194E+02  0.51100000000E-03 0.  1.
         12    1    4    4    0    0 -0.87045520552E+01  0.66929328900E+00 -0.30380960990E+01  0.92437658936E+01  0.00000000000E+00 0. -1.
</event>
<event>
 8    1  0.1210161E-006  0.9118800E+02  0.7816164E-02  0.1184000E+00
        -11   -1    0    0    0    0  0.00000000000E+00  0.00000000000E+00  0.45593999997E+02  0.45594000000E+02  0.51100000000E-03 0. -1.
         11   -1    0    0    0    0 -0.00000000000E+00 -0.00000000000E+00 -0.45593999997E+02  0.45594000000E+02  0.51100000000E-03 0.  1.
         23    2    1    2    0    0 -0.88817841970E-15  0.00000000000E+00  0.00000000000E+00  0.91188000000E+02  0.91188000000E+02 0.  0.
    9900012    2    3    3    0    0  0.64290242326E+01  0.32349131167E+02  0.16370164189E+02  0.54367069602E+02  0.39999966771E+02 0.  0.
        -12    1    3    3    0    0 -0.64290242326E+01 -0.32349131167E+02 -0.16370164189E+02  0.36820930398E+02  0.00000000000E+00 0.  1.
         11    1    4    4    0    0  0.11241122203E+02  0.21510046843E+02 -0.17743677654E+01  0.24335022597E+02  0.51100000000E-03 0. -1.
        -11    1    4    4    0    0  0.70986123220E+01  0.46939150541E+01  0.14656320343E+01  0.86354625212E+01  0.51100000000E-03 0.  1.
         12    1    4    4    0    0 -0.11910710292E+02  0.61451692691E+01  0.16678899920E+02  0.21396584483E+02  0.00000000000E+00 0. -1.
</event>
<event>
 8    1  0.1210161E-006  0.9118800E+02  0.7816164E-02  0.1184000E+00
        -11   -1    0    0    0    0  0.00000000000E+00  0.00000000000E+00  0.45593999997E+02  0.45594000000E+02  0.51100000000E-03 0. -1.
         11   -1    0    0    0    0 -0.00000000000E+00 -0.00000000000E+00 -0.45593999997E+02  0.45594000000E+02  0.51100000000E-03 0.  1.
         23    2    1    2    0    0  0.00000000000E+00 -0.35527136788E-14 -0.71054273576E-14  0.91188000000E+02  0.91188000000E+02 0.  0.
    9900012    2    3    3    0    0  0.95972331162E+01 -0.23510138888E+02 -0.26663584515E+02  0.54367078594E+02  0.39999987270E+02 0.  0.
         12    1    3    3    0    0 -0.95972331162E+01  0.23510138888E+02  0.26663584515E+02  0.36820921406E+02  0.00000000000E+00 0. -1.
         11    1    4    4    0    0  0.10095317906E+02 -0.82548605892E+01 -0.75998677765E+01  0.15093580008E+02  0.51100000000E-03 0. -1.
        -11    1    4    4    0    0  0.30908886199E+01 -0.73958373226E+01 -0.26616688200E+02  0.27797483576E+02  0.51100000000E-03 0.  1.
         12    1    4    4    0    0 -0.35889734101E+01 -0.78594409760E+01  0.75529714616E+01  0.11476015009E+02  0.00000000000E+00 0. -1.
</event>
<event>
 8    1  0.1210161E-006  0.9118800E+02  0.7816164E-02  0.1184000E+00
        -11   -1    0    0    0    0  0.00000000000E+00  0.00000000000E+00  0.45593999997E+02  0.45594000000E+02  0.51100000000E-03 0.  1.
         11   -1    0    0    0    0 -0.00000000000E+00 -0.00000000000E+00 -0.45593999997E+02  0.45594000000E+02  0.51100000000E-03 0. -1.
         23    2    1    2    0    0  0.19984014443E-14  0.00000000000E+00 -0.35527136788E-14  0.91188000000E+02  0.91188000000E+02 0.  0.
    9900012    2    3    3    0    0 -0.42840911576E+00  0.20221839646E+02  0.30768044394E+02  0.54367097120E+02  0.40000029504E+02 0.  0.
         12    1    3    3    0    0  0.42840911576E+00 -0.20221839646E+02 -0.30768044394E+02  0.36820902880E+02  0.00000000000E+00 0. -1.
         11    1    4    4    0    0 -0.52515915098E+01 -0.16382285507E+01  0.20588602505E+01  0.58738328170E+01  0.51100000000E-03 0. -1.
        -11    1    4    4    0    0 -0.81598071911E+01  0.10003003210E+01 -0.26660392309E+01  0.86423850626E+01  0.51100000000E-03 0.  1.
        -12    1    4    4    0    0  0.12982989585E+02  0.20859767876E+02  0.31375223375E+02  0.39850879240E+02  0.00000000000E+00 0.  1.
</event>
<event>
 8    1  0.1210161E-006  0.9118800E+02  0.7816164E-02  0.1184000E+00
        -11   -1    0    0    0    0  0.00000000000E+00  0.00000000000E+00  0.45593999997E+02  0.45594000000E+02  0.51100000000E-03 0.  1.
         11   -1    0    0    0    0 -0.00000000000E+00 -0.00000000000E+00 -0.45593999997E+02  0.45594000000E+02  0.51100000000E-03 0. -1.
         23    2    1    2    0    0  0.00000000000E+00  0.00000000000E+00  0.00000000000E+00  0.91188000000E+02  0.91188000000E+02 0.  0.
    9900012    2    3    3    0    0 -0.10030217201E+02  0.21689781828E+02 -0.28012958454E+02  0.54367112800E+02  0.40000065249E+02 0.  0.
        -12    1    3    3    0    0  0.10030217201E+02 -0.21689781828E+02  0.28012958454E+02  0.36820887200E+02  0.00000000000E+00 0.  1.
         11    1    4    4    0    0 -0.79020277187E+01  0.17404169476E+02 -0.58855915187E+01  0.19999683623E+02  0.51100000000E-03 0. -1.
        -11    1    4    4    0    0 -0.63571543107E+01  0.94182631257E+01 -0.24738043323E+02  0.27222929287E+02  0.51100000000E-03 0.  1.
        -12    1    4    4    0    0  0.42289648283E+01 -0.51326507736E+01  0.26106763874E+01  0.71444998903E+01  0.00000000000E+00 0.  1.
</event>
<event>
 8    1  0.1210161E-006  0.9118800E+02  0.7816164E-02  0.1184000E+00
        -11   -1    0    0    0    0  0.00000000000E+00  0.00000000000E+00  0.45593999997E+02  0.45594000000E+02  0.51100000000E-03 0. -1.
         11   -1    0    0    0    0 -0.00000000000E+00 -0.00000000000E+00 -0.45593999997E+02  0.45594000000E+02  0.51100000000E-03 0.  1.
         23    2    1    2    0    0  0.00000000000E+00  0.17763568394E-14  0.00000000000E+00  0.91188000000E+02  0.91188000000E+02 0.  0.
    9900012    2    3    3    0    0  0.19307603520E+02 -0.13701484397E+02  0.28200534974E+02  0.54367022267E+02  0.39999858863E+02 0.  0.
        -12    1    3    3    0    0 -0.19307603520E+02  0.13701484397E+02 -0.28200534974E+02  0.36820977733E+02  0.00000000000E+00 0.  1.
         11    1    4    4    0    0  0.14510696068E+02 -0.91003526339E+01  0.20188949537E+01  0.17246815809E+02  0.51100000000E-03 0. -1.
        -11    1    4    4    0    0  0.65330643454E+01 -0.10602124524E+02  0.27974268898E+02  0.30621000879E+02  0.51100000000E-03 0.  1.
        -12    1    4    4    0    0 -0.17361568938E+01  0.60009927611E+01 -0.17926288776E+01  0.64992055801E+01  0.00000000000E+00 0.  1.
</event>
<event>
 8    1  0.1210161E-006  0.9118800E+02  0.7816164E-02  0.1184000E+00
        -11   -1    0    0    0    0  0.00000000000E+00  0.00000000000E+00  0.45593999997E+02  0.45594000000E+02  0.51100000000E-03 0.  1.
         11   -1    0    0    0    0 -0.00000000000E+00 -0.00000000000E+00 -0.45593999997E+02  0.45594000000E+02  0.51100000000E-03 0. -1.
         23    2    1    2    0    0 -0.35527136788E-14  0.00000000000E+00  0.00000000000E+00  0.91188000000E+02  0.91188000000E+02 0.  0.
    9900012    2    3    3    0    0  0.24347211487E+02  0.15825725760E+02 -0.22639468476E+02  0.54367002785E+02  0.39999814448E+02 0.  0.
        -12    1    3    3    0    0 -0.24347211487E+02 -0.15825725760E+02  0.22639468476E+02  0.36820997215E+02  0.00000000000E+00 0.  1.
         11    1    4    4    0    0 -0.33741666007E+01  0.26056000149E+01 -0.10347751292E+02  0.11191519502E+02  0.51100000000E-03 0. -1.
        -11    1    4    4    0    0  0.98138400455E+01 -0.12110252039E+01 -0.17031116277E+02  0.19693576627E+02  0.51100000000E-03 0.  1.
         12    1    4    4    0    0  0.17907538042E+02  0.14431150949E+02  0.47393990925E+01  0.23481906656E+02  0.00000000000E+00 0. -1.
</event>
<event>
 8    1  0.1210161E-006  0.9118800E+02  0.7816164E-02  0.1184000E+00
        -11   -1    0    0    0    0  0.00000000000E+00  0.00000000000E+00  0.45593999997E+02  0.45594000000E+02  0.51100000000E-03 0.  1.
         11   -1    0    0    0    0 -0.00000000000E+00 -0.00000000000E+00 -0.45593999997E+02  0.45594000000E+02  0.51100000000E-03 0. -1.
         23    2    1    2    0    0  0.88817841970E-15 -0.35527136788E-14  0.00000000000E+00  0.91188000000E+02  0.91188000000E+02 0.  0.
    9900012    2    3    3    0    0 -0.43378920353E+01 -0.31968590324E+02  0.17747186473E+02  0.54367208288E+02  0.40000282934E+02 0.  0.
         12    1    3    3    0    0  0.43378920353E+01  0.31968590324E+02 -0.17747186473E+02  0.36820791712E+02  0.00000000000E+00 0. -1.
         11    1    4    4    0    0 -0.23267821738E+01 -0.86071289634E+01  0.76368584625E+01  0.11739599300E+02  0.51100000000E-03 0.  1.
        -11    1    4    4    0    0 -0.12785369553E+02 -0.25223858008E+02  0.13281899401E+02  0.31242879819E+02  0.51100000000E-03 0. -1.
         12    1    4    4    0    0  0.10774259692E+02  0.18623966479E+01 -0.31715713907E+01  0.11384729170E+02  0.00000000000E+00 0. -1.
</event>
<event>
 8    1  0.1210161E-006  0.9118800E+02  0.7816164E-02  0.1184000E+00
        -11   -1    0    0    0    0  0.00000000000E+00  0.00000000000E+00  0.45593999997E+02  0.45594000000E+02  0.51100000000E-03 0.  1.
         11   -1    0    0    0    0 -0.00000000000E+00 -0.00000000000E+00 -0.45593999997E+02  0.45594000000E+02  0.51100000000E-03 0. -1.
         23    2    1    2    0    0  0.71054273576E-14  0.17763568394E-14  0.35527136788E-14  0.91188000000E+02  0.91188000000E+02 0.  0.
    9900012    2    3    3    0    0  0.33168916214E+02  0.10116795683E+02  0.12379546017E+02  0.54367085872E+02  0.40000003861E+02 0.  0.
         12    1    3    3    0    0 -0.33168916214E+02 -0.10116795683E+02 -0.12379546017E+02  0.36820914128E+02  0.00000000000E+00 0. -1.
         11    1    4    4    0    0  0.52336700591E+01  0.17948425300E+01  0.28368481481E+01  0.62177543914E+01  0.51100000000E-03 0. -1.
        -11    1    4    4    0    0  0.20523476527E+02 -0.51741494683E+01  0.20331098128E+02  0.29348568327E+02  0.51100000000E-03 0.  1.
         12    1    4    4    0    0  0.74117696278E+01  0.13496102621E+02 -0.10788400260E+02  0.18800763153E+02  0.00000000000E+00 0. -1.
</event>
<event>
 8    1  0.1210161E-006  0.9118800E+02  0.7816164E-02  0.1184000E+00
        -11   -1    0    0    0    0  0.00000000000E+00  0.00000000000E+00  0.45593999997E+02  0.45594000000E+02  0.51100000000E-03 0.  1.
         11   -1    0    0    0    0 -0.00000000000E+00 -0.00000000000E+00 -0.45593999997E+02  0.45594000000E+02  0.51100000000E-03 0. -1.
         23    2    1    2    0    0 -0.35527136788E-14 -0.35527136788E-14  0.00000000000E+00  0.91188000000E+02  0.91188000000E+02 0.  0.
    9900012    2    3    3    0    0  0.31711752180E+02  0.15965481983E+02 -0.97595164552E+01  0.54367081995E+02  0.39999995025E+02 0.  0.
        -12    1    3    3    0    0 -0.31711752180E+02 -0.15965481983E+02  0.97595164552E+01  0.36820918005E+02  0.00000000000E+00 0.  1.
         11    1    4    4    0    0  0.67577315018E+01 -0.16165245257E+01 -0.15672180782E+02  0.17143434233E+02  0.51100000000E-03 0. -1.
        -11    1    4    4    0    0  0.50519433898E+01  0.21919970100E+01  0.10305498682E+02  0.11684617506E+02  0.51100000000E-03 0.  1.
         12    1    4    4    0    0  0.19902077288E+02  0.15390009499E+02 -0.43928343557E+01  0.25539030256E+02  0.00000000000E+00 0. -1.
</event>
<event>
 8    1  0.1210161E-006  0.9118800E+02  0.7816164E-02  0.1184000E+00
        -11   -1    0    0    0    0  0.00000000000E+00  0.00000000000E+00  0.45593999997E+02  0.45594000000E+02  0.51100000000E-03 0.  1.
         11   -1    0    0    0    0 -0.00000000000E+00 -0.00000000000E+00 -0.45593999997E+02  0.45594000000E+02  0.51100000000E-03 0. -1.
         23    2    1    2    0    0  0.00000000000E+00  0.00000000000E+00  0.00000000000E+00  0.91188000000E+02  0.91188000000E+02 0.  0.
    9900012    2    3    3    0    0 -0.30728048262E+02 -0.14091765370E+02 -0.14594243096E+02  0.54367044923E+02  0.39999910512E+02 0.  0.
         12    1    3    3    0    0  0.30728048262E+02  0.14091765370E+02  0.14594243096E+02  0.36820955077E+02  0.00000000000E+00 0. -1.
         11    1    4    4    0    0 -0.22841651983E+01 -0.12184867497E+02 -0.13178181065E+02  0.18092895375E+02  0.51100000000E-03 0. -1.
        -11    1    4    4    0    0 -0.78537109895E+01 -0.92088964767E+01  0.55899827130E+01  0.13331633719E+02  0.51100000000E-03 0.  1.
        -12    1    4    4    0    0 -0.20590172074E+02  0.73019986044E+01 -0.70060447438E+01  0.22942515830E+02  0.00000000000E+00 0.  1.
</event>
<event>
 8    1  0.1210161E-006  0.9118800E+02  0.7816164E-02  0.1184000E+00
        -11   -1    0    0    0    0  0.00000000000E+00  0.00000000000E+00  0.45593999997E+02  0.45594000000E+02  0.51100000000E-03 0.  1.
         11   -1    0    0    0    0 -0.00000000000E+00 -0.00000000000E+00 -0.45593999997E+02  0.45594000000E+02  0.51100000000E-03 0. -1.
         23    2    1    2    0    0  0.88817841970E-15  0.71054273576E-14  0.13322676296E-14  0.91188000000E+02  0.91188000000E+02 0.  0.
    9900012    2    3    3    0    0  0.50729234441E+01  0.36376029608E+02  0.26132503429E+01  0.54367093443E+02  0.40000021122E+02 0.  0.
         12    1    3    3    0    0 -0.50729234441E+01 -0.36376029608E+02 -0.26132503429E+01  0.36820906557E+02  0.00000000000E+00 0. -1.
         11    1    4    4    0    0  0.98335518675E+01  0.52982705021E+01 -0.13249213141E+02  0.17329514182E+02  0.51100000000E-03 0. -1.
        -11    1    4    4    0    0 -0.45342398745E+01  0.23829204579E+02  0.17103193007E+02  0.29680120172E+02  0.51100000000E-03 0.  1.
        -12    1    4    4    0    0 -0.22638854897E+00  0.72485545272E+01 -0.12407295231E+01  0.73574590899E+01  0.00000000000E+00 0.  1.
</event>
<event>
 8    1  0.1210161E-006  0.9118800E+02  0.7816164E-02  0.1184000E+00
        -11   -1    0    0    0    0  0.00000000000E+00  0.00000000000E+00  0.45593999997E+02  0.45594000000E+02  0.51100000000E-03 0.  1.
         11   -1    0    0    0    0 -0.00000000000E+00 -0.00000000000E+00 -0.45593999997E+02  0.45594000000E+02  0.51100000000E-03 0. -1.
         23    2    1    2    0    0  0.33306690739E-15  0.00000000000E+00 -0.71054273576E-14  0.91188000000E+02  0.91188000000E+02 0.  0.
    9900012    2    3    3    0    0 -0.38336935440E+00 -0.10141195043E+02 -0.35394758832E+02  0.54367085267E+02  0.40000002484E+02 0.  0.
        -12    1    3    3    0    0  0.38336935440E+00  0.10141195043E+02  0.35394758832E+02  0.36820914733E+02  0.00000000000E+00 0.  1.
         11    1    4    4    0    0  0.21399399189E+01  0.53389586461E+01 -0.21965988718E+02  0.22706573562E+02  0.51100000000E-03 0. -1.
        -11    1    4    4    0    0 -0.10875756400E+02 -0.25653222681E+01 -0.11707343523E+02  0.16184092444E+02  0.51100000000E-03 0.  1.
        -12    1    4    4    0    0  0.83524471270E+01 -0.12914831421E+02 -0.17214265907E+01  0.15476419261E+02  0.00000000000E+00 0.  1.
</event>
<event>
 8    1  0.1210161E-006  0.9118800E+02  0.7816164E-02  0.1184000E+00
        -11   -1    0    0    0    0  0.00000000000E+00  0.00000000000E+00  0.45593999997E+02  0.45594000000E+02  0.51100000000E-03 0. -1.
         11   -1    0    0    0    0 -0.00000000000E+00 -0.00000000000E+00 -0.45593999997E+02  0.45594000000E+02  0.51100000000E-03 0.  1.
         23    2    1    2    0    0 -0.71054273576E-14 -0.44408920985E-15  0.00000000000E+00  0.91188000000E+02  0.91188000000E+02 0.  0.
    9900012    2    3    3    0    0 -0.36061479263E+02 -0.29407206874E+01 -0.68338881215E+01  0.54367079973E+02  0.39999990415E+02 0.  0.
         12    1    3    3    0    0  0.36061479263E+02  0.29407206874E+01  0.68338881215E+01  0.36820920027E+02  0.00000000000E+00 0. -1.
         11    1    4    4    0    0  0.68492618161E+01 -0.39055272052E+01 -0.28281567133E-01  0.78845627833E+01  0.51100000000E-03 0. -1.
        -11    1    4    4    0    0 -0.10892911774E+02  0.22118977267E+01 -0.90903520509E+01  0.14359057042E+02  0.51100000000E-03 0.  1.
         12    1    4    4    0    0 -0.32017829304E+02 -0.12470912088E+01  0.22847454965E+01  0.32123460147E+02  0.00000000000E+00 0. -1.
</event>
<event>
 8    1  0.1210161E-006  0.9118800E+02  0.7816164E-02  0.1184000E+00
        -11   -1    0    0    0    0  0.00000000000E+00  0.00000000000E+00  0.45593999997E+02  0.45594000000E+02  0.51100000000E-03 0.  1.
         11   -1    0    0    0    0 -0.00000000000E+00 -0.00000000000E+00 -0.45593999997E+02  0.45594000000E+02  0.51100000000E-03 0. -1.
         23    2    1    2    0    0 -0.17763568394E-14  0.00000000000E+00  0.00000000000E+00  0.91188000000E+02  0.91188000000E+02 0.  0.
    9900012    2    3    3    0    0  0.14441627863E+02  0.30683655839E+02  0.14343142386E+02  0.54367175939E+02  0.40000209188E+02 0.  0.
         12    1    3    3    0    0 -0.14441627863E+02 -0.30683655839E+02 -0.14343142386E+02  0.36820824061E+02  0.00000000000E+00 0. -1.
         11    1    4    4    0    0 -0.52304509883E+01  0.25286925091E+00 -0.77315548106E+00  0.52933288258E+01  0.51100000000E-03 0. -1.
        -11    1    4    4    0    0  0.94274494445E+01  0.34025153366E+02  0.14594161287E+02  0.38204416087E+02  0.51100000000E-03 0.  1.
        -12    1    4    4    0    0  0.10244629407E+02 -0.35943667779E+01  0.52213658040E+00  0.10869431026E+02  0.00000000000E+00 0.  1.
</event>
<event>
 8    1  0.1210161E-006  0.9118800E+02  0.7816164E-02  0.1184000E+00
        -11   -1    0    0    0    0  0.00000000000E+00  0.00000000000E+00  0.45593999997E+02  0.45594000000E+02  0.51100000000E-03 0. -1.
         11   -1    0    0    0    0 -0.00000000000E+00 -0.00000000000E+00 -0.45593999997E+02  0.45594000000E+02  0.51100000000E-03 0.  1.
         23    2    1    2    0    0 -0.35527136788E-14  0.00000000000E+00 -0.35527136788E-14  0.91188000000E+02  0.91188000000E+02 0.  0.
    9900012    2    3    3    0    0  0.22620481160E+02  0.16217789293E+02  0.24105542326E+02  0.54367081648E+02  0.39999994233E+02 0.  0.
        -12    1    3    3    0    0 -0.22620481160E+02 -0.16217789293E+02 -0.24105542326E+02  0.36820918352E+02  0.00000000000E+00 0.  1.
         11    1    4    4    0    0  0.12483595606E+02  0.15378507491E+01  0.11027856276E+02  0.16727784028E+02  0.51100000000E-03 0. -1.
        -11    1    4    4    0    0  0.91842513177E+01  0.23947363539E+02  0.72603553339E+01  0.26655945914E+02  0.51100000000E-03 0.  1.
        -12    1    4    4    0    0  0.95263423599E+00 -0.92674249952E+01  0.58173307166E+01  0.10983351706E+02  0.00000000000E+00 0.  1.
</event>
<event>
 8    1  0.1210161E-006  0.9118800E+02  0.7816164E-02  0.1184000E+00
        -11   -1    0    0    0    0  0.00000000000E+00  0.00000000000E+00  0.45593999997E+02  0.45594000000E+02  0.51100000000E-03 0. -1.
         11   -1    0    0    0    0 -0.00000000000E+00 -0.00000000000E+00 -0.45593999997E+02  0.45594000000E+02  0.51100000000E-03 0.  1.
         23    2    1    2    0    0  0.00000000000E+00  0.88817841970E-15  0.00000000000E+00  0.91188000000E+02  0.91188000000E+02 0.  0.
    9900012    2    3    3    0    0 -0.55100768475E+01 -0.62534104443E+01  0.35865228987E+02  0.54367071992E+02  0.39999972221E+02 0.  0.
        -12    1    3    3    0    0  0.55100768475E+01  0.62534104443E+01 -0.35865228987E+02  0.36820928008E+02  0.00000000000E+00 0.  1.
         11    1    4    4    0    0 -0.19527756804E+01 -0.32398745897E+01  0.22321247142E+02  0.22639527258E+02  0.51100000000E-03 0. -1.
        -11    1    4    4    0    0  0.64183341455E+01 -0.11648178716E+02  0.12885018232E+02  0.18517526177E+02  0.51100000000E-03 0.  1.
        -12    1    4    4    0    0 -0.99756353126E+01  0.86346428618E+01  0.65896361276E+00  0.13210018557E+02  0.00000000000E+00 0.  1.
</event>
<event>
 8    1  0.1210161E-006  0.9118800E+02  0.7816164E-02  0.1184000E+00
        -11   -1    0    0    0    0  0.00000000000E+00  0.00000000000E+00  0.45593999997E+02  0.45594000000E+02  0.51100000000E-03 0.  1.
         11   -1    0    0    0    0 -0.00000000000E+00 -0.00000000000E+00 -0.45593999997E+02  0.45594000000E+02  0.51100000000E-03 0. -1.
         23    2    1    2    0    0 -0.71054273576E-14  0.00000000000E+00  0.00000000000E+00  0.91188000000E+02  0.91188000000E+02 0.  0.
    9900012    2    3    3    0    0 -0.30478803799E+02  0.14255147533E+02  0.14953679390E+02  0.54367092359E+02  0.40000018651E+02 0.  0.
         12    1    3    3    0    0  0.30478803799E+02 -0.14255147533E+02 -0.14953679390E+02  0.36820907641E+02  0.00000000000E+00 0. -1.
         11    1    4    4    0    0 -0.82725658410E+01  0.29015680139E-01 -0.76224671355E+01  0.11248919637E+02  0.51100000000E-03 0. -1.
        -11    1    4    4    0    0  0.26558676185E+01 -0.46932876613E+01  0.22332368970E+01  0.58367738673E+01  0.51100000000E-03 0.  1.
         12    1    4    4    0    0 -0.24862105577E+02  0.18919419514E+02  0.20342909628E+02  0.37281398855E+02  0.00000000000E+00 0. -1.
</event>
<event>
 8    1  0.1210161E-006  0.9118800E+02  0.7816164E-02  0.1184000E+00
        -11   -1    0    0    0    0  0.00000000000E+00  0.00000000000E+00  0.45593999997E+02  0.45594000000E+02  0.51100000000E-03 0.  1.
         11   -1    0    0    0    0 -0.00000000000E+00 -0.00000000000E+00 -0.45593999997E+02  0.45594000000E+02  0.51100000000E-03 0. -1.
         23    2    1    2    0    0  0.00000000000E+00 -0.71054273576E-14  0.00000000000E+00  0.91188000000E+02  0.91188000000E+02 0.  0.
    9900012    2    3    3    0    0 -0.54249125172E+01  0.35454252131E+02 -0.83273094926E+01  0.54367112540E+02  0.40000064658E+02 0.  0.
        -12    1    3    3    0    0  0.54249125172E+01 -0.35454252131E+02  0.83273094926E+01  0.36820887460E+02  0.00000000000E+00 0.  1.
         11    1    4    4    0    0  0.80003487475E+01  0.35798214319E+01 -0.89093803105E+01  0.12497910199E+02  0.51100000000E-03 0. -1.
        -11    1    4    4    0    0  0.11774465797E+01  0.17897292127E+02 -0.83323915324E+01  0.19776961214E+02  0.51100000000E-03 0.  1.
        -12    1    4    4    0    0 -0.14602707844E+02  0.13977138571E+02  0.89144623504E+01  0.22092241127E+02  0.00000000000E+00 0.  1.
</event>
<event>
 8    1  0.1210161E-006  0.9118800E+02  0.7816164E-02  0.1184000E+00
        -11   -1    0    0    0    0  0.00000000000E+00  0.00000000000E+00  0.45593999997E+02  0.45594000000E+02  0.51100000000E-03 0.  1.
         11   -1    0    0    0    0 -0.00000000000E+00 -0.00000000000E+00 -0.45593999997E+02  0.45594000000E+02  0.51100000000E-03 0. -1.
         23    2    1    2    0    0  0.00000000000E+00  0.00000000000E+00  0.35527136788E-14  0.91188000000E+02  0.91188000000E+02 0.  0.
    9900012    2    3    3    0    0 -0.10842505037E+02 -0.16815342268E+02 -0.30910574581E+02  0.54367091918E+02  0.40000017645E+02 0.  0.
        -12    1    3    3    0    0  0.10842505037E+02  0.16815342268E+02  0.30910574581E+02  0.36820908082E+02  0.00000000000E+00 0.  1.
         11    1    4    4    0    0 -0.28592331978E+01 -0.39710702251E+01  0.22202345192E+01  0.53734583644E+01  0.51100000000E-03 0. -1.
        -11    1    4    4    0    0 -0.11669571536E+02 -0.62432196242E+01  0.17074925618E+01  0.13344370431E+02  0.51100000000E-03 0.  1.
         12    1    4    4    0    0  0.36862996959E+01 -0.66010524185E+01 -0.34838301662E+02  0.35649263122E+02  0.00000000000E+00 0. -1.
</event>
<event>
 8    1  0.1210161E-006  0.9118800E+02  0.7816164E-02  0.1184000E+00
        -11   -1    0    0    0    0  0.00000000000E+00  0.00000000000E+00  0.45593999997E+02  0.45594000000E+02  0.51100000000E-03 0. -1.
         11   -1    0    0    0    0 -0.00000000000E+00 -0.00000000000E+00 -0.45593999997E+02  0.45594000000E+02  0.51100000000E-03 0.  1.
         23    2    1    2    0    0  0.00000000000E+00  0.35527136788E-14  0.35527136788E-14  0.91188000000E+02  0.91188000000E+02 0.  0.
    9900012    2    3    3    0    0 -0.19455177215E+02  0.16542563612E+02  0.26525822923E+02  0.54367087287E+02  0.40000007087E+02 0.  0.
        -12    1    3    3    0    0  0.19455177215E+02 -0.16542563612E+02 -0.26525822923E+02  0.36820912713E+02  0.00000000000E+00 0.  1.
         11    1    4    4    0    0 -0.51088540296E+01  0.21329025805E+02  0.17681383689E+02  0.28171955217E+02  0.51100000000E-03 0. -1.
        -11    1    4    4    0    0 -0.13494176948E+02 -0.11231636169E+02  0.37925625539E+01  0.17961792604E+02  0.51100000000E-03 0.  1.
        -12    1    4    4    0    0 -0.85214623718E+00  0.64451739755E+01  0.50518766794E+01  0.82333394664E+01  0.00000000000E+00 0.  1.
</event>
<event>
 8    1  0.1210161E-006  0.9118800E+02  0.7816164E-02  0.1184000E+00
        -11   -1    0    0    0    0  0.00000000000E+00  0.00000000000E+00  0.45593999997E+02  0.45594000000E+02  0.51100000000E-03 0. -1.
         11   -1    0    0    0    0 -0.00000000000E+00 -0.00000000000E+00 -0.45593999997E+02  0.45594000000E+02  0.51100000000E-03 0.  1.
         23    2    1    2    0    0  0.00000000000E+00  0.88817841970E-15  0.00000000000E+00  0.91188000000E+02  0.91188000000E+02 0.  0.
    9900012    2    3    3    0    0 -0.22167041629E+02  0.23946252668E+01 -0.29303035398E+02  0.54367084092E+02  0.39999999805E+02 0.  0.
         12    1    3    3    0    0  0.22167041629E+02 -0.23946252668E+01  0.29303035398E+02  0.36820915908E+02  0.00000000000E+00 0. -1.
         11    1    4    4    0    0  0.12843609508E+01 -0.70678843793E+01 -0.10814859432E+02  0.12983287621E+02  0.51100000000E-03 0. -1.
        -11    1    4    4    0    0 -0.22378933804E+02 -0.35764804725E+01 -0.16760333750E+02  0.28187172232E+02  0.51100000000E-03 0.  1.
        -12    1    4    4    0    0 -0.10724687753E+01  0.13038990119E+02 -0.17278422162E+01  0.13196624239E+02  0.00000000000E+00 0.  1.
</event>
<event>
 8    1  0.1210161E-006  0.9118800E+02  0.7816164E-02  0.1184000E+00
        -11   -1    0    0    0    0  0.00000000000E+00  0.00000000000E+00  0.45593999997E+02  0.45594000000E+02  0.51100000000E-03 0. -1.
         11   -1    0    0    0    0 -0.00000000000E+00 -0.00000000000E+00 -0.45593999997E+02  0.45594000000E+02  0.51100000000E-03 0.  1.
         23    2    1    2    0    0  0.00000000000E+00 -0.17763568394E-14  0.71054273576E-14  0.91188000000E+02  0.91188000000E+02 0.  0.
    9900012    2    3    3    0    0 -0.95370420511E+01  0.17641267069E+01 -0.35520605827E+02  0.54367071815E+02  0.39999971816E+02 0.  0.
         12    1    3    3    0    0  0.95370420511E+01 -0.17641267069E+01  0.35520605827E+02  0.36820928185E+02  0.00000000000E+00 0. -1.
         11    1    4    4    0    0  0.46672025232E+01  0.12439061276E+02 -0.33912396994E+02  0.36422022116E+02  0.51100000000E-03 0. -1.
        -11    1    4    4    0    0 -0.86710260928E+01 -0.76363210124E+01 -0.12613085588E+01  0.11622865036E+02  0.51100000000E-03 0.  1.
         12    1    4    4    0    0 -0.55332184816E+01 -0.30386135572E+01 -0.34690027370E+00  0.63221846631E+01  0.00000000000E+00 0. -1.
</event>
<event>
 8    1  0.1210161E-006  0.9118800E+02  0.7816164E-02  0.1184000E+00
        -11   -1    0    0    0    0  0.00000000000E+00  0.00000000000E+00  0.45593999997E+02  0.45594000000E+02  0.51100000000E-03 0.  1.
         11   -1    0    0    0    0 -0.00000000000E+00 -0.00000000000E+00 -0.45593999997E+02  0.45594000000E+02  0.51100000000E-03 0. -1.
         23    2    1    2    0    0 -0.35527136788E-14 -0.88817841970E-15  0.00000000000E+00  0.91188000000E+02  0.91188000000E+02 0.  0.
    9900012    2    3    3    0    0  0.28648000524E+02 -0.38343088063E+01 -0.22811604973E+02  0.54367093174E+02  0.40000020508E+02 0.  0.
        -12    1    3    3    0    0 -0.28648000524E+02  0.38343088063E+01  0.22811604973E+02  0.36820906826E+02  0.00000000000E+00 0.  1.
         11    1    4    4    0    0  0.23466467899E+02  0.80663018336E+01 -0.12086730722E+02  0.27601257231E+02  0.51100000000E-03 0. -1.
        -11    1    4    4    0    0  0.54122645871E+01 -0.24632507011E+00  0.48775114663E+01  0.72899521512E+01  0.51100000000E-03 0.  1.
        -12    1    4    4    0    0 -0.23073196180E+00 -0.11654285570E+02 -0.15602385718E+02  0.19475883792E+02  0.00000000000E+00 0.  1.
</event>
<event>
 8    1  0.1210161E-006  0.9118800E+02  0.7816164E-02  0.1184000E+00
        -11   -1    0    0    0    0  0.00000000000E+00  0.00000000000E+00  0.45593999997E+02  0.45594000000E+02  0.51100000000E-03 0. -1.
         11   -1    0    0    0    0 -0.00000000000E+00 -0.00000000000E+00 -0.45593999997E+02  0.45594000000E+02  0.51100000000E-03 0.  1.
         23    2    1    2    0    0  0.00000000000E+00  0.00000000000E+00  0.35527136788E-14  0.91188000000E+02  0.91188000000E+02 0.  0.
    9900012    2    3    3    0    0 -0.19080930314E+02 -0.88038216536E+01  0.30235585080E+02  0.54367084986E+02  0.40000001842E+02 0.  0.
        -12    1    3    3    0    0  0.19080930314E+02  0.88038216536E+01 -0.30235585080E+02  0.36820915014E+02  0.00000000000E+00 0.  1.
         11    1    4    4    0    0 -0.10072586532E+02 -0.88356062220E+01  0.12621740134E+02  0.18407424073E+02  0.51100000000E-03 0. -1.
        -11    1    4    4    0    0 -0.96969672623E+01  0.13585772911E+02  0.49816976932E+01  0.17419004330E+02  0.51100000000E-03 0.  1.
        -12    1    4    4    0    0  0.68862347973E+00 -0.13553988343E+02  0.12632147253E+02  0.18540656583E+02  0.00000000000E+00 0.  1.
</event>
<event>
 8    1  0.1210161E-006  0.9118800E+02  0.7816164E-02  0.1184000E+00
        -11   -1    0    0    0    0  0.00000000000E+00  0.00000000000E+00  0.45593999997E+02  0.45594000000E+02  0.51100000000E-03 0. -1.
         11   -1    0    0    0    0 -0.00000000000E+00 -0.00000000000E+00 -0.45593999997E+02  0.45594000000E+02  0.51100000000E-03 0.  1.
         23    2    1    2    0    0  0.00000000000E+00  0.00000000000E+00  0.00000000000E+00  0.91188000000E+02  0.91188000000E+02 0.  0.
    9900012    2    3    3    0    0  0.10125678005E+02 -0.91097263751E+01  0.34209134367E+02  0.54367063784E+02  0.39999953507E+02 0.  0.
        -12    1    3    3    0    0 -0.10125678005E+02  0.91097263751E+01 -0.34209134367E+02  0.36820936216E+02  0.00000000000E+00 0.  1.
         11    1    4    4    0    0  0.23242543590E+01  0.41776951473E+01  0.54862331357E+01  0.72769533013E+01  0.51100000000E-03 0.  1.
        -11    1    4    4    0    0 -0.12149348501E+02 -0.73908974586E+01  0.39877348595E+01  0.14769362336E+02  0.51100000000E-03 0. -1.
         12    1    4    4    0    0  0.19950772147E+02 -0.58965240638E+01  0.24735166372E+02  0.32320748147E+02  0.00000000000E+00 0. -1.
</event>
<event>
 8    1  0.1210161E-006  0.9118800E+02  0.7816164E-02  0.1184000E+00
        -11   -1    0    0    0    0  0.00000000000E+00  0.00000000000E+00  0.45593999997E+02  0.45594000000E+02  0.51100000000E-03 0. -1.
         11   -1    0    0    0    0 -0.00000000000E+00 -0.00000000000E+00 -0.45593999997E+02  0.45594000000E+02  0.51100000000E-03 0.  1.
         23    2    1    2    0    0  0.99920072216E-15  0.00000000000E+00  0.00000000000E+00  0.91188000000E+02  0.91188000000E+02 0.  0.
    9900012    2    3    3    0    0 -0.72614351005E+00 -0.16803208587E+02 -0.32755232318E+02  0.54367077314E+02  0.39999984353E+02 0.  0.
         12    1    3    3    0    0  0.72614351005E+00  0.16803208587E+02  0.32755232318E+02  0.36820922686E+02  0.00000000000E+00 0. -1.
         11    1    4    4    0    0  0.35214396934E+01 -0.18920696267E+02 -0.10764189253E+02  0.22051327744E+02  0.51100000000E-03 0. -1.
        -11    1    4    4    0    0  0.25278610348E+01 -0.97180279702E+01 -0.93576269873E+01  0.13725717910E+02  0.51100000000E-03 0.  1.
         12    1    4    4    0    0 -0.67754442382E+01  0.11835515650E+02 -0.12633416078E+02  0.18590031661E+02  0.00000000000E+00 0. -1.
</event>
<event>
 8    1  0.1210161E-006  0.9118800E+02  0.7816164E-02  0.1184000E+00
        -11   -1    0    0    0    0  0.00000000000E+00  0.00000000000E+00  0.45593999997E+02  0.45594000000E+02  0.51100000000E-03 0. -1.
         11   -1    0    0    0    0 -0.00000000000E+00 -0.00000000000E+00 -0.45593999997E+02  0.45594000000E+02  0.51100000000E-03 0.  1.
         23    2    1    2    0    0  0.35527136788E-14  0.17763568394E-14  0.00000000000E+00  0.91188000000E+02  0.91188000000E+02 0.  0.
    9900012    2    3    3    0    0 -0.23843888689E+02 -0.10451437591E+02 -0.26038742787E+02  0.54367086086E+02  0.40000004350E+02 0.  0.
         12    1    3    3    0    0  0.23843888689E+02  0.10451437591E+02  0.26038742787E+02  0.36820913914E+02  0.00000000000E+00 0. -1.
         11    1    4    4    0    0 -0.24110262324E+02 -0.18478064137E+02 -0.24914672095E+02  0.39287205162E+02  0.51100000000E-03 0. -1.
        -11    1    4    4    0    0  0.13360679625E+01  0.11375684320E+02 -0.14670678794E+01  0.11547448193E+02  0.51100000000E-03 0.  1.
         12    1    4    4    0    0 -0.10696943271E+01 -0.33490577741E+01  0.34299718657E+00  0.35324327308E+01  0.00000000000E+00 0. -1.
</event>
<event>
 8    1  0.1210161E-006  0.9118800E+02  0.7816164E-02  0.1184000E+00
        -11   -1    0    0    0    0  0.00000000000E+00  0.00000000000E+00  0.45593999997E+02  0.45594000000E+02  0.51100000000E-03 0.  1.
         11   -1    0    0    0    0 -0.00000000000E+00 -0.00000000000E+00 -0.45593999997E+02  0.45594000000E+02  0.51100000000E-03 0. -1.
         23    2    1    2    0    0 -0.11102230246E-15  0.35527136788E-14  0.00000000000E+00  0.91188000000E+02  0.91188000000E+02 0.  0.
    9900012    2    3    3    0    0  0.94113281555E+00  0.31820855953E+02  0.18502063334E+02  0.54367096261E+02  0.40000027546E+02 0.  0.
         12    1    3    3    0    0 -0.94113281555E+00 -0.31820855953E+02 -0.18502063334E+02  0.36820903739E+02  0.00000000000E+00 0. -1.
         11    1    4    4    0    0  0.76236582129E+01 -0.21043123263E+00  0.14487413623E+02  0.16372220362E+02  0.51100000000E-03 0. -1.
        -11    1    4    4    0    0  0.15047722393E+01  0.15788034199E+02 -0.63218678510E+01  0.17073147828E+02  0.51100000000E-03 0.  1.
         12    1    4    4    0    0 -0.81872976366E+01  0.16243252986E+02  0.10336517562E+02  0.20921728071E+02  0.00000000000E+00 0. -1.
</event>
<event>
 8    1  0.1210161E-006  0.9118800E+02  0.7816164E-02  0.1184000E+00
        -11   -1    0    0    0    0  0.00000000000E+00  0.00000000000E+00  0.45593999997E+02  0.45594000000E+02  0.51100000000E-03 0. -1.
         11   -1    0    0    0    0 -0.00000000000E+00 -0.00000000000E+00 -0.45593999997E+02  0.45594000000E+02  0.51100000000E-03 0.  1.
         23    2    1    2    0    0 -0.17763568394E-14  0.00000000000E+00  0.00000000000E+00  0.91188000000E+02  0.91188000000E+02 0.  0.
    9900012    2    3    3    0    0 -0.65449434599E+01 -0.35933129023E+02  0.46637250357E+01  0.54367131223E+02  0.40000107249E+02 0.  0.
        -12    1    3    3    0    0  0.65449434599E+01  0.35933129023E+02 -0.46637250357E+01  0.36820868777E+02  0.00000000000E+00 0.  1.
         11    1    4    4    0    0  0.80707244009E+01 -0.23957902215E+02  0.11139650662E+02  0.27626246362E+02  0.51100000000E-03 0. -1.
        -11    1    4    4    0    0 -0.11176096155E+02 -0.10548970210E+02  0.37830138977E+01  0.15827099929E+02  0.51100000000E-03 0.  1.
        -12    1    4    4    0    0 -0.34395717060E+01 -0.14262565977E+01 -0.10258939524E+02  0.10913784933E+02  0.00000000000E+00 0.  1.
</event>
<event>
 8    1  0.1210161E-006  0.9118800E+02  0.7816164E-02  0.1184000E+00
        -11   -1    0    0    0    0  0.00000000000E+00  0.00000000000E+00  0.45593999997E+02  0.45594000000E+02  0.51100000000E-03 0.  1.
         11   -1    0    0    0    0 -0.00000000000E+00 -0.00000000000E+00 -0.45593999997E+02  0.45594000000E+02  0.51100000000E-03 0. -1.
         23    2    1    2    0    0  0.00000000000E+00  0.00000000000E+00  0.00000000000E+00  0.91188000000E+02  0.91188000000E+02 0.  0.
    9900012    2    3    3    0    0  0.11038986926E+02 -0.29769155240E+02 -0.18647279993E+02  0.54367042826E+02  0.39999905730E+02 0.  0.
        -12    1    3    3    0    0 -0.11038986926E+02  0.29769155240E+02  0.18647279993E+02  0.36820957174E+02  0.00000000000E+00 0.  1.
         11    1    4    4    0    0  0.78709489513E+01 -0.10071794260E+02 -0.14575659552E+02  0.19386663680E+02  0.51100000000E-03 0. -1.
        -11    1    4    4    0    0  0.95491217141E+01 -0.11084110838E+02  0.96812826304E+01  0.17543388276E+02  0.51100000000E-03 0.  1.
        -12    1    4    4    0    0 -0.63810837392E+01 -0.86132501417E+01 -0.13752903072E+02  0.17436990870E+02  0.00000000000E+00 0.  1.
</event>
<event>
 8    1  0.1210161E-006  0.9118800E+02  0.7816164E-02  0.1184000E+00
        -11   -1    0    0    0    0  0.00000000000E+00  0.00000000000E+00  0.45593999997E+02  0.45594000000E+02  0.51100000000E-03 0.  1.
         11   -1    0    0    0    0 -0.00000000000E+00 -0.00000000000E+00 -0.45593999997E+02  0.45594000000E+02  0.51100000000E-03 0. -1.
         23    2    1    2    0    0  0.17763568394E-14  0.00000000000E+00  0.88817841970E-15  0.91188000000E+02  0.91188000000E+02 0.  0.
    9900012    2    3    3    0    0  0.80351961428E+01  0.35078972497E+02  0.77898062373E+01  0.54367085159E+02  0.40000002237E+02 0.  0.
         12    1    3    3    0    0 -0.80351961428E+01 -0.35078972497E+02 -0.77898062373E+01  0.36820914841E+02  0.00000000000E+00 0. -1.
         11    1    4    4    0    0  0.14595533080E+01 -0.68116464462E+01  0.41285959520E+01  0.80977853740E+01  0.51100000000E-03 0. -1.
        -11    1    4    4    0    0  0.55848290344E+01  0.53117824975E+01  0.57522253179E+01  0.96173512473E+01  0.51100000000E-03 0.  1.
        -12    1    4    4    0    0  0.99081380046E+00  0.36578836446E+02 -0.20910150327E+01  0.36651948538E+02  0.00000000000E+00 0.  1.
</event>
<event>
 8    1  0.1210161E-006  0.9118800E+02  0.7816164E-02  0.1184000E+00
        -11   -1    0    0    0    0  0.00000000000E+00  0.00000000000E+00  0.45593999997E+02  0.45594000000E+02  0.51100000000E-03 0.  1.
         11   -1    0    0    0    0 -0.00000000000E+00 -0.00000000000E+00 -0.45593999997E+02  0.45594000000E+02  0.51100000000E-03 0. -1.
         23    2    1    2    0    0  0.00000000000E+00  0.17763568394E-14 -0.71054273576E-14  0.91188000000E+02  0.91188000000E+02 0.  0.
    9900012    2    3    3    0    0 -0.65992202278E+01 -0.13124615591E+02  0.33763528394E+02  0.54367067208E+02  0.39999961315E+02 0.  0.
         12    1    3    3    0    0  0.65992202278E+01  0.13124615591E+02 -0.33763528394E+02  0.36820932792E+02  0.00000000000E+00 0. -1.
         11    1    4    4    0    0 -0.89753350378E+00  0.70790986922E+01 -0.20150975632E+01  0.74148380383E+01  0.51100000000E-03 0. -1.
        -11    1    4    4    0    0 -0.94025018274E+01 -0.15428774861E+00  0.15926701395E+02  0.18495693091E+02  0.51100000000E-03 0.  1.
        -12    1    4    4    0    0  0.37008151033E+01 -0.20049426535E+02  0.19851924562E+02  0.28456536079E+02  0.00000000000E+00 0.  1.
</event>
<event>
 8    1  0.1210161E-006  0.9118800E+02  0.7816164E-02  0.1184000E+00
        -11   -1    0    0    0    0  0.00000000000E+00  0.00000000000E+00  0.45593999997E+02  0.45594000000E+02  0.51100000000E-03 0.  1.
         11   -1    0    0    0    0 -0.00000000000E+00 -0.00000000000E+00 -0.45593999997E+02  0.45594000000E+02  0.51100000000E-03 0. -1.
         23    2    1    2    0    0 -0.88817841970E-15 -0.35527136788E-14  0.00000000000E+00  0.91188000000E+02  0.91188000000E+02 0.  0.
    9900012    2    3    3    0    0  0.26637445910E+01  0.16745111385E+02 -0.32684583471E+02  0.54367132449E+02  0.40000110044E+02 0.  0.
        -12    1    3    3    0    0 -0.26637445910E+01 -0.16745111385E+02  0.32684583471E+02  0.36820867551E+02  0.00000000000E+00 0.  1.
         11    1    4    4    0    0  0.13541574155E+01 -0.65815233195E+00 -0.88872353275E+01  0.90138703577E+01  0.51100000000E-03 0.  1.
        -11    1    4    4    0    0 -0.10411695480E+02  0.45895546906E+00 -0.22396223361E+02  0.24702325072E+02  0.51100000000E-03 0. -1.
        -12    1    4    4    0    0  0.11721282656E+02  0.16944308248E+02 -0.14011247823E+01  0.20650937019E+02  0.00000000000E+00 0.  1.
</event>
<event>
 8    1  0.1210161E-006  0.9118800E+02  0.7816164E-02  0.1184000E+00
        -11   -1    0    0    0    0  0.00000000000E+00  0.00000000000E+00  0.45593999997E+02  0.45594000000E+02  0.51100000000E-03 0. -1.
         11   -1    0    0    0    0 -0.00000000000E+00 -0.00000000000E+00 -0.45593999997E+02  0.45594000000E+02  0.51100000000E-03 0.  1.
         23    2    1    2    0    0  0.00000000000E+00  0.00000000000E+00 -0.35527136788E-14  0.91188000000E+02  0.91188000000E+02 0.  0.
    9900012    2    3    3    0    0  0.19843286597E+02 -0.11977481419E+02 -0.28610443813E+02  0.54367169221E+02  0.40000193872E+02 0.  0.
        -12    1    3    3    0    0 -0.19843286597E+02  0.11977481419E+02  0.28610443813E+02  0.36820830779E+02  0.00000000000E+00 0.  1.
         11    1    4    4    0    0  0.12241165181E+02 -0.16855957137E+02 -0.32490347038E+01  0.21083776767E+02  0.51100000000E-03 0. -1.
        -11    1    4    4    0    0  0.14962047469E+01 -0.53804850863E+01 -0.18901357915E+02  0.19709124275E+02  0.51100000000E-03 0.  1.
        -12    1    4    4    0    0  0.61059166693E+01  0.10258960804E+02 -0.64600511940E+01  0.13574268178E+02  0.00000000000E+00 0.  1.
</event>
<event>
 8    1  0.1210161E-006  0.9118800E+02  0.7816164E-02  0.1184000E+00
        -11   -1    0    0    0    0  0.00000000000E+00  0.00000000000E+00  0.45593999997E+02  0.45594000000E+02  0.51100000000E-03 0. -1.
         11   -1    0    0    0    0 -0.00000000000E+00 -0.00000000000E+00 -0.45593999997E+02  0.45594000000E+02  0.51100000000E-03 0.  1.
         23    2    1    2    0    0  0.00000000000E+00  0.00000000000E+00  0.44408920985E-14  0.91188000000E+02  0.91188000000E+02 0.  0.
    9900012    2    3    3    0    0 -0.32511564302E+02  0.15769927775E+02  0.70772289024E+01  0.54367087405E+02  0.40000007357E+02 0.  0.
         12    1    3    3    0    0  0.32511564302E+02 -0.15769927775E+02 -0.70772289024E+01  0.36820912595E+02  0.00000000000E+00 0. -1.
         11    1    4    4    0    0 -0.83289954109E+01  0.82639977393E+01 -0.13313292073E+02  0.17745691569E+02  0.51100000000E-03 0.  1.
        -11    1    4    4    0    0 -0.12309389305E+02  0.12373832602E+02  0.10043324410E+02  0.20137059463E+02  0.51100000000E-03 0. -1.
         12    1    4    4    0    0 -0.11873179586E+02 -0.48679025671E+01  0.10347196565E+02  0.16484336372E+02  0.00000000000E+00 0. -1.
</event>
<event>
 8    1  0.1210161E-006  0.9118800E+02  0.7816164E-02  0.1184000E+00
        -11   -1    0    0    0    0  0.00000000000E+00  0.00000000000E+00  0.45593999997E+02  0.45594000000E+02  0.51100000000E-03 0.  1.
         11   -1    0    0    0    0 -0.00000000000E+00 -0.00000000000E+00 -0.45593999997E+02  0.45594000000E+02  0.51100000000E-03 0. -1.
         23    2    1    2    0    0 -0.17763568394E-14  0.00000000000E+00 -0.44408920985E-15  0.91188000000E+02  0.91188000000E+02 0.  0.
    9900012    2    3    3    0    0 -0.10726848836E+02 -0.35134590694E+02 -0.25046552383E+01  0.54367108552E+02  0.40000055566E+02 0.  0.
         12    1    3    3    0    0  0.10726848836E+02  0.35134590694E+02  0.25046552383E+01  0.36820891448E+02  0.00000000000E+00 0. -1.
         11    1    4    4    0    0  0.35332778225E+01 -0.18869771442E+02  0.57289210282E+01  0.20034292173E+02  0.51100000000E-03 0. -1.
        -11    1    4    4    0    0 -0.10568151156E+02  0.47661366370E+01 -0.54134941905E+01  0.12794834775E+02  0.51100000000E-03 0.  1.
        -12    1    4    4    0    0 -0.36919755019E+01 -0.21030955888E+02 -0.28200820761E+01  0.21537981605E+02  0.00000000000E+00 0.  1.
</event>
<event>
 8    1  0.1210161E-006  0.9118800E+02  0.7816164E-02  0.1184000E+00
        -11   -1    0    0    0    0  0.00000000000E+00  0.00000000000E+00  0.45593999997E+02  0.45594000000E+02  0.51100000000E-03 0. -1.
         11   -1    0    0    0    0 -0.00000000000E+00 -0.00000000000E+00 -0.45593999997E+02  0.45594000000E+02  0.51100000000E-03 0.  1.
         23    2    1    2    0    0  0.35527136788E-14 -0.17763568394E-14  0.35527136788E-14  0.91188000000E+02  0.91188000000E+02 0.  0.
    9900012    2    3    3    0    0  0.17588595549E+02 -0.15993778548E+02  0.28117958332E+02  0.54367092538E+02  0.40000019058E+02 0.  0.
        -12    1    3    3    0    0 -0.17588595549E+02  0.15993778548E+02 -0.28117958332E+02  0.36820907462E+02  0.00000000000E+00 0.  1.
         11    1    4    4    0    0  0.99626498740E+01  0.33318516278E+01  0.64401003015E+01  0.12321952765E+02  0.51100000000E-03 0. -1.
        -11    1    4    4    0    0 -0.26101808249E+01 -0.23864980385E+02  0.10434038880E+02  0.26176697659E+02  0.51100000000E-03 0.  1.
        -12    1    4    4    0    0  0.10236126499E+02  0.45393502092E+01  0.11243819150E+02  0.15868442114E+02  0.00000000000E+00 0.  1.
</event>
<event>
 8    1  0.1210161E-006  0.9118800E+02  0.7816164E-02  0.1184000E+00
        -11   -1    0    0    0    0  0.00000000000E+00  0.00000000000E+00  0.45593999997E+02  0.45594000000E+02  0.51100000000E-03 0. -1.
         11   -1    0    0    0    0 -0.00000000000E+00 -0.00000000000E+00 -0.45593999997E+02  0.45594000000E+02  0.51100000000E-03 0.  1.
         23    2    1    2    0    0  0.00000000000E+00  0.00000000000E+00 -0.35527136788E-14  0.91188000000E+02  0.91188000000E+02 0.  0.
    9900012    2    3    3    0    0  0.81112034505E+01  0.20257498656E+02 -0.29658412654E+02  0.54367091343E+02  0.40000016334E+02 0.  0.
         12    1    3    3    0    0 -0.81112034505E+01 -0.20257498656E+02  0.29658412654E+02  0.36820908657E+02  0.00000000000E+00 0. -1.
         11    1    4    4    0    0 -0.43189074378E+01  0.20022551365E+02 -0.12112096736E+01  0.20518834123E+02  0.51100000000E-03 0. -1.
        -11    1    4    4    0    0  0.12216865292E+02 -0.23400870110E+01 -0.12292037857E+02  0.17487767145E+02  0.51100000000E-03 0.  1.
         12    1    4    4    0    0  0.21324559661E+00  0.25750343020E+01 -0.16155165123E+02  0.16360490075E+02  0.00000000000E+00 0. -1.
</event>
<event>
 8    1  0.1210161E-006  0.9118800E+02  0.7816164E-02  0.1184000E+00
        -11   -1    0    0    0    0  0.00000000000E+00  0.00000000000E+00  0.45593999997E+02  0.45594000000E+02  0.51100000000E-03 0. -1.
         11   -1    0    0    0    0 -0.00000000000E+00 -0.00000000000E+00 -0.45593999997E+02  0.45594000000E+02  0.51100000000E-03 0.  1.
         23    2    1    2    0    0 -0.44408920985E-15  0.35527136788E-14  0.00000000000E+00  0.91188000000E+02  0.91188000000E+02 0.  0.
    9900012    2    3    3    0    0 -0.39346228063E+01  0.27430919858E+02 -0.24245472293E+02  0.54367088175E+02  0.40000009113E+02 0.  0.
         12    1    3    3    0    0  0.39346228063E+01 -0.27430919858E+02  0.24245472293E+02  0.36820911825E+02  0.00000000000E+00 0. -1.
         11    1    4    4    0    0  0.46488870640E+01 -0.61647803025E+01 -0.11011571720E+01  0.77993085905E+01  0.51100000000E-03 0. -1.
        -11    1    4    4    0    0 -0.10137423774E+02  0.46277005958E+01 -0.41422230548E+01  0.11888691504E+02  0.51100000000E-03 0.  1.
        -12    1    4    4    0    0  0.15539139036E+01  0.28967999565E+02 -0.19002092066E+02  0.34679088081E+02  0.00000000000E+00 0.  1.
</event>
<event>
 8    1  0.1210161E-006  0.9118800E+02  0.7816164E-02  0.1184000E+00
        -11   -1    0    0    0    0  0.00000000000E+00  0.00000000000E+00  0.45593999997E+02  0.45594000000E+02  0.51100000000E-03 0. -1.
         11   -1    0    0    0    0 -0.00000000000E+00 -0.00000000000E+00 -0.45593999997E+02  0.45594000000E+02  0.51100000000E-03 0.  1.
         23    2    1    2    0    0  0.17763568394E-14  0.00000000000E+00  0.35527136788E-14  0.91188000000E+02  0.91188000000E+02 0.  0.
    9900012    2    3    3    0    0 -0.15276444747E+02  0.14785383893E+02 -0.30063289120E+02  0.54367099771E+02  0.40000035548E+02 0.  0.
         12    1    3    3    0    0  0.15276444747E+02 -0.14785383893E+02  0.30063289120E+02  0.36820900229E+02  0.00000000000E+00 0. -1.
         11    1    4    4    0    0 -0.12414837497E+02 -0.61251132133E+01 -0.21230020541E+01  0.14005439655E+02  0.51100000000E-03 0. -1.
        -11    1    4    4    0    0 -0.18951449438E+01  0.52420571960E-01 -0.16390427190E+02  0.16499709876E+02  0.51100000000E-03 0.  1.
         12    1    4    4    0    0 -0.96646230677E+00  0.20858076534E+02 -0.11549859876E+02  0.23861950240E+02  0.00000000000E+00 0. -1.
</event>
<event>
 8    1  0.1210161E-006  0.9118800E+02  0.7816164E-02  0.1184000E+00
        -11   -1    0    0    0    0  0.00000000000E+00  0.00000000000E+00  0.45593999997E+02  0.45594000000E+02  0.51100000000E-03 0.  1.
         11   -1    0    0    0    0 -0.00000000000E+00 -0.00000000000E+00 -0.45593999997E+02  0.45594000000E+02  0.51100000000E-03 0. -1.
         23    2    1    2    0    0  0.17763568394E-14  0.00000000000E+00 -0.35527136788E-14  0.91188000000E+02  0.91188000000E+02 0.  0.
    9900012    2    3    3    0    0  0.89641377701E+01  0.22398948312E+02 -0.27815636598E+02  0.54367105242E+02  0.40000048020E+02 0.  0.
        -12    1    3    3    0    0 -0.89641377701E+01 -0.22398948312E+02  0.27815636598E+02  0.36820894758E+02  0.00000000000E+00 0.  1.
         11    1    4    4    0    0  0.59058029191E+01  0.22964996415E+02 -0.87141481021E+01  0.25262738289E+02  0.51100000000E-03 0. -1.
        -11    1    4    4    0    0  0.10813445838E+02  0.11650882698E+01 -0.32145975762E+01  0.11341149827E+02  0.51100000000E-03 0.  1.
         12    1    4    4    0    0 -0.77551109870E+01 -0.17311363729E+01 -0.15886890919E+02  0.17763217125E+02  0.00000000000E+00 0. -1.
</event>
<event>
 8    1  0.1210161E-006  0.9118800E+02  0.7816164E-02  0.1184000E+00
        -11   -1    0    0    0    0  0.00000000000E+00  0.00000000000E+00  0.45593999997E+02  0.45594000000E+02  0.51100000000E-03 0. -1.
         11   -1    0    0    0    0 -0.00000000000E+00 -0.00000000000E+00 -0.45593999997E+02  0.45594000000E+02  0.51100000000E-03 0.  1.
         23    2    1    2    0    0  0.00000000000E+00 -0.35527136788E-14 -0.35527136788E-14  0.91188000000E+02  0.91188000000E+02 0.  0.
    9900012    2    3    3    0    0 -0.12464574805E+02 -0.16642654256E+02  0.30388100738E+02  0.54367078879E+02  0.39999987920E+02 0.  0.
        -12    1    3    3    0    0  0.12464574805E+02  0.16642654256E+02 -0.30388100738E+02  0.36820921121E+02  0.00000000000E+00 0.  1.
         11    1    4    4    0    0 -0.64273283072E+00  0.79567523647E+01  0.18515239504E+02  0.20162765382E+02  0.51100000000E-03 0.  1.
        -11    1    4    4    0    0  0.12677772652E+01  0.64796192922E+00  0.46492824619E+01  0.48624007987E+01  0.51100000000E-03 0. -1.
        -12    1    4    4    0    0 -0.13089619240E+02 -0.25247368549E+02  0.72235787718E+01  0.29341912698E+02  0.00000000000E+00 0.  1.
</event>
<event>
 8    1  0.1210161E-006  0.9118800E+02  0.7816164E-02  0.1184000E+00
        -11   -1    0    0    0    0  0.00000000000E+00  0.00000000000E+00  0.45593999997E+02  0.45594000000E+02  0.51100000000E-03 0. -1.
         11   -1    0    0    0    0 -0.00000000000E+00 -0.00000000000E+00 -0.45593999997E+02  0.45594000000E+02  0.51100000000E-03 0.  1.
         23    2    1    2    0    0  0.35527136788E-14  0.00000000000E+00  0.00000000000E+00  0.91188000000E+02  0.91188000000E+02 0.  0.
    9900012    2    3    3    0    0 -0.18663647748E+02 -0.31188765996E+02 -0.58914337994E+01  0.54367083881E+02  0.39999999324E+02 0.  0.
         12    1    3    3    0    0  0.18663647748E+02  0.31188765996E+02  0.58914337994E+01  0.36820916119E+02  0.00000000000E+00 0. -1.
         11    1    4    4    0    0  0.20627947514E+01 -0.39255635746E+01  0.36786799877E+01  0.57617582627E+01  0.51100000000E-03 0. -1.
        -11    1    4    4    0    0  0.75331503794E+01  0.88194174238E+00  0.18641011858E-01  0.75846241584E+01  0.51100000000E-03 0.  1.
        -12    1    4    4    0    0 -0.28259592879E+02 -0.28145144164E+02 -0.95887547989E+01  0.41020701460E+02  0.00000000000E+00 0.  1.
</event>
<event>
 8    1  0.1210161E-006  0.9118800E+02  0.7816164E-02  0.1184000E+00
        -11   -1    0    0    0    0  0.00000000000E+00  0.00000000000E+00  0.45593999997E+02  0.45594000000E+02  0.51100000000E-03 0. -1.
         11   -1    0    0    0    0 -0.00000000000E+00 -0.00000000000E+00 -0.45593999997E+02  0.45594000000E+02  0.51100000000E-03 0.  1.
         23    2    1    2    0    0  0.17763568394E-14 -0.71054273576E-14  0.17763568394E-14  0.91188000000E+02  0.91188000000E+02 0.  0.
    9900012    2    3    3    0    0  0.10591206584E+02 -0.33602821299E+02  0.10698521135E+02  0.54367060161E+02  0.39999945249E+02 0.  0.
        -12    1    3    3    0    0 -0.10591206584E+02  0.33602821299E+02 -0.10698521135E+02  0.36820939839E+02  0.00000000000E+00 0.  1.
         11    1    4    4    0    0  0.12635638882E+02 -0.40480057809E+02  0.90181882586E+01  0.43354609558E+02  0.51100000000E-03 0. -1.
        -11    1    4    4    0    0 -0.13045590608E+01  0.50928885150E+01  0.49460427973E+01  0.72182218990E+01  0.51100000000E-03 0.  1.
         12    1    4    4    0    0 -0.73987323739E+00  0.17843479951E+01 -0.32657099206E+01  0.37942287043E+01  0.00000000000E+00 0. -1.
</event>
<event>
 8    1  0.1210161E-006  0.9118800E+02  0.7816164E-02  0.1184000E+00
        -11   -1    0    0    0    0  0.00000000000E+00  0.00000000000E+00  0.45593999997E+02  0.45594000000E+02  0.51100000000E-03 0.  1.
         11   -1    0    0    0    0 -0.00000000000E+00 -0.00000000000E+00 -0.45593999997E+02  0.45594000000E+02  0.51100000000E-03 0. -1.
         23    2    1    2    0    0  0.00000000000E+00  0.35527136788E-14 -0.35527136788E-14  0.91188000000E+02  0.91188000000E+02 0.  0.
    9900012    2    3    3    0    0  0.10713980248E+02 -0.18467448770E+02 -0.29999052125E+02  0.54367093368E+02  0.40000020950E+02 0.  0.
        -12    1    3    3    0    0 -0.10713980248E+02  0.18467448770E+02  0.29999052125E+02  0.36820906632E+02  0.00000000000E+00 0.  1.
         11    1    4    4    0    0 -0.22852677499E+01 -0.18940122766E+02 -0.27928084356E+02  0.33822013470E+02  0.51100000000E-03 0. -1.
        -11    1    4    4    0    0  0.14610601041E+02 -0.33420068716E+01  0.15187752576E+01  0.15064705482E+02  0.51100000000E-03 0.  1.
         12    1    4    4    0    0 -0.16113530428E+01  0.38146808676E+01 -0.35897430266E+01  0.54803744167E+01  0.00000000000E+00 0. -1.
</event>
<event>
 8    1  0.1210161E-006  0.9118800E+02  0.7816164E-02  0.1184000E+00
        -11   -1    0    0    0    0  0.00000000000E+00  0.00000000000E+00  0.45593999997E+02  0.45594000000E+02  0.51100000000E-03 0.  1.
         11   -1    0    0    0    0 -0.00000000000E+00 -0.00000000000E+00 -0.45593999997E+02  0.45594000000E+02  0.51100000000E-03 0. -1.
         23    2    1    2    0    0  0.35527136788E-14  0.00000000000E+00  0.17763568394E-14  0.91188000000E+02  0.91188000000E+02 0.  0.
    9900012    2    3    3    0    0  0.19586059751E+02 -0.27408888362E+02  0.14863457271E+02  0.54367037766E+02  0.39999894195E+02 0.  0.
        -12    1    3    3    0    0 -0.19586059751E+02  0.27408888362E+02 -0.14863457271E+02  0.36820962234E+02  0.00000000000E+00 0.  1.
         11    1    4    4    0    0 -0.19551616887E+01 -0.83434481594E+01  0.14001630942E+02  0.16415890281E+02  0.51100000000E-03 0. -1.
        -11    1    4    4    0    0 -0.36688432601E+01 -0.10240305920E+02  0.26014307611E+01  0.11184440910E+02  0.51100000000E-03 0.  1.
        -12    1    4    4    0    0  0.25210064700E+02 -0.88251342821E+01 -0.17396044326E+01  0.26766706575E+02  0.00000000000E+00 0.  1.
</event>
<event>
 8    1  0.1210161E-006  0.9118800E+02  0.7816164E-02  0.1184000E+00
        -11   -1    0    0    0    0  0.00000000000E+00  0.00000000000E+00  0.45593999997E+02  0.45594000000E+02  0.51100000000E-03 0. -1.
         11   -1    0    0    0    0 -0.00000000000E+00 -0.00000000000E+00 -0.45593999997E+02  0.45594000000E+02  0.51100000000E-03 0.  1.
         23    2    1    2    0    0  0.00000000000E+00  0.00000000000E+00  0.00000000000E+00  0.91188000000E+02  0.91188000000E+02 0.  0.
    9900012    2    3    3    0    0 -0.30764773061E+01 -0.26352753479E+02  0.25531327503E+02  0.54367068281E+02  0.39999963761E+02 0.  0.
        -12    1    3    3    0    0  0.30764773061E+01  0.26352753479E+02 -0.25531327503E+02  0.36820931719E+02  0.00000000000E+00 0.  1.
         11    1    4    4    0    0 -0.50018280503E+01 -0.10302205313E+02  0.11681077598E+02  0.16358523536E+02  0.51100000000E-03 0. -1.
        -11    1    4    4    0    0 -0.53555831584E+01  0.83545398960E+01  0.36463652313E+01  0.10572444727E+02  0.51100000000E-03 0.  1.
        -12    1    4    4    0    0  0.72809339026E+01 -0.24405088062E+02  0.10203884674E+02  0.27436100019E+02  0.00000000000E+00 0.  1.
</event>
<event>
 8    1  0.1210161E-006  0.9118800E+02  0.7816164E-02  0.1184000E+00
        -11   -1    0    0    0    0  0.00000000000E+00  0.00000000000E+00  0.45593999997E+02  0.45594000000E+02  0.51100000000E-03 0.  1.
         11   -1    0    0    0    0 -0.00000000000E+00 -0.00000000000E+00 -0.45593999997E+02  0.45594000000E+02  0.51100000000E-03 0. -1.
         23    2    1    2    0    0  0.88817841970E-15  0.00000000000E+00 -0.17763568394E-14  0.91188000000E+02  0.91188000000E+02 0.  0.
    9900012    2    3    3    0    0  0.77454898059E+01  0.33709905986E+02 -0.12626330418E+02  0.54367155445E+02  0.40000162467E+02 0.  0.
        -12    1    3    3    0    0 -0.77454898059E+01 -0.33709905986E+02  0.12626330418E+02  0.36820844555E+02  0.00000000000E+00 0.  1.
         11    1    4    4    0    0  0.99269176759E-01 -0.54222235615E+00 -0.23526450418E+01  0.24163605705E+01  0.51100000000E-03 0. -1.
        -11    1    4    4    0    0 -0.49359098721E+01 -0.64601530247E+01 -0.32883721561E+01  0.87698446432E+01  0.51100000000E-03 0.  1.
         12    1    4    4    0    0  0.12582130501E+02  0.40712281367E+02 -0.69853132203E+01  0.43180950231E+02  0.00000000000E+00 0. -1.
</event>
<event>
 8    1  0.1210161E-006  0.9118800E+02  0.7816164E-02  0.1184000E+00
        -11   -1    0    0    0    0  0.00000000000E+00  0.00000000000E+00  0.45593999997E+02  0.45594000000E+02  0.51100000000E-03 0. -1.
         11   -1    0    0    0    0 -0.00000000000E+00 -0.00000000000E+00 -0.45593999997E+02  0.45594000000E+02  0.51100000000E-03 0.  1.
         23    2    1    2    0    0  0.00000000000E+00  0.00000000000E+00  0.00000000000E+00  0.91188000000E+02  0.91188000000E+02 0.  0.
    9900012    2    3    3    0    0  0.12050932514E+02  0.33131738755E+02 -0.10622604564E+02  0.54367125280E+02  0.40000093702E+02 0.  0.
         12    1    3    3    0    0 -0.12050932514E+02 -0.33131738755E+02  0.10622604564E+02  0.36820874720E+02  0.00000000000E+00 0. -1.
         11    1    4    4    0    0 -0.49059076333E+00  0.63750197229E+01 -0.16706482202E+02  0.17888211302E+02  0.51100000000E-03 0. -1.
        -11    1    4    4    0    0 -0.55063008957E+01  0.95923537407E+01  0.17461992487E+01  0.11197402016E+02  0.51100000000E-03 0.  1.
         12    1    4    4    0    0  0.18047824173E+02  0.17164365291E+02  0.43376783895E+01  0.25281511962E+02  0.00000000000E+00 0. -1.
</event>
<event>
 8    1  0.1210161E-006  0.9118800E+02  0.7816164E-02  0.1184000E+00
        -11   -1    0    0    0    0  0.00000000000E+00  0.00000000000E+00  0.45593999997E+02  0.45594000000E+02  0.51100000000E-03 0.  1.
         11   -1    0    0    0    0 -0.00000000000E+00 -0.00000000000E+00 -0.45593999997E+02  0.45594000000E+02  0.51100000000E-03 0. -1.
         23    2    1    2    0    0  0.00000000000E+00  0.00000000000E+00 -0.17763568394E-14  0.91188000000E+02  0.91188000000E+02 0.  0.
    9900012    2    3    3    0    0  0.31782158659E+02 -0.14247407583E+02 -0.11944940388E+02  0.54367138621E+02  0.40000124114E+02 0.  0.
        -12    1    3    3    0    0 -0.31782158659E+02  0.14247407583E+02  0.11944940388E+02  0.36820861379E+02  0.00000000000E+00 0.  1.
         11    1    4    4    0    0 -0.49922832100E+00 -0.54285131990E+01  0.11049290523E+02  0.12320909293E+02  0.51100000000E-03 0.  1.
        -11    1    4    4    0    0  0.25373601068E+02 -0.32002281720E+01 -0.13097439092E+02  0.28733325644E+02  0.51100000000E-03 0. -1.
        -12    1    4    4    0    0  0.69077859116E+01 -0.56186662120E+01 -0.98967918192E+01  0.13312903685E+02  0.00000000000E+00 0.  1.
</event>
<event>
 8    1  0.1210161E-006  0.9118800E+02  0.7816164E-02  0.1184000E+00
        -11   -1    0    0    0    0  0.00000000000E+00  0.00000000000E+00  0.45593999997E+02  0.45594000000E+02  0.51100000000E-03 0.  1.
         11   -1    0    0    0    0 -0.00000000000E+00 -0.00000000000E+00 -0.45593999997E+02  0.45594000000E+02  0.51100000000E-03 0. -1.
         23    2    1    2    0    0 -0.17763568394E-14  0.00000000000E+00  0.71054273576E-14  0.91188000000E+02  0.91188000000E+02 0.  0.
    9900012    2    3    3    0    0  0.15660266271E+02 -0.26118659168E+02 -0.20696658770E+02  0.54367082295E+02  0.39999995708E+02 0.  0.
        -12    1    3    3    0    0 -0.15660266271E+02  0.26118659168E+02  0.20696658770E+02  0.36820917705E+02  0.00000000000E+00 0.  1.
         11    1    4    4    0    0  0.83515243991E+00  0.26962578428E+01 -0.12316036525E+02  0.12635348903E+02  0.51100000000E-03 0. -1.
        -11    1    4    4    0    0  0.51397611704E+00 -0.74621681072E+01  0.82343753453E+01  0.11124435352E+02  0.51100000000E-03 0.  1.
        -12    1    4    4    0    0  0.14311137714E+02 -0.21352748903E+02 -0.16614997591E+02  0.30607298040E+02  0.00000000000E+00 0.  1.
</event>
<event>
 8    1  0.1210161E-006  0.9118800E+02  0.7816164E-02  0.1184000E+00
        -11   -1    0    0    0    0  0.00000000000E+00  0.00000000000E+00  0.45593999997E+02  0.45594000000E+02  0.51100000000E-03 0. -1.
         11   -1    0    0    0    0 -0.00000000000E+00 -0.00000000000E+00 -0.45593999997E+02  0.45594000000E+02  0.51100000000E-03 0.  1.
         23    2    1    2    0    0  0.00000000000E+00  0.00000000000E+00  0.00000000000E+00  0.91188000000E+02  0.91188000000E+02 0.  0.
    9900012    2    3    3    0    0  0.84611138707E+01  0.57717260325E+01 -0.35367760528E+02  0.54367058213E+02  0.39999940808E+02 0.  0.
         12    1    3    3    0    0 -0.84611138707E+01 -0.57717260325E+01  0.35367760528E+02  0.36820941787E+02  0.00000000000E+00 0. -1.
         11    1    4    4    0    0  0.55926302292E+01  0.76434568334E+01 -0.12900934651E+02  0.16004188839E+02  0.51100000000E-03 0. -1.
        -11    1    4    4    0    0 -0.10796423392E+02 -0.31960086606E+01 -0.21896835364E+02  0.24622116656E+02  0.51100000000E-03 0.  1.
         12    1    4    4    0    0  0.13664907033E+02  0.13242778598E+01 -0.56999051248E+00  0.13740752718E+02  0.00000000000E+00 0. -1.
</event>
<event>
 8    1  0.1210161E-006  0.9118800E+02  0.7816164E-02  0.1184000E+00
        -11   -1    0    0    0    0  0.00000000000E+00  0.00000000000E+00  0.45593999997E+02  0.45594000000E+02  0.51100000000E-03 0.  1.
         11   -1    0    0    0    0 -0.00000000000E+00 -0.00000000000E+00 -0.45593999997E+02  0.45594000000E+02  0.51100000000E-03 0. -1.
         23    2    1    2    0    0 -0.35527136788E-14  0.35527136788E-14  0.17763568394E-14  0.91188000000E+02  0.91188000000E+02 0.  0.
    9900012    2    3    3    0    0  0.21638743374E+02  0.26082947509E+02 -0.14395291038E+02  0.54367085160E+02  0.40000002240E+02 0.  0.
        -12    1    3    3    0    0 -0.21638743374E+02 -0.26082947509E+02  0.14395291038E+02  0.36820914840E+02  0.00000000000E+00 0.  1.
         11    1    4    4    0    0  0.50646599812E+01  0.23007120499E+01 -0.15777782639E+02  0.16729688638E+02  0.51100000000E-03 0. -1.
        -11    1    4    4    0    0  0.20242538579E+02  0.22485726868E+02  0.67588887410E+01  0.31000820283E+02  0.51100000000E-03 0.  1.
        -12    1    4    4    0    0 -0.36684551865E+01  0.12965085914E+01 -0.53763971391E+01  0.66365762393E+01  0.00000000000E+00 0.  1.
</event>
<event>
 8    1  0.1210161E-006  0.9118800E+02  0.7816164E-02  0.1184000E+00
        -11   -1    0    0    0    0  0.00000000000E+00  0.00000000000E+00  0.45593999997E+02  0.45594000000E+02  0.51100000000E-03 0.  1.
         11   -1    0    0    0    0 -0.00000000000E+00 -0.00000000000E+00 -0.45593999997E+02  0.45594000000E+02  0.51100000000E-03 0. -1.
         23    2    1    2    0    0 -0.71054273576E-14  0.00000000000E+00  0.00000000000E+00  0.91188000000E+02  0.91188000000E+02 0.  0.
    9900012    2    3    3    0    0  0.17962349448E+02 -0.16196904230E+02  0.27763178722E+02  0.54367084788E+02  0.40000001391E+02 0.  0.
         12    1    3    3    0    0 -0.17962349448E+02  0.16196904230E+02 -0.27763178722E+02  0.36820915212E+02  0.00000000000E+00 0. -1.
         11    1    4    4    0    0  0.16909468725E+01 -0.14662289333E+01  0.36612048233E+00  0.22678564944E+01  0.51100000000E-03 0. -1.
        -11    1    4    4    0    0  0.21815655269E+02 -0.20485185277E+02  0.31215298150E+02  0.43243039550E+02  0.51100000000E-03 0.  1.
         12    1    4    4    0    0 -0.55442526942E+01  0.57545099798E+01 -0.38182399109E+01  0.88561887436E+01  0.00000000000E+00 0. -1.
</event>
<event>
 8    1  0.1210161E-006  0.9118800E+02  0.7816164E-02  0.1184000E+00
        -11   -1    0    0    0    0  0.00000000000E+00  0.00000000000E+00  0.45593999997E+02  0.45594000000E+02  0.51100000000E-03 0.  1.
         11   -1    0    0    0    0 -0.00000000000E+00 -0.00000000000E+00 -0.45593999997E+02  0.45594000000E+02  0.51100000000E-03 0. -1.
         23    2    1    2    0    0  0.00000000000E+00  0.00000000000E+00  0.00000000000E+00  0.91188000000E+02  0.91188000000E+02 0.  0.
    9900012    2    3    3    0    0 -0.30762998317E+02 -0.16665956789E+02 -0.11474477476E+02  0.54367084551E+02  0.40000000851E+02 0.  0.
        -12    1    3    3    0    0  0.30762998317E+02  0.16665956789E+02  0.11474477476E+02  0.36820915449E+02  0.00000000000E+00 0.  1.
         11    1    4    4    0    0 -0.47915314094E+01 -0.39106062936E+01 -0.11704346279E+02  0.13237950631E+02  0.51100000000E-03 0. -1.
        -11    1    4    4    0    0 -0.16939253727E+02 -0.20149965010E+02  0.75068477518E+01  0.27373566997E+02  0.51100000000E-03 0.  1.
        -12    1    4    4    0    0 -0.90322131804E+01  0.73946145143E+01 -0.72769789492E+01  0.13755566923E+02  0.00000000000E+00 0.  1.
</event>
<event>
 8    1  0.1210161E-006  0.9118800E+02  0.7816164E-02  0.1184000E+00
        -11   -1    0    0    0    0  0.00000000000E+00  0.00000000000E+00  0.45593999997E+02  0.45594000000E+02  0.51100000000E-03 0. -1.
         11   -1    0    0    0    0 -0.00000000000E+00 -0.00000000000E+00 -0.45593999997E+02  0.45594000000E+02  0.51100000000E-03 0.  1.
         23    2    1    2    0    0  0.00000000000E+00 -0.88817841970E-15 -0.88817841970E-15  0.91188000000E+02  0.91188000000E+02 0.  0.
    9900012    2    3    3    0    0  0.36041246632E+02 -0.74207207400E+01 -0.13195878373E+01  0.54367083836E+02  0.39999999221E+02 0.  0.
         12    1    3    3    0    0 -0.36041246632E+02  0.74207207400E+01  0.13195878373E+01  0.36820916164E+02  0.00000000000E+00 0. -1.
         11    1    4    4    0    0  0.19756049157E+01 -0.22514273226E+01  0.32972070443E+01  0.44546059675E+01  0.51100000000E-03 0. -1.
        -11    1    4    4    0    0  0.23589636177E+02 -0.90831028363E+01  0.13473542591E+02  0.28644546467E+02  0.51100000000E-03 0.  1.
        -12    1    4    4    0    0  0.10476005539E+02  0.39138094189E+01 -0.18090337472E+02  0.21267931401E+02  0.00000000000E+00 0.  1.
</event>
<event>
 8    1  0.1210161E-006  0.9118800E+02  0.7816164E-02  0.1184000E+00
        -11   -1    0    0    0    0  0.00000000000E+00  0.00000000000E+00  0.45593999997E+02  0.45594000000E+02  0.51100000000E-03 0. -1.
         11   -1    0    0    0    0 -0.00000000000E+00 -0.00000000000E+00 -0.45593999997E+02  0.45594000000E+02  0.51100000000E-03 0.  1.
         23    2    1    2    0    0  0.00000000000E+00  0.22204460493E-15 -0.71054273576E-14  0.91188000000E+02  0.91188000000E+02 0.  0.
    9900012    2    3    3    0    0  0.46331636694E+01  0.74892075369E+00 -0.36520591337E+02  0.54367072805E+02  0.39999974074E+02 0.  0.
         12    1    3    3    0    0 -0.46331636694E+01 -0.74892075369E+00  0.36520591337E+02  0.36820927195E+02  0.00000000000E+00 0. -1.
         11    1    4    4    0    0  0.27146804115E+01 -0.21871771263E+01 -0.39053727882E+02  0.39209015485E+02  0.51100000000E-03 0. -1.
        -11    1    4    4    0    0  0.77636893066E+01  0.19289448678E+01 -0.12875356838E+01  0.81026815531E+01  0.51100000000E-03 0.  1.
         12    1    4    4    0    0 -0.58452060487E+01  0.10071530123E+01  0.38206722290E+01  0.70553757677E+01  0.00000000000E+00 0. -1.
</event>
<event>
 8    1  0.1210161E-006  0.9118800E+02  0.7816164E-02  0.1184000E+00
        -11   -1    0    0    0    0  0.00000000000E+00  0.00000000000E+00  0.45593999997E+02  0.45594000000E+02  0.51100000000E-03 0.  1.
         11   -1    0    0    0    0 -0.00000000000E+00 -0.00000000000E+00 -0.45593999997E+02  0.45594000000E+02  0.51100000000E-03 0. -1.
         23    2    1    2    0    0  0.00000000000E+00  0.00000000000E+00 -0.44408920985E-15  0.91188000000E+02  0.91188000000E+02 0.  0.
    9900012    2    3    3    0    0  0.26187171518E+02 -0.25760013227E+02  0.25365876822E+01  0.54367075098E+02  0.39999979301E+02 0.  0.
         12    1    3    3    0    0 -0.26187171518E+02  0.25760013227E+02 -0.25365876822E+01  0.36820924902E+02  0.00000000000E+00 0. -1.
         11    1    4    4    0    0  0.17645826514E+02 -0.60012292847E+01 -0.13387529184E+02  0.22948112868E+02  0.51100000000E-03 0. -1.
        -11    1    4    4    0    0  0.11008429400E+02 -0.11020879839E+02  0.16012084380E+02  0.22339027659E+02  0.51100000000E-03 0.  1.
         12    1    4    4    0    0 -0.24670843956E+01 -0.87379041037E+01 -0.87967514068E-01  0.90799345715E+01  0.00000000000E+00 0. -1.
</event>
<event>
 8    1  0.1210161E-006  0.9118800E+02  0.7816164E-02  0.1184000E+00
        -11   -1    0    0    0    0  0.00000000000E+00  0.00000000000E+00  0.45593999997E+02  0.45594000000E+02  0.51100000000E-03 0. -1.
         11   -1    0    0    0    0 -0.00000000000E+00 -0.00000000000E+00 -0.45593999997E+02  0.45594000000E+02  0.51100000000E-03 0.  1.
         23    2    1    2    0    0  0.00000000000E+00 -0.44408920985E-15  0.35527136788E-14  0.91188000000E+02  0.91188000000E+02 0.  0.
    9900012    2    3    3    0    0 -0.25630133444E+02 -0.39215132232E+01  0.26143788147E+02  0.54367086581E+02  0.40000005478E+02 0.  0.
         12    1    3    3    0    0  0.25630133444E+02  0.39215132232E+01 -0.26143788147E+02  0.36820913419E+02  0.00000000000E+00 0. -1.
         11    1    4    4    0    0 -0.12978956270E+01 -0.10567742444E+02 -0.87190332503E-01  0.10647502798E+02  0.51100000000E-03 0. -1.
        -11    1    4    4    0    0 -0.23808853916E+02 -0.19386161125E+01  0.25722684045E+02  0.35103792273E+02  0.51100000000E-03 0.  1.
        -12    1    4    4    0    0 -0.52338390112E+00  0.85848453334E+01  0.50829443544E+00  0.86157915097E+01  0.00000000000E+00 0.  1.
</event>
<event>
 8    1  0.1210161E-006  0.9118800E+02  0.7816164E-02  0.1184000E+00
        -11   -1    0    0    0    0  0.00000000000E+00  0.00000000000E+00  0.45593999997E+02  0.45594000000E+02  0.51100000000E-03 0.  1.
         11   -1    0    0    0    0 -0.00000000000E+00 -0.00000000000E+00 -0.45593999997E+02  0.45594000000E+02  0.51100000000E-03 0. -1.
         23    2    1    2    0    0  0.00000000000E+00 -0.35527136788E-14  0.00000000000E+00  0.91188000000E+02  0.91188000000E+02 0.  0.
    9900012    2    3    3    0    0  0.17607629114E+02  0.21246495607E+02  0.24378996443E+02  0.54367113995E+02  0.40000067975E+02 0.  0.
         12    1    3    3    0    0 -0.17607629114E+02 -0.21246495607E+02 -0.24378996443E+02  0.36820886005E+02  0.00000000000E+00 0. -1.
         11    1    4    4    0    0 -0.86211039850E+01  0.51499979424E+01 -0.32807613519E+00  0.10047564229E+02  0.51100000000E-03 0. -1.
        -11    1    4    4    0    0  0.57785735044E+01  0.54103473729E+01  0.18952019480E+02  0.20538812358E+02  0.51100000000E-03 0.  1.
         12    1    4    4    0    0  0.20450159595E+02  0.10686150292E+02  0.57550530982E+01  0.23780737408E+02  0.00000000000E+00 0. -1.
</event>
<event>
 8    1  0.1210161E-006  0.9118800E+02  0.7816164E-02  0.1184000E+00
        -11   -1    0    0    0    0  0.00000000000E+00  0.00000000000E+00  0.45593999997E+02  0.45594000000E+02  0.51100000000E-03 0.  1.
         11   -1    0    0    0    0 -0.00000000000E+00 -0.00000000000E+00 -0.45593999997E+02  0.45594000000E+02  0.51100000000E-03 0. -1.
         23    2    1    2    0    0  0.00000000000E+00  0.00000000000E+00 -0.44408920985E-15  0.91188000000E+02  0.91188000000E+02 0.  0.
    9900012    2    3    3    0    0 -0.36412954142E+02  0.41503507048E+01  0.35572400343E+01  0.54367046767E+02  0.39999914715E+02 0.  0.
        -12    1    3    3    0    0  0.36412954142E+02 -0.41503507048E+01 -0.35572400343E+01  0.36820953233E+02  0.00000000000E+00 0.  1.
         11    1    4    4    0    0 -0.14231100034E+02  0.77938984680E+01  0.28304645357E+01  0.16470597781E+02  0.51100000000E-03 0. -1.
        -11    1    4    4    0    0 -0.18006757258E+02 -0.44638916325E+01  0.14458518763E+02  0.23520595243E+02  0.51100000000E-03 0.  1.
         12    1    4    4    0    0 -0.41750968497E+01  0.82034386926E+00 -0.13731743265E+02  0.14375853744E+02  0.00000000000E+00 0. -1.
</event>
<event>
 8    1  0.1210161E-006  0.9118800E+02  0.7816164E-02  0.1184000E+00
        -11   -1    0    0    0    0  0.00000000000E+00  0.00000000000E+00  0.45593999997E+02  0.45594000000E+02  0.51100000000E-03 0.  1.
         11   -1    0    0    0    0 -0.00000000000E+00 -0.00000000000E+00 -0.45593999997E+02  0.45594000000E+02  0.51100000000E-03 0. -1.
         23    2    1    2    0    0 -0.88817841970E-15  0.00000000000E+00  0.00000000000E+00  0.91188000000E+02  0.91188000000E+02 0.  0.
    9900012    2    3    3    0    0  0.45827716158E+01 -0.27320351985E+02  0.24256455796E+02  0.54367094579E+02  0.40000023712E+02 0.  0.
         12    1    3    3    0    0 -0.45827716158E+01  0.27320351985E+02 -0.24256455796E+02  0.36820905421E+02  0.00000000000E+00 0. -1.
         11    1    4    4    0    0  0.57402293470E+01 -0.13477428657E+02  0.95049802202E+01  0.17462415795E+02  0.51100000000E-03 0. -1.
        -11    1    4    4    0    0  0.17280429522E+01  0.97198702709E+01  0.62756598615E+01  0.11698115980E+02  0.51100000000E-03 0.  1.
        -12    1    4    4    0    0 -0.28855006834E+01 -0.23562793599E+02  0.84758157140E+01  0.25206562804E+02  0.00000000000E+00 0.  1.
</event>
<event>
 8    1  0.1210161E-006  0.9118800E+02  0.7816164E-02  0.1184000E+00
        -11   -1    0    0    0    0  0.00000000000E+00  0.00000000000E+00  0.45593999997E+02  0.45594000000E+02  0.51100000000E-03 0.  1.
         11   -1    0    0    0    0 -0.00000000000E+00 -0.00000000000E+00 -0.45593999997E+02  0.45594000000E+02  0.51100000000E-03 0. -1.
         23    2    1    2    0    0  0.00000000000E+00  0.00000000000E+00  0.17763568394E-14  0.91188000000E+02  0.91188000000E+02 0.  0.
    9900012    2    3    3    0    0 -0.29880579534E+02 -0.17213185472E+02  0.12908806404E+02  0.54367081080E+02  0.39999992938E+02 0.  0.
         12    1    3    3    0    0  0.29880579534E+02  0.17213185472E+02 -0.12908806404E+02  0.36820918920E+02  0.00000000000E+00 0. -1.
         11    1    4    4    0    0  0.33995663562E+01 -0.39657162124E+01  0.38208169455E+00  0.52373603246E+01  0.51100000000E-03 0. -1.
        -11    1    4    4    0    0 -0.29427646665E+02 -0.19999106799E+02  0.17752447725E+02  0.39763048946E+02  0.51100000000E-03 0.  1.
        -12    1    4    4    0    0 -0.38524992255E+01  0.67516375401E+01 -0.52257230151E+01  0.93666718094E+01  0.00000000000E+00 0.  1.
</event>
<event>
 8    1  0.1210161E-006  0.9118800E+02  0.7816164E-02  0.1184000E+00
        -11   -1    0    0    0    0  0.00000000000E+00  0.00000000000E+00  0.45593999997E+02  0.45594000000E+02  0.51100000000E-03 0. -1.
         11   -1    0    0    0    0 -0.00000000000E+00 -0.00000000000E+00 -0.45593999997E+02  0.45594000000E+02  0.51100000000E-03 0.  1.
         23    2    1    2    0    0  0.00000000000E+00 -0.17763568394E-14  0.00000000000E+00  0.91188000000E+02  0.91188000000E+02 0.  0.
    9900012    2    3    3    0    0 -0.90349395018E+01 -0.95351328932E+01 -0.34398115041E+02  0.54367092767E+02  0.40000019581E+02 0.  0.
         12    1    3    3    0    0  0.90349395018E+01  0.95351328932E+01  0.34398115041E+02  0.36820907233E+02  0.00000000000E+00 0. -1.
         11    1    4    4    0    0 -0.24876399344E+00  0.46282922176E+01  0.26197406075E+01  0.53240974341E+01  0.51100000000E-03 0. -1.
        -11    1    4    4    0    0 -0.18001027615E+02 -0.52215863900E+01 -0.17261161613E+02  0.25480377943E+02  0.51100000000E-03 0.  1.
         12    1    4    4    0    0  0.92148521067E+01 -0.89418387208E+01 -0.19756694036E+02  0.23562617390E+02  0.00000000000E+00 0. -1.
</event>
<event>
 8    1  0.1210161E-006  0.9118800E+02  0.7816164E-02  0.1184000E+00
        -11   -1    0    0    0    0  0.00000000000E+00  0.00000000000E+00  0.45593999997E+02  0.45594000000E+02  0.51100000000E-03 0. -1.
         11   -1    0    0    0    0 -0.00000000000E+00 -0.00000000000E+00 -0.45593999997E+02  0.45594000000E+02  0.51100000000E-03 0.  1.
         23    2    1    2    0    0 -0.88817841970E-15  0.00000000000E+00  0.71054273576E-14  0.91188000000E+02  0.91188000000E+02 0.  0.
    9900012    2    3    3    0    0 -0.65606683112E+01  0.13688446022E+02 -0.33546477793E+02  0.54367053577E+02  0.39999930239E+02 0.  0.
         12    1    3    3    0    0  0.65606683112E+01 -0.13688446022E+02  0.33546477793E+02  0.36820946423E+02  0.00000000000E+00 0. -1.
         11    1    4    4    0    0  0.10648651783E+02 -0.41267780297E+01 -0.47708938421E+00  0.11430297294E+02  0.51100000000E-03 0. -1.
        -11    1    4    4    0    0 -0.14638680133E+00  0.67798349162E+01 -0.11124711624E+02  0.13028691399E+02  0.51100000000E-03 0.  1.
        -12    1    4    4    0    0 -0.17062933292E+02  0.11035389135E+02 -0.21944676785E+02  0.29908064884E+02  0.00000000000E+00 0.  1.
</event>
<event>
 8    1  0.1210161E-006  0.9118800E+02  0.7816164E-02  0.1184000E+00
        -11   -1    0    0    0    0  0.00000000000E+00  0.00000000000E+00  0.45593999997E+02  0.45594000000E+02  0.51100000000E-03 0.  1.
         11   -1    0    0    0    0 -0.00000000000E+00 -0.00000000000E+00 -0.45593999997E+02  0.45594000000E+02  0.51100000000E-03 0. -1.
         23    2    1    2    0    0 -0.35527136788E-14  0.83266726847E-16  0.00000000000E+00  0.91188000000E+02  0.91188000000E+02 0.  0.
    9900012    2    3    3    0    0  0.30514005268E+02 -0.12018531346E+00  0.20607309299E+02  0.54367079880E+02  0.39999990201E+02 0.  0.
         12    1    3    3    0    0 -0.30514005268E+02  0.12018531346E+00 -0.20607309299E+02  0.36820920120E+02  0.00000000000E+00 0. -1.
         11    1    4    4    0    0  0.96775798095E+00  0.10845199044E+02 -0.50596862011E+00  0.10900041391E+02  0.51100000000E-03 0. -1.
        -11    1    4    4    0    0  0.89631231506E+01 -0.12803068722E+02  0.15593753562E+02  0.22077619793E+02  0.51100000000E-03 0.  1.
        -12    1    4    4    0    0  0.20583124136E+02  0.18376843643E+01  0.55195243571E+01  0.21389418696E+02  0.00000000000E+00 0.  1.
</event>
<event>
 8    1  0.1210161E-006  0.9118800E+02  0.7816164E-02  0.1184000E+00
        -11   -1    0    0    0    0  0.00000000000E+00  0.00000000000E+00  0.45593999997E+02  0.45594000000E+02  0.51100000000E-03 0.  1.
         11   -1    0    0    0    0 -0.00000000000E+00 -0.00000000000E+00 -0.45593999997E+02  0.45594000000E+02  0.51100000000E-03 0. -1.
         23    2    1    2    0    0  0.44408920985E-15  0.00000000000E+00  0.00000000000E+00  0.91188000000E+02  0.91188000000E+02 0.  0.
    9900012    2    3    3    0    0 -0.10437455183E+01 -0.34737853151E+02  0.12164069610E+02  0.54367184750E+02  0.40000229273E+02 0.  0.
         12    1    3    3    0    0  0.10437455183E+01  0.34737853151E+02 -0.12164069610E+02  0.36820815250E+02  0.00000000000E+00 0. -1.
         11    1    4    4    0    0 -0.91513737726E+01 -0.11134055871E+02 -0.17626019076E+01  0.14519697236E+02  0.51100000000E-03 0. -1.
        -11    1    4    4    0    0  0.77325274518E+01 -0.74876501877E+01 -0.74377990520E+01  0.13083491167E+02  0.51100000000E-03 0.  1.
        -12    1    4    4    0    0  0.37510080251E+00 -0.16116147092E+02  0.21364470570E+02  0.26763996346E+02  0.00000000000E+00 0.  1.
</event>
<event>
 8    1  0.1210161E-006  0.9118800E+02  0.7816164E-02  0.1184000E+00
        -11   -1    0    0    0    0  0.00000000000E+00  0.00000000000E+00  0.45593999997E+02  0.45594000000E+02  0.51100000000E-03 0.  1.
         11   -1    0    0    0    0 -0.00000000000E+00 -0.00000000000E+00 -0.45593999997E+02  0.45594000000E+02  0.51100000000E-03 0. -1.
         23    2    1    2    0    0  0.35527136788E-14  0.17763568394E-14  0.00000000000E+00  0.91188000000E+02  0.91188000000E+02 0.  0.
    9900012    2    3    3    0    0 -0.26339920691E+02 -0.15769950786E+02 -0.20329748891E+02  0.54367062210E+02  0.39999949919E+02 0.  0.
        -12    1    3    3    0    0  0.26339920691E+02  0.15769950786E+02  0.20329748891E+02  0.36820937790E+02  0.00000000000E+00 0.  1.
         11    1    4    4    0    0 -0.19648562697E+02 -0.15760223044E+02 -0.23206926974E+02  0.34249264317E+02  0.51100000000E-03 0. -1.
        -11    1    4    4    0    0  0.52606730195E+01 -0.35899629917E+01  0.41106442269E+01  0.75802316008E+01  0.51100000000E-03 0.  1.
         12    1    4    4    0    0 -0.11952031014E+02  0.35802352493E+01 -0.12334661442E+01  0.12537566292E+02  0.00000000000E+00 0. -1.
</event>
<event>
 8    1  0.1210161E-006  0.9118800E+02  0.7816164E-02  0.1184000E+00
        -11   -1    0    0    0    0  0.00000000000E+00  0.00000000000E+00  0.45593999997E+02  0.45594000000E+02  0.51100000000E-03 0.  1.
         11   -1    0    0    0    0 -0.00000000000E+00 -0.00000000000E+00 -0.45593999997E+02  0.45594000000E+02  0.51100000000E-03 0. -1.
         23    2    1    2    0    0  0.00000000000E+00  0.00000000000E+00 -0.35527136788E-14  0.91188000000E+02  0.91188000000E+02 0.  0.
    9900012    2    3    3    0    0  0.92598548479E+01  0.16131583269E+02 -0.31777459177E+02  0.54367084716E+02  0.40000001228E+02 0.  0.
        -12    1    3    3    0    0 -0.92598548479E+01 -0.16131583269E+02  0.31777459177E+02  0.36820915284E+02  0.00000000000E+00 0.  1.
         11    1    4    4    0    0  0.26101657984E+01  0.23034563835E+02 -0.82544998122E+01  0.24607739920E+02  0.51100000000E-03 0.  1.
        -11    1    4    4    0    0 -0.25470521174E+01  0.34925835464E+01 -0.49230316588E+01  0.65514773366E+01  0.51100000000E-03 0. -1.
         12    1    4    4    0    0  0.91967411668E+01 -0.10395564113E+02 -0.18599927706E+02  0.23207867459E+02  0.00000000000E+00 0. -1.
</event>
<event>
 8    1  0.1210161E-006  0.9118800E+02  0.7816164E-02  0.1184000E+00
        -11   -1    0    0    0    0  0.00000000000E+00  0.00000000000E+00  0.45593999997E+02  0.45594000000E+02  0.51100000000E-03 0.  1.
         11   -1    0    0    0    0 -0.00000000000E+00 -0.00000000000E+00 -0.45593999997E+02  0.45594000000E+02  0.51100000000E-03 0. -1.
         23    2    1    2    0    0 -0.17763568394E-14  0.00000000000E+00  0.00000000000E+00  0.91188000000E+02  0.91188000000E+02 0.  0.
    9900012    2    3    3    0    0  0.85099952917E+01 -0.51126603632E+01  0.35457314460E+02  0.54367075723E+02  0.39999980726E+02 0.  0.
         12    1    3    3    0    0 -0.85099952917E+01  0.51126603632E+01 -0.35457314460E+02  0.36820924277E+02  0.00000000000E+00 0. -1.
         11    1    4    4    0    0 -0.13575077324E+01  0.18605812077E+01  0.21040998450E+01  0.31195874876E+01  0.51100000000E-03 0. -1.
        -11    1    4    4    0    0 -0.10725880914E+02 -0.29881272583E+01  0.27196035583E+02  0.29387034175E+02  0.51100000000E-03 0.  1.
        -12    1    4    4    0    0  0.20593383938E+02 -0.39851143126E+01  0.61571790321E+01  0.21860454061E+02  0.00000000000E+00 0.  1.
</event>
<event>
 8    1  0.1210161E-006  0.9118800E+02  0.7816164E-02  0.1184000E+00
        -11   -1    0    0    0    0  0.00000000000E+00  0.00000000000E+00  0.45593999997E+02  0.45594000000E+02  0.51100000000E-03 0. -1.
         11   -1    0    0    0    0 -0.00000000000E+00 -0.00000000000E+00 -0.45593999997E+02  0.45594000000E+02  0.51100000000E-03 0.  1.
         23    2    1    2    0    0  0.00000000000E+00  0.00000000000E+00  0.00000000000E+00  0.91188000000E+02  0.91188000000E+02 0.  0.
    9900012    2    3    3    0    0 -0.59079085622E+01  0.27213367181E+02  0.24089612343E+02  0.54367079863E+02  0.39999990163E+02 0.  0.
        -12    1    3    3    0    0  0.59079085622E+01 -0.27213367181E+02 -0.24089612343E+02  0.36820920137E+02  0.00000000000E+00 0.  1.
         11    1    4    4    0    0 -0.58443626869E+00  0.12857777650E+02  0.14871920744E+02  0.19668198665E+02  0.51100000000E-03 0. -1.
        -11    1    4    4    0    0 -0.43599831847E+01 -0.89485259287E+01  0.11566489683E+01  0.10021147976E+02  0.51100000000E-03 0.  1.
        -12    1    4    4    0    0 -0.96348910879E+00  0.23304115460E+02  0.80610426303E+01  0.24677733221E+02  0.00000000000E+00 0.  1.
</event>
<event>
 8    1  0.1210161E-006  0.9118800E+02  0.7816164E-02  0.1184000E+00
        -11   -1    0    0    0    0  0.00000000000E+00  0.00000000000E+00  0.45593999997E+02  0.45594000000E+02  0.51100000000E-03 0.  1.
         11   -1    0    0    0    0 -0.00000000000E+00 -0.00000000000E+00 -0.45593999997E+02  0.45594000000E+02  0.51100000000E-03 0. -1.
         23    2    1    2    0    0 -0.88817841970E-15  0.11657341759E-14  0.00000000000E+00  0.91188000000E+02  0.91188000000E+02 0.  0.
    9900012    2    3    3    0    0 -0.43030379713E+01 -0.49872274796E+00 -0.36565212947E+02  0.54367086676E+02  0.40000005696E+02 0.  0.
        -12    1    3    3    0    0  0.43030379713E+01  0.49872274796E+00  0.36565212947E+02  0.36820913324E+02  0.00000000000E+00 0.  1.
         11    1    4    4    0    0  0.48270933317E+01  0.34399848468E+00 -0.23322192394E+02  0.23818980317E+02  0.51100000000E-03 0. -1.
        -11    1    4    4    0    0 -0.98309037336E+01  0.10695362528E+02 -0.12147953883E+02  0.18937006934E+02  0.51100000000E-03 0.  1.
         12    1    4    4    0    0  0.70077243063E+00 -0.11538083760E+02 -0.10950666695E+01  0.11611099426E+02  0.00000000000E+00 0. -1.
</event>
<event>
 8    1  0.1210161E-006  0.9118800E+02  0.7816164E-02  0.1184000E+00
        -11   -1    0    0    0    0  0.00000000000E+00  0.00000000000E+00  0.45593999997E+02  0.45594000000E+02  0.51100000000E-03 0.  1.
         11   -1    0    0    0    0 -0.00000000000E+00 -0.00000000000E+00 -0.45593999997E+02  0.45594000000E+02  0.51100000000E-03 0. -1.
         23    2    1    2    0    0  0.00000000000E+00  0.00000000000E+00  0.00000000000E+00  0.91188000000E+02  0.91188000000E+02 0.  0.
    9900012    2    3    3    0    0 -0.12808598283E+02 -0.13265064178E+02 -0.31870981771E+02  0.54367060350E+02  0.39999945681E+02 0.  0.
        -12    1    3    3    0    0  0.12808598283E+02  0.13265064178E+02  0.31870981771E+02  0.36820939650E+02  0.00000000000E+00 0.  1.
         11    1    4    4    0    0 -0.17796514315E+02 -0.14354683845E+02 -0.20669228832E+01  0.22957461544E+02  0.51100000000E-03 0. -1.
        -11    1    4    4    0    0  0.16615253222E+01 -0.32331964873E+01 -0.62321802275E+01  0.72148663585E+01  0.51100000000E-03 0.  1.
         12    1    4    4    0    0  0.33263907095E+01  0.43228161548E+01 -0.23571878660E+02  0.24194732448E+02  0.00000000000E+00 0. -1.
</event>
<event>
 8    1  0.1210161E-006  0.9118800E+02  0.7816164E-02  0.1184000E+00
        -11   -1    0    0    0    0  0.00000000000E+00  0.00000000000E+00  0.45593999997E+02  0.45594000000E+02  0.51100000000E-03 0.  1.
         11   -1    0    0    0    0 -0.00000000000E+00 -0.00000000000E+00 -0.45593999997E+02  0.45594000000E+02  0.51100000000E-03 0. -1.
         23    2    1    2    0    0 -0.35527136788E-14  0.00000000000E+00  0.00000000000E+00  0.91188000000E+02  0.91188000000E+02 0.  0.
    9900012    2    3    3    0    0  0.19011456576E+02  0.30295765328E+02  0.87470741591E+01  0.54367079529E+02  0.39999989403E+02 0.  0.
        -12    1    3    3    0    0 -0.19011456576E+02 -0.30295765328E+02 -0.87470741591E+01  0.36820920471E+02  0.00000000000E+00 0.  1.
         11    1    4    4    0    0  0.76664529366E+01  0.30073162223E+02  0.70883865856E+01  0.31834176782E+02  0.51100000000E-03 0. -1.
        -11    1    4    4    0    0 -0.51189744549E+01  0.27238893475E+01  0.84831028635E+00  0.58602989045E+01  0.51100000000E-03 0.  1.
         12    1    4    4    0    0  0.16463978094E+02 -0.25012862426E+01  0.81037728718E+00  0.16672603843E+02  0.00000000000E+00 0. -1.
</event>
<event>
 8    1  0.1210161E-006  0.9118800E+02  0.7816164E-02  0.1184000E+00
        -11   -1    0    0    0    0  0.00000000000E+00  0.00000000000E+00  0.45593999997E+02  0.45594000000E+02  0.51100000000E-03 0. -1.
         11   -1    0    0    0    0 -0.00000000000E+00 -0.00000000000E+00 -0.45593999997E+02  0.45594000000E+02  0.51100000000E-03 0.  1.
         23    2    1    2    0    0  0.35527136788E-14  0.00000000000E+00  0.00000000000E+00  0.91188000000E+02  0.91188000000E+02 0.  0.
    9900012    2    3    3    0    0 -0.31204698626E+02  0.17783913886E+02  0.81104901334E+01  0.54367070359E+02  0.39999968497E+02 0.  0.
        -12    1    3    3    0    0  0.31204698626E+02 -0.17783913886E+02 -0.81104901334E+01  0.36820929641E+02  0.00000000000E+00 0.  1.
         11    1    4    4    0    0 -0.25802578292E+02 -0.62001473470E+01  0.14562303633E+01  0.26576972754E+02  0.51100000000E-03 0. -1.
        -11    1    4    4    0    0 -0.22968692604E+01  0.60780122117E+01 -0.30615342539E+01  0.71826759006E+01  0.51100000000E-03 0.  1.
         12    1    4    4    0    0 -0.31052510740E+01  0.17906049021E+02  0.97157940240E+01  0.20607421705E+02  0.00000000000E+00 0. -1.
</event>
<event>
 8    1  0.1210161E-006  0.9118800E+02  0.7816164E-02  0.1184000E+00
        -11   -1    0    0    0    0  0.00000000000E+00  0.00000000000E+00  0.45593999997E+02  0.45594000000E+02  0.51100000000E-03 0.  1.
         11   -1    0    0    0    0 -0.00000000000E+00 -0.00000000000E+00 -0.45593999997E+02  0.45594000000E+02  0.51100000000E-03 0. -1.
         23    2    1    2    0    0  0.00000000000E+00  0.00000000000E+00  0.71054273576E-14  0.91188000000E+02  0.91188000000E+02 0.  0.
    9900012    2    3    3    0    0  0.12741288243E+02 -0.22552625158E+02  0.26169091442E+02  0.54367045714E+02  0.39999912314E+02 0.  0.
         12    1    3    3    0    0 -0.12741288243E+02  0.22552625158E+02 -0.26169091442E+02  0.36820954286E+02  0.00000000000E+00 0. -1.
         11    1    4    4    0    0  0.44844137590E+01  0.78926411356E+00 -0.81203567317E+01  0.93098387910E+01  0.51100000000E-03 0. -1.
        -11    1    4    4    0    0 -0.38865393229E+01 -0.10619540939E+02  0.16820323610E+02  0.20268278769E+02  0.51100000000E-03 0.  1.
        -12    1    4    4    0    0  0.12143413807E+02 -0.12722348332E+02  0.17469124564E+02  0.24788928154E+02  0.00000000000E+00 0.  1.
</event>
<event>
 8    1  0.1210161E-006  0.9118800E+02  0.7816164E-02  0.1184000E+00
        -11   -1    0    0    0    0  0.00000000000E+00  0.00000000000E+00  0.45593999997E+02  0.45594000000E+02  0.51100000000E-03 0.  1.
         11   -1    0    0    0    0 -0.00000000000E+00 -0.00000000000E+00 -0.45593999997E+02  0.45594000000E+02  0.51100000000E-03 0. -1.
         23    2    1    2    0    0  0.44408920985E-15  0.71054273576E-14 -0.35527136788E-14  0.91188000000E+02  0.91188000000E+02 0.  0.
    9900012    2    3    3    0    0  0.32007181916E+01 -0.18519855480E+02  0.31663079276E+02  0.54367078866E+02  0.39999987891E+02 0.  0.
         12    1    3    3    0    0 -0.32007181916E+01  0.18519855480E+02 -0.31663079276E+02  0.36820921134E+02  0.00000000000E+00 0. -1.
         11    1    4    4    0    0 -0.61677800265E+01 -0.24268087155E+01  0.12176550518E+02  0.13863595990E+02  0.51100000000E-03 0. -1.
        -11    1    4    4    0    0  0.15286410309E+02  0.25437141179E+01  0.54252386276E+01  0.16418831751E+02  0.51100000000E-03 0.  1.
        -12    1    4    4    0    0 -0.59179120907E+01 -0.18636760882E+02  0.14061290131E+02  0.24084651125E+02  0.00000000000E+00 0.  1.
</event>
<event>
 8    1  0.1210161E-006  0.9118800E+02  0.7816164E-02  0.1184000E+00
        -11   -1    0    0    0    0  0.00000000000E+00  0.00000000000E+00  0.45593999997E+02  0.45594000000E+02  0.51100000000E-03 0.  1.
         11   -1    0    0    0    0 -0.00000000000E+00 -0.00000000000E+00 -0.45593999997E+02  0.45594000000E+02  0.51100000000E-03 0. -1.
         23    2    1    2    0    0  0.00000000000E+00  0.00000000000E+00  0.88817841970E-15  0.91188000000E+02  0.91188000000E+02 0.  0.
    9900012    2    3    3    0    0 -0.29961745899E+02 -0.20548129623E+02  0.59874122876E+01  0.54367069075E+02  0.39999965569E+02 0.  0.
        -12    1    3    3    0    0  0.29961745899E+02  0.20548129623E+02 -0.59874122876E+01  0.36820930925E+02  0.00000000000E+00 0.  1.
         11    1    4    4    0    0 -0.67166406910E+01  0.14040607502E+01  0.67799121657E+01  0.96463390982E+01  0.51100000000E-03 0. -1.
        -11    1    4    4    0    0  0.74185023732E+00  0.38307755666E+01  0.75784150789E+01  0.85239403204E+01  0.51100000000E-03 0.  1.
         12    1    4    4    0    0 -0.23986955445E+02 -0.25782965940E+02 -0.83709149570E+01  0.36196789656E+02  0.00000000000E+00 0. -1.
</event>
<event>
 8    1  0.1210161E-006  0.9118800E+02  0.7816164E-02  0.1184000E+00
        -11   -1    0    0    0    0  0.00000000000E+00  0.00000000000E+00  0.45593999997E+02  0.45594000000E+02  0.51100000000E-03 0.  1.
         11   -1    0    0    0    0 -0.00000000000E+00 -0.00000000000E+00 -0.45593999997E+02  0.45594000000E+02  0.51100000000E-03 0. -1.
         23    2    1    2    0    0  0.44408920985E-14  0.00000000000E+00 -0.71054273576E-14  0.91188000000E+02  0.91188000000E+02 0.  0.
    9900012    2    3    3    0    0  0.43699695100E+01  0.49898345188E+01  0.36218564106E+02  0.54367089257E+02  0.40000011578E+02 0.  0.
         12    1    3    3    0    0 -0.43699695100E+01 -0.49898345188E+01 -0.36218564106E+02  0.36820910743E+02  0.00000000000E+00 0. -1.
         11    1    4    4    0    0 -0.13393744055E+02 -0.20069794366E+01  0.77611903121E+01  0.15609497801E+02  0.51100000000E-03 0. -1.
        -11    1    4    4    0    0 -0.26852495183E+01  0.15734259338E+01  0.10679661037E+02  0.11123910925E+02  0.51100000000E-03 0.  1.
         12    1    4    4    0    0  0.20448963083E+02  0.54233880217E+01  0.17777712757E+02  0.27633680531E+02  0.00000000000E+00 0. -1.
</event>
<event>
 8    1  0.1210161E-006  0.9118800E+02  0.7816164E-02  0.1184000E+00
        -11   -1    0    0    0    0  0.00000000000E+00  0.00000000000E+00  0.45593999997E+02  0.45594000000E+02  0.51100000000E-03 0.  1.
         11   -1    0    0    0    0 -0.00000000000E+00 -0.00000000000E+00 -0.45593999997E+02  0.45594000000E+02  0.51100000000E-03 0. -1.
         23    2    1    2    0    0  0.99920072216E-15  0.00000000000E+00  0.00000000000E+00  0.91188000000E+02  0.91188000000E+02 0.  0.
    9900012    2    3    3    0    0  0.55656911388E+00  0.16615648023E+02  0.32854086530E+02  0.54367074833E+02  0.39999978698E+02 0.  0.
         12    1    3    3    0    0 -0.55656911388E+00 -0.16615648023E+02 -0.32854086530E+02  0.36820925167E+02  0.00000000000E+00 0. -1.
         11    1    4    4    0    0  0.50454768117E+01  0.35150355888E+01  0.19025553739E+02  0.19994599441E+02  0.51100000000E-03 0. -1.
        -11    1    4    4    0    0 -0.74564571910E+00 -0.53953449033E+01  0.14500388688E+02  0.15489577352E+02  0.51100000000E-03 0.  1.
         12    1    4    4    0    0 -0.37432619787E+01  0.18495957338E+02 -0.67185589739E+00  0.18882898041E+02  0.00000000000E+00 0. -1.
</event>
<event>
 8    1  0.1210161E-006  0.9118800E+02  0.7816164E-02  0.1184000E+00
        -11   -1    0    0    0    0  0.00000000000E+00  0.00000000000E+00  0.45593999997E+02  0.45594000000E+02  0.51100000000E-03 0. -1.
         11   -1    0    0    0    0 -0.00000000000E+00 -0.00000000000E+00 -0.45593999997E+02  0.45594000000E+02  0.51100000000E-03 0.  1.
         23    2    1    2    0    0  0.35527136788E-14  0.00000000000E+00  0.35527136788E-14  0.91188000000E+02  0.91188000000E+02 0.  0.
    9900012    2    3    3    0    0  0.20959870934E+02  0.78699916946E+01  0.29232304418E+02  0.54367074151E+02  0.39999977141E+02 0.  0.
        -12    1    3    3    0    0 -0.20959870934E+02 -0.78699916946E+01 -0.29232304418E+02  0.36820925849E+02  0.00000000000E+00 0.  1.
         11    1    4    4    0    0  0.21526546382E+02 -0.70319683640E+01  0.16297564270E+02  0.27900741560E+02  0.51100000000E-03 0. -1.
        -11    1    4    4    0    0 -0.21888518240E+01  0.62655774594E+01  0.15869798064E+02  0.17201715730E+02  0.51100000000E-03 0.  1.
        -12    1    4    4    0    0  0.16221763757E+01  0.86363825992E+01 -0.29350579165E+01  0.92646168603E+01  0.00000000000E+00 0.  1.
</event>
<event>
 8    1  0.1210161E-006  0.9118800E+02  0.7816164E-02  0.1184000E+00
        -11   -1    0    0    0    0  0.00000000000E+00  0.00000000000E+00  0.45593999997E+02  0.45594000000E+02  0.51100000000E-03 0. -1.
         11   -1    0    0    0    0 -0.00000000000E+00 -0.00000000000E+00 -0.45593999997E+02  0.45594000000E+02  0.51100000000E-03 0.  1.
         23    2    1    2    0    0 -0.22204460493E-15  0.00000000000E+00  0.00000000000E+00  0.91188000000E+02  0.91188000000E+02 0.  0.
    9900012    2    3    3    0    0  0.20377325303E+00  0.36349574727E+02  0.58692156175E+01  0.54367071191E+02  0.39999970395E+02 0.  0.
         12    1    3    3    0    0 -0.20377325303E+00 -0.36349574727E+02 -0.58692156175E+01  0.36820928809E+02  0.00000000000E+00 0. -1.
         11    1    4    4    0    0  0.25010974908E+00 -0.13758486973E+01  0.13138628528E+02  0.13212837485E+02  0.51100000000E-03 0. -1.
        -11    1    4    4    0    0 -0.59207458859E+01  0.70954981553E+01 -0.27397659754E+01  0.96388611245E+01  0.51100000000E-03 0.  1.
        -12    1    4    4    0    0  0.58744093898E+01  0.30629925269E+02 -0.45296469355E+01  0.31515372582E+02  0.00000000000E+00 0.  1.
</event>
<event>
 8    1  0.1210161E-006  0.9118800E+02  0.7816164E-02  0.1184000E+00
        -11   -1    0    0    0    0  0.00000000000E+00  0.00000000000E+00  0.45593999997E+02  0.45594000000E+02  0.51100000000E-03 0. -1.
         11   -1    0    0    0    0 -0.00000000000E+00 -0.00000000000E+00 -0.45593999997E+02  0.45594000000E+02  0.51100000000E-03 0.  1.
         23    2    1    2    0    0  0.00000000000E+00 -0.17763568394E-14 -0.35527136788E-14  0.91188000000E+02  0.91188000000E+02 0.  0.
    9900012    2    3    3    0    0  0.29316199623E+02 -0.58996657686E+01  0.21483338297E+02  0.54367089624E+02  0.40000012417E+02 0.  0.
        -12    1    3    3    0    0 -0.29316199623E+02  0.58996657686E+01 -0.21483338297E+02  0.36820910376E+02  0.00000000000E+00 0.  1.
         11    1    4    4    0    0  0.21695243019E+01 -0.67353006154E+01 -0.40680040687E+01  0.81620933246E+01  0.51100000000E-03 0. -1.
        -11    1    4    4    0    0  0.99183712197E+01  0.45079829804E+01  0.26409788208E+02  0.28568740113E+02  0.51100000000E-03 0.  1.
         12    1    4    4    0    0  0.17228304101E+02 -0.36723481336E+01 -0.85844584208E+00  0.17636256186E+02  0.00000000000E+00 0. -1.
</event>
<event>
 8    1  0.1210161E-006  0.9118800E+02  0.7816164E-02  0.1184000E+00
        -11   -1    0    0    0    0  0.00000000000E+00  0.00000000000E+00  0.45593999997E+02  0.45594000000E+02  0.51100000000E-03 0.  1.
         11   -1    0    0    0    0 -0.00000000000E+00 -0.00000000000E+00 -0.45593999997E+02  0.45594000000E+02  0.51100000000E-03 0. -1.
         23    2    1    2    0    0  0.00000000000E+00 -0.71054273576E-14  0.00000000000E+00  0.91188000000E+02  0.91188000000E+02 0.  0.
    9900012    2    3    3    0    0 -0.20355937344E+02 -0.25498851855E+02 -0.17065289604E+02  0.54367085558E+02  0.40000003146E+02 0.  0.
        -12    1    3    3    0    0  0.20355937344E+02  0.25498851855E+02  0.17065289604E+02  0.36820914442E+02  0.00000000000E+00 0.  1.
         11    1    4    4    0    0  0.24085106095E+01 -0.68010815091E+01  0.26871226670E+01  0.76991078404E+01  0.51100000000E-03 0.  1.
        -11    1    4    4    0    0 -0.10036120975E+02 -0.25814924199E+02 -0.12751996526E+02  0.30491760384E+02  0.51100000000E-03 0. -1.
         12    1    4    4    0    0 -0.12728326978E+02  0.71171538531E+01 -0.70004157451E+01  0.16176217334E+02  0.00000000000E+00 0. -1.
</event>
<event>
 8    1  0.1210161E-006  0.9118800E+02  0.7816164E-02  0.1184000E+00
        -11   -1    0    0    0    0  0.00000000000E+00  0.00000000000E+00  0.45593999997E+02  0.45594000000E+02  0.51100000000E-03 0. -1.
         11   -1    0    0    0    0 -0.00000000000E+00 -0.00000000000E+00 -0.45593999997E+02  0.45594000000E+02  0.51100000000E-03 0.  1.
         23    2    1    2    0    0 -0.35527136788E-14  0.31086244690E-14 -0.35527136788E-14  0.91188000000E+02  0.91188000000E+02 0.  0.
    9900012    2    3    3    0    0 -0.27240731178E+02 -0.32709417967E+01 -0.24556522585E+02  0.54367091581E+02  0.40000016877E+02 0.  0.
         12    1    3    3    0    0  0.27240731178E+02  0.32709417967E+01  0.24556522585E+02  0.36820908419E+02  0.00000000000E+00 0. -1.
         11    1    4    4    0    0 -0.16426283053E+02 -0.45805818525E+01 -0.15566495626E+02  0.23089397813E+02  0.51100000000E-03 0.  1.
        -11    1    4    4    0    0 -0.27861549258E+01 -0.12836630347E+02 -0.70186059808E+01  0.14893037572E+02  0.51100000000E-03 0. -1.
        -12    1    4    4    0    0 -0.80282931984E+01  0.14146270403E+02 -0.19714209783E+01  0.16384656196E+02  0.00000000000E+00 0.  1.
</event>
<event>
 8    1  0.1210161E-006  0.9118800E+02  0.7816164E-02  0.1184000E+00
        -11   -1    0    0    0    0  0.00000000000E+00  0.00000000000E+00  0.45593999997E+02  0.45594000000E+02  0.51100000000E-03 0. -1.
         11   -1    0    0    0    0 -0.00000000000E+00 -0.00000000000E+00 -0.45593999997E+02  0.45594000000E+02  0.51100000000E-03 0.  1.
         23    2    1    2    0    0  0.00000000000E+00  0.71054273576E-14  0.00000000000E+00  0.91188000000E+02  0.91188000000E+02 0.  0.
    9900012    2    3    3    0    0  0.10997766401E+02 -0.33695526635E+02 -0.99721015569E+01  0.54367052287E+02  0.39999927298E+02 0.  0.
         12    1    3    3    0    0 -0.10997766401E+02  0.33695526635E+02  0.99721015569E+01  0.36820947713E+02  0.00000000000E+00 0. -1.
         11    1    4    4    0    0  0.91124262981E+01  0.31322827519E+01 -0.50470910121E+01  0.10877528958E+02  0.51100000000E-03 0. -1.
        -11    1    4    4    0    0  0.41279980602E+01 -0.21880079631E+02  0.79413883715E+01  0.23639879487E+02  0.51100000000E-03 0.  1.
        -12    1    4    4    0    0 -0.22426579576E+01 -0.14947729757E+02 -0.12866398916E+02  0.19849643842E+02  0.00000000000E+00 0.  1.
</event>
<event>
 8    1  0.1210161E-006  0.9118800E+02  0.7816164E-02  0.1184000E+00
        -11   -1    0    0    0    0  0.00000000000E+00  0.00000000000E+00  0.45593999997E+02  0.45594000000E+02  0.51100000000E-03 0. -1.
         11   -1    0    0    0    0 -0.00000000000E+00 -0.00000000000E+00 -0.45593999997E+02  0.45594000000E+02  0.51100000000E-03 0.  1.
         23    2    1    2    0    0  0.00000000000E+00  0.00000000000E+00  0.35527136788E-14  0.91188000000E+02  0.91188000000E+02 0.  0.
    9900012    2    3    3    0    0  0.13006246346E+02 -0.20847917318E+02 -0.27422271519E+02  0.54367094583E+02  0.40000023720E+02 0.  0.
         12    1    3    3    0    0 -0.13006246346E+02  0.20847917318E+02  0.27422271519E+02  0.36820905417E+02  0.00000000000E+00 0. -1.
         11    1    4    4    0    0  0.10814121525E+02  0.74645767145E+00 -0.28988506165E+02  0.30948924268E+02  0.51100000000E-03 0. -1.
        -11    1    4    4    0    0  0.55420155050E+01 -0.14337520572E+02  0.89810517672E+00  0.15397565560E+02  0.51100000000E-03 0.  1.
        -12    1    4    4    0    0 -0.33498906842E+01 -0.72568544177E+01  0.66812946956E+00  0.80206047542E+01  0.00000000000E+00 0.  1.
</event>
<event>
 8    1  0.1210161E-006  0.9118800E+02  0.7816164E-02  0.1184000E+00
        -11   -1    0    0    0    0  0.00000000000E+00  0.00000000000E+00  0.45593999997E+02  0.45594000000E+02  0.51100000000E-03 0.  1.
         11   -1    0    0    0    0 -0.00000000000E+00 -0.00000000000E+00 -0.45593999997E+02  0.45594000000E+02  0.51100000000E-03 0. -1.
         23    2    1    2    0    0  0.17763568394E-14  0.00000000000E+00  0.00000000000E+00  0.91188000000E+02  0.91188000000E+02 0.  0.
    9900012    2    3    3    0    0 -0.14833443739E+02  0.24676958821E+02 -0.22952068819E+02  0.54367070994E+02  0.39999969945E+02 0.  0.
        -12    1    3    3    0    0  0.14833443739E+02 -0.24676958821E+02  0.22952068819E+02  0.36820929006E+02  0.00000000000E+00 0.  1.
         11    1    4    4    0    0 -0.17399088618E+02  0.19452574990E+01 -0.63566190370E+01  0.18625759510E+02  0.51100000000E-03 0. -1.
        -11    1    4    4    0    0 -0.21084128512E+01  0.11761609357E+01  0.45723944094E+01  0.51706431122E+01  0.51100000000E-03 0.  1.
         12    1    4    4    0    0  0.46740577305E+01  0.21555540386E+02 -0.21167844191E+02  0.30570668372E+02  0.00000000000E+00 0. -1.
</event>
<event>
 8    1  0.1210161E-006  0.9118800E+02  0.7816164E-02  0.1184000E+00
        -11   -1    0    0    0    0  0.00000000000E+00  0.00000000000E+00  0.45593999997E+02  0.45594000000E+02  0.51100000000E-03 0. -1.
         11   -1    0    0    0    0 -0.00000000000E+00 -0.00000000000E+00 -0.45593999997E+02  0.45594000000E+02  0.51100000000E-03 0.  1.
         23    2    1    2    0    0 -0.17763568394E-14 -0.35527136788E-14  0.00000000000E+00  0.91188000000E+02  0.91188000000E+02 0.  0.
    9900012    2    3    3    0    0  0.11404832550E+02  0.25453432240E+02  0.24038268060E+02  0.54367003957E+02  0.39999817120E+02 0.  0.
        -12    1    3    3    0    0 -0.11404832550E+02 -0.25453432240E+02 -0.24038268060E+02  0.36820996043E+02  0.00000000000E+00 0.  1.
         11    1    4    4    0    0  0.19475598733E+02  0.93360221017E+01  0.23798256642E+02  0.32137474608E+02  0.51100000000E-03 0. -1.
        -11    1    4    4    0    0 -0.13440386300E+01  0.97913263751E+01  0.57916070709E+01  0.11455096016E+02  0.51100000000E-03 0.  1.
        -12    1    4    4    0    0 -0.67267275525E+01  0.63260837629E+01 -0.55515956530E+01  0.10774433332E+02  0.00000000000E+00 0.  1.
</event>
<event>
 8    1  0.1210161E-006  0.9118800E+02  0.7816164E-02  0.1184000E+00
        -11   -1    0    0    0    0  0.00000000000E+00  0.00000000000E+00  0.45593999997E+02  0.45594000000E+02  0.51100000000E-03 0.  1.
         11   -1    0    0    0    0 -0.00000000000E+00 -0.00000000000E+00 -0.45593999997E+02  0.45594000000E+02  0.51100000000E-03 0. -1.
         23    2    1    2    0    0  0.00000000000E+00  0.00000000000E+00  0.00000000000E+00  0.91188000000E+02  0.91188000000E+02 0.  0.
    9900012    2    3    3    0    0  0.37843686508E+01  0.25330040099E+02  0.26454651557E+02  0.54367068907E+02  0.39999965188E+02 0.  0.
         12    1    3    3    0    0 -0.37843686508E+01 -0.25330040099E+02 -0.26454651557E+02  0.36820931093E+02  0.00000000000E+00 0. -1.
         11    1    4    4    0    0 -0.10808474630E+02  0.53811718999E+01  0.13873151063E+02  0.18391423423E+02  0.51100000000E-03 0. -1.
        -11    1    4    4    0    0  0.82781008484E+01  0.23562227991E+02  0.50033143007E+01  0.25470349346E+02  0.51100000000E-03 0.  1.
         12    1    4    4    0    0  0.63147424327E+01 -0.36133597916E+01  0.75781861940E+01  0.10505296139E+02  0.00000000000E+00 0. -1.
</event>
<event>
 8    1  0.1210161E-006  0.9118800E+02  0.7816164E-02  0.1184000E+00
        -11   -1    0    0    0    0  0.00000000000E+00  0.00000000000E+00  0.45593999997E+02  0.45594000000E+02  0.51100000000E-03 0.  1.
         11   -1    0    0    0    0 -0.00000000000E+00 -0.00000000000E+00 -0.45593999997E+02  0.45594000000E+02  0.51100000000E-03 0. -1.
         23    2    1    2    0    0 -0.35527136788E-14  0.00000000000E+00 -0.35527136788E-14  0.91188000000E+02  0.91188000000E+02 0.  0.
    9900012    2    3    3    0    0  0.17499380886E+02  0.12201624125E+02  0.30011134373E+02  0.54367134325E+02  0.40000114320E+02 0.  0.
         12    1    3    3    0    0 -0.17499380886E+02 -0.12201624125E+02 -0.30011134373E+02  0.36820865675E+02  0.00000000000E+00 0. -1.
         11    1    4    4    0    0  0.12556922885E+02  0.79156525271E+01  0.60631256615E+01  0.16034193472E+02  0.51100000000E-03 0. -1.
        -11    1    4    4    0    0  0.15803469741E+02 -0.22424376792E+01  0.18781845312E+02  0.24648243268E+02  0.51100000000E-03 0.  1.
        -12    1    4    4    0    0 -0.10861011740E+02  0.65284092775E+01  0.51661633997E+01  0.13684697585E+02  0.00000000000E+00 0.  1.
</event>
<event>
 8    1  0.1210161E-006  0.9118800E+02  0.7816164E-02  0.1184000E+00
        -11   -1    0    0    0    0  0.00000000000E+00  0.00000000000E+00  0.45593999997E+02  0.45594000000E+02  0.51100000000E-03 0.  1.
         11   -1    0    0    0    0 -0.00000000000E+00 -0.00000000000E+00 -0.45593999997E+02  0.45594000000E+02  0.51100000000E-03 0. -1.
         23    2    1    2    0    0  0.00000000000E+00  0.00000000000E+00  0.00000000000E+00  0.91188000000E+02  0.91188000000E+02 0.  0.
    9900012    2    3    3    0    0 -0.96305959204E+01  0.21226021570E+02  0.28504167423E+02  0.54367082983E+02  0.39999997277E+02 0.  0.
         12    1    3    3    0    0  0.96305959204E+01 -0.21226021570E+02 -0.28504167423E+02  0.36820917017E+02  0.00000000000E+00 0. -1.
         11    1    4    4    0    0  0.11808163991E+01 -0.65137802278E+01  0.15139138575E+02  0.16523231441E+02  0.51100000000E-03 0. -1.
        -11    1    4    4    0    0 -0.76506282196E+01  0.11583094568E+01 -0.39048997638E+00  0.77476625917E+01  0.51100000000E-03 0.  1.
        -12    1    4    4    0    0 -0.31607840999E+01  0.26581492341E+02  0.13755518825E+02  0.30096188950E+02  0.00000000000E+00 0.  1.
</event>
<event>
 8    1  0.1210161E-006  0.9118800E+02  0.7816164E-02  0.1184000E+00
        -11   -1    0    0    0    0  0.00000000000E+00  0.00000000000E+00  0.45593999997E+02  0.45594000000E+02  0.51100000000E-03 0.  1.
         11   -1    0    0    0    0 -0.00000000000E+00 -0.00000000000E+00 -0.45593999997E+02  0.45594000000E+02  0.51100000000E-03 0. -1.
         23    2    1    2    0    0 -0.35527136788E-14  0.00000000000E+00  0.00000000000E+00  0.91188000000E+02  0.91188000000E+02 0.  0.
    9900012    2    3    3    0    0  0.24552119472E+02  0.14406322471E+02  0.23354464308E+02  0.54367086095E+02  0.40000004371E+02 0.  0.
         12    1    3    3    0    0 -0.24552119472E+02 -0.14406322471E+02 -0.23354464308E+02  0.36820913905E+02  0.00000000000E+00 0. -1.
         11    1    4    4    0    0  0.67846485697E+01  0.12914535755E+02  0.11125387260E+02  0.18346414688E+02  0.51100000000E-03 0.  1.
        -11    1    4    4    0    0  0.25672583599E+02  0.53588631476E+00  0.74635038831E+01  0.26740841671E+02  0.51100000000E-03 0. -1.
        -12    1    4    4    0    0 -0.79051126973E+01  0.95590040127E+00  0.47655731648E+01  0.92798297357E+01  0.00000000000E+00 0.  1.
</event>
<event>
 8    1  0.1210161E-006  0.9118800E+02  0.7816164E-02  0.1184000E+00
        -11   -1    0    0    0    0  0.00000000000E+00  0.00000000000E+00  0.45593999997E+02  0.45594000000E+02  0.51100000000E-03 0. -1.
         11   -1    0    0    0    0 -0.00000000000E+00 -0.00000000000E+00 -0.45593999997E+02  0.45594000000E+02  0.51100000000E-03 0.  1.
         23    2    1    2    0    0  0.00000000000E+00 -0.17763568394E-14  0.35527136788E-14  0.91188000000E+02  0.91188000000E+02 0.  0.
    9900012    2    3    3    0    0 -0.18418279788E+02  0.13401585912E+02  0.28929997650E+02  0.54367077967E+02  0.39999985842E+02 0.  0.
        -12    1    3    3    0    0  0.18418279788E+02 -0.13401585912E+02 -0.28929997650E+02  0.36820922033E+02  0.00000000000E+00 0.  1.
         11    1    4    4    0    0 -0.13475272458E+02 -0.15005967800E+01  0.28228933682E+01  0.13849313548E+02  0.51100000000E-03 0. -1.
        -11    1    4    4    0    0 -0.78427537558E+01  0.16668763422E+02  0.49296322914E+01  0.19069812146E+02  0.51100000000E-03 0.  1.
         12    1    4    4    0    0  0.28997464263E+01 -0.17665807296E+01  0.21177471991E+02  0.21447952274E+02  0.00000000000E+00 0. -1.
</event>
<event>
 8    1  0.1210161E-006  0.9118800E+02  0.7816164E-02  0.1184000E+00
        -11   -1    0    0    0    0  0.00000000000E+00  0.00000000000E+00  0.45593999997E+02  0.45594000000E+02  0.51100000000E-03 0. -1.
         11   -1    0    0    0    0 -0.00000000000E+00 -0.00000000000E+00 -0.45593999997E+02  0.45594000000E+02  0.51100000000E-03 0.  1.
         23    2    1    2    0    0  0.00000000000E+00  0.00000000000E+00  0.35527136788E-14  0.91188000000E+02  0.91188000000E+02 0.  0.
    9900012    2    3    3    0    0 -0.24058544375E+02  0.10258965424E+02 -0.25917551220E+02  0.54367090312E+02  0.40000013985E+02 0.  0.
         12    1    3    3    0    0  0.24058544375E+02 -0.10258965424E+02  0.25917551220E+02  0.36820909688E+02  0.00000000000E+00 0. -1.
         11    1    4    4    0    0 -0.50455852232E+01 -0.78052220869E+01 -0.21904366156E+02  0.23794551456E+02  0.51100000000E-03 0. -1.
        -11    1    4    4    0    0 -0.11862478138E+02  0.16301735147E+02 -0.85759161603E+01  0.21909160062E+02  0.51100000000E-03 0.  1.
        -12    1    4    4    0    0 -0.71504810140E+01  0.17624523641E+01  0.45627310962E+01  0.86633787937E+01  0.00000000000E+00 0.  1.
</event>
<event>
 8    1  0.1210161E-006  0.9118800E+02  0.7816164E-02  0.1184000E+00
        -11   -1    0    0    0    0  0.00000000000E+00  0.00000000000E+00  0.45593999997E+02  0.45594000000E+02  0.51100000000E-03 0.  1.
         11   -1    0    0    0    0 -0.00000000000E+00 -0.00000000000E+00 -0.45593999997E+02  0.45594000000E+02  0.51100000000E-03 0. -1.
         23    2    1    2    0    0  0.00000000000E+00  0.00000000000E+00  0.35527136788E-14  0.91188000000E+02  0.91188000000E+02 0.  0.
    9900012    2    3    3    0    0  0.10676073739E+02  0.30031619980E+02 -0.18436455246E+02  0.54367087041E+02  0.40000006526E+02 0.  0.
        -12    1    3    3    0    0 -0.10676073739E+02 -0.30031619980E+02  0.18436455246E+02  0.36820912959E+02  0.00000000000E+00 0.  1.
         11    1    4    4    0    0  0.12576056770E+02  0.15580198942E+02  0.38134836048E+01  0.20382405658E+02  0.51100000000E-03 0. -1.
        -11    1    4    4    0    0  0.36484514396E+01  0.92770536879E+01  0.52181853416E+00  0.99823453095E+01  0.51100000000E-03 0.  1.
        -12    1    4    4    0    0 -0.55484344703E+01  0.51743673505E+01 -0.22771757385E+02  0.24002336073E+02  0.00000000000E+00 0.  1.
</event>
<event>
 8    1  0.1210161E-006  0.9118800E+02  0.7816164E-02  0.1184000E+00
        -11   -1    0    0    0    0  0.00000000000E+00  0.00000000000E+00  0.45593999997E+02  0.45594000000E+02  0.51100000000E-03 0.  1.
         11   -1    0    0    0    0 -0.00000000000E+00 -0.00000000000E+00 -0.45593999997E+02  0.45594000000E+02  0.51100000000E-03 0. -1.
         23    2    1    2    0    0  0.17763568394E-14  0.44408920985E-15 -0.71054273576E-14  0.91188000000E+02  0.91188000000E+02 0.  0.
    9900012    2    3    3    0    0 -0.11095663089E+02  0.21595866989E+00  0.35108686926E+02  0.54367078295E+02  0.39999986590E+02 0.  0.
         12    1    3    3    0    0  0.11095663089E+02 -0.21595866989E+00 -0.35108686926E+02  0.36820921705E+02  0.00000000000E+00 0. -1.
         11    1    4    4    0    0 -0.13364660556E+02  0.27887114704E+01 -0.33569990026E+00  0.13656637878E+02  0.51100000000E-03 0. -1.
        -11    1    4    4    0    0 -0.30747249734E+01  0.63159675415E+01  0.52076026840E+01  0.87443985284E+01  0.51100000000E-03 0.  1.
        -12    1    4    4    0    0  0.53437224405E+01 -0.88887203420E+01  0.30236784142E+02  0.31966041890E+02  0.00000000000E+00 0.  1.
</event>
<event>
 8    1  0.1210161E-006  0.9118800E+02  0.7816164E-02  0.1184000E+00
        -11   -1    0    0    0    0  0.00000000000E+00  0.00000000000E+00  0.45593999997E+02  0.45594000000E+02  0.51100000000E-03 0.  1.
         11   -1    0    0    0    0 -0.00000000000E+00 -0.00000000000E+00 -0.45593999997E+02  0.45594000000E+02  0.51100000000E-03 0. -1.
         23    2    1    2    0    0  0.00000000000E+00  0.35527136788E-14  0.00000000000E+00  0.91188000000E+02  0.91188000000E+02 0.  0.
    9900012    2    3    3    0    0 -0.13651489280E+02 -0.31555951500E+02  0.13177197683E+02  0.54367085109E+02  0.40000002123E+02 0.  0.
         12    1    3    3    0    0  0.13651489280E+02  0.31555951500E+02 -0.13177197683E+02  0.36820914891E+02  0.00000000000E+00 0. -1.
         11    1    4    4    0    0 -0.39738167817E+01 -0.39747626098E+01  0.14367407064E+02  0.15427648675E+02  0.51100000000E-03 0.  1.
        -11    1    4    4    0    0  0.16343230340E+01 -0.25296738309E+02  0.50087130703E+01  0.25839566322E+02  0.51100000000E-03 0. -1.
         12    1    4    4    0    0 -0.11311995532E+02 -0.22844505812E+01 -0.61989224519E+01  0.13099870112E+02  0.00000000000E+00 0. -1.
</event>
<event>
 8    1  0.1210161E-006  0.9118800E+02  0.7816164E-02  0.1184000E+00
        -11   -1    0    0    0    0  0.00000000000E+00  0.00000000000E+00  0.45593999997E+02  0.45594000000E+02  0.51100000000E-03 0. -1.
         11   -1    0    0    0    0 -0.00000000000E+00 -0.00000000000E+00 -0.45593999997E+02  0.45594000000E+02  0.51100000000E-03 0.  1.
         23    2    1    2    0    0  0.44408920985E-15  0.00000000000E+00  0.00000000000E+00  0.91188000000E+02  0.91188000000E+02 0.  0.
    9900012    2    3    3    0    0 -0.30641805804E+01 -0.29398507442E+02  0.21957180879E+02  0.54367092425E+02  0.40000018802E+02 0.  0.
         12    1    3    3    0    0  0.30641805804E+01  0.29398507442E+02 -0.21957180879E+02  0.36820907575E+02  0.00000000000E+00 0. -1.
         11    1    4    4    0    0 -0.14454026373E+02 -0.45387809345E+00  0.10796506405E+02  0.18046867721E+02  0.51100000000E-03 0. -1.
        -11    1    4    4    0    0  0.21168918645E+01 -0.21828858592E+02  0.11213117590E+02  0.24631571304E+02  0.51100000000E-03 0.  1.
        -12    1    4    4    0    0  0.92729539282E+01 -0.71157707574E+01 -0.52443115491E-01  0.11688653400E+02  0.00000000000E+00 0.  1.
</event>
<event>
 8    1  0.1210161E-006  0.9118800E+02  0.7816164E-02  0.1184000E+00
        -11   -1    0    0    0    0  0.00000000000E+00  0.00000000000E+00  0.45593999997E+02  0.45594000000E+02  0.51100000000E-03 0.  1.
         11   -1    0    0    0    0 -0.00000000000E+00 -0.00000000000E+00 -0.45593999997E+02  0.45594000000E+02  0.51100000000E-03 0. -1.
         23    2    1    2    0    0  0.00000000000E+00  0.00000000000E+00 -0.71054273576E-14  0.91188000000E+02  0.91188000000E+02 0.  0.
    9900012    2    3    3    0    0 -0.31954236699E+01 -0.54559460567E+01  0.36273978316E+02  0.54367087700E+02  0.40000008029E+02 0.  0.
         12    1    3    3    0    0  0.31954236699E+01  0.54559460567E+01 -0.36273978316E+02  0.36820912300E+02  0.00000000000E+00 0. -1.
         11    1    4    4    0    0  0.48353933109E+01  0.78495752201E+01 -0.12401444959E+01  0.93024092706E+01  0.51100000000E-03 0. -1.
        -11    1    4    4    0    0 -0.99683732273E+00 -0.84217373183E+00  0.27655812427E+02  0.27686583439E+02  0.51100000000E-03 0.  1.
         12    1    4    4    0    0 -0.70339796580E+01 -0.12463347545E+02  0.98583103841E+01  0.17378094990E+02  0.00000000000E+00 0. -1.
</event>
<event>
 8    1  0.1210161E-006  0.9118800E+02  0.7816164E-02  0.1184000E+00
        -11   -1    0    0    0    0  0.00000000000E+00  0.00000000000E+00  0.45593999997E+02  0.45594000000E+02  0.51100000000E-03 0.  1.
         11   -1    0    0    0    0 -0.00000000000E+00 -0.00000000000E+00 -0.45593999997E+02  0.45594000000E+02  0.51100000000E-03 0. -1.
         23    2    1    2    0    0  0.00000000000E+00 -0.88817841970E-15  0.35527136788E-14  0.91188000000E+02  0.91188000000E+02 0.  0.
    9900012    2    3    3    0    0  0.27705446552E+02  0.68111350559E+01  0.23276480320E+02  0.54367111017E+02  0.40000061185E+02 0.  0.
         12    1    3    3    0    0 -0.27705446552E+02 -0.68111350559E+01 -0.23276480320E+02  0.36820888983E+02  0.00000000000E+00 0. -1.
         11    1    4    4    0    0  0.13694180599E+02  0.55350757072E+01  0.36197672053E+01  0.15207575752E+02  0.51100000000E-03 0.  1.
        -11    1    4    4    0    0  0.17628462978E+02  0.12755238640E+02  0.11405540638E+02  0.24567156474E+02  0.51100000000E-03 0. -1.
         12    1    4    4    0    0 -0.36171970248E+01 -0.11479179291E+02  0.82511724768E+01  0.14592378790E+02  0.00000000000E+00 0. -1.
</event>
<event>
 8    1  0.1210161E-006  0.9118800E+02  0.7816164E-02  0.1184000E+00
        -11   -1    0    0    0    0  0.00000000000E+00  0.00000000000E+00  0.45593999997E+02  0.45594000000E+02  0.51100000000E-03 0.  1.
         11   -1    0    0    0    0 -0.00000000000E+00 -0.00000000000E+00 -0.45593999997E+02  0.45594000000E+02  0.51100000000E-03 0. -1.
         23    2    1    2    0    0 -0.11102230246E-15  0.00000000000E+00  0.00000000000E+00  0.91188000000E+02  0.91188000000E+02 0.  0.
    9900012    2    3    3    0    0  0.30142974641E+00 -0.63190759297E+01  0.36273456125E+02  0.54367011423E+02  0.39999834142E+02 0.  0.
         12    1    3    3    0    0 -0.30142974641E+00  0.63190759297E+01 -0.36273456125E+02  0.36820988577E+02  0.00000000000E+00 0. -1.
         11    1    4    4    0    0 -0.39535051801E+00 -0.12704282720E+02  0.83110232436E+01  0.15186448205E+02  0.51100000000E-03 0. -1.
        -11    1    4    4    0    0  0.10167957536E+01  0.11607607605E+01  0.32327959329E+02  0.32364767785E+02  0.51100000000E-03 0.  1.
         12    1    4    4    0    0 -0.32001548920E+00  0.52244460299E+01 -0.43655264472E+01  0.68157954336E+01  0.00000000000E+00 0. -1.
</event>
<event>
 8    1  0.1210161E-006  0.9118800E+02  0.7816164E-02  0.1184000E+00
        -11   -1    0    0    0    0  0.00000000000E+00  0.00000000000E+00  0.45593999997E+02  0.45594000000E+02  0.51100000000E-03 0. -1.
         11   -1    0    0    0    0 -0.00000000000E+00 -0.00000000000E+00 -0.45593999997E+02  0.45594000000E+02  0.51100000000E-03 0.  1.
         23    2    1    2    0    0 -0.88817841970E-15  0.00000000000E+00  0.00000000000E+00  0.91188000000E+02  0.91188000000E+02 0.  0.
    9900012    2    3    3    0    0 -0.47432142779E+01 -0.44540947414E+01 -0.36241435335E+02  0.54367100001E+02  0.40000036071E+02 0.  0.
         12    1    3    3    0    0  0.47432142779E+01  0.44540947414E+01  0.36241435335E+02  0.36820899999E+02  0.00000000000E+00 0. -1.
         11    1    4    4    0    0  0.43898040647E+01  0.10237834316E+02 -0.46263656911E+01  0.12061794683E+02  0.51100000000E-03 0. -1.
        -11    1    4    4    0    0 -0.16041275554E+02 -0.67611401660E+01 -0.17305316660E+02  0.24546069394E+02  0.51100000000E-03 0.  1.
        -12    1    4    4    0    0  0.69082572109E+01 -0.79307888915E+01 -0.14309752984E+02  0.17759235924E+02  0.00000000000E+00 0.  1.
</event>
<event>
 8    1  0.1210161E-006  0.9118800E+02  0.7816164E-02  0.1184000E+00
        -11   -1    0    0    0    0  0.00000000000E+00  0.00000000000E+00  0.45593999997E+02  0.45594000000E+02  0.51100000000E-03 0. -1.
         11   -1    0    0    0    0 -0.00000000000E+00 -0.00000000000E+00 -0.45593999997E+02  0.45594000000E+02  0.51100000000E-03 0.  1.
         23    2    1    2    0    0  0.00000000000E+00  0.35527136788E-14  0.00000000000E+00  0.91188000000E+02  0.91188000000E+02 0.  0.
    9900012    2    3    3    0    0  0.16146115524E+02  0.26164701831E+02 -0.20260634738E+02  0.54367055031E+02  0.39999933553E+02 0.  0.
        -12    1    3    3    0    0 -0.16146115524E+02 -0.26164701831E+02  0.20260634738E+02  0.36820944969E+02  0.00000000000E+00 0.  1.
         11    1    4    4    0    0  0.16564436732E+02  0.26239444642E+02 -0.35732875874E+01  0.31235515104E+02  0.51100000000E-03 0. -1.
        -11    1    4    4    0    0 -0.80172099670E+01  0.17353220919E+01 -0.88183783732E+01  0.12043703575E+02  0.51100000000E-03 0.  1.
         12    1    4    4    0    0  0.75988887590E+01 -0.18100649030E+01 -0.78689687775E+01  0.11087836351E+02  0.00000000000E+00 0. -1.
</event>
<event>
 8    1  0.1210161E-006  0.9118800E+02  0.7816164E-02  0.1184000E+00
        -11   -1    0    0    0    0  0.00000000000E+00  0.00000000000E+00  0.45593999997E+02  0.45594000000E+02  0.51100000000E-03 0.  1.
         11   -1    0    0    0    0 -0.00000000000E+00 -0.00000000000E+00 -0.45593999997E+02  0.45594000000E+02  0.51100000000E-03 0. -1.
         23    2    1    2    0    0  0.00000000000E+00 -0.17763568394E-14  0.00000000000E+00  0.91188000000E+02  0.91188000000E+02 0.  0.
    9900012    2    3    3    0    0  0.32264534675E+02 -0.10875783365E+02 -0.14017808230E+02  0.54367057465E+02  0.39999939102E+02 0.  0.
        -12    1    3    3    0    0 -0.32264534675E+02  0.10875783365E+02  0.14017808230E+02  0.36820942535E+02  0.00000000000E+00 0.  1.
         11    1    4    4    0    0  0.65445949542E+01 -0.15395332850E+02 -0.78125203255E+01  0.18463029837E+02  0.51100000000E-03 0. -1.
        -11    1    4    4    0    0  0.18616946937E+00  0.62100367761E+01  0.49938321061E+01  0.79710460541E+01  0.51100000000E-03 0.  1.
        -12    1    4    4    0    0  0.25533770252E+02 -0.16904872908E+01 -0.11199120011E+02  0.27932981573E+02  0.00000000000E+00 0.  1.
</event>
<event>
 8    1  0.1210161E-006  0.9118800E+02  0.7816164E-02  0.1184000E+00
        -11   -1    0    0    0    0  0.00000000000E+00  0.00000000000E+00  0.45593999997E+02  0.45594000000E+02  0.51100000000E-03 0. -1.
         11   -1    0    0    0    0 -0.00000000000E+00 -0.00000000000E+00 -0.45593999997E+02  0.45594000000E+02  0.51100000000E-03 0.  1.
         23    2    1    2    0    0  0.00000000000E+00  0.00000000000E+00  0.00000000000E+00  0.91188000000E+02  0.91188000000E+02 0.  0.
    9900012    2    3    3    0    0  0.22132833094E+02  0.16689218078E+02 -0.24236082085E+02  0.54367082363E+02  0.39999995863E+02 0.  0.
         12    1    3    3    0    0 -0.22132833094E+02 -0.16689218078E+02  0.24236082085E+02  0.36820917637E+02  0.00000000000E+00 0. -1.
         11    1    4    4    0    0 -0.66301650975E+00  0.16006015499E+01  0.43983948364E+01  0.47273029955E+01  0.51100000000E-03 0. -1.
        -11    1    4    4    0    0 -0.13846023163E+01  0.10446129485E+02 -0.21598804475E+02  0.24032209632E+02  0.51100000000E-03 0.  1.
         12    1    4    4    0    0  0.24180451920E+02  0.46424870429E+01 -0.70356724459E+01  0.25607569735E+02  0.00000000000E+00 0. -1.
</event>
<event>
 8    1  0.1210161E-006  0.9118800E+02  0.7816164E-02  0.1184000E+00
        -11   -1    0    0    0    0  0.00000000000E+00  0.00000000000E+00  0.45593999997E+02  0.45594000000E+02  0.51100000000E-03 0.  1.
         11   -1    0    0    0    0 -0.00000000000E+00 -0.00000000000E+00 -0.45593999997E+02  0.45594000000E+02  0.51100000000E-03 0. -1.
         23    2    1    2    0    0  0.00000000000E+00 -0.88817841970E-15  0.00000000000E+00  0.91188000000E+02  0.91188000000E+02 0.  0.
    9900012    2    3    3    0    0 -0.34827930245E+02 -0.64414127405E+01 -0.10065153551E+02  0.54367029898E+02  0.39999876258E+02 0.  0.
        -12    1    3    3    0    0  0.34827930245E+02  0.64414127405E+01  0.10065153551E+02  0.36820970102E+02  0.00000000000E+00 0.  1.
         11    1    4    4    0    0 -0.15107398038E+02  0.83097370956E+01  0.82844375317E+01  0.19128960023E+02  0.51100000000E-03 0. -1.
        -11    1    4    4    0    0 -0.69486663567E+01 -0.53964679630E+01  0.24181147332E+01  0.91243142064E+01  0.51100000000E-03 0.  1.
         12    1    4    4    0    0 -0.12771865851E+02 -0.93546818732E+01 -0.20767705816E+02  0.26113755668E+02  0.00000000000E+00 0. -1.
</event>
<event>
 8    1  0.1210161E-006  0.9118800E+02  0.7816164E-02  0.1184000E+00
        -11   -1    0    0    0    0  0.00000000000E+00  0.00000000000E+00  0.45593999997E+02  0.45594000000E+02  0.51100000000E-03 0.  1.
         11   -1    0    0    0    0 -0.00000000000E+00 -0.00000000000E+00 -0.45593999997E+02  0.45594000000E+02  0.51100000000E-03 0. -1.
         23    2    1    2    0    0  0.00000000000E+00  0.00000000000E+00  0.17763568394E-14  0.91188000000E+02  0.91188000000E+02 0.  0.
    9900012    2    3    3    0    0  0.18277820306E+02 -0.30563825209E+02  0.93569343420E+01  0.54367104481E+02  0.40000046285E+02 0.  0.
         12    1    3    3    0    0 -0.18277820306E+02  0.30563825209E+02 -0.93569343420E+01  0.36820895519E+02  0.00000000000E+00 0. -1.
         11    1    4    4    0    0  0.96785283104E+00  0.11382575714E+01  0.63766799993E+01  0.65493829844E+01  0.51100000000E-03 0. -1.
        -11    1    4    4    0    0  0.56049405964E+01 -0.28665194497E+02  0.13136290559E+02  0.32026096618E+02  0.51100000000E-03 0.  1.
        -12    1    4    4    0    0  0.11705026878E+02 -0.30368882838E+01 -0.10156036217E+02  0.15791624879E+02  0.00000000000E+00 0.  1.
</event>
<event>
 8    1  0.1210161E-006  0.9118800E+02  0.7816164E-02  0.1184000E+00
        -11   -1    0    0    0    0  0.00000000000E+00  0.00000000000E+00  0.45593999997E+02  0.45594000000E+02  0.51100000000E-03 0.  1.
         11   -1    0    0    0    0 -0.00000000000E+00 -0.00000000000E+00 -0.45593999997E+02  0.45594000000E+02  0.51100000000E-03 0. -1.
         23    2    1    2    0    0 -0.17763568394E-14 -0.35527136788E-14  0.35527136788E-14  0.91188000000E+02  0.91188000000E+02 0.  0.
    9900012    2    3    3    0    0  0.14641252356E+02  0.18272330281E+02 -0.28417175900E+02  0.54367079172E+02  0.39999988589E+02 0.  0.
        -12    1    3    3    0    0 -0.14641252356E+02 -0.18272330281E+02  0.28417175900E+02  0.36820920828E+02  0.00000000000E+00 0.  1.
         11    1    4    4    0    0  0.27566155147E+01  0.63146943138E+01 -0.17627030842E+02  0.18925815965E+02  0.51100000000E-03 0. -1.
        -11    1    4    4    0    0  0.17115318244E+02  0.48920696898E+01 -0.17050246311E+02  0.24649084444E+02  0.51100000000E-03 0.  1.
         12    1    4    4    0    0 -0.52306814023E+01  0.70655662771E+01  0.62601012527E+01  0.10792178762E+02  0.00000000000E+00 0. -1.
</event>
<event>
 8    1  0.1210161E-006  0.9118800E+02  0.7816164E-02  0.1184000E+00
        -11   -1    0    0    0    0  0.00000000000E+00  0.00000000000E+00  0.45593999997E+02  0.45594000000E+02  0.51100000000E-03 0.  1.
         11   -1    0    0    0    0 -0.00000000000E+00 -0.00000000000E+00 -0.45593999997E+02  0.45594000000E+02  0.51100000000E-03 0. -1.
         23    2    1    2    0    0  0.00000000000E+00  0.00000000000E+00  0.17763568394E-14  0.91188000000E+02  0.91188000000E+02 0.  0.
    9900012    2    3    3    0    0 -0.23915208950E+02  0.24946542393E+02 -0.12708764662E+02  0.54367083448E+02  0.39999998337E+02 0.  0.
         12    1    3    3    0    0  0.23915208950E+02 -0.24946542393E+02  0.12708764662E+02  0.36820916552E+02  0.00000000000E+00 0. -1.
         11    1    4    4    0    0  0.25565263349E+01  0.11681131372E+02  0.56166592009E+01  0.13211037729E+02  0.51100000000E-03 0. -1.
        -11    1    4    4    0    0 -0.13733030417E+02 -0.75191431035E+00  0.13811208081E+01  0.13822770870E+02  0.51100000000E-03 0.  1.
         12    1    4    4    0    0 -0.12738704868E+02  0.14017325331E+02 -0.19706544671E+02  0.27333274849E+02  0.00000000000E+00 0. -1.
</event>
<event>
 8    1  0.1210161E-006  0.9118800E+02  0.7816164E-02  0.1184000E+00
        -11   -1    0    0    0    0  0.00000000000E+00  0.00000000000E+00  0.45593999997E+02  0.45594000000E+02  0.51100000000E-03 0.  1.
         11   -1    0    0    0    0 -0.00000000000E+00 -0.00000000000E+00 -0.45593999997E+02  0.45594000000E+02  0.51100000000E-03 0. -1.
         23    2    1    2    0    0  0.35527136788E-14  0.17763568394E-14 -0.35527136788E-14  0.91188000000E+02  0.91188000000E+02 0.  0.
    9900012    2    3    3    0    0 -0.27264767723E+02 -0.15040180930E+02  0.19652037955E+02  0.54367120092E+02  0.40000081874E+02 0.  0.
         12    1    3    3    0    0  0.27264767723E+02  0.15040180930E+02 -0.19652037955E+02  0.36820879908E+02  0.00000000000E+00 0. -1.
         11    1    4    4    0    0 -0.59674322751E+01  0.67080901446E+01 -0.22644409821E+01  0.92593960154E+01  0.51100000000E-03 0. -1.
        -11    1    4    4    0    0  0.12334784118E+01  0.44778013664E+01  0.41804267530E+01  0.62488512679E+01  0.51100000000E-03 0.  1.
        -12    1    4    4    0    0 -0.22530813860E+02 -0.26226072441E+02  0.17736052184E+02  0.38858872809E+02  0.00000000000E+00 0.  1.
</event>
<event>
 8    1  0.1210161E-006  0.9118800E+02  0.7816164E-02  0.1184000E+00
        -11   -1    0    0    0    0  0.00000000000E+00  0.00000000000E+00  0.45593999997E+02  0.45594000000E+02  0.51100000000E-03 0.  1.
         11   -1    0    0    0    0 -0.00000000000E+00 -0.00000000000E+00 -0.45593999997E+02  0.45594000000E+02  0.51100000000E-03 0. -1.
         23    2    1    2    0    0 -0.17763568394E-14 -0.35527136788E-14  0.00000000000E+00  0.91188000000E+02  0.91188000000E+02 0.  0.
    9900012    2    3    3    0    0 -0.15663239027E+02  0.25492640308E+02 -0.21460838763E+02  0.54367090626E+02  0.40000014700E+02 0.  0.
        -12    1    3    3    0    0  0.15663239027E+02 -0.25492640308E+02  0.21460838763E+02  0.36820909374E+02  0.00000000000E+00 0.  1.
         11    1    4    4    0    0 -0.53303041077E+01  0.18435578540E+02 -0.68633822703E+01  0.20381087175E+02  0.51100000000E-03 0. -1.
        -11    1    4    4    0    0  0.29736276497E+01  0.14897059177E+02 -0.62121402635E+01  0.16412054120E+02  0.51100000000E-03 0.  1.
         12    1    4    4    0    0 -0.13306562569E+02 -0.78399974096E+01 -0.83853162294E+01  0.17573949330E+02  0.00000000000E+00 0. -1.
</event>
<event>
 8    1  0.1210161E-006  0.9118800E+02  0.7816164E-02  0.1184000E+00
        -11   -1    0    0    0    0  0.00000000000E+00  0.00000000000E+00  0.45593999997E+02  0.45594000000E+02  0.51100000000E-03 0.  1.
         11   -1    0    0    0    0 -0.00000000000E+00 -0.00000000000E+00 -0.45593999997E+02  0.45594000000E+02  0.51100000000E-03 0. -1.
         23    2    1    2    0    0  0.00000000000E+00 -0.17763568394E-14  0.00000000000E+00  0.91188000000E+02  0.91188000000E+02 0.  0.
    9900012    2    3    3    0    0 -0.31523658156E+02  0.13489756819E+02  0.13418836284E+02  0.54367085701E+02  0.40000003473E+02 0.  0.
        -12    1    3    3    0    0  0.31523658156E+02 -0.13489756819E+02 -0.13418836284E+02  0.36820914299E+02  0.00000000000E+00 0.  1.
         11    1    4    4    0    0 -0.32760454175E+02  0.21761311205E+02  0.16790726255E+02  0.42763658771E+02  0.51100000000E-03 0. -1.
        -11    1    4    4    0    0  0.11028215611E+01 -0.81527728926E+01 -0.23762987458E-03  0.82270238575E+01  0.51100000000E-03 0.  1.
         12    1    4    4    0    0  0.13397445745E+00 -0.11878149304E+00 -0.33716523409E+01  0.33764030722E+01  0.00000000000E+00 0. -1.
</event>
<event>
 8    1  0.1210161E-006  0.9118800E+02  0.7816164E-02  0.1184000E+00
        -11   -1    0    0    0    0  0.00000000000E+00  0.00000000000E+00  0.45593999997E+02  0.45594000000E+02  0.51100000000E-03 0.  1.
         11   -1    0    0    0    0 -0.00000000000E+00 -0.00000000000E+00 -0.45593999997E+02  0.45594000000E+02  0.51100000000E-03 0. -1.
         23    2    1    2    0    0  0.17763568394E-14  0.00000000000E+00  0.00000000000E+00  0.91188000000E+02  0.91188000000E+02 0.  0.
    9900012    2    3    3    0    0 -0.98814774109E+01  0.46393263549E+01 -0.35165504941E+02  0.54367086342E+02  0.40000004934E+02 0.  0.
        -12    1    3    3    0    0  0.98814774109E+01 -0.46393263549E+01  0.35165504941E+02  0.36820913658E+02  0.00000000000E+00 0.  1.
         11    1    4    4    0    0  0.21207218406E+01  0.10407194218E+02 -0.13016661449E+02  0.16800018695E+02  0.51100000000E-03 0. -1.
        -11    1    4    4    0    0  0.77561276695E+01  0.17906103538E+01 -0.16896690206E+01  0.81374924593E+01  0.51100000000E-03 0.  1.
         12    1    4    4    0    0 -0.19758326921E+02 -0.75584782170E+01 -0.20459174471E+02  0.29429575187E+02  0.00000000000E+00 0. -1.
</event>
<event>
 8    1  0.1210161E-006  0.9118800E+02  0.7816164E-02  0.1184000E+00
        -11   -1    0    0    0    0  0.00000000000E+00  0.00000000000E+00  0.45593999997E+02  0.45594000000E+02  0.51100000000E-03 0.  1.
         11   -1    0    0    0    0 -0.00000000000E+00 -0.00000000000E+00 -0.45593999997E+02  0.45594000000E+02  0.51100000000E-03 0. -1.
         23    2    1    2    0    0  0.35527136788E-14 -0.71054273576E-14 -0.17763568394E-14  0.91188000000E+02  0.91188000000E+02 0.  0.
    9900012    2    3    3    0    0  0.21772080185E+02 -0.26023470595E+02  0.14301560218E+02  0.54367093954E+02  0.40000022287E+02 0.  0.
         12    1    3    3    0    0 -0.21772080185E+02  0.26023470595E+02 -0.14301560218E+02  0.36820906046E+02  0.00000000000E+00 0. -1.
         11    1    4    4    0    0  0.81686171215E+01 -0.80160666615E+01  0.20227614416E+02  0.23240912538E+02  0.51100000000E-03 0. -1.
        -11    1    4    4    0    0  0.88296427807E+01 -0.98443100951E+01  0.71156341620E+01  0.15016833310E+02  0.51100000000E-03 0.  1.
         12    1    4    4    0    0  0.47738202828E+01 -0.81630938381E+01 -0.13041688360E+02  0.16109348106E+02  0.00000000000E+00 0. -1.
</event>
<event>
 8    1  0.1210161E-006  0.9118800E+02  0.7816164E-02  0.1184000E+00
        -11   -1    0    0    0    0  0.00000000000E+00  0.00000000000E+00  0.45593999997E+02  0.45594000000E+02  0.51100000000E-03 0.  1.
         11   -1    0    0    0    0 -0.00000000000E+00 -0.00000000000E+00 -0.45593999997E+02  0.45594000000E+02  0.51100000000E-03 0. -1.
         23    2    1    2    0    0 -0.35527136788E-14 -0.35527136788E-14 -0.17763568394E-14  0.91188000000E+02  0.91188000000E+02 0.  0.
    9900012    2    3    3    0    0  0.20742403807E+02  0.29278318627E+02  0.82651945712E+01  0.54367072546E+02  0.39999973482E+02 0.  0.
         12    1    3    3    0    0 -0.20742403807E+02 -0.29278318627E+02 -0.82651945712E+01  0.36820927454E+02  0.00000000000E+00 0. -1.
         11    1    4    4    0    0 -0.10392748449E+01  0.29585079887E+00 -0.14250439667E+01  0.17883988555E+01  0.51100000000E-03 0. -1.
        -11    1    4    4    0    0  0.28959135244E+02  0.14394218253E+02 -0.22340520059E+01  0.32416292537E+02  0.51100000000E-03 0.  1.
        -12    1    4    4    0    0 -0.71774565922E+01  0.14588249575E+02  0.11924290544E+02  0.20162381153E+02  0.00000000000E+00 0.  1.
</event>
<event>
 8    1  0.1210161E-006  0.9118800E+02  0.7816164E-02  0.1184000E+00
        -11   -1    0    0    0    0  0.00000000000E+00  0.00000000000E+00  0.45593999997E+02  0.45594000000E+02  0.51100000000E-03 0.  1.
         11   -1    0    0    0    0 -0.00000000000E+00 -0.00000000000E+00 -0.45593999997E+02  0.45594000000E+02  0.51100000000E-03 0. -1.
         23    2    1    2    0    0 -0.17763568394E-14  0.35527136788E-14  0.00000000000E+00  0.91188000000E+02  0.91188000000E+02 0.  0.
    9900012    2    3    3    0    0 -0.12721287477E+02 -0.31881265935E+02 -0.13324132765E+02  0.54367098509E+02  0.40000032670E+02 0.  0.
        -12    1    3    3    0    0  0.12721287477E+02  0.31881265935E+02  0.13324132765E+02  0.36820901491E+02  0.00000000000E+00 0.  1.
         11    1    4    4    0    0 -0.10954168821E+02 -0.88368003826E+01  0.81820364131E+00  0.14097954214E+02  0.51100000000E-03 0. -1.
        -11    1    4    4    0    0 -0.10151678409E+02 -0.94510681259E+01  0.55282159763E+01  0.14931190019E+02  0.51100000000E-03 0.  1.
        -12    1    4    4    0    0  0.83845597526E+01 -0.13593397427E+02 -0.19670552383E+02  0.25337954276E+02  0.00000000000E+00 0.  1.
</event>
<event>
 8    1  0.1210161E-006  0.9118800E+02  0.7816164E-02  0.1184000E+00
        -11   -1    0    0    0    0  0.00000000000E+00  0.00000000000E+00  0.45593999997E+02  0.45594000000E+02  0.51100000000E-03 0. -1.
         11   -1    0    0    0    0 -0.00000000000E+00 -0.00000000000E+00 -0.45593999997E+02  0.45594000000E+02  0.51100000000E-03 0.  1.
         23    2    1    2    0    0 -0.88817841970E-15  0.88817841970E-15  0.00000000000E+00  0.91188000000E+02  0.91188000000E+02 0.  0.
    9900012    2    3    3    0    0 -0.73924954667E+01  0.64663598594E+01  0.35486857144E+02  0.54367084353E+02  0.40000000401E+02 0.  0.
        -12    1    3    3    0    0  0.73924954667E+01 -0.64663598594E+01 -0.35486857144E+02  0.36820915647E+02  0.00000000000E+00 0.  1.
         11    1    4    4    0    0 -0.13845972333E+02  0.13222595060E+02  0.22072474020E+02  0.29218865132E+02  0.51100000000E-03 0. -1.
        -11    1    4    4    0    0  0.97815512539E+01 -0.10633128373E+02  0.13857882484E+02  0.20019567207E+02  0.51100000000E-03 0.  1.
         12    1    4    4    0    0 -0.33280743875E+01  0.38768931724E+01 -0.44349936042E+00  0.51286520141E+01  0.00000000000E+00 0. -1.
</event>
<event>
 8    1  0.1210161E-006  0.9118800E+02  0.7816164E-02  0.1184000E+00
        -11   -1    0    0    0    0  0.00000000000E+00  0.00000000000E+00  0.45593999997E+02  0.45594000000E+02  0.51100000000E-03 0. -1.
         11   -1    0    0    0    0 -0.00000000000E+00 -0.00000000000E+00 -0.45593999997E+02  0.45594000000E+02  0.51100000000E-03 0.  1.
         23    2    1    2    0    0 -0.35527136788E-14  0.35527136788E-14  0.00000000000E+00  0.91188000000E+02  0.91188000000E+02 0.  0.
    9900012    2    3    3    0    0 -0.31610964853E+02 -0.18104599531E+02  0.53619606853E+01  0.54367078698E+02  0.39999987508E+02 0.  0.
         12    1    3    3    0    0  0.31610964853E+02  0.18104599531E+02 -0.53619606853E+01  0.36820921302E+02  0.00000000000E+00 0. -1.
         11    1    4    4    0    0 -0.27557478766E+01  0.94932422122E+00 -0.53802197085E+01  0.61189972389E+01  0.51100000000E-03 0. -1.
        -11    1    4    4    0    0 -0.22642657368E+02 -0.21443106245E+02  0.19850609668E+02  0.36966788372E+02  0.51100000000E-03 0.  1.
        -12    1    4    4    0    0 -0.62125596088E+01  0.23891824924E+01 -0.91084292741E+01  0.11281293087E+02  0.00000000000E+00 0.  1.
</event>
<event>
 8    1  0.1210161E-006  0.9118800E+02  0.7816164E-02  0.1184000E+00
        -11   -1    0    0    0    0  0.00000000000E+00  0.00000000000E+00  0.45593999997E+02  0.45594000000E+02  0.51100000000E-03 0. -1.
         11   -1    0    0    0    0 -0.00000000000E+00 -0.00000000000E+00 -0.45593999997E+02  0.45594000000E+02  0.51100000000E-03 0.  1.
         23    2    1    2    0    0  0.00000000000E+00  0.35527136788E-14  0.17763568394E-14  0.91188000000E+02  0.91188000000E+02 0.  0.
    9900012    2    3    3    0    0 -0.16553603865E+02 -0.30552826596E+02 -0.12177144857E+02  0.54367083786E+02  0.39999999108E+02 0.  0.
        -12    1    3    3    0    0  0.16553603865E+02  0.30552826596E+02  0.12177144857E+02  0.36820916214E+02  0.00000000000E+00 0.  1.
         11    1    4    4    0    0 -0.32640627636E+01  0.31985176590E+00 -0.39774039455E+01  0.51552064249E+01  0.51100000000E-03 0. -1.
        -11    1    4    4    0    0 -0.14234325475E+02 -0.52574187705E+01  0.96443872094E+01  0.17979729663E+02  0.51100000000E-03 0.  1.
        -12    1    4    4    0    0  0.94478437307E+00 -0.25615259592E+02 -0.17844128121E+02  0.31232147699E+02  0.00000000000E+00 0.  1.
</event>
<event>
 8    1  0.1210161E-006  0.9118800E+02  0.7816164E-02  0.1184000E+00
        -11   -1    0    0    0    0  0.00000000000E+00  0.00000000000E+00  0.45593999997E+02  0.45594000000E+02  0.51100000000E-03 0.  1.
         11   -1    0    0    0    0 -0.00000000000E+00 -0.00000000000E+00 -0.45593999997E+02  0.45594000000E+02  0.51100000000E-03 0. -1.
         23    2    1    2    0    0  0.00000000000E+00  0.00000000000E+00  0.00000000000E+00  0.91188000000E+02  0.91188000000E+02 0.  0.
    9900012    2    3    3    0    0  0.10904112153E+02 -0.26664547859E+02 -0.22932110734E+02  0.54367089133E+02  0.40000011295E+02 0.  0.
        -12    1    3    3    0    0 -0.10904112153E+02  0.26664547859E+02  0.22932110734E+02  0.36820910867E+02  0.00000000000E+00 0.  1.
         11    1    4    4    0    0  0.27946075014E+01 -0.80728048071E+01 -0.89999092681E+01  0.12408802345E+02  0.51100000000E-03 0. -1.
        -11    1    4    4    0    0  0.10072371519E+02 -0.28062526875E+02 -0.11722072954E+02  0.32036933019E+02  0.51100000000E-03 0.  1.
         12    1    4    4    0    0 -0.19628668676E+01  0.94707838232E+01 -0.22101285119E+01  0.99213537687E+01  0.00000000000E+00 0. -1.
</event>
<event>
 8    1  0.1210161E-006  0.9118800E+02  0.7816164E-02  0.1184000E+00
        -11   -1    0    0    0    0  0.00000000000E+00  0.00000000000E+00  0.45593999997E+02  0.45594000000E+02  0.51100000000E-03 0.  1.
         11   -1    0    0    0    0 -0.00000000000E+00 -0.00000000000E+00 -0.45593999997E+02  0.45594000000E+02  0.51100000000E-03 0. -1.
         23    2    1    2    0    0  0.17763568394E-14  0.00000000000E+00  0.71054273576E-14  0.91188000000E+02  0.91188000000E+02 0.  0.
    9900012    2    3    3    0    0  0.13242018084E+02 -0.81954608104E+01  0.33365591336E+02  0.54367091456E+02  0.40000016592E+02 0.  0.
         12    1    3    3    0    0 -0.13242018084E+02  0.81954608104E+01 -0.33365591336E+02  0.36820908544E+02  0.00000000000E+00 0. -1.
         11    1    4    4    0    0 -0.10344635743E+01 -0.96761511689E+01  0.24277737668E+02  0.26155430848E+02  0.51100000000E-03 0. -1.
        -11    1    4    4    0    0 -0.12797067795E+01 -0.72967562805E+01 -0.13407460446E+01  0.75284727452E+01  0.51100000000E-03 0.  1.
         12    1    4    4    0    0  0.15556188437E+02  0.87774466389E+01  0.10428599713E+02  0.20683187863E+02  0.00000000000E+00 0. -1.
</event>
<event>
 8    1  0.1210161E-006  0.9118800E+02  0.7816164E-02  0.1184000E+00
        -11   -1    0    0    0    0  0.00000000000E+00  0.00000000000E+00  0.45593999997E+02  0.45594000000E+02  0.51100000000E-03 0.  1.
         11   -1    0    0    0    0 -0.00000000000E+00 -0.00000000000E+00 -0.45593999997E+02  0.45594000000E+02  0.51100000000E-03 0. -1.
         23    2    1    2    0    0  0.00000000000E+00  0.00000000000E+00  0.00000000000E+00  0.91188000000E+02  0.91188000000E+02 0.  0.
    9900012    2    3    3    0    0 -0.25202095406E+02 -0.24803083123E+02  0.10268454529E+02  0.54367086057E+02  0.40000004283E+02 0.  0.
        -12    1    3    3    0    0  0.25202095406E+02  0.24803083123E+02 -0.10268454529E+02  0.36820913943E+02  0.00000000000E+00 0.  1.
         11    1    4    4    0    0 -0.12333086188E+02 -0.12645681938E+02  0.42842708583E+01  0.18176172965E+02  0.51100000000E-03 0. -1.
        -11    1    4    4    0    0 -0.15115834477E+02 -0.17496576684E+02 -0.51061269789E+01  0.23678918484E+02  0.51100000000E-03 0.  1.
        -12    1    4    4    0    0  0.22468252592E+01  0.53391754997E+01  0.11090310649E+02  0.12511994608E+02  0.00000000000E+00 0.  1.
</event>
<event>
 8    1  0.1210161E-006  0.9118800E+02  0.7816164E-02  0.1184000E+00
        -11   -1    0    0    0    0  0.00000000000E+00  0.00000000000E+00  0.45593999997E+02  0.45594000000E+02  0.51100000000E-03 0.  1.
         11   -1    0    0    0    0 -0.00000000000E+00 -0.00000000000E+00 -0.45593999997E+02  0.45594000000E+02  0.51100000000E-03 0. -1.
         23    2    1    2    0    0  0.71054273576E-14 -0.22204460493E-14  0.00000000000E+00  0.91188000000E+02  0.91188000000E+02 0.  0.
    9900012    2    3    3    0    0 -0.32334987283E+02  0.33587385050E+01  0.17290131234E+02  0.54367066212E+02  0.39999959044E+02 0.  0.
         12    1    3    3    0    0  0.32334987283E+02 -0.33587385050E+01 -0.17290131234E+02  0.36820933788E+02  0.00000000000E+00 0. -1.
         11    1    4    4    0    0 -0.13800153370E+01 -0.23776531274E+01 -0.51592578163E+01  0.58459916354E+01  0.51100000000E-03 0. -1.
        -11    1    4    4    0    0 -0.12517335618E+02  0.17181393425E+02  0.98633685671E+01  0.23434376687E+02  0.51100000000E-03 0.  1.
        -12    1    4    4    0    0 -0.18437636328E+02 -0.11445001792E+02  0.12586020483E+02  0.25086697889E+02  0.00000000000E+00 0.  1.
</event>
<event>
 8    1  0.1210161E-006  0.9118800E+02  0.7816164E-02  0.1184000E+00
        -11   -1    0    0    0    0  0.00000000000E+00  0.00000000000E+00  0.45593999997E+02  0.45594000000E+02  0.51100000000E-03 0.  1.
         11   -1    0    0    0    0 -0.00000000000E+00 -0.00000000000E+00 -0.45593999997E+02  0.45594000000E+02  0.51100000000E-03 0. -1.
         23    2    1    2    0    0 -0.35527136788E-14  0.35527136788E-14  0.35527136788E-14  0.91188000000E+02  0.91188000000E+02 0.  0.
    9900012    2    3    3    0    0 -0.23245121467E+02  0.12283649840E+02  0.25779005499E+02  0.54367070491E+02  0.39999968798E+02 0.  0.
        -12    1    3    3    0    0  0.23245121467E+02 -0.12283649840E+02 -0.25779005499E+02  0.36820929509E+02  0.00000000000E+00 0.  1.
         11    1    4    4    0    0 -0.13342900849E+02  0.28786494542E+01  0.12042592673E+02  0.18202847697E+02  0.51100000000E-03 0. -1.
        -11    1    4    4    0    0 -0.10404348591E+02 -0.62796464306E+01 -0.37025753448E+01  0.12704073888E+02  0.51100000000E-03 0.  1.
        -12    1    4    4    0    0  0.50212797352E+00  0.15684646817E+02  0.17438988171E+02  0.23460148906E+02  0.00000000000E+00 0.  1.
</event>
<event>
 8    1  0.1210161E-006  0.9118800E+02  0.7816164E-02  0.1184000E+00
        -11   -1    0    0    0    0  0.00000000000E+00  0.00000000000E+00  0.45593999997E+02  0.45594000000E+02  0.51100000000E-03 0. -1.
         11   -1    0    0    0    0 -0.00000000000E+00 -0.00000000000E+00 -0.45593999997E+02  0.45594000000E+02  0.51100000000E-03 0.  1.
         23    2    1    2    0    0 -0.27755575616E-16  0.00000000000E+00  0.00000000000E+00  0.91188000000E+02  0.91188000000E+02 0.  0.
    9900012    2    3    3    0    0  0.94380703801E-01 -0.35589513250E+02  0.94425370227E+01  0.54367029528E+02  0.39999875414E+02 0.  0.
        -12    1    3    3    0    0 -0.94380703801E-01  0.35589513250E+02 -0.94425370227E+01  0.36820970472E+02  0.00000000000E+00 0.  1.
         11    1    4    4    0    0  0.43279163459E+01 -0.22008325786E+02 -0.54854630088E+01  0.23090854651E+02  0.51100000000E-03 0. -1.
        -11    1    4    4    0    0 -0.95219009910E+01 -0.11103820361E+02  0.19130125119E+02  0.24081592813E+02  0.51100000000E-03 0.  1.
        -12    1    4    4    0    0  0.52883653490E+01 -0.24773671026E+01 -0.42021250872E+01  0.71945820639E+01  0.00000000000E+00 0.  1.
</event>
<event>
 8    1  0.1210161E-006  0.9118800E+02  0.7816164E-02  0.1184000E+00
        -11   -1    0    0    0    0  0.00000000000E+00  0.00000000000E+00  0.45593999997E+02  0.45594000000E+02  0.51100000000E-03 0. -1.
         11   -1    0    0    0    0 -0.00000000000E+00 -0.00000000000E+00 -0.45593999997E+02  0.45594000000E+02  0.51100000000E-03 0.  1.
         23    2    1    2    0    0  0.00000000000E+00  0.00000000000E+00  0.17763568394E-14  0.91188000000E+02  0.91188000000E+02 0.  0.
    9900012    2    3    3    0    0 -0.21472337376E+02  0.29096931945E+02 -0.69345653407E+01  0.54367069574E+02  0.39999966708E+02 0.  0.
         12    1    3    3    0    0  0.21472337376E+02 -0.29096931945E+02  0.69345653407E+01  0.36820930426E+02  0.00000000000E+00 0. -1.
         11    1    4    4    0    0  0.51374371957E+01  0.14996690452E+02 -0.12007813938E+02  0.19886718716E+02  0.51100000000E-03 0. -1.
        -11    1    4    4    0    0 -0.47668953372E+01 -0.35384844692E+01 -0.72604362638E-01  0.59371234743E+01  0.51100000000E-03 0.  1.
         12    1    4    4    0    0 -0.21842879234E+02  0.17638725962E+02  0.51458529601E+01  0.28543227384E+02  0.00000000000E+00 0. -1.
</event>
<event>
 8    1  0.1210161E-006  0.9118800E+02  0.7816164E-02  0.1184000E+00
        -11   -1    0    0    0    0  0.00000000000E+00  0.00000000000E+00  0.45593999997E+02  0.45594000000E+02  0.51100000000E-03 0.  1.
         11   -1    0    0    0    0 -0.00000000000E+00 -0.00000000000E+00 -0.45593999997E+02  0.45594000000E+02  0.51100000000E-03 0. -1.
         23    2    1    2    0    0  0.17763568394E-14  0.17763568394E-14  0.00000000000E+00  0.91188000000E+02  0.91188000000E+02 0.  0.
    9900012    2    3    3    0    0 -0.11869991202E+02 -0.89439220937E+01 -0.33688111721E+02  0.54367091471E+02  0.40000016626E+02 0.  0.
        -12    1    3    3    0    0  0.11869991202E+02  0.89439220937E+01  0.33688111721E+02  0.36820908529E+02  0.00000000000E+00 0.  1.
         11    1    4    4    0    0 -0.10241632782E+02 -0.15090068398E+02 -0.19020087108E+02  0.26350804924E+02  0.51100000000E-03 0. -1.
        -11    1    4    4    0    0  0.23803286436E+01 -0.24838440053E+01  0.50568421056E+01  0.61161342232E+01  0.51100000000E-03 0.  1.
         12    1    4    4    0    0 -0.40086870640E+01  0.86299903098E+01 -0.19724866719E+02  0.21900152324E+02  0.00000000000E+00 0. -1.
</event>
<event>
 8    1  0.1210161E-006  0.9118800E+02  0.7816164E-02  0.1184000E+00
        -11   -1    0    0    0    0  0.00000000000E+00  0.00000000000E+00  0.45593999997E+02  0.45594000000E+02  0.51100000000E-03 0.  1.
         11   -1    0    0    0    0 -0.00000000000E+00 -0.00000000000E+00 -0.45593999997E+02  0.45594000000E+02  0.51100000000E-03 0. -1.
         23    2    1    2    0    0  0.44408920985E-15  0.00000000000E+00  0.00000000000E+00  0.91188000000E+02  0.91188000000E+02 0.  0.
    9900012    2    3    3    0    0  0.10968286553E+01  0.20175407414E+02 -0.30781964162E+02  0.54367089975E+02  0.40000013215E+02 0.  0.
        -12    1    3    3    0    0 -0.10968286553E+01 -0.20175407414E+02  0.30781964162E+02  0.36820910025E+02  0.00000000000E+00 0.  1.
         11    1    4    4    0    0 -0.12377946388E+02  0.70744624069E+01 -0.26963938614E+02  0.30501074751E+02  0.51100000000E-03 0. -1.
        -11    1    4    4    0    0  0.12820727681E+01  0.11125567645E+02 -0.15098135240E+01  0.11300508977E+02  0.51100000000E-03 0.  1.
         12    1    4    4    0    0  0.12192702275E+02  0.19753773628E+01 -0.23082120236E+01  0.12565506247E+02  0.00000000000E+00 0. -1.
</event>
<event>
 8    1  0.1210161E-006  0.9118800E+02  0.7816164E-02  0.1184000E+00
        -11   -1    0    0    0    0  0.00000000000E+00  0.00000000000E+00  0.45593999997E+02  0.45594000000E+02  0.51100000000E-03 0.  1.
         11   -1    0    0    0    0 -0.00000000000E+00 -0.00000000000E+00 -0.45593999997E+02  0.45594000000E+02  0.51100000000E-03 0. -1.
         23    2    1    2    0    0  0.71054273576E-14  0.88817841970E-15 -0.88817841970E-15  0.91188000000E+02  0.91188000000E+02 0.  0.
    9900012    2    3    3    0    0 -0.35963519848E+02 -0.66724160169E+01  0.42290826632E+01  0.54367067970E+02  0.39999963051E+02 0.  0.
        -12    1    3    3    0    0  0.35963519848E+02  0.66724160169E+01 -0.42290826632E+01  0.36820932030E+02  0.00000000000E+00 0.  1.
         11    1    4    4    0    0 -0.78679237975E+01 -0.16529686132E+02 -0.59877479930E+01  0.19261045527E+02  0.51100000000E-03 0.  1.
        -11    1    4    4    0    0 -0.18246990602E+02  0.98965323262E+01 -0.21568588243E+00  0.20759107369E+02  0.51100000000E-03 0. -1.
        -12    1    4    4    0    0 -0.98486054492E+01 -0.39262211178E-01  0.10432516539E+02  0.14346915074E+02  0.00000000000E+00 0.  1.
</event>
<event>
 8    1  0.1210161E-006  0.9118800E+02  0.7816164E-02  0.1184000E+00
        -11   -1    0    0    0    0  0.00000000000E+00  0.00000000000E+00  0.45593999997E+02  0.45594000000E+02  0.51100000000E-03 0.  1.
         11   -1    0    0    0    0 -0.00000000000E+00 -0.00000000000E+00 -0.45593999997E+02  0.45594000000E+02  0.51100000000E-03 0. -1.
         23    2    1    2    0    0 -0.17763568394E-14 -0.35527136788E-14  0.17763568394E-14  0.91188000000E+02  0.91188000000E+02 0.  0.
    9900012    2    3    3    0    0  0.14226551974E+02  0.30085449833E+02 -0.15756006299E+02  0.54367071070E+02  0.39999970119E+02 0.  0.
        -12    1    3    3    0    0 -0.14226551974E+02 -0.30085449833E+02  0.15756006299E+02  0.36820928930E+02  0.00000000000E+00 0.  1.
         11    1    4    4    0    0  0.13416635170E+02  0.79665531997E+01  0.33450363215E+01  0.15958111963E+02  0.51100000000E-03 0. -1.
        -11    1    4    4    0    0  0.33309032149E+01  0.56798857413E+01  0.55911786231E+01  0.86381304063E+01  0.51100000000E-03 0.  1.
         12    1    4    4    0    0 -0.25209864102E+01  0.16439010892E+02 -0.24692221244E+02  0.29770828701E+02  0.00000000000E+00 0. -1.
</event>
<event>
 8    1  0.1210161E-006  0.9118800E+02  0.7816164E-02  0.1184000E+00
        -11   -1    0    0    0    0  0.00000000000E+00  0.00000000000E+00  0.45593999997E+02  0.45594000000E+02  0.51100000000E-03 0. -1.
         11   -1    0    0    0    0 -0.00000000000E+00 -0.00000000000E+00 -0.45593999997E+02  0.45594000000E+02  0.51100000000E-03 0.  1.
         23    2    1    2    0    0 -0.35527136788E-14 -0.17763568394E-14  0.00000000000E+00  0.91188000000E+02  0.91188000000E+02 0.  0.
    9900012    2    3    3    0    0  0.29197668054E+02 -0.85511104539E+01  0.20740021782E+02  0.54367166043E+02  0.40000186628E+02 0.  0.
        -12    1    3    3    0    0 -0.29197668054E+02  0.85511104539E+01 -0.20740021782E+02  0.36820833957E+02  0.00000000000E+00 0.  1.
         11    1    4    4    0    0  0.24511135358E+02  0.81427158035E+01  0.18750122048E+02  0.31916557682E+02  0.51100000000E-03 0. -1.
        -11    1    4    4    0    0  0.34293630721E+00 -0.62532808129E+01 -0.59460058763E+01  0.86357461969E+01  0.51100000000E-03 0.  1.
         12    1    4    4    0    0  0.43435963886E+01 -0.10440545445E+02  0.79359056101E+01  0.13814862164E+02  0.00000000000E+00 0. -1.
</event>
<event>
 8    1  0.1210161E-006  0.9118800E+02  0.7816164E-02  0.1184000E+00
        -11   -1    0    0    0    0  0.00000000000E+00  0.00000000000E+00  0.45593999997E+02  0.45594000000E+02  0.51100000000E-03 0.  1.
         11   -1    0    0    0    0 -0.00000000000E+00 -0.00000000000E+00 -0.45593999997E+02  0.45594000000E+02  0.51100000000E-03 0. -1.
         23    2    1    2    0    0 -0.17763568394E-14  0.00000000000E+00 -0.13322676296E-14  0.91188000000E+02  0.91188000000E+02 0.  0.
    9900012    2    3    3    0    0 -0.83545976218E+01 -0.35748901588E+02  0.28276277508E+01  0.54367099076E+02  0.40000033963E+02 0.  0.
        -12    1    3    3    0    0  0.83545976218E+01  0.35748901588E+02 -0.28276277508E+01  0.36820900924E+02  0.00000000000E+00 0.  1.
         11    1    4    4    0    0  0.29641832841E+01  0.81134012151E+00 -0.14537455548E+01  0.33997105367E+01  0.51100000000E-03 0. -1.
        -11    1    4    4    0    0 -0.21435353074E+02 -0.15594382004E+02 -0.27491446262E+01  0.26649895083E+02  0.51100000000E-03 0.  1.
        -12    1    4    4    0    0  0.10116572168E+02 -0.20965859705E+02  0.70305179319E+01  0.24317493456E+02  0.00000000000E+00 0.  1.
</event>
<event>
 8    1  0.1210161E-006  0.9118800E+02  0.7816164E-02  0.1184000E+00
        -11   -1    0    0    0    0  0.00000000000E+00  0.00000000000E+00  0.45593999997E+02  0.45594000000E+02  0.51100000000E-03 0. -1.
         11   -1    0    0    0    0 -0.00000000000E+00 -0.00000000000E+00 -0.45593999997E+02  0.45594000000E+02  0.51100000000E-03 0.  1.
         23    2    1    2    0    0  0.00000000000E+00  0.00000000000E+00  0.00000000000E+00  0.91188000000E+02  0.91188000000E+02 0.  0.
    9900012    2    3    3    0    0 -0.29352524580E+02  0.20314447524E+02 -0.90295081911E+01  0.54367088882E+02  0.40000010724E+02 0.  0.
         12    1    3    3    0    0  0.29352524580E+02 -0.20314447524E+02  0.90295081911E+01  0.36820911118E+02  0.00000000000E+00 0. -1.
         11    1    4    4    0    0  0.16475529400E+01 -0.36167215169E+01 -0.18678098697E+01  0.43913345570E+01  0.51100000000E-03 0. -1.
        -11    1    4    4    0    0 -0.33087229331E+02  0.28925053316E+02 -0.73581933381E+01  0.44559695506E+02  0.51100000000E-03 0.  1.
        -12    1    4    4    0    0  0.20871518114E+01 -0.49938842751E+01  0.19649501673E+00  0.54160588188E+01  0.00000000000E+00 0.  1.
</event>
<event>
 8    1  0.1210161E-006  0.9118800E+02  0.7816164E-02  0.1184000E+00
        -11   -1    0    0    0    0  0.00000000000E+00  0.00000000000E+00  0.45593999997E+02  0.45594000000E+02  0.51100000000E-03 0. -1.
         11   -1    0    0    0    0 -0.00000000000E+00 -0.00000000000E+00 -0.45593999997E+02  0.45594000000E+02  0.51100000000E-03 0.  1.
         23    2    1    2    0    0  0.00000000000E+00  0.17763568394E-14 -0.35527136788E-14  0.91188000000E+02  0.91188000000E+02 0.  0.
    9900012    2    3    3    0    0  0.21491038729E+02  0.13534795554E+02 -0.26659252366E+02  0.54367201895E+02  0.40000268360E+02 0.  0.
         12    1    3    3    0    0 -0.21491038729E+02 -0.13534795554E+02  0.26659252366E+02  0.36820798105E+02  0.00000000000E+00 0. -1.
         11    1    4    4    0    0  0.83578723537E+01  0.98375691088E+01  0.46119516957E+01  0.13707731211E+02  0.51100000000E-03 0. -1.
        -11    1    4    4    0    0  0.45119129305E+01  0.14030248119E+01  0.27642639863E+01  0.54742115928E+01  0.51100000000E-03 0.  1.
        -12    1    4    4    0    0  0.86212534453E+01  0.22942016333E+01 -0.34035468048E+02  0.35185259091E+02  0.00000000000E+00 0.  1.
</event>
<event>
 8    1  0.1210161E-006  0.9118800E+02  0.7816164E-02  0.1184000E+00
        -11   -1    0    0    0    0  0.00000000000E+00  0.00000000000E+00  0.45593999997E+02  0.45594000000E+02  0.51100000000E-03 0. -1.
         11   -1    0    0    0    0 -0.00000000000E+00 -0.00000000000E+00 -0.45593999997E+02  0.45594000000E+02  0.51100000000E-03 0.  1.
         23    2    1    2    0    0  0.00000000000E+00  0.17763568394E-14  0.00000000000E+00  0.91188000000E+02  0.91188000000E+02 0.  0.
    9900012    2    3    3    0    0  0.31772444310E+02 -0.12900437135E+02  0.13411576014E+02  0.54367083840E+02  0.39999999229E+02 0.  0.
        -12    1    3    3    0    0 -0.31772444310E+02  0.12900437135E+02 -0.13411576014E+02  0.36820916160E+02  0.00000000000E+00 0.  1.
         11    1    4    4    0    0  0.18464295810E+02 -0.66243412988E+01  0.23637989603E+02  0.30717530339E+02  0.51100000000E-03 0. -1.
        -11    1    4    4    0    0  0.66122983629E+01 -0.98065057189E+01 -0.12285263045E+01  0.11891144655E+02  0.51100000000E-03 0.  1.
         12    1    4    4    0    0  0.66958501368E+01  0.35304098826E+01 -0.89978872844E+01  0.11758408845E+02  0.00000000000E+00 0. -1.
</event>
<event>
 8    1  0.1210161E-006  0.9118800E+02  0.7816164E-02  0.1184000E+00
        -11   -1    0    0    0    0  0.00000000000E+00  0.00000000000E+00  0.45593999997E+02  0.45594000000E+02  0.51100000000E-03 0.  1.
         11   -1    0    0    0    0 -0.00000000000E+00 -0.00000000000E+00 -0.45593999997E+02  0.45594000000E+02  0.51100000000E-03 0. -1.
         23    2    1    2    0    0  0.00000000000E+00  0.00000000000E+00  0.00000000000E+00  0.91188000000E+02  0.91188000000E+02 0.  0.
    9900012    2    3    3    0    0  0.30821137044E+02  0.13362018794E+02  0.15076258913E+02  0.54367087223E+02  0.40000006942E+02 0.  0.
         12    1    3    3    0    0 -0.30821137044E+02 -0.13362018794E+02 -0.15076258913E+02  0.36820912777E+02  0.00000000000E+00 0. -1.
         11    1    4    4    0    0  0.10380309244E+02  0.27808726709E+01  0.13888106514E+02  0.17560284042E+02  0.51100000000E-03 0. -1.
        -11    1    4    4    0    0  0.16960654153E+02 -0.73028416166E+01  0.19682236729E+01  0.18570653991E+02  0.51100000000E-03 0.  1.
         12    1    4    4    0    0  0.34801736470E+01  0.17883987740E+02 -0.78007127422E+00  0.18236149190E+02  0.00000000000E+00 0. -1.
</event>
<event>
 8    1  0.1210161E-006  0.9118800E+02  0.7816164E-02  0.1184000E+00
        -11   -1    0    0    0    0  0.00000000000E+00  0.00000000000E+00  0.45593999997E+02  0.45594000000E+02  0.51100000000E-03 0.  1.
         11   -1    0    0    0    0 -0.00000000000E+00 -0.00000000000E+00 -0.45593999997E+02  0.45594000000E+02  0.51100000000E-03 0. -1.
         23    2    1    2    0    0  0.71054273576E-14 -0.17763568394E-14  0.44408920985E-15  0.91188000000E+02  0.91188000000E+02 0.  0.
    9900012    2    3    3    0    0  0.34041431826E+02 -0.13909010015E+02 -0.18706134125E+01  0.54367097853E+02  0.40000031176E+02 0.  0.
         12    1    3    3    0    0 -0.34041431826E+02  0.13909010015E+02  0.18706134125E+01  0.36820902147E+02  0.00000000000E+00 0. -1.
         11    1    4    4    0    0 -0.26301693858E+01 -0.25978120418E+01 -0.31210760672E+01  0.48381333674E+01  0.51100000000E-03 0. -1.
        -11    1    4    4    0    0  0.31570850017E+02 -0.14868369452E+02 -0.10322123497E+02  0.36391389294E+02  0.51100000000E-03 0.  1.
         12    1    4    4    0    0  0.51007511950E+01  0.35571714792E+01  0.11572586152E+02  0.13137575192E+02  0.00000000000E+00 0. -1.
</event>
<event>
 8    1  0.1210161E-006  0.9118800E+02  0.7816164E-02  0.1184000E+00
        -11   -1    0    0    0    0  0.00000000000E+00  0.00000000000E+00  0.45593999997E+02  0.45594000000E+02  0.51100000000E-03 0.  1.
         11   -1    0    0    0    0 -0.00000000000E+00 -0.00000000000E+00 -0.45593999997E+02  0.45594000000E+02  0.51100000000E-03 0. -1.
         23    2    1    2    0    0  0.00000000000E+00 -0.44408920985E-15  0.00000000000E+00  0.91188000000E+02  0.91188000000E+02 0.  0.
    9900012    2    3    3    0    0  0.34078355851E+02  0.38801563581E+01  0.13393812167E+02  0.54367025607E+02  0.39999866476E+02 0.  0.
         12    1    3    3    0    0 -0.34078355851E+02 -0.38801563581E+01 -0.13393812167E+02  0.36820974393E+02  0.00000000000E+00 0. -1.
         11    1    4    4    0    0  0.74323432354E+01  0.70144008517E+01  0.13423340902E+02  0.16870910660E+02  0.51100000000E-03 0. -1.
        -11    1    4    4    0    0  0.58372334581E+01 -0.75173575562E+00  0.11983557641E+02  0.13350807282E+02  0.51100000000E-03 0.  1.
         12    1    4    4    0    0  0.20808779158E+02 -0.23825087380E+01 -0.12013086376E+02  0.24145307664E+02  0.00000000000E+00 0. -1.
</event>
<event>
 8    1  0.1210161E-006  0.9118800E+02  0.7816164E-02  0.1184000E+00
        -11   -1    0    0    0    0  0.00000000000E+00  0.00000000000E+00  0.45593999997E+02  0.45594000000E+02  0.51100000000E-03 0.  1.
         11   -1    0    0    0    0 -0.00000000000E+00 -0.00000000000E+00 -0.45593999997E+02  0.45594000000E+02  0.51100000000E-03 0. -1.
         23    2    1    2    0    0  0.88817841970E-15  0.00000000000E+00  0.17763568394E-14  0.91188000000E+02  0.91188000000E+02 0.  0.
    9900012    2    3    3    0    0  0.42332585687E+01  0.36032949747E+02 -0.62838169502E+01  0.54367077944E+02  0.39999985789E+02 0.  0.
         12    1    3    3    0    0 -0.42332585687E+01 -0.36032949747E+02  0.62838169502E+01  0.36820922056E+02  0.00000000000E+00 0. -1.
         11    1    4    4    0    0  0.10653669283E+02  0.17723068569E+02  0.74836870401E+01  0.21991211896E+02  0.51100000000E-03 0. -1.
        -11    1    4    4    0    0 -0.21934630955E+01  0.61085556865E+01  0.59509226077E+01  0.88056353020E+01  0.51100000000E-03 0.  1.
         12    1    4    4    0    0 -0.42269476186E+01  0.12201325491E+02 -0.19718426598E+02  0.23570230746E+02  0.00000000000E+00 0. -1.
</event>
<event>
 8    1  0.1210161E-006  0.9118800E+02  0.7816164E-02  0.1184000E+00
        -11   -1    0    0    0    0  0.00000000000E+00  0.00000000000E+00  0.45593999997E+02  0.45594000000E+02  0.51100000000E-03 0.  1.
         11   -1    0    0    0    0 -0.00000000000E+00 -0.00000000000E+00 -0.45593999997E+02  0.45594000000E+02  0.51100000000E-03 0. -1.
         23    2    1    2    0    0 -0.88817841970E-15  0.00000000000E+00  0.00000000000E+00  0.91188000000E+02  0.91188000000E+02 0.  0.
    9900012    2    3    3    0    0  0.16812650420E+01  0.27349351531E+02 -0.24596087364E+02  0.54367065806E+02  0.39999958117E+02 0.  0.
        -12    1    3    3    0    0 -0.16812650420E+01 -0.27349351531E+02  0.24596087364E+02  0.36820934194E+02  0.00000000000E+00 0.  1.
         11    1    4    4    0    0  0.49881398257E+01  0.21197837757E+02 -0.23393003891E+02  0.31960326904E+02  0.51100000000E-03 0. -1.
        -11    1    4    4    0    0  0.63813407937E+01  0.12991862697E+01 -0.74535720848E+01  0.98977336988E+01  0.51100000000E-03 0.  1.
        -12    1    4    4    0    0 -0.96882155774E+01  0.48523275039E+01  0.62504886117E+01  0.12509005203E+02  0.00000000000E+00 0.  1.
</event>
<event>
 8    1  0.1210161E-006  0.9118800E+02  0.7816164E-02  0.1184000E+00
        -11   -1    0    0    0    0  0.00000000000E+00  0.00000000000E+00  0.45593999997E+02  0.45594000000E+02  0.51100000000E-03 0.  1.
         11   -1    0    0    0    0 -0.00000000000E+00 -0.00000000000E+00 -0.45593999997E+02  0.45594000000E+02  0.51100000000E-03 0. -1.
         23    2    1    2    0    0 -0.17763568394E-14  0.00000000000E+00 -0.35527136788E-14  0.91188000000E+02  0.91188000000E+02 0.  0.
    9900012    2    3    3    0    0  0.12662299234E+02 -0.14425104638E+02  0.31422325727E+02  0.54367081763E+02  0.39999994496E+02 0.  0.
         12    1    3    3    0    0 -0.12662299234E+02  0.14425104638E+02 -0.31422325727E+02  0.36820918237E+02  0.00000000000E+00 0. -1.
         11    1    4    4    0    0  0.11831781473E+02 -0.14867023228E+02  0.16333119183E+02  0.25055742156E+02  0.51100000000E-03 0. -1.
        -11    1    4    4    0    0  0.35498843646E+01 -0.60733732417E+01 -0.45928901087E+01  0.84013202145E+01  0.51100000000E-03 0.  1.
        -12    1    4    4    0    0 -0.27193666035E+01  0.65152918312E+01  0.19682096653E+02  0.20910019393E+02  0.00000000000E+00 0.  1.
</event>
<event>
 8    1  0.1210161E-006  0.9118800E+02  0.7816164E-02  0.1184000E+00
        -11   -1    0    0    0    0  0.00000000000E+00  0.00000000000E+00  0.45593999997E+02  0.45594000000E+02  0.51100000000E-03 0.  1.
         11   -1    0    0    0    0 -0.00000000000E+00 -0.00000000000E+00 -0.45593999997E+02  0.45594000000E+02  0.51100000000E-03 0. -1.
         23    2    1    2    0    0  0.00000000000E+00  0.00000000000E+00  0.00000000000E+00  0.91188000000E+02  0.91188000000E+02 0.  0.
    9900012    2    3    3    0    0  0.29212696253E+02  0.20853211017E+02 -0.82184776699E+01  0.54367062922E+02  0.39999951544E+02 0.  0.
        -12    1    3    3    0    0 -0.29212696253E+02 -0.20853211017E+02  0.82184776699E+01  0.36820937078E+02  0.00000000000E+00 0.  1.
         11    1    4    4    0    0  0.25257130026E+02  0.80918631514E+00 -0.16651705108E+02  0.30263124143E+02  0.51100000000E-03 0. -1.
        -11    1    4    4    0    0  0.36969406502E+00  0.85434594822E+01 -0.12573331331E+01  0.86433940379E+01  0.51100000000E-03 0.  1.
        -12    1    4    4    0    0  0.35858721624E+01  0.11500565219E+02  0.96905605709E+01  0.15460544742E+02  0.00000000000E+00 0.  1.
</event>
<event>
 8    1  0.1210161E-006  0.9118800E+02  0.7816164E-02  0.1184000E+00
        -11   -1    0    0    0    0  0.00000000000E+00  0.00000000000E+00  0.45593999997E+02  0.45594000000E+02  0.51100000000E-03 0.  1.
         11   -1    0    0    0    0 -0.00000000000E+00 -0.00000000000E+00 -0.45593999997E+02  0.45594000000E+02  0.51100000000E-03 0. -1.
         23    2    1    2    0    0  0.35527136788E-14  0.00000000000E+00 -0.88817841970E-15  0.91188000000E+02  0.91188000000E+02 0.  0.
    9900012    2    3    3    0    0  0.21955722225E+02  0.29006381415E+02  0.56880119320E+01  0.54367117597E+02  0.40000076186E+02 0.  0.
         12    1    3    3    0    0 -0.21955722225E+02 -0.29006381415E+02 -0.56880119320E+01  0.36820882403E+02  0.00000000000E+00 0. -1.
         11    1    4    4    0    0 -0.48363006041E+01  0.14151650822E+01  0.89866392841E+01  0.10303018083E+02  0.51100000000E-03 0.  1.
        -11    1    4    4    0    0  0.17462521933E+02  0.24040141767E+02  0.61231999683E+01  0.30337463087E+02  0.51100000000E-03 0. -1.
         12    1    4    4    0    0  0.93295008953E+01  0.35510745659E+01 -0.94218273203E+01  0.13726636426E+02  0.00000000000E+00 0. -1.
</event>
<event>
 8    1  0.1210161E-006  0.9118800E+02  0.7816164E-02  0.1184000E+00
        -11   -1    0    0    0    0  0.00000000000E+00  0.00000000000E+00  0.45593999997E+02  0.45594000000E+02  0.51100000000E-03 0. -1.
         11   -1    0    0    0    0 -0.00000000000E+00 -0.00000000000E+00 -0.45593999997E+02  0.45594000000E+02  0.51100000000E-03 0.  1.
         23    2    1    2    0    0  0.00000000000E+00  0.00000000000E+00 -0.88817841970E-15  0.91188000000E+02  0.91188000000E+02 0.  0.
    9900012    2    3    3    0    0  0.35573157459E+02 -0.55270182454E+01  0.77320573547E+01  0.54367052521E+02  0.39999927833E+02 0.  0.
         12    1    3    3    0    0 -0.35573157459E+02  0.55270182454E+01 -0.77320573547E+01  0.36820947479E+02  0.00000000000E+00 0. -1.
         11    1    4    4    0    0  0.22360711023E+01  0.11276971536E+02 -0.17839378984E+00  0.11497909618E+02  0.51100000000E-03 0. -1.
        -11    1    4    4    0    0  0.29527001586E+02 -0.99676675046E+01  0.12745544746E+02  0.33669676703E+02  0.51100000000E-03 0.  1.
         12    1    4    4    0    0  0.38100847702E+01 -0.68363222763E+01 -0.48350936017E+01  0.91994661997E+01  0.00000000000E+00 0. -1.
</event>
<event>
 8    1  0.1210161E-006  0.9118800E+02  0.7816164E-02  0.1184000E+00
        -11   -1    0    0    0    0  0.00000000000E+00  0.00000000000E+00  0.45593999997E+02  0.45594000000E+02  0.51100000000E-03 0.  1.
         11   -1    0    0    0    0 -0.00000000000E+00 -0.00000000000E+00 -0.45593999997E+02  0.45594000000E+02  0.51100000000E-03 0. -1.
         23    2    1    2    0    0 -0.35527136788E-14 -0.35527136788E-14 -0.35527136788E-14  0.91188000000E+02  0.91188000000E+02 0.  0.
    9900012    2    3    3    0    0  0.16149184674E+02  0.19146139678E+02  0.26989082588E+02  0.54367062897E+02  0.39999951487E+02 0.  0.
         12    1    3    3    0    0 -0.16149184674E+02 -0.19146139678E+02 -0.26989082588E+02  0.36820937103E+02  0.00000000000E+00 0. -1.
         11    1    4    4    0    0 -0.17137491503E+01 -0.69226017286E+00 -0.70484283230E+01  0.72867346859E+01  0.51100000000E-03 0. -1.
        -11    1    4    4    0    0  0.79929731191E+01  0.53588588926E+01  0.98954184414E+00  0.96738917316E+01  0.51100000000E-03 0.  1.
        -12    1    4    4    0    0  0.98699607053E+01  0.14479540958E+02  0.33047969067E+02  0.37406436480E+02  0.00000000000E+00 0.  1.
</event>
<event>
 8    1  0.1210161E-006  0.9118800E+02  0.7816164E-02  0.1184000E+00
        -11   -1    0    0    0    0  0.00000000000E+00  0.00000000000E+00  0.45593999997E+02  0.45594000000E+02  0.51100000000E-03 0. -1.
         11   -1    0    0    0    0 -0.00000000000E+00 -0.00000000000E+00 -0.45593999997E+02  0.45594000000E+02  0.51100000000E-03 0.  1.
         23    2    1    2    0    0  0.35527136788E-14 -0.17763568394E-14  0.00000000000E+00  0.91188000000E+02  0.91188000000E+02 0.  0.
    9900012    2    3    3    0    0 -0.26588255257E+02  0.13180244747E+02 -0.21797382104E+02  0.54367081546E+02  0.39999994001E+02 0.  0.
         12    1    3    3    0    0  0.26588255257E+02 -0.13180244747E+02  0.21797382104E+02  0.36820918454E+02  0.00000000000E+00 0. -1.
         11    1    4    4    0    0 -0.17088316432E+02 -0.54394578707E+01 -0.10198362059E+02  0.20630192664E+02  0.51100000000E-03 0. -1.
        -11    1    4    4    0    0 -0.78005451494E+01  0.12408453169E+02 -0.18954929439E+02  0.23960541834E+02  0.51100000000E-03 0.  1.
        -12    1    4    4    0    0 -0.16993936755E+01  0.62112494488E+01  0.73559093945E+01  0.97763470479E+01  0.00000000000E+00 0.  1.
</event>
<event>
 8    1  0.1210161E-006  0.9118800E+02  0.7816164E-02  0.1184000E+00
        -11   -1    0    0    0    0  0.00000000000E+00  0.00000000000E+00  0.45593999997E+02  0.45594000000E+02  0.51100000000E-03 0. -1.
         11   -1    0    0    0    0 -0.00000000000E+00 -0.00000000000E+00 -0.45593999997E+02  0.45594000000E+02  0.51100000000E-03 0.  1.
         23    2    1    2    0    0  0.35527136788E-14 -0.71054273576E-14  0.88817841970E-15  0.91188000000E+02  0.91188000000E+02 0.  0.
    9900012    2    3    3    0    0  0.27122915082E+02 -0.24340231020E+02 -0.52612283219E+01  0.54367083497E+02  0.39999998448E+02 0.  0.
        -12    1    3    3    0    0 -0.27122915082E+02  0.24340231020E+02  0.52612283219E+01  0.36820916503E+02  0.00000000000E+00 0.  1.
         11    1    4    4    0    0  0.79270424174E+01 -0.28093284361E+02 -0.43420693806E+00  0.29193478100E+02  0.51100000000E-03 0.  1.
        -11    1    4    4    0    0  0.11418063827E+02  0.14266621268E+01 -0.10250488928E+02  0.15410388376E+02  0.51100000000E-03 0. -1.
        -12    1    4    4    0    0  0.77778088377E+01  0.23263912133E+01  0.54234675443E+01  0.97632170209E+01  0.00000000000E+00 0.  1.
</event>
<event>
 8    1  0.1210161E-006  0.9118800E+02  0.7816164E-02  0.1184000E+00
        -11   -1    0    0    0    0  0.00000000000E+00  0.00000000000E+00  0.45593999997E+02  0.45594000000E+02  0.51100000000E-03 0. -1.
         11   -1    0    0    0    0 -0.00000000000E+00 -0.00000000000E+00 -0.45593999997E+02  0.45594000000E+02  0.51100000000E-03 0.  1.
         23    2    1    2    0    0  0.00000000000E+00  0.00000000000E+00  0.35527136788E-14  0.91188000000E+02  0.91188000000E+02 0.  0.
    9900012    2    3    3    0    0  0.24320603141E+02  0.82637096756E+01  0.26381860843E+02  0.54367038357E+02  0.39999895543E+02 0.  0.
        -12    1    3    3    0    0 -0.24320603141E+02 -0.82637096756E+01 -0.26381860843E+02  0.36820961643E+02  0.00000000000E+00 0.  1.
         11    1    4    4    0    0  0.15014396895E+02 -0.76095678253E+01  0.21659834482E+02  0.27431479483E+02  0.51100000000E-03 0. -1.
        -11    1    4    4    0    0  0.10036441942E+02  0.18944220542E+02  0.22315630743E+00  0.21439763473E+02  0.51100000000E-03 0.  1.
        -12    1    4    4    0    0 -0.73023569504E+00 -0.30709430409E+01  0.44988700537E+01  0.54957954011E+01  0.00000000000E+00 0.  1.
</event>
<event>
 8    1  0.1210161E-006  0.9118800E+02  0.7816164E-02  0.1184000E+00
        -11   -1    0    0    0    0  0.00000000000E+00  0.00000000000E+00  0.45593999997E+02  0.45594000000E+02  0.51100000000E-03 0.  1.
         11   -1    0    0    0    0 -0.00000000000E+00 -0.00000000000E+00 -0.45593999997E+02  0.45594000000E+02  0.51100000000E-03 0. -1.
         23    2    1    2    0    0  0.17763568394E-14  0.00000000000E+00  0.35527136788E-14  0.91188000000E+02  0.91188000000E+02 0.  0.
    9900012    2    3    3    0    0  0.14240657798E+02 -0.14353127602E+02  0.30772902988E+02  0.54367079794E+02  0.39999990007E+02 0.  0.
         12    1    3    3    0    0 -0.14240657798E+02  0.14353127602E+02 -0.30772902988E+02  0.36820920206E+02  0.00000000000E+00 0. -1.
         11    1    4    4    0    0 -0.53302327988E+01 -0.79921148474E+01  0.10185777016E+02  0.14001261911E+02  0.51100000000E-03 0. -1.
        -11    1    4    4    0    0 -0.68665213517E+01  0.89248680238E+00  0.66982062114E+01  0.96338784961E+01  0.51100000000E-03 0.  1.
        -12    1    4    4    0    0  0.26437411949E+02 -0.72534995570E+01  0.13888919761E+02  0.30731939387E+02  0.00000000000E+00 0.  1.
</event>
<event>
 8    1  0.1210161E-006  0.9118800E+02  0.7816164E-02  0.1184000E+00
        -11   -1    0    0    0    0  0.00000000000E+00  0.00000000000E+00  0.45593999997E+02  0.45594000000E+02  0.51100000000E-03 0. -1.
         11   -1    0    0    0    0 -0.00000000000E+00 -0.00000000000E+00 -0.45593999997E+02  0.45594000000E+02  0.51100000000E-03 0.  1.
         23    2    1    2    0    0 -0.35527136788E-14  0.17763568394E-14  0.00000000000E+00  0.91188000000E+02  0.91188000000E+02 0.  0.
    9900012    2    3    3    0    0  0.28987277231E+02 -0.12159726986E+02  0.19174392353E+02  0.54367102079E+02  0.40000040809E+02 0.  0.
        -12    1    3    3    0    0 -0.28987277231E+02  0.12159726986E+02 -0.19174392353E+02  0.36820897921E+02  0.00000000000E+00 0.  1.
         11    1    4    4    0    0  0.15384230960E+02 -0.31978746383E+01  0.65537155750E+01  0.17025044862E+02  0.51100000000E-03 0. -1.
        -11    1    4    4    0    0 -0.26992551658E+01 -0.61373343452E+01 -0.82999532622E+01  0.10669680208E+02  0.51100000000E-03 0.  1.
         12    1    4    4    0    0  0.16302301436E+02 -0.28245180025E+01  0.20920630040E+02  0.26672377009E+02  0.00000000000E+00 0. -1.
</event>
<event>
 8    1  0.1210161E-006  0.9118800E+02  0.7816164E-02  0.1184000E+00
        -11   -1    0    0    0    0  0.00000000000E+00  0.00000000000E+00  0.45593999997E+02  0.45594000000E+02  0.51100000000E-03 0. -1.
         11   -1    0    0    0    0 -0.00000000000E+00 -0.00000000000E+00 -0.45593999997E+02  0.45594000000E+02  0.51100000000E-03 0.  1.
         23    2    1    2    0    0  0.00000000000E+00  0.00000000000E+00  0.00000000000E+00  0.91188000000E+02  0.91188000000E+02 0.  0.
    9900012    2    3    3    0    0 -0.20626231861E+01  0.15136933836E+02  0.33502230072E+02  0.54367073882E+02  0.39999976530E+02 0.  0.
        -12    1    3    3    0    0  0.20626231861E+01 -0.15136933836E+02 -0.33502230072E+02  0.36820926118E+02  0.00000000000E+00 0.  1.
         11    1    4    4    0    0  0.75915211431E+01  0.10333220484E+02  0.17224703965E+02  0.21473170836E+02  0.51100000000E-03 0.  1.
        -11    1    4    4    0    0 -0.30695053326E+01 -0.23415881541E+01  0.21512922355E+02  0.21856594579E+02  0.51100000000E-03 0. -1.
        -12    1    4    4    0    0 -0.65846389966E+01  0.71453015065E+01 -0.52353962478E+01  0.11037308467E+02  0.00000000000E+00 0.  1.
</event>
<event>
 8    1  0.1210161E-006  0.9118800E+02  0.7816164E-02  0.1184000E+00
        -11   -1    0    0    0    0  0.00000000000E+00  0.00000000000E+00  0.45593999997E+02  0.45594000000E+02  0.51100000000E-03 0.  1.
         11   -1    0    0    0    0 -0.00000000000E+00 -0.00000000000E+00 -0.45593999997E+02  0.45594000000E+02  0.51100000000E-03 0. -1.
         23    2    1    2    0    0  0.00000000000E+00 -0.28865798640E-14  0.35527136788E-14  0.91188000000E+02  0.91188000000E+02 0.  0.
    9900012    2    3    3    0    0 -0.19670780071E+02  0.17265258923E+01 -0.31078260175E+02  0.54367099199E+02  0.40000034245E+02 0.  0.
        -12    1    3    3    0    0  0.19670780071E+02 -0.17265258923E+01  0.31078260175E+02  0.36820900801E+02  0.00000000000E+00 0.  1.
         11    1    4    4    0    0 -0.77415382757E+01 -0.93721807646E+01 -0.20843476011E+02  0.24129228741E+02  0.51100000000E-03 0. -1.
        -11    1    4    4    0    0 -0.10373580869E+02  0.11140044306E+02 -0.17276735255E+02  0.23026014604E+02  0.51100000000E-03 0.  1.
         12    1    4    4    0    0 -0.15556609257E+01 -0.41337649400E-01  0.70419510902E+01  0.72118558550E+01  0.00000000000E+00 0. -1.
</event>
<event>
 8    1  0.1210161E-006  0.9118800E+02  0.7816164E-02  0.1184000E+00
        -11   -1    0    0    0    0  0.00000000000E+00  0.00000000000E+00  0.45593999997E+02  0.45594000000E+02  0.51100000000E-03 0. -1.
         11   -1    0    0    0    0 -0.00000000000E+00 -0.00000000000E+00 -0.45593999997E+02  0.45594000000E+02  0.51100000000E-03 0.  1.
         23    2    1    2    0    0 -0.71054273576E-14  0.00000000000E+00  0.88817841970E-15  0.91188000000E+02  0.91188000000E+02 0.  0.
    9900012    2    3    3    0    0  0.34858019526E+02  0.10567532378E+02 -0.53874561278E+01  0.54367096299E+02  0.40000027632E+02 0.  0.
        -12    1    3    3    0    0 -0.34858019526E+02 -0.10567532378E+02  0.53874561278E+01  0.36820903701E+02  0.00000000000E+00 0.  1.
         11    1    4    4    0    0  0.30765463512E+02  0.88129359062E+01  0.55194390484E+01  0.32475310500E+02  0.51100000000E-03 0. -1.
        -11    1    4    4    0    0  0.81934731188E+01 -0.49960383597E+01 -0.10131850578E+02  0.13955206821E+02  0.51100000000E-03 0.  1.
        -12    1    4    4    0    0 -0.41009171048E+01  0.67506348313E+01 -0.77504459858E+00  0.79365789769E+01  0.00000000000E+00 0.  1.
</event>
<event>
 8    1  0.1210161E-006  0.9118800E+02  0.7816164E-02  0.1184000E+00
        -11   -1    0    0    0    0  0.00000000000E+00  0.00000000000E+00  0.45593999997E+02  0.45594000000E+02  0.51100000000E-03 0.  1.
         11   -1    0    0    0    0 -0.00000000000E+00 -0.00000000000E+00 -0.45593999997E+02  0.45594000000E+02  0.51100000000E-03 0. -1.
         23    2    1    2    0    0  0.35527136788E-14  0.00000000000E+00  0.35527136788E-14  0.91188000000E+02  0.91188000000E+02 0.  0.
    9900012    2    3    3    0    0  0.25600898752E+02 -0.17555543948E+02  0.19803488280E+02  0.54367064538E+02  0.39999955227E+02 0.  0.
        -12    1    3    3    0    0 -0.25600898752E+02  0.17555543948E+02 -0.19803488280E+02  0.36820935462E+02  0.00000000000E+00 0.  1.
         11    1    4    4    0    0  0.11105535138E+02 -0.89461931816E+01  0.14949436781E+02  0.20660419731E+02  0.51100000000E-03 0. -1.
        -11    1    4    4    0    0 -0.67743756699E+00  0.68386802575E+01  0.93380070098E+01  0.11594172868E+02  0.51100000000E-03 0.  1.
         12    1    4    4    0    0  0.15172801181E+02 -0.15448031024E+02 -0.44839555108E+01  0.22112471938E+02  0.00000000000E+00 0. -1.
</event>
<event>
 8    1  0.1210161E-006  0.9118800E+02  0.7816164E-02  0.1184000E+00
        -11   -1    0    0    0    0  0.00000000000E+00  0.00000000000E+00  0.45593999997E+02  0.45594000000E+02  0.51100000000E-03 0.  1.
         11   -1    0    0    0    0 -0.00000000000E+00 -0.00000000000E+00 -0.45593999997E+02  0.45594000000E+02  0.51100000000E-03 0. -1.
         23    2    1    2    0    0 -0.17763568394E-14  0.00000000000E+00  0.00000000000E+00  0.91188000000E+02  0.91188000000E+02 0.  0.
    9900012    2    3    3    0    0  0.10955072415E+02  0.31239600802E+02 -0.16120396046E+02  0.54366899547E+02  0.39999579096E+02 0.  0.
        -12    1    3    3    0    0 -0.10955072415E+02 -0.31239600802E+02  0.16120396046E+02  0.36821100453E+02  0.00000000000E+00 0.  1.
         11    1    4    4    0    0 -0.13975544710E+02  0.53071599575E+01 -0.34134856625E+01  0.15334069303E+02  0.51100000000E-03 0. -1.
        -11    1    4    4    0    0  0.13823054555E+02  0.18482732228E+02 -0.50656066122E+01  0.23629401144E+02  0.51100000000E-03 0.  1.
         12    1    4    4    0    0  0.11107562570E+02  0.74497086167E+01 -0.76413037713E+01  0.15403429100E+02  0.00000000000E+00 0. -1.
</event>
<event>
 8    1  0.1210161E-006  0.9118800E+02  0.7816164E-02  0.1184000E+00
        -11   -1    0    0    0    0  0.00000000000E+00  0.00000000000E+00  0.45593999997E+02  0.45594000000E+02  0.51100000000E-03 0. -1.
         11   -1    0    0    0    0 -0.00000000000E+00 -0.00000000000E+00 -0.45593999997E+02  0.45594000000E+02  0.51100000000E-03 0.  1.
         23    2    1    2    0    0  0.00000000000E+00  0.44408920985E-15  0.00000000000E+00  0.91188000000E+02  0.91188000000E+02 0.  0.
    9900012    2    3    3    0    0  0.31776470994E+02 -0.21220347624E+01  0.18480623610E+02  0.54367074029E+02  0.39999976863E+02 0.  0.
        -12    1    3    3    0    0 -0.31776470994E+02  0.21220347624E+01 -0.18480623610E+02  0.36820925971E+02  0.00000000000E+00 0.  1.
         11    1    4    4    0    0  0.22899839461E+02  0.71748739066E+01  0.75050109294E+01  0.25143719936E+02  0.51100000000E-03 0. -1.
        -11    1    4    4    0    0  0.27666644774E+01 -0.16961419825E+02  0.81643189349E+01  0.19026305441E+02  0.51100000000E-03 0.  1.
        -12    1    4    4    0    0  0.61099670562E+01  0.76645111556E+01  0.28112937458E+01  0.10197048652E+02  0.00000000000E+00 0.  1.
</event>
<event>
 8    1  0.1210161E-006  0.9118800E+02  0.7816164E-02  0.1184000E+00
        -11   -1    0    0    0    0  0.00000000000E+00  0.00000000000E+00  0.45593999997E+02  0.45594000000E+02  0.51100000000E-03 0. -1.
         11   -1    0    0    0    0 -0.00000000000E+00 -0.00000000000E+00 -0.45593999997E+02  0.45594000000E+02  0.51100000000E-03 0.  1.
         23    2    1    2    0    0 -0.17763568394E-14 -0.55511151231E-15 -0.71054273576E-14  0.91188000000E+02  0.91188000000E+02 0.  0.
    9900012    2    3    3    0    0 -0.13666206465E+02 -0.93432388915E+00  0.34178101700E+02  0.54367071222E+02  0.39999970464E+02 0.  0.
        -12    1    3    3    0    0  0.13666206465E+02  0.93432388915E+00 -0.34178101700E+02  0.36820928778E+02  0.00000000000E+00 0.  1.
         11    1    4    4    0    0 -0.20882437653E+01  0.58029643059E+00 -0.57151303992E+01  0.61123008525E+01  0.51100000000E-03 0. -1.
        -11    1    4    4    0    0  0.45805537732E+01 -0.78857743162E+01  0.89954350249E+01  0.12809557408E+02  0.51100000000E-03 0.  1.
         12    1    4    4    0    0 -0.16158516473E+02  0.63711539964E+01  0.30897797074E+02  0.35445212962E+02  0.00000000000E+00 0. -1.
</event>
<event>
 8    1  0.1210161E-006  0.9118800E+02  0.7816164E-02  0.1184000E+00
        -11   -1    0    0    0    0  0.00000000000E+00  0.00000000000E+00  0.45593999997E+02  0.45594000000E+02  0.51100000000E-03 0.  1.
         11   -1    0    0    0    0 -0.00000000000E+00 -0.00000000000E+00 -0.45593999997E+02  0.45594000000E+02  0.51100000000E-03 0. -1.
         23    2    1    2    0    0  0.88817841970E-15  0.00000000000E+00  0.00000000000E+00  0.91188000000E+02  0.91188000000E+02 0.  0.
    9900012    2    3    3    0    0 -0.10686261509E+01 -0.26874642156E+02 -0.25147396990E+02  0.54367083007E+02  0.39999997330E+02 0.  0.
        -12    1    3    3    0    0  0.10686261509E+01  0.26874642156E+02  0.25147396990E+02  0.36820916993E+02  0.00000000000E+00 0.  1.
         11    1    4    4    0    0 -0.52915219101E-01 -0.88695478264E+01 -0.83697262823E+01  0.12195244851E+02  0.51100000000E-03 0. -1.
        -11    1    4    4    0    0  0.10815381861E+02 -0.19275223819E+02 -0.20038900642E+02  0.29833945050E+02  0.51100000000E-03 0.  1.
        -12    1    4    4    0    0 -0.11831092793E+02  0.12701294885E+01  0.32612299348E+01  0.12337893106E+02  0.00000000000E+00 0.  1.
</event>
<event>
 8    1  0.1210161E-006  0.9118800E+02  0.7816164E-02  0.1184000E+00
        -11   -1    0    0    0    0  0.00000000000E+00  0.00000000000E+00  0.45593999997E+02  0.45594000000E+02  0.51100000000E-03 0. -1.
         11   -1    0    0    0    0 -0.00000000000E+00 -0.00000000000E+00 -0.45593999997E+02  0.45594000000E+02  0.51100000000E-03 0.  1.
         23    2    1    2    0    0  0.00000000000E+00  0.00000000000E+00  0.00000000000E+00  0.91188000000E+02  0.91188000000E+02 0.  0.
    9900012    2    3    3    0    0 -0.11468281681E+02  0.53960527462E+01  0.34570804349E+02  0.54367090407E+02  0.40000014200E+02 0.  0.
        -12    1    3    3    0    0  0.11468281681E+02 -0.53960527462E+01 -0.34570804349E+02  0.36820909593E+02  0.00000000000E+00 0.  1.
         11    1    4    4    0    0  0.77100621086E+01  0.27224222427E+01  0.21157086864E+02  0.22682128768E+02  0.51100000000E-03 0. -1.
        -11    1    4    4    0    0  0.36969346121E+01 -0.33794508082E+01  0.17663243736E+01  0.53111124395E+01  0.51100000000E-03 0.  1.
         12    1    4    4    0    0 -0.22875278402E+02  0.60530813117E+01  0.11647393111E+02  0.26373849200E+02  0.00000000000E+00 0. -1.
</event>
<event>
 8    1  0.1210161E-006  0.9118800E+02  0.7816164E-02  0.1184000E+00
        -11   -1    0    0    0    0  0.00000000000E+00  0.00000000000E+00  0.45593999997E+02  0.45594000000E+02  0.51100000000E-03 0.  1.
         11   -1    0    0    0    0 -0.00000000000E+00 -0.00000000000E+00 -0.45593999997E+02  0.45594000000E+02  0.51100000000E-03 0. -1.
         23    2    1    2    0    0 -0.17763568394E-14 -0.35527136788E-14  0.00000000000E+00  0.91188000000E+02  0.91188000000E+02 0.  0.
    9900012    2    3    3    0    0  0.13922976267E+02  0.27398078229E+02 -0.20280036743E+02  0.54367029764E+02  0.39999875954E+02 0.  0.
        -12    1    3    3    0    0 -0.13922976267E+02 -0.27398078229E+02  0.20280036743E+02  0.36820970236E+02  0.00000000000E+00 0.  1.
         11    1    4    4    0    0  0.75194856191E+01  0.14686857212E+01 -0.12678592749E+01  0.77657690621E+01  0.51100000000E-03 0. -1.
        -11    1    4    4    0    0 -0.33245525587E+01  0.79381832633E+01  0.86479973427E+01  0.12200625457E+02  0.51100000000E-03 0.  1.
         12    1    4    4    0    0  0.97280432063E+01  0.17991209245E+02 -0.27660174811E+02  0.34400635246E+02  0.00000000000E+00 0. -1.
</event>
<event>
 8    1  0.1210161E-006  0.9118800E+02  0.7816164E-02  0.1184000E+00
        -11   -1    0    0    0    0  0.00000000000E+00  0.00000000000E+00  0.45593999997E+02  0.45594000000E+02  0.51100000000E-03 0.  1.
         11   -1    0    0    0    0 -0.00000000000E+00 -0.00000000000E+00 -0.45593999997E+02  0.45594000000E+02  0.51100000000E-03 0. -1.
         23    2    1    2    0    0  0.71054273576E-14 -0.31086244690E-14 -0.44408920985E-15  0.91188000000E+02  0.91188000000E+02 0.  0.
    9900012    2    3    3    0    0  0.36591981841E+02 -0.26682247665E+01 -0.31129105454E+01  0.54367044410E+02  0.39999909342E+02 0.  0.
        -12    1    3    3    0    0 -0.36591981841E+02  0.26682247665E+01  0.31129105454E+01  0.36820955590E+02  0.00000000000E+00 0.  1.
         11    1    4    4    0    0  0.77259117535E+01  0.64210288974E+01 -0.13389128629E+02  0.16738819858E+02  0.51100000000E-03 0.  1.
        -11    1    4    4    0    0  0.14986700938E+02  0.27839329200E+01  0.11833135434E+02  0.19297009664E+02  0.51100000000E-03 0. -1.
         12    1    4    4    0    0  0.13879369149E+02 -0.11873186584E+02 -0.15569173498E+01  0.18331214888E+02  0.00000000000E+00 0. -1.
</event>
<event>
 8    1  0.1210161E-006  0.9118800E+02  0.7816164E-02  0.1184000E+00
        -11   -1    0    0    0    0  0.00000000000E+00  0.00000000000E+00  0.45593999997E+02  0.45594000000E+02  0.51100000000E-03 0. -1.
         11   -1    0    0    0    0 -0.00000000000E+00 -0.00000000000E+00 -0.45593999997E+02  0.45594000000E+02  0.51100000000E-03 0.  1.
         23    2    1    2    0    0  0.00000000000E+00 -0.35527136788E-14  0.00000000000E+00  0.91188000000E+02  0.91188000000E+02 0.  0.
    9900012    2    3    3    0    0 -0.25013805642E+02 -0.18823700030E+02  0.19384467217E+02  0.54367085770E+02  0.40000003629E+02 0.  0.
        -12    1    3    3    0    0  0.25013805642E+02  0.18823700030E+02 -0.19384467217E+02  0.36820914230E+02  0.00000000000E+00 0.  1.
         11    1    4    4    0    0 -0.16051264313E+02 -0.17262880690E+02  0.14352648206E+02  0.27597982654E+02  0.51100000000E-03 0. -1.
        -11    1    4    4    0    0 -0.16409029350E+02 -0.59249111050E+01  0.17435073367E+01  0.17532844433E+02  0.51100000000E-03 0.  1.
         12    1    4    4    0    0  0.74464880218E+01  0.43640917648E+01  0.32883116736E+01  0.92362586827E+01  0.00000000000E+00 0. -1.
</event>
<event>
 8    1  0.1210161E-006  0.9118800E+02  0.7816164E-02  0.1184000E+00
        -11   -1    0    0    0    0  0.00000000000E+00  0.00000000000E+00  0.45593999997E+02  0.45594000000E+02  0.51100000000E-03 0. -1.
         11   -1    0    0    0    0 -0.00000000000E+00 -0.00000000000E+00 -0.45593999997E+02  0.45594000000E+02  0.51100000000E-03 0.  1.
         23    2    1    2    0    0  0.00000000000E+00 -0.17763568394E-14  0.00000000000E+00  0.91188000000E+02  0.91188000000E+02 0.  0.
    9900012    2    3    3    0    0 -0.14064155893E+02 -0.13582727640E+02 -0.31200751708E+02  0.54367110844E+02  0.40000060791E+02 0.  0.
         12    1    3    3    0    0  0.14064155893E+02  0.13582727640E+02  0.31200751708E+02  0.36820889156E+02  0.00000000000E+00 0. -1.
         11    1    4    4    0    0 -0.88966226454E+01  0.22879446975E+01 -0.13007762483E+02  0.15924398592E+02  0.51100000000E-03 0. -1.
        -11    1    4    4    0    0 -0.12197558397E+02 -0.20019336427E+02 -0.67656982308E+01  0.24399363407E+02  0.51100000000E-03 0.  1.
         12    1    4    4    0    0  0.70300251499E+01  0.41486640895E+01 -0.11427290994E+02  0.14043348846E+02  0.00000000000E+00 0. -1.
</event>
<event>
 8    1  0.1210161E-006  0.9118800E+02  0.7816164E-02  0.1184000E+00
        -11   -1    0    0    0    0  0.00000000000E+00  0.00000000000E+00  0.45593999997E+02  0.45594000000E+02  0.51100000000E-03 0. -1.
         11   -1    0    0    0    0 -0.00000000000E+00 -0.00000000000E+00 -0.45593999997E+02  0.45594000000E+02  0.51100000000E-03 0.  1.
         23    2    1    2    0    0  0.00000000000E+00 -0.17763568394E-14 -0.35527136788E-14  0.91188000000E+02  0.91188000000E+02 0.  0.
    9900012    2    3    3    0    0 -0.26214125370E+02  0.15564558605E+02 -0.20648157200E+02  0.54367051489E+02  0.39999925480E+02 0.  0.
         12    1    3    3    0    0  0.26214125370E+02 -0.15564558605E+02  0.20648157200E+02  0.36820948511E+02  0.00000000000E+00 0. -1.
         11    1    4    4    0    0  0.92028386812E+01  0.10833446513E+02 -0.59231005308E+01  0.15399315676E+02  0.51100000000E-03 0. -1.
        -11    1    4    4    0    0 -0.67502751452E+01 -0.44232788581E+00 -0.43637277046E+01  0.80500924365E+01  0.51100000000E-03 0.  1.
         12    1    4    4    0    0 -0.28666688906E+02  0.51734399780E+01 -0.10361328964E+02  0.30917643376E+02  0.00000000000E+00 0. -1.
</event>
<event>
 8    1  0.1210161E-006  0.9118800E+02  0.7816164E-02  0.1184000E+00
        -11   -1    0    0    0    0  0.00000000000E+00  0.00000000000E+00  0.45593999997E+02  0.45594000000E+02  0.51100000000E-03 0.  1.
         11   -1    0    0    0    0 -0.00000000000E+00 -0.00000000000E+00 -0.45593999997E+02  0.45594000000E+02  0.51100000000E-03 0. -1.
         23    2    1    2    0    0  0.71054273576E-14 -0.35527136788E-14 -0.17763568394E-14  0.91188000000E+02  0.91188000000E+02 0.  0.
    9900012    2    3    3    0    0 -0.31763840495E+02  0.14460731886E+02  0.11735644835E+02  0.54367086250E+02  0.40000004724E+02 0.  0.
         12    1    3    3    0    0  0.31763840495E+02 -0.14460731886E+02 -0.11735644835E+02  0.36820913750E+02  0.00000000000E+00 0. -1.
         11    1    4    4    0    0 -0.60138352970E+00  0.66516041432E+01  0.59908476090E+01  0.89719426638E+01  0.51100000000E-03 0. -1.
        -11    1    4    4    0    0  0.51119734763E+01  0.30258827570E+01  0.64912102129E+01  0.87990936790E+01  0.51100000000E-03 0.  1.
        -12    1    4    4    0    0 -0.36274430442E+02  0.47832449855E+01 -0.74641298681E+00  0.36596049907E+02  0.00000000000E+00 0.  1.
</event>
<event>
 8    1  0.1210161E-006  0.9118800E+02  0.7816164E-02  0.1184000E+00
        -11   -1    0    0    0    0  0.00000000000E+00  0.00000000000E+00  0.45593999997E+02  0.45594000000E+02  0.51100000000E-03 0. -1.
         11   -1    0    0    0    0 -0.00000000000E+00 -0.00000000000E+00 -0.45593999997E+02  0.45594000000E+02  0.51100000000E-03 0.  1.
         23    2    1    2    0    0  0.71054273576E-14 -0.11102230246E-14  0.35527136788E-14  0.91188000000E+02  0.91188000000E+02 0.  0.
    9900012    2    3    3    0    0  0.33807450288E+02 -0.17220952540E+01 -0.14486860919E+02  0.54367103130E+02  0.40000043206E+02 0.  0.
        -12    1    3    3    0    0 -0.33807450288E+02  0.17220952540E+01  0.14486860919E+02  0.36820896870E+02  0.00000000000E+00 0.  1.
         11    1    4    4    0    0 -0.82598153642E+00 -0.35031990997E+01 -0.23122598649E+01  0.42779896417E+01  0.51100000000E-03 0. -1.
        -11    1    4    4    0    0 -0.37864803596E+00  0.10273577990E+02  0.34158181499E+01  0.10833170955E+02  0.51100000000E-03 0.  1.
        -12    1    4    4    0    0  0.35012079860E+02 -0.84924741442E+01 -0.15590419204E+02  0.39255942533E+02  0.00000000000E+00 0.  1.
</event>
<event>
 8    1  0.1210161E-006  0.9118800E+02  0.7816164E-02  0.1184000E+00
        -11   -1    0    0    0    0  0.00000000000E+00  0.00000000000E+00  0.45593999997E+02  0.45594000000E+02  0.51100000000E-03 0. -1.
         11   -1    0    0    0    0 -0.00000000000E+00 -0.00000000000E+00 -0.45593999997E+02  0.45594000000E+02  0.51100000000E-03 0.  1.
         23    2    1    2    0    0  0.26645352591E-14  0.00000000000E+00  0.35527136788E-14  0.91188000000E+02  0.91188000000E+02 0.  0.
    9900012    2    3    3    0    0 -0.37325317550E+01  0.35263646338E+02 -0.99158128143E+01  0.54367083524E+02  0.39999998509E+02 0.  0.
        -12    1    3    3    0    0  0.37325317550E+01 -0.35263646338E+02  0.99158128143E+01  0.36820916476E+02  0.00000000000E+00 0.  1.
         11    1    4    4    0    0  0.86012569449E+01  0.24209767471E+01  0.86126589729E+01  0.12410505400E+02  0.51100000000E-03 0. -1.
        -11    1    4    4    0    0 -0.46112242672E+01  0.23253415620E+02 -0.17758845096E+02  0.29620285391E+02  0.51100000000E-03 0.  1.
         12    1    4    4    0    0 -0.77225644328E+01  0.95892539716E+01 -0.76962669094E+00  0.12336292733E+02  0.00000000000E+00 0. -1.
</event>
<event>
 8    1  0.1210161E-006  0.9118800E+02  0.7816164E-02  0.1184000E+00
        -11   -1    0    0    0    0  0.00000000000E+00  0.00000000000E+00  0.45593999997E+02  0.45594000000E+02  0.51100000000E-03 0. -1.
         11   -1    0    0    0    0 -0.00000000000E+00 -0.00000000000E+00 -0.45593999997E+02  0.45594000000E+02  0.51100000000E-03 0.  1.
         23    2    1    2    0    0 -0.35527136788E-14  0.00000000000E+00  0.00000000000E+00  0.91188000000E+02  0.91188000000E+02 0.  0.
    9900012    2    3    3    0    0 -0.27924110856E+02  0.19464762844E+02  0.14040869187E+02  0.54367096057E+02  0.40000027080E+02 0.  0.
        -12    1    3    3    0    0  0.27924110856E+02 -0.19464762844E+02 -0.14040869187E+02  0.36820903943E+02  0.00000000000E+00 0.  1.
         11    1    4    4    0    0 -0.22941000651E+02  0.23933091483E+02  0.14370455683E+01  0.33183542292E+02  0.51100000000E-03 0.  1.
        -11    1    4    4    0    0 -0.34393481954E+01 -0.71241912872E+01  0.15216989497E+02  0.17150509821E+02  0.51100000000E-03 0. -1.
         12    1    4    4    0    0 -0.15437620095E+01  0.26558626486E+01 -0.26131658779E+01  0.40330439441E+01  0.00000000000E+00 0. -1.
</event>
<event>
 8    1  0.1210161E-006  0.9118800E+02  0.7816164E-02  0.1184000E+00
        -11   -1    0    0    0    0  0.00000000000E+00  0.00000000000E+00  0.45593999997E+02  0.45594000000E+02  0.51100000000E-03 0.  1.
         11   -1    0    0    0    0 -0.00000000000E+00 -0.00000000000E+00 -0.45593999997E+02  0.45594000000E+02  0.51100000000E-03 0. -1.
         23    2    1    2    0    0  0.00000000000E+00  0.00000000000E+00  0.00000000000E+00  0.91188000000E+02  0.91188000000E+02 0.  0.
    9900012    2    3    3    0    0  0.23349325977E+02 -0.20137533776E+02 -0.20126366155E+02  0.54367056167E+02  0.39999936143E+02 0.  0.
        -12    1    3    3    0    0 -0.23349325977E+02  0.20137533776E+02  0.20126366155E+02  0.36820943833E+02  0.00000000000E+00 0.  1.
         11    1    4    4    0    0 -0.10708649354E+01  0.17999264466E+00  0.23814799572E+01  0.26173643441E+01  0.51100000000E-03 0. -1.
        -11    1    4    4    0    0 -0.21963207375E+01  0.75738852189E+01 -0.22637647136E+01  0.82044008332E+01  0.51100000000E-03 0.  1.
         12    1    4    4    0    0  0.26616511650E+02 -0.27891411640E+02 -0.20244081399E+02  0.43545290989E+02  0.00000000000E+00 0. -1.
</event>
<event>
 8    1  0.1210161E-006  0.9118800E+02  0.7816164E-02  0.1184000E+00
        -11   -1    0    0    0    0  0.00000000000E+00  0.00000000000E+00  0.45593999997E+02  0.45594000000E+02  0.51100000000E-03 0.  1.
         11   -1    0    0    0    0 -0.00000000000E+00 -0.00000000000E+00 -0.45593999997E+02  0.45594000000E+02  0.51100000000E-03 0. -1.
         23    2    1    2    0    0 -0.35527136788E-14  0.00000000000E+00  0.00000000000E+00  0.91188000000E+02  0.91188000000E+02 0.  0.
    9900012    2    3    3    0    0 -0.17886763865E+02 -0.29315841818E+02  0.13282450869E+02  0.54367103703E+02  0.40000044511E+02 0.  0.
         12    1    3    3    0    0  0.17886763865E+02  0.29315841818E+02 -0.13282450869E+02  0.36820896297E+02  0.00000000000E+00 0. -1.
         11    1    4    4    0    0  0.48361624973E+01 -0.10917451222E+02 -0.34373785116E+01  0.12425569612E+02  0.51100000000E-03 0. -1.
        -11    1    4    4    0    0 -0.26370899578E+02 -0.83899422974E+01  0.13642406692E+02  0.30853374806E+02  0.51100000000E-03 0.  1.
        -12    1    4    4    0    0  0.36479732158E+01 -0.10008448298E+02  0.30774226887E+01  0.11088159285E+02  0.00000000000E+00 0.  1.
</event>
<event>
 8    1  0.1210161E-006  0.9118800E+02  0.7816164E-02  0.1184000E+00
        -11   -1    0    0    0    0  0.00000000000E+00  0.00000000000E+00  0.45593999997E+02  0.45594000000E+02  0.51100000000E-03 0.  1.
         11   -1    0    0    0    0 -0.00000000000E+00 -0.00000000000E+00 -0.45593999997E+02  0.45594000000E+02  0.51100000000E-03 0. -1.
         23    2    1    2    0    0  0.00000000000E+00  0.00000000000E+00  0.00000000000E+00  0.91188000000E+02  0.91188000000E+02 0.  0.
    9900012    2    3    3    0    0  0.13799474888E+02 -0.85822696962E+01 -0.33040879780E+02  0.54367073926E+02  0.39999976630E+02 0.  0.
        -12    1    3    3    0    0 -0.13799474888E+02  0.85822696962E+01  0.33040879780E+02  0.36820926074E+02  0.00000000000E+00 0.  1.
         11    1    4    4    0    0 -0.52220241118E+01 -0.10344755806E+02  0.41902570772E+01  0.12322408983E+02  0.51100000000E-03 0. -1.
        -11    1    4    4    0    0  0.14725157304E+01  0.11889884191E+00 -0.10943078391E+01  0.18384638747E+01  0.51100000000E-03 0.  1.
        -12    1    4    4    0    0  0.17548983269E+02  0.16435872682E+01 -0.36136829018E+02  0.40206201068E+02  0.00000000000E+00 0.  1.
</event>
<event>
 8    1  0.1210161E-006  0.9118800E+02  0.7816164E-02  0.1184000E+00
        -11   -1    0    0    0    0  0.00000000000E+00  0.00000000000E+00  0.45593999997E+02  0.45594000000E+02  0.51100000000E-03 0.  1.
         11   -1    0    0    0    0 -0.00000000000E+00 -0.00000000000E+00 -0.45593999997E+02  0.45594000000E+02  0.51100000000E-03 0. -1.
         23    2    1    2    0    0  0.00000000000E+00  0.88817841970E-15  0.00000000000E+00  0.91188000000E+02  0.91188000000E+02 0.  0.
    9900012    2    3    3    0    0 -0.32260640805E+02  0.19893135666E+01  0.17637169304E+02  0.54367135606E+02  0.40000117242E+02 0.  0.
         12    1    3    3    0    0  0.32260640805E+02 -0.19893135666E+01 -0.17637169304E+02  0.36820864394E+02  0.00000000000E+00 0. -1.
         11    1    4    4    0    0  0.46585905354E-01  0.18603607864E+01 -0.23097888420E+01  0.29661822698E+01  0.51100000000E-03 0. -1.
        -11    1    4    4    0    0 -0.29505121452E+02 -0.14127613636E+02  0.15550767222E+02  0.36221099105E+02  0.51100000000E-03 0.  1.
         12    1    4    4    0    0 -0.28021052586E+01  0.14256566416E+02  0.43961909242E+01  0.15179854231E+02  0.00000000000E+00 0. -1.
</event>
<event>
 8    1  0.1210161E-006  0.9118800E+02  0.7816164E-02  0.1184000E+00
        -11   -1    0    0    0    0  0.00000000000E+00  0.00000000000E+00  0.45593999997E+02  0.45594000000E+02  0.51100000000E-03 0.  1.
         11   -1    0    0    0    0 -0.00000000000E+00 -0.00000000000E+00 -0.45593999997E+02  0.45594000000E+02  0.51100000000E-03 0. -1.
         23    2    1    2    0    0 -0.35527136788E-14  0.88817841970E-15  0.35527136788E-14  0.91188000000E+02  0.91188000000E+02 0.  0.
    9900012    2    3    3    0    0  0.21345779250E+02 -0.39061322639E+01 -0.29746948125E+02  0.54367067314E+02  0.39999961557E+02 0.  0.
        -12    1    3    3    0    0 -0.21345779250E+02  0.39061322639E+01  0.29746948125E+02  0.36820932686E+02  0.00000000000E+00 0.  1.
         11    1    4    4    0    0  0.10385036603E+02 -0.66350806208E+01  0.14766818246E+01  0.12411843923E+02  0.51100000000E-03 0. -1.
        -11    1    4    4    0    0  0.10107917647E+02  0.83906395925E+01 -0.34287932857E+01  0.13576798429E+02  0.51100000000E-03 0.  1.
         12    1    4    4    0    0  0.85282499933E+00 -0.56616912357E+01 -0.27794836664E+02  0.28378424962E+02  0.00000000000E+00 0. -1.
</event>
<event>
 8    1  0.1210161E-006  0.9118800E+02  0.7816164E-02  0.1184000E+00
        -11   -1    0    0    0    0  0.00000000000E+00  0.00000000000E+00  0.45593999997E+02  0.45594000000E+02  0.51100000000E-03 0. -1.
         11   -1    0    0    0    0 -0.00000000000E+00 -0.00000000000E+00 -0.45593999997E+02  0.45594000000E+02  0.51100000000E-03 0.  1.
         23    2    1    2    0    0  0.88817841970E-15  0.00000000000E+00  0.00000000000E+00  0.91188000000E+02  0.91188000000E+02 0.  0.
    9900012    2    3    3    0    0  0.78553524244E+01 -0.15092944675E+02  0.32653859119E+02  0.54367108429E+02  0.40000055287E+02 0.  0.
         12    1    3    3    0    0 -0.78553524244E+01  0.15092944675E+02 -0.32653859119E+02  0.36820891571E+02  0.00000000000E+00 0. -1.
         11    1    4    4    0    0 -0.18674652040E+01  0.62615148325E+01  0.19705602467E+02  0.20760654207E+02  0.51100000000E-03 0. -1.
        -11    1    4    4    0    0  0.13666237289E+02 -0.11409148852E+02  0.13901348217E+01  0.17856852865E+02  0.51100000000E-03 0.  1.
        -12    1    4    4    0    0 -0.39434196601E+01 -0.99453106558E+01  0.11558121831E+02  0.15749601357E+02  0.00000000000E+00 0.  1.
</event>
<event>
 8    1  0.1210161E-006  0.9118800E+02  0.7816164E-02  0.1184000E+00
        -11   -1    0    0    0    0  0.00000000000E+00  0.00000000000E+00  0.45593999997E+02  0.45594000000E+02  0.51100000000E-03 0.  1.
         11   -1    0    0    0    0 -0.00000000000E+00 -0.00000000000E+00 -0.45593999997E+02  0.45594000000E+02  0.51100000000E-03 0. -1.
         23    2    1    2    0    0  0.00000000000E+00  0.88817841970E-15  0.00000000000E+00  0.91188000000E+02  0.91188000000E+02 0.  0.
    9900012    2    3    3    0    0 -0.28362037603E+02 -0.45567118053E+01  0.23034987729E+02  0.54367089376E+02  0.40000011851E+02 0.  0.
         12    1    3    3    0    0  0.28362037603E+02  0.45567118053E+01 -0.23034987729E+02  0.36820910624E+02  0.00000000000E+00 0. -1.
         11    1    4    4    0    0 -0.13518989801E+02 -0.12543360577E+01  0.18841554407E+02  0.23223708079E+02  0.51100000000E-03 0. -1.
        -11    1    4    4    0    0 -0.90223509217E+01 -0.83684616809E+01  0.14016416914E+02  0.18651914390E+02  0.51100000000E-03 0.  1.
         12    1    4    4    0    0 -0.58206968801E+01  0.50660859333E+01 -0.98229835914E+01  0.12491466907E+02  0.00000000000E+00 0. -1.
</event>
<event>
 8    1  0.1210161E-006  0.9118800E+02  0.7816164E-02  0.1184000E+00
        -11   -1    0    0    0    0  0.00000000000E+00  0.00000000000E+00  0.45593999997E+02  0.45594000000E+02  0.51100000000E-03 0.  1.
         11   -1    0    0    0    0 -0.00000000000E+00 -0.00000000000E+00 -0.45593999997E+02  0.45594000000E+02  0.51100000000E-03 0. -1.
         23    2    1    2    0    0 -0.19984014443E-14  0.35527136788E-14 -0.35527136788E-14  0.91188000000E+02  0.91188000000E+02 0.  0.
    9900012    2    3    3    0    0  0.11135485993E+01 -0.31958694208E+02  0.18253288024E+02  0.54367073210E+02  0.39999974997E+02 0.  0.
         12    1    3    3    0    0 -0.11135485993E+01  0.31958694208E+02 -0.18253288024E+02  0.36820926790E+02  0.00000000000E+00 0. -1.
         11    1    4    4    0    0  0.68820936969E+01  0.36011256744E+01  0.16581389435E+00  0.77690935304E+01  0.51100000000E-03 0. -1.
        -11    1    4    4    0    0  0.59653766540E+01 -0.11384016570E+02 -0.20531495280E+01  0.13015259319E+02  0.51100000000E-03 0.  1.
        -12    1    4    4    0    0 -0.11733921752E+02 -0.24175803313E+02  0.20140623658E+02  0.33582720361E+02  0.00000000000E+00 0.  1.
</event>
<event>
 8    1  0.1210161E-006  0.9118800E+02  0.7816164E-02  0.1184000E+00
        -11   -1    0    0    0    0  0.00000000000E+00  0.00000000000E+00  0.45593999997E+02  0.45594000000E+02  0.51100000000E-03 0. -1.
         11   -1    0    0    0    0 -0.00000000000E+00 -0.00000000000E+00 -0.45593999997E+02  0.45594000000E+02  0.51100000000E-03 0.  1.
         23    2    1    2    0    0  0.00000000000E+00  0.35527136788E-14  0.00000000000E+00  0.91188000000E+02  0.91188000000E+02 0.  0.
    9900012    2    3    3    0    0  0.17257355213E+02 -0.27776262614E+02 -0.16924595575E+02  0.54367095487E+02  0.40000025782E+02 0.  0.
        -12    1    3    3    0    0 -0.17257355213E+02  0.27776262614E+02  0.16924595575E+02  0.36820904513E+02  0.00000000000E+00 0.  1.
         11    1    4    4    0    0  0.12870151193E+02  0.61696592600E+01 -0.16720452183E+01  0.14370150402E+02  0.51100000000E-03 0. -1.
        -11    1    4    4    0    0  0.72304175962E+00 -0.27413165042E+02 -0.17054106152E+02  0.32293140818E+02  0.51100000000E-03 0.  1.
         12    1    4    4    0    0  0.36641622606E+01 -0.65327568323E+01  0.18015557948E+01  0.77038042669E+01  0.00000000000E+00 0. -1.
</event>
<event>
 8    1  0.1210161E-006  0.9118800E+02  0.7816164E-02  0.1184000E+00
        -11   -1    0    0    0    0  0.00000000000E+00  0.00000000000E+00  0.45593999997E+02  0.45594000000E+02  0.51100000000E-03 0. -1.
         11   -1    0    0    0    0 -0.00000000000E+00 -0.00000000000E+00 -0.45593999997E+02  0.45594000000E+02  0.51100000000E-03 0.  1.
         23    2    1    2    0    0  0.00000000000E+00  0.00000000000E+00 -0.17763568394E-14  0.91188000000E+02  0.91188000000E+02 0.  0.
    9900012    2    3    3    0    0  0.10276149679E+02 -0.33397432420E+02  0.11610027187E+02  0.54367075571E+02  0.39999980380E+02 0.  0.
        -12    1    3    3    0    0 -0.10276149679E+02  0.33397432420E+02 -0.11610027187E+02  0.36820924429E+02  0.00000000000E+00 0.  1.
         11    1    4    4    0    0 -0.89634746616E+01 -0.21692894104E+01  0.83756342975E+01  0.12457967118E+02  0.51100000000E-03 0. -1.
        -11    1    4    4    0    0  0.79123732121E+00  0.23805933699E+01 -0.20078670765E+01  0.32132245096E+01  0.51100000000E-03 0.  1.
         12    1    4    4    0    0  0.18448387019E+02 -0.33608736380E+02  0.52422599659E+01  0.38695883944E+02  0.00000000000E+00 0. -1.
</event>
<event>
 8    1  0.1210161E-006  0.9118800E+02  0.7816164E-02  0.1184000E+00
        -11   -1    0    0    0    0  0.00000000000E+00  0.00000000000E+00  0.45593999997E+02  0.45594000000E+02  0.51100000000E-03 0.  1.
         11   -1    0    0    0    0 -0.00000000000E+00 -0.00000000000E+00 -0.45593999997E+02  0.45594000000E+02  0.51100000000E-03 0. -1.
         23    2    1    2    0    0  0.00000000000E+00  0.00000000000E+00  0.00000000000E+00  0.91188000000E+02  0.91188000000E+02 0.  0.
    9900012    2    3    3    0    0 -0.14214115012E+02  0.29530870258E+02 -0.16783153243E+02  0.54366978877E+02  0.39999759945E+02 0.  0.
        -12    1    3    3    0    0  0.14214115012E+02 -0.29530870258E+02  0.16783153243E+02  0.36821021123E+02  0.00000000000E+00 0.  1.
         11    1    4    4    0    0  0.11444087632E+02  0.10889567395E+02 -0.10823644705E+02  0.19149441369E+02  0.51100000000E-03 0. -1.
        -11    1    4    4    0    0 -0.12181301033E+02  0.46905891790E+01 -0.86144838606E+01  0.15639534972E+02  0.51100000000E-03 0.  1.
        -12    1    4    4    0    0 -0.13476901611E+02  0.13950713684E+02  0.26549753229E+01  0.19578002535E+02  0.00000000000E+00 0.  1.
</event>
<event>
 8    1  0.1210161E-006  0.9118800E+02  0.7816164E-02  0.1184000E+00
        -11   -1    0    0    0    0  0.00000000000E+00  0.00000000000E+00  0.45593999997E+02  0.45594000000E+02  0.51100000000E-03 0. -1.
         11   -1    0    0    0    0 -0.00000000000E+00 -0.00000000000E+00 -0.45593999997E+02  0.45594000000E+02  0.51100000000E-03 0.  1.
         23    2    1    2    0    0  0.35527136788E-14  0.00000000000E+00 -0.35527136788E-14  0.91188000000E+02  0.91188000000E+02 0.  0.
    9900012    2    3    3    0    0  0.64893573650E+01  0.32479592560E+02  0.16085502304E+02  0.54367094576E+02  0.40000023704E+02 0.  0.
        -12    1    3    3    0    0 -0.64893573650E+01 -0.32479592560E+02 -0.16085502304E+02  0.36820905424E+02  0.00000000000E+00 0.  1.
         11    1    4    4    0    0 -0.96595074471E+01  0.14963237954E+02 -0.84270151564E+01  0.19703277872E+02  0.51100000000E-03 0. -1.
        -11    1    4    4    0    0  0.14085415108E+02  0.17465647152E+02  0.22197862422E+02  0.31562522801E+02  0.51100000000E-03 0.  1.
         12    1    4    4    0    0  0.20634497039E+01  0.50707454454E-01  0.23146550382E+01  0.31012939030E+01  0.00000000000E+00 0. -1.
</event>
<event>
 8    1  0.1210161E-006  0.9118800E+02  0.7816164E-02  0.1184000E+00
        -11   -1    0    0    0    0  0.00000000000E+00  0.00000000000E+00  0.45593999997E+02  0.45594000000E+02  0.51100000000E-03 0. -1.
         11   -1    0    0    0    0 -0.00000000000E+00 -0.00000000000E+00 -0.45593999997E+02  0.45594000000E+02  0.51100000000E-03 0.  1.
         23    2    1    2    0    0  0.17763568394E-14  0.88817841970E-15  0.00000000000E+00  0.91188000000E+02  0.91188000000E+02 0.  0.
    9900012    2    3    3    0    0 -0.10227705763E+02 -0.66400316049E+01  0.34743117775E+02  0.54367079077E+02  0.39999988373E+02 0.  0.
        -12    1    3    3    0    0  0.10227705763E+02  0.66400316049E+01 -0.34743117775E+02  0.36820920923E+02  0.00000000000E+00 0.  1.
         11    1    4    4    0    0  0.39780205837E+01 -0.13060414006E+02  0.20570045689E+02  0.24688577150E+02  0.51100000000E-03 0. -1.
        -11    1    4    4    0    0 -0.18229543551E+02  0.52421611048E+01  0.16270377365E+02  0.24990431989E+02  0.51100000000E-03 0.  1.
        -12    1    4    4    0    0  0.40238172041E+01  0.11782212965E+01 -0.20973052792E+01  0.46880699386E+01  0.00000000000E+00 0.  1.
</event>
<event>
 8    1  0.1210161E-006  0.9118800E+02  0.7816164E-02  0.1184000E+00
        -11   -1    0    0    0    0  0.00000000000E+00  0.00000000000E+00  0.45593999997E+02  0.45594000000E+02  0.51100000000E-03 0.  1.
         11   -1    0    0    0    0 -0.00000000000E+00 -0.00000000000E+00 -0.45593999997E+02  0.45594000000E+02  0.51100000000E-03 0. -1.
         23    2    1    2    0    0  0.88817841970E-15  0.00000000000E+00  0.71054273576E-14  0.91188000000E+02  0.91188000000E+02 0.  0.
    9900012    2    3    3    0    0 -0.67897091883E+01  0.71673928719E+01 -0.35472619299E+02  0.54367103876E+02  0.40000044907E+02 0.  0.
        -12    1    3    3    0    0  0.67897091883E+01 -0.71673928719E+01  0.35472619299E+02  0.36820896124E+02  0.00000000000E+00 0.  1.
         11    1    4    4    0    0 -0.51830132390E+01  0.16787294659E+02 -0.25856803727E+02  0.31261017057E+02  0.51100000000E-03 0. -1.
        -11    1    4    4    0    0  0.10039672927E+01 -0.77083418351E+00  0.53649256776E+01  0.55122194668E+01  0.51100000000E-03 0.  1.
         12    1    4    4    0    0 -0.26106632419E+01 -0.88490676040E+01 -0.14980741250E+02  0.17593867352E+02  0.00000000000E+00 0. -1.
</event>
<event>
 8    1  0.1210161E-006  0.9118800E+02  0.7816164E-02  0.1184000E+00
        -11   -1    0    0    0    0  0.00000000000E+00  0.00000000000E+00  0.45593999997E+02  0.45594000000E+02  0.51100000000E-03 0. -1.
         11   -1    0    0    0    0 -0.00000000000E+00 -0.00000000000E+00 -0.45593999997E+02  0.45594000000E+02  0.51100000000E-03 0.  1.
         23    2    1    2    0    0  0.00000000000E+00  0.00000000000E+00  0.00000000000E+00  0.91188000000E+02  0.91188000000E+02 0.  0.
    9900012    2    3    3    0    0  0.29406941667E+02 -0.75705637653E+01 -0.20825442824E+02  0.54367072218E+02  0.39999972735E+02 0.  0.
         12    1    3    3    0    0 -0.29406941667E+02  0.75705637653E+01  0.20825442824E+02  0.36820927782E+02  0.00000000000E+00 0. -1.
         11    1    4    4    0    0 -0.68932752586E+00  0.30396523257E+01  0.42551104909E+01  0.52745259740E+01  0.51100000000E-03 0. -1.
        -11    1    4    4    0    0  0.28193770158E+02 -0.18717655027E+02 -0.20892900636E+02  0.39771253220E+02  0.51100000000E-03 0.  1.
        -12    1    4    4    0    0  0.19024990353E+01  0.81074389364E+01 -0.41876526790E+01  0.93212930244E+01  0.00000000000E+00 0.  1.
</event>
<event>
 8    1  0.1210161E-006  0.9118800E+02  0.7816164E-02  0.1184000E+00
        -11   -1    0    0    0    0  0.00000000000E+00  0.00000000000E+00  0.45593999997E+02  0.45594000000E+02  0.51100000000E-03 0. -1.
         11   -1    0    0    0    0 -0.00000000000E+00 -0.00000000000E+00 -0.45593999997E+02  0.45594000000E+02  0.51100000000E-03 0.  1.
         23    2    1    2    0    0 -0.35527136788E-14 -0.35527136788E-14  0.00000000000E+00  0.91188000000E+02  0.91188000000E+02 0.  0.
    9900012    2    3    3    0    0 -0.28352529400E+02  0.16168009937E+02  0.17044373917E+02  0.54367066404E+02  0.39999959480E+02 0.  0.
        -12    1    3    3    0    0  0.28352529400E+02 -0.16168009937E+02 -0.17044373917E+02  0.36820933596E+02  0.00000000000E+00 0.  1.
         11    1    4    4    0    0 -0.41573715920E+01  0.18379003777E+02  0.13254802327E+02  0.23038257386E+02  0.51100000000E-03 0. -1.
        -11    1    4    4    0    0 -0.82762600468E+00 -0.46360048004E+01  0.61181058025E+01  0.77206686358E+01  0.51100000000E-03 0.  1.
        -12    1    4    4    0    0 -0.23367531803E+02  0.24250109610E+01 -0.23285342123E+01  0.23608140382E+02  0.00000000000E+00 0.  1.
</event>
<event>
 8    1  0.1210161E-006  0.9118800E+02  0.7816164E-02  0.1184000E+00
        -11   -1    0    0    0    0  0.00000000000E+00  0.00000000000E+00  0.45593999997E+02  0.45594000000E+02  0.51100000000E-03 0.  1.
         11   -1    0    0    0    0 -0.00000000000E+00 -0.00000000000E+00 -0.45593999997E+02  0.45594000000E+02  0.51100000000E-03 0. -1.
         23    2    1    2    0    0 -0.35527136788E-14 -0.71054273576E-14  0.17763568394E-14  0.91188000000E+02  0.91188000000E+02 0.  0.
    9900012    2    3    3    0    0  0.20047481092E+02  0.30555927751E+02 -0.44960534946E+01  0.54367072311E+02  0.39999972948E+02 0.  0.
         12    1    3    3    0    0 -0.20047481092E+02 -0.30555927751E+02  0.44960534946E+01  0.36820927689E+02  0.00000000000E+00 0. -1.
         11    1    4    4    0    0 -0.57345160317E+01  0.80829511416E+01  0.17122520661E-01  0.99105533003E+01  0.51100000000E-03 0. -1.
        -11    1    4    4    0    0  0.12462698459E+02  0.30647580228E+01  0.10461888327E+02  0.16557859229E+02  0.51100000000E-03 0.  1.
        -12    1    4    4    0    0  0.13319298664E+02  0.19408218586E+02 -0.14975064342E+02  0.27898659782E+02  0.00000000000E+00 0.  1.
</event>
<event>
 8    1  0.1210161E-006  0.9118800E+02  0.7816164E-02  0.1184000E+00
        -11   -1    0    0    0    0  0.00000000000E+00  0.00000000000E+00  0.45593999997E+02  0.45594000000E+02  0.51100000000E-03 0.  1.
         11   -1    0    0    0    0 -0.00000000000E+00 -0.00000000000E+00 -0.45593999997E+02  0.45594000000E+02  0.51100000000E-03 0. -1.
         23    2    1    2    0    0  0.00000000000E+00 -0.88817841970E-15  0.00000000000E+00  0.91188000000E+02  0.91188000000E+02 0.  0.
    9900012    2    3    3    0    0  0.88771193239E+01  0.65482012715E+01 -0.35129722598E+02  0.54367087502E+02  0.40000007579E+02 0.  0.
        -12    1    3    3    0    0 -0.88771193239E+01 -0.65482012715E+01  0.35129722598E+02  0.36820912498E+02  0.00000000000E+00 0.  1.
         11    1    4    4    0    0  0.35906233996E+01 -0.37098917192E+01  0.77448643992E+01  0.93079964433E+01  0.51100000000E-03 0.  1.
        -11    1    4    4    0    0 -0.30458612356E+00  0.75805694884E+01 -0.25883503184E+02  0.26972458987E+02  0.51100000000E-03 0. -1.
        -12    1    4    4    0    0  0.55910820478E+01  0.26775235023E+01 -0.16991083813E+02  0.18086632072E+02  0.00000000000E+00 0.  1.
</event>
<event>
 8    1  0.1210161E-006  0.9118800E+02  0.7816164E-02  0.1184000E+00
        -11   -1    0    0    0    0  0.00000000000E+00  0.00000000000E+00  0.45593999997E+02  0.45594000000E+02  0.51100000000E-03 0.  1.
         11   -1    0    0    0    0 -0.00000000000E+00 -0.00000000000E+00 -0.45593999997E+02  0.45594000000E+02  0.51100000000E-03 0. -1.
         23    2    1    2    0    0  0.00000000000E+00 -0.44408920985E-15  0.35527136788E-14  0.91188000000E+02  0.91188000000E+02 0.  0.
    9900012    2    3    3    0    0 -0.28481105635E+02 -0.39148367391E+01  0.23006043091E+02  0.54367118104E+02  0.40000077341E+02 0.  0.
         12    1    3    3    0    0  0.28481105635E+02  0.39148367391E+01 -0.23006043091E+02  0.36820881896E+02  0.00000000000E+00 0. -1.
         11    1    4    4    0    0 -0.14592081873E+02  0.14776493196E+02  0.17552190157E+02  0.27191046028E+02  0.51100000000E-03 0. -1.
        -11    1    4    4    0    0 -0.16329381653E+02 -0.16068820067E+02  0.37703591182E+01  0.23217908856E+02  0.51100000000E-03 0.  1.
         12    1    4    4    0    0  0.24403578908E+01 -0.26225098680E+01  0.16834938161E+01  0.39581632194E+01  0.00000000000E+00 0. -1.
</event>
<event>
 8    1  0.1210161E-006  0.9118800E+02  0.7816164E-02  0.1184000E+00
        -11   -1    0    0    0    0  0.00000000000E+00  0.00000000000E+00  0.45593999997E+02  0.45594000000E+02  0.51100000000E-03 0.  1.
         11   -1    0    0    0    0 -0.00000000000E+00 -0.00000000000E+00 -0.45593999997E+02  0.45594000000E+02  0.51100000000E-03 0. -1.
         23    2    1    2    0    0  0.35527136788E-14  0.88817841970E-15  0.00000000000E+00  0.91188000000E+02  0.91188000000E+02 0.  0.
    9900012    2    3    3    0    0 -0.30625897201E+02 -0.51640526157E+01 -0.19778001605E+02  0.54367049900E+02  0.39999921856E+02 0.  0.
        -12    1    3    3    0    0  0.30625897201E+02  0.51640526157E+01  0.19778001605E+02  0.36820950100E+02  0.00000000000E+00 0.  1.
         11    1    4    4    0    0  0.12049191679E+01 -0.46168472668E+01 -0.95078653348E+01  0.10637979713E+02  0.51100000000E-03 0. -1.
        -11    1    4    4    0    0 -0.85015894337E+01  0.11001148195E+02 -0.10936835849E+02  0.17689450618E+02  0.51100000000E-03 0.  1.
         12    1    4    4    0    0 -0.23329226935E+02 -0.11548353544E+02  0.66669957808E+00  0.26039619569E+02  0.00000000000E+00 0. -1.
</event>
<event>
 8    1  0.1210161E-006  0.9118800E+02  0.7816164E-02  0.1184000E+00
        -11   -1    0    0    0    0  0.00000000000E+00  0.00000000000E+00  0.45593999997E+02  0.45594000000E+02  0.51100000000E-03 0. -1.
         11   -1    0    0    0    0 -0.00000000000E+00 -0.00000000000E+00 -0.45593999997E+02  0.45594000000E+02  0.51100000000E-03 0.  1.
         23    2    1    2    0    0  0.88817841970E-15  0.00000000000E+00 -0.44408920985E-14  0.91188000000E+02  0.91188000000E+02 0.  0.
    9900012    2    3    3    0    0  0.47216471210E+01 -0.36163419678E+02 -0.50686727600E+01  0.54367104874E+02  0.40000047182E+02 0.  0.
         12    1    3    3    0    0 -0.47216471210E+01  0.36163419678E+02  0.50686727600E+01  0.36820895126E+02  0.00000000000E+00 0. -1.
         11    1    4    4    0    0 -0.52682243318E+01 -0.18645486465E+02  0.12744959463E+02  0.23191428268E+02  0.51100000000E-03 0. -1.
        -11    1    4    4    0    0  0.50669437247E+01 -0.10895507814E+02 -0.53525790136E+00  0.12027988632E+02  0.51100000000E-03 0.  1.
         12    1    4    4    0    0  0.49229277280E+01 -0.66224253982E+01 -0.17278374322E+02  0.19147687975E+02  0.00000000000E+00 0. -1.
</event>
<event>
 8    1  0.1210161E-006  0.9118800E+02  0.7816164E-02  0.1184000E+00
        -11   -1    0    0    0    0  0.00000000000E+00  0.00000000000E+00  0.45593999997E+02  0.45594000000E+02  0.51100000000E-03 0.  1.
         11   -1    0    0    0    0 -0.00000000000E+00 -0.00000000000E+00 -0.45593999997E+02  0.45594000000E+02  0.51100000000E-03 0. -1.
         23    2    1    2    0    0  0.00000000000E+00  0.00000000000E+00  0.00000000000E+00  0.91188000000E+02  0.91188000000E+02 0.  0.
    9900012    2    3    3    0    0 -0.19682856006E+02 -0.23848646723E+02 -0.19990183866E+02  0.54367079016E+02  0.39999988234E+02 0.  0.
        -12    1    3    3    0    0  0.19682856006E+02  0.23848646723E+02  0.19990183866E+02  0.36820920984E+02  0.00000000000E+00 0.  1.
         11    1    4    4    0    0 -0.60332391235E+01 -0.17648800393E+02 -0.98932763872E+01  0.21112959233E+02  0.51100000000E-03 0. -1.
        -11    1    4    4    0    0  0.16611766579E+01 -0.14271662992E+02 -0.49513196818E+01  0.15197218144E+02  0.51100000000E-03 0.  1.
         12    1    4    4    0    0 -0.15310793541E+02  0.80718166619E+01 -0.51455877968E+01  0.18056901640E+02  0.00000000000E+00 0. -1.
</event>
<event>
 8    1  0.1210161E-006  0.9118800E+02  0.7816164E-02  0.1184000E+00
        -11   -1    0    0    0    0  0.00000000000E+00  0.00000000000E+00  0.45593999997E+02  0.45594000000E+02  0.51100000000E-03 0.  1.
         11   -1    0    0    0    0 -0.00000000000E+00 -0.00000000000E+00 -0.45593999997E+02  0.45594000000E+02  0.51100000000E-03 0. -1.
         23    2    1    2    0    0 -0.88817841970E-15  0.00000000000E+00  0.00000000000E+00  0.91188000000E+02  0.91188000000E+02 0.  0.
    9900012    2    3    3    0    0 -0.73640815004E+01 -0.15397890769E+02  0.32625908821E+02  0.54367154506E+02  0.40000160327E+02 0.  0.
         12    1    3    3    0    0  0.73640815004E+01  0.15397890769E+02 -0.32625908821E+02  0.36820845494E+02  0.00000000000E+00 0. -1.
         11    1    4    4    0    0  0.65492827785E+01 -0.55739317042E+01  0.23742185929E+02  0.25251796224E+02  0.51100000000E-03 0. -1.
        -11    1    4    4    0    0 -0.16690372619E+01  0.32289190390E+01  0.10533046286E+02  0.11142561100E+02  0.51100000000E-03 0.  1.
         12    1    4    4    0    0 -0.12244327017E+02 -0.13052878104E+02 -0.16493233943E+01  0.17972797182E+02  0.00000000000E+00 0. -1.
</event>
<event>
 8    1  0.1210161E-006  0.9118800E+02  0.7816164E-02  0.1184000E+00
        -11   -1    0    0    0    0  0.00000000000E+00  0.00000000000E+00  0.45593999997E+02  0.45594000000E+02  0.51100000000E-03 0. -1.
         11   -1    0    0    0    0 -0.00000000000E+00 -0.00000000000E+00 -0.45593999997E+02  0.45594000000E+02  0.51100000000E-03 0.  1.
         23    2    1    2    0    0 -0.35527136788E-14  0.13322676296E-14 -0.35527136788E-14  0.91188000000E+02  0.91188000000E+02 0.  0.
    9900012    2    3    3    0    0 -0.19615553786E+02  0.25337147350E+01 -0.31057843435E+02  0.54367091544E+02  0.40000016794E+02 0.  0.
         12    1    3    3    0    0  0.19615553786E+02 -0.25337147350E+01  0.31057843435E+02  0.36820908456E+02  0.00000000000E+00 0. -1.
         11    1    4    4    0    0 -0.55046561590E+01  0.86049645174E+01 -0.41113753988E+01  0.11011360575E+02  0.51100000000E-03 0. -1.
        -11    1    4    4    0    0 -0.87366232606E+01 -0.87905782633E+01 -0.32734627470E+02  0.35002266899E+02  0.51100000000E-03 0.  1.
        -12    1    4    4    0    0 -0.53742743663E+01  0.27193284809E+01  0.57881594340E+01  0.83534640710E+01  0.00000000000E+00 0.  1.
</event>
<event>
 8    1  0.1210161E-006  0.9118800E+02  0.7816164E-02  0.1184000E+00
        -11   -1    0    0    0    0  0.00000000000E+00  0.00000000000E+00  0.45593999997E+02  0.45594000000E+02  0.51100000000E-03 0.  1.
         11   -1    0    0    0    0 -0.00000000000E+00 -0.00000000000E+00 -0.45593999997E+02  0.45594000000E+02  0.51100000000E-03 0. -1.
         23    2    1    2    0    0 -0.11102230246E-15 -0.35527136788E-14  0.00000000000E+00  0.91188000000E+02  0.91188000000E+02 0.  0.
    9900012    2    3    3    0    0 -0.88741139694E+00  0.18392412175E+02 -0.31885835510E+02  0.54367152227E+02  0.40000155131E+02 0.  0.
        -12    1    3    3    0    0  0.88741139694E+00 -0.18392412175E+02  0.31885835510E+02  0.36820847773E+02  0.00000000000E+00 0.  1.
         11    1    4    4    0    0 -0.16692244162E+02  0.43571368531E+01 -0.88596335908E+01  0.19393523773E+02  0.51100000000E-03 0. -1.
        -11    1    4    4    0    0  0.86418617913E+01  0.71184474456E+01 -0.15521030016E+01  0.11303233752E+02  0.51100000000E-03 0.  1.
         12    1    4    4    0    0  0.71629709737E+01  0.69168278760E+01 -0.21474098917E+02  0.23670394702E+02  0.00000000000E+00 0. -1.
</event>
<event>
 8    1  0.1210161E-006  0.9118800E+02  0.7816164E-02  0.1184000E+00
        -11   -1    0    0    0    0  0.00000000000E+00  0.00000000000E+00  0.45593999997E+02  0.45594000000E+02  0.51100000000E-03 0.  1.
         11   -1    0    0    0    0 -0.00000000000E+00 -0.00000000000E+00 -0.45593999997E+02  0.45594000000E+02  0.51100000000E-03 0. -1.
         23    2    1    2    0    0 -0.17763568394E-14  0.00000000000E+00  0.00000000000E+00  0.91188000000E+02  0.91188000000E+02 0.  0.
    9900012    2    3    3    0    0  0.31152258730E+01  0.34296607685E+02  0.13031420990E+02  0.54367083880E+02  0.39999999320E+02 0.  0.
         12    1    3    3    0    0 -0.31152258730E+01 -0.34296607685E+02 -0.13031420990E+02  0.36820916120E+02  0.00000000000E+00 0. -1.
         11    1    4    4    0    0  0.11114984064E+02  0.74711595967E+01  0.44956213943E+01  0.14126985115E+02  0.51100000000E-03 0.  1.
        -11    1    4    4    0    0  0.67881927454E+01 -0.18233828746E+01  0.71755551405E+00  0.70653500998E+01  0.51100000000E-03 0. -1.
        -12    1    4    4    0    0 -0.14787950936E+02  0.28648830963E+02  0.78182440812E+01  0.33174748664E+02  0.00000000000E+00 0.  1.
</event>
<event>
 8    1  0.1210161E-006  0.9118800E+02  0.7816164E-02  0.1184000E+00
        -11   -1    0    0    0    0  0.00000000000E+00  0.00000000000E+00  0.45593999997E+02  0.45594000000E+02  0.51100000000E-03 0. -1.
         11   -1    0    0    0    0 -0.00000000000E+00 -0.00000000000E+00 -0.45593999997E+02  0.45594000000E+02  0.51100000000E-03 0.  1.
         23    2    1    2    0    0  0.00000000000E+00  0.00000000000E+00  0.00000000000E+00  0.91188000000E+02  0.91188000000E+02 0.  0.
    9900012    2    3    3    0    0  0.21993010441E+02  0.13544205430E+02 -0.26242200818E+02  0.54366931130E+02  0.39999651095E+02 0.  0.
         12    1    3    3    0    0 -0.21993010441E+02 -0.13544205430E+02  0.26242200818E+02  0.36821068870E+02  0.00000000000E+00 0. -1.
         11    1    4    4    0    0  0.28746006068E+01 -0.70154468098E+01  0.66167833442E+01  0.10062884511E+02  0.51100000000E-03 0. -1.
        -11    1    4    4    0    0  0.78671375877E+01  0.14806549208E+02 -0.21869036892E+02  0.27556859910E+02  0.51100000000E-03 0.  1.
        -12    1    4    4    0    0  0.11251272247E+02  0.57531030324E+01 -0.10989947270E+02  0.16747186709E+02  0.00000000000E+00 0.  1.
</event>
<event>
 8    1  0.1210161E-006  0.9118800E+02  0.7816164E-02  0.1184000E+00
        -11   -1    0    0    0    0  0.00000000000E+00  0.00000000000E+00  0.45593999997E+02  0.45594000000E+02  0.51100000000E-03 0. -1.
         11   -1    0    0    0    0 -0.00000000000E+00 -0.00000000000E+00 -0.45593999997E+02  0.45594000000E+02  0.51100000000E-03 0.  1.
         23    2    1    2    0    0  0.17763568394E-14  0.53290705182E-14  0.00000000000E+00  0.91188000000E+02  0.91188000000E+02 0.  0.
    9900012    2    3    3    0    0  0.12366718557E+02  0.12808226354E+02  0.32230334807E+02  0.54367070191E+02  0.39999968115E+02 0.  0.
        -12    1    3    3    0    0 -0.12366718557E+02 -0.12808226354E+02 -0.32230334807E+02  0.36820929809E+02  0.00000000000E+00 0.  1.
         11    1    4    4    0    0  0.14182614611E+02 -0.43432703964E+01  0.15628567482E+02  0.21546755597E+02  0.51100000000E-03 0. -1.
        -11    1    4    4    0    0 -0.10113587772E+02  0.10443274061E+01  0.66402884082E+01  0.12143669452E+02  0.51100000000E-03 0.  1.
         12    1    4    4    0    0  0.82976917175E+01  0.16107169345E+02  0.99614789164E+01  0.20676645142E+02  0.00000000000E+00 0. -1.
</event>
<event>
 8    1  0.1210161E-006  0.9118800E+02  0.7816164E-02  0.1184000E+00
        -11   -1    0    0    0    0  0.00000000000E+00  0.00000000000E+00  0.45593999997E+02  0.45594000000E+02  0.51100000000E-03 0. -1.
         11   -1    0    0    0    0 -0.00000000000E+00 -0.00000000000E+00 -0.45593999997E+02  0.45594000000E+02  0.51100000000E-03 0.  1.
         23    2    1    2    0    0  0.00000000000E+00  0.00000000000E+00 -0.35527136788E-14  0.91188000000E+02  0.91188000000E+02 0.  0.
    9900012    2    3    3    0    0 -0.27550677745E+02  0.12340605561E+02  0.21081958320E+02  0.54367090771E+02  0.40000015031E+02 0.  0.
        -12    1    3    3    0    0  0.27550677745E+02 -0.12340605561E+02 -0.21081958320E+02  0.36820909229E+02  0.00000000000E+00 0.  1.
         11    1    4    4    0    0 -0.10441416264E+02  0.83129658706E+01 -0.24523596573E+00  0.13348734626E+02  0.51100000000E-03 0. -1.
        -11    1    4    4    0    0  0.48267407776E+01  0.96531868751E+01  0.14562261912E+01  0.10890456297E+02  0.51100000000E-03 0.  1.
         12    1    4    4    0    0 -0.21936002259E+02 -0.56255471850E+01  0.19870968095E+02  0.30127899848E+02  0.00000000000E+00 0. -1.
</event>
<event>
 8    1  0.1210161E-006  0.9118800E+02  0.7816164E-02  0.1184000E+00
        -11   -1    0    0    0    0  0.00000000000E+00  0.00000000000E+00  0.45593999997E+02  0.45594000000E+02  0.51100000000E-03 0.  1.
         11   -1    0    0    0    0 -0.00000000000E+00 -0.00000000000E+00 -0.45593999997E+02  0.45594000000E+02  0.51100000000E-03 0. -1.
         23    2    1    2    0    0 -0.35527136788E-14  0.00000000000E+00  0.00000000000E+00  0.91188000000E+02  0.91188000000E+02 0.  0.
    9900012    2    3    3    0    0 -0.29551746240E+02 -0.12753397885E+02 -0.17883598685E+02  0.54367109660E+02  0.40000058093E+02 0.  0.
         12    1    3    3    0    0  0.29551746240E+02  0.12753397885E+02  0.17883598685E+02  0.36820890340E+02  0.00000000000E+00 0. -1.
         11    1    4    4    0    0 -0.29113005429E+01 -0.71618914908E-01  0.91215606334E+00  0.30516928196E+01  0.51100000000E-03 0. -1.
        -11    1    4    4    0    0 -0.35668768172E+02 -0.78328844315E+01 -0.10138008014E+02  0.37899792984E+02  0.51100000000E-03 0.  1.
         12    1    4    4    0    0  0.90283224749E+01 -0.48488945389E+01 -0.86577467347E+01  0.13415623857E+02  0.00000000000E+00 0. -1.
</event>
<event>
 8    1  0.1210161E-006  0.9118800E+02  0.7816164E-02  0.1184000E+00
        -11   -1    0    0    0    0  0.00000000000E+00  0.00000000000E+00  0.45593999997E+02  0.45594000000E+02  0.51100000000E-03 0.  1.
         11   -1    0    0    0    0 -0.00000000000E+00 -0.00000000000E+00 -0.45593999997E+02  0.45594000000E+02  0.51100000000E-03 0. -1.
         23    2    1    2    0    0 -0.17763568394E-14  0.00000000000E+00  0.00000000000E+00  0.91188000000E+02  0.91188000000E+02 0.  0.
    9900012    2    3    3    0    0  0.14735806867E+02 -0.53146383350E+01  0.33322546865E+02  0.54367061470E+02  0.39999948233E+02 0.  0.
         12    1    3    3    0    0 -0.14735806867E+02  0.53146383350E+01 -0.33322546865E+02  0.36820938530E+02  0.00000000000E+00 0. -1.
         11    1    4    4    0    0 -0.61137207550E+01 -0.86354758121E+01  0.73055799860E+01  0.12857702873E+02  0.51100000000E-03 0. -1.
        -11    1    4    4    0    0  0.30932607032E+01 -0.97873300303E+01  0.87198738222E+01  0.13468344020E+02  0.51100000000E-03 0.  1.
         12    1    4    4    0    0  0.17756266919E+02  0.13108167507E+02  0.17297093057E+02  0.28041014577E+02  0.00000000000E+00 0. -1.
</event>
<event>
 8    1  0.1210161E-006  0.9118800E+02  0.7816164E-02  0.1184000E+00
        -11   -1    0    0    0    0  0.00000000000E+00  0.00000000000E+00  0.45593999997E+02  0.45594000000E+02  0.51100000000E-03 0.  1.
         11   -1    0    0    0    0 -0.00000000000E+00 -0.00000000000E+00 -0.45593999997E+02  0.45594000000E+02  0.51100000000E-03 0. -1.
         23    2    1    2    0    0  0.00000000000E+00 -0.35527136788E-14 -0.35527136788E-14  0.91188000000E+02  0.91188000000E+02 0.  0.
    9900012    2    3    3    0    0  0.88409683052E+01 -0.25495812227E+02 -0.25051530108E+02  0.54367104812E+02  0.40000047040E+02 0.  0.
        -12    1    3    3    0    0 -0.88409683052E+01  0.25495812227E+02  0.25051530108E+02  0.36820895188E+02  0.00000000000E+00 0.  1.
         11    1    4    4    0    0  0.13072634691E+02 -0.56777976500E+01 -0.13577112829E+02  0.19684236256E+02  0.51100000000E-03 0. -1.
        -11    1    4    4    0    0  0.80915354498E+01  0.12284100567E+01 -0.14375173002E+01  0.83095362959E+01  0.51100000000E-03 0.  1.
        -12    1    4    4    0    0 -0.12323201836E+02 -0.21046424634E+02 -0.10036899978E+02  0.26373332261E+02  0.00000000000E+00 0.  1.
</event>
<event>
 8    1  0.1210161E-006  0.9118800E+02  0.7816164E-02  0.1184000E+00
        -11   -1    0    0    0    0  0.00000000000E+00  0.00000000000E+00  0.45593999997E+02  0.45594000000E+02  0.51100000000E-03 0.  1.
         11   -1    0    0    0    0 -0.00000000000E+00 -0.00000000000E+00 -0.45593999997E+02  0.45594000000E+02  0.51100000000E-03 0. -1.
         23    2    1    2    0    0  0.00000000000E+00  0.11102230246E-14  0.00000000000E+00  0.91188000000E+02  0.91188000000E+02 0.  0.
    9900012    2    3    3    0    0 -0.12032946103E+02 -0.89641223044E+00  0.34787702864E+02  0.54367087228E+02  0.40000006953E+02 0.  0.
         12    1    3    3    0    0  0.12032946103E+02  0.89641223044E+00 -0.34787702864E+02  0.36820912772E+02  0.00000000000E+00 0. -1.
         11    1    4    4    0    0 -0.78783632457E+01 -0.99548737884E+01  0.25913064071E+01  0.12956966803E+02  0.51100000000E-03 0. -1.
        -11    1    4    4    0    0 -0.98035090525E+01  0.44166874144E+01  0.27901785666E+01  0.11108600909E+02  0.51100000000E-03 0.  1.
         12    1    4    4    0    0  0.56489261952E+01  0.46417741436E+01  0.29406217890E+02  0.30301519516E+02  0.00000000000E+00 0. -1.
</event>
<event>
 8    1  0.1210161E-006  0.9118800E+02  0.7816164E-02  0.1184000E+00
        -11   -1    0    0    0    0  0.00000000000E+00  0.00000000000E+00  0.45593999997E+02  0.45594000000E+02  0.51100000000E-03 0. -1.
         11   -1    0    0    0    0 -0.00000000000E+00 -0.00000000000E+00 -0.45593999997E+02  0.45594000000E+02  0.51100000000E-03 0.  1.
         23    2    1    2    0    0  0.00000000000E+00  0.55511151231E-16  0.66613381478E-15  0.91188000000E+02  0.91188000000E+02 0.  0.
    9900012    2    3    3    0    0 -0.36791516162E+02 -0.32347434485E+00  0.14349846719E+01  0.54367089118E+02  0.40000011263E+02 0.  0.
        -12    1    3    3    0    0  0.36791516162E+02  0.32347434485E+00 -0.14349846719E+01  0.36820910882E+02  0.00000000000E+00 0.  1.
         11    1    4    4    0    0 -0.72388919049E+01  0.22375141553E+01  0.41520785014E+01  0.86398947765E+01  0.51100000000E-03 0. -1.
        -11    1    4    4    0    0 -0.32197640922E+02 -0.11897001175E+01 -0.13207757829E+02  0.34821664729E+02  0.51100000000E-03 0.  1.
        -12    1    4    4    0    0  0.26450166653E+01 -0.13712883827E+01  0.10490664000E+02  0.10905529613E+02  0.00000000000E+00 0.  1.
</event>
<event>
 8    1  0.1210161E-006  0.9118800E+02  0.7816164E-02  0.1184000E+00
        -11   -1    0    0    0    0  0.00000000000E+00  0.00000000000E+00  0.45593999997E+02  0.45594000000E+02  0.51100000000E-03 0. -1.
         11   -1    0    0    0    0 -0.00000000000E+00 -0.00000000000E+00 -0.45593999997E+02  0.45594000000E+02  0.51100000000E-03 0.  1.
         23    2    1    2    0    0  0.17763568394E-14  0.00000000000E+00  0.00000000000E+00  0.91188000000E+02  0.91188000000E+02 0.  0.
    9900012    2    3    3    0    0  0.11447976983E+02 -0.24217291009E+02  0.25263538817E+02  0.54367085368E+02  0.40000002713E+02 0.  0.
        -12    1    3    3    0    0 -0.11447976983E+02  0.24217291009E+02 -0.25263538817E+02  0.36820914632E+02  0.00000000000E+00 0.  1.
         11    1    4    4    0    0  0.13188015964E+01 -0.11442922684E+01  0.19162929885E+02  0.19242310788E+02  0.51100000000E-03 0. -1.
        -11    1    4    4    0    0 -0.59038407494E+01 -0.79880800510E+01  0.83765653106E+01  0.12993521661E+02  0.51100000000E-03 0.  1.
         12    1    4    4    0    0  0.16033016136E+02 -0.15084918690E+02 -0.22759563788E+01  0.22131252918E+02  0.00000000000E+00 0. -1.
</event>
<event>
 8    1  0.1210161E-006  0.9118800E+02  0.7816164E-02  0.1184000E+00
        -11   -1    0    0    0    0  0.00000000000E+00  0.00000000000E+00  0.45593999997E+02  0.45594000000E+02  0.51100000000E-03 0.  1.
         11   -1    0    0    0    0 -0.00000000000E+00 -0.00000000000E+00 -0.45593999997E+02  0.45594000000E+02  0.51100000000E-03 0. -1.
         23    2    1    2    0    0  0.00000000000E+00 -0.35527136788E-14 -0.88817841970E-15  0.91188000000E+02  0.91188000000E+02 0.  0.
    9900012    2    3    3    0    0 -0.28370312306E+02  0.22121151589E+02  0.78459813201E+01  0.54367090304E+02  0.40000013966E+02 0.  0.
         12    1    3    3    0    0  0.28370312306E+02 -0.22121151589E+02 -0.78459813201E+01  0.36820909696E+02  0.00000000000E+00 0. -1.
         11    1    4    4    0    0 -0.63003443333E+01 -0.47013467786E+01  0.52273588276E+01  0.94404597782E+01  0.51100000000E-03 0. -1.
        -11    1    4    4    0    0 -0.19175949770E+02  0.15333947239E+01  0.29996392025E+01  0.19469622096E+02  0.51100000000E-03 0.  1.
        -12    1    4    4    0    0 -0.28940182025E+01  0.25289103644E+02 -0.38101671006E+00  0.25457008430E+02  0.00000000000E+00 0.  1.
</event>
<event>
 8    1  0.1210161E-006  0.9118800E+02  0.7816164E-02  0.1184000E+00
        -11   -1    0    0    0    0  0.00000000000E+00  0.00000000000E+00  0.45593999997E+02  0.45594000000E+02  0.51100000000E-03 0.  1.
         11   -1    0    0    0    0 -0.00000000000E+00 -0.00000000000E+00 -0.45593999997E+02  0.45594000000E+02  0.51100000000E-03 0. -1.
         23    2    1    2    0    0 -0.88817841970E-15  0.00000000000E+00  0.00000000000E+00  0.91188000000E+02  0.91188000000E+02 0.  0.
    9900012    2    3    3    0    0  0.38614452124E+01  0.14211655481E+02 -0.33747571739E+02  0.54367075122E+02  0.39999979355E+02 0.  0.
        -12    1    3    3    0    0 -0.38614452124E+01 -0.14211655481E+02  0.33747571739E+02  0.36820924878E+02  0.00000000000E+00 0.  1.
         11    1    4    4    0    0 -0.38392277794E+00  0.11324208408E+02 -0.27026877155E+02  0.29305924005E+02  0.51100000000E-03 0. -1.
        -11    1    4    4    0    0  0.67646905069E+01  0.58019499820E+01  0.66672470031E+01  0.11129952565E+02  0.51100000000E-03 0.  1.
        -12    1    4    4    0    0 -0.25193225166E+01 -0.29145029085E+01 -0.13387941587E+02  0.13931198551E+02  0.00000000000E+00 0.  1.
</event>
<event>
 8    1  0.1210161E-006  0.9118800E+02  0.7816164E-02  0.1184000E+00
        -11   -1    0    0    0    0  0.00000000000E+00  0.00000000000E+00  0.45593999997E+02  0.45594000000E+02  0.51100000000E-03 0.  1.
         11   -1    0    0    0    0 -0.00000000000E+00 -0.00000000000E+00 -0.45593999997E+02  0.45594000000E+02  0.51100000000E-03 0. -1.
         23    2    1    2    0    0  0.00000000000E+00  0.00000000000E+00  0.17763568394E-14  0.91188000000E+02  0.91188000000E+02 0.  0.
    9900012    2    3    3    0    0 -0.23424926745E+02 -0.24675613450E+02 -0.14077244167E+02  0.54367056293E+02  0.39999936431E+02 0.  0.
         12    1    3    3    0    0  0.23424926745E+02  0.24675613450E+02  0.14077244167E+02  0.36820943707E+02  0.00000000000E+00 0. -1.
         11    1    4    4    0    0 -0.78353650995E+01 -0.20934819039E+02  0.11328445972E+01  0.22381754434E+02  0.51100000000E-03 0. -1.
        -11    1    4    4    0    0 -0.11061436671E+02 -0.52639686975E+01  0.34473478727E+01  0.12725916677E+02  0.51100000000E-03 0.  1.
         12    1    4    4    0    0 -0.45281249751E+01  0.15231742858E+01 -0.18657436637E+02  0.19259385181E+02  0.00000000000E+00 0. -1.
</event>
<event>
 8    1  0.1210161E-006  0.9118800E+02  0.7816164E-02  0.1184000E+00
        -11   -1    0    0    0    0  0.00000000000E+00  0.00000000000E+00  0.45593999997E+02  0.45594000000E+02  0.51100000000E-03 0.  1.
         11   -1    0    0    0    0 -0.00000000000E+00 -0.00000000000E+00 -0.45593999997E+02  0.45594000000E+02  0.51100000000E-03 0. -1.
         23    2    1    2    0    0  0.35527136788E-14  0.88817841970E-15 -0.71054273576E-14  0.91188000000E+02  0.91188000000E+02 0.  0.
    9900012    2    3    3    0    0  0.13641700404E+02  0.61523490015E+01 -0.33642729285E+02  0.54367073587E+02  0.39999975857E+02 0.  0.
        -12    1    3    3    0    0 -0.13641700404E+02 -0.61523490015E+01  0.33642729285E+02  0.36820926413E+02  0.00000000000E+00 0.  1.
         11    1    4    4    0    0 -0.19575939198E+01  0.51427070661E-01 -0.97236294419E+00  0.21863916975E+01  0.51100000000E-03 0. -1.
        -11    1    4    4    0    0  0.14988691991E+02 -0.49904185813E+01  0.18607879941E+01  0.15906844358E+02  0.51100000000E-03 0.  1.
         12    1    4    4    0    0  0.61060233341E+00  0.11091340512E+02 -0.34531154335E+02  0.36273837532E+02  0.00000000000E+00 0. -1.
</event>
<event>
 8    1  0.1210161E-006  0.9118800E+02  0.7816164E-02  0.1184000E+00
        -11   -1    0    0    0    0  0.00000000000E+00  0.00000000000E+00  0.45593999997E+02  0.45594000000E+02  0.51100000000E-03 0. -1.
         11   -1    0    0    0    0 -0.00000000000E+00 -0.00000000000E+00 -0.45593999997E+02  0.45594000000E+02  0.51100000000E-03 0.  1.
         23    2    1    2    0    0  0.00000000000E+00  0.35527136788E-14  0.71054273576E-14  0.91188000000E+02  0.91188000000E+02 0.  0.
    9900012    2    3    3    0    0 -0.16914751760E+02  0.18697426850E+02  0.26834246195E+02  0.54367090631E+02  0.40000014712E+02 0.  0.
        -12    1    3    3    0    0  0.16914751760E+02 -0.18697426850E+02 -0.26834246195E+02  0.36820909369E+02  0.00000000000E+00 0.  1.
         11    1    4    4    0    0  0.46441045694E+01  0.10582745724E+01 -0.35132332917E+01  0.59186536261E+01  0.51100000000E-03 0.  1.
        -11    1    4    4    0    0 -0.13151363502E+02 -0.46453784483E+01  0.11349186721E+02  0.17981711330E+02  0.51100000000E-03 0. -1.
        -12    1    4    4    0    0 -0.84074928270E+01  0.22284530726E+02  0.18998292766E+02  0.30466725675E+02  0.00000000000E+00 0.  1.
</event>
<event>
 8    1  0.1210161E-006  0.9118800E+02  0.7816164E-02  0.1184000E+00
        -11   -1    0    0    0    0  0.00000000000E+00  0.00000000000E+00  0.45593999997E+02  0.45594000000E+02  0.51100000000E-03 0. -1.
         11   -1    0    0    0    0 -0.00000000000E+00 -0.00000000000E+00 -0.45593999997E+02  0.45594000000E+02  0.51100000000E-03 0.  1.
         23    2    1    2    0    0  0.00000000000E+00 -0.35527136788E-14 -0.17763568394E-14  0.91188000000E+02  0.91188000000E+02 0.  0.
    9900012    2    3    3    0    0  0.28659134668E+02  0.20437162969E+02 -0.10805237382E+02  0.54367125689E+02  0.40000094634E+02 0.  0.
        -12    1    3    3    0    0 -0.28659134668E+02 -0.20437162969E+02  0.10805237382E+02  0.36820874311E+02  0.00000000000E+00 0.  1.
         11    1    4    4    0    0  0.24980630822E+01  0.98459281719E+01 -0.10412134479E+01  0.10211108972E+02  0.51100000000E-03 0. -1.
        -11    1    4    4    0    0  0.22710133528E+02  0.45161397340E+01 -0.20779491121E+02  0.31111620570E+02  0.51100000000E-03 0.  1.
        -12    1    4    4    0    0  0.34509380576E+01  0.60750950626E+01  0.11015467188E+02  0.13044396148E+02  0.00000000000E+00 0.  1.
</event>
<event>
 8    1  0.1210161E-006  0.9118800E+02  0.7816164E-02  0.1184000E+00
        -11   -1    0    0    0    0  0.00000000000E+00  0.00000000000E+00  0.45593999997E+02  0.45594000000E+02  0.51100000000E-03 0.  1.
         11   -1    0    0    0    0 -0.00000000000E+00 -0.00000000000E+00 -0.45593999997E+02  0.45594000000E+02  0.51100000000E-03 0. -1.
         23    2    1    2    0    0 -0.35527136788E-14  0.00000000000E+00 -0.35527136788E-14  0.91188000000E+02  0.91188000000E+02 0.  0.
    9900012    2    3    3    0    0  0.19442025956E+02 -0.11606443537E+02 -0.29035908959E+02  0.54367001725E+02  0.39999812033E+02 0.  0.
         12    1    3    3    0    0 -0.19442025956E+02  0.11606443537E+02  0.29035908959E+02  0.36820998275E+02  0.00000000000E+00 0. -1.
         11    1    4    4    0    0 -0.30348885575E+01 -0.11869123310E+02 -0.17350864455E+02  0.21240036118E+02  0.51100000000E-03 0. -1.
        -11    1    4    4    0    0  0.14175380806E+02 -0.76418063291E+01  0.86840749815E+00  0.16127391506E+02  0.51100000000E-03 0.  1.
         12    1    4    4    0    0  0.83015337082E+01  0.79044861017E+01 -0.12553452003E+02  0.16999574101E+02  0.00000000000E+00 0. -1.
</event>
<event>
 8    1  0.1210161E-006  0.9118800E+02  0.7816164E-02  0.1184000E+00
        -11   -1    0    0    0    0  0.00000000000E+00  0.00000000000E+00  0.45593999997E+02  0.45594000000E+02  0.51100000000E-03 0. -1.
         11   -1    0    0    0    0 -0.00000000000E+00 -0.00000000000E+00 -0.45593999997E+02  0.45594000000E+02  0.51100000000E-03 0.  1.
         23    2    1    2    0    0 -0.71054273576E-14  0.00000000000E+00  0.17763568394E-14  0.91188000000E+02  0.91188000000E+02 0.  0.
    9900012    2    3    3    0    0 -0.22576276695E+02  0.27943304132E+02  0.80785162045E+01  0.54367096435E+02  0.40000027944E+02 0.  0.
        -12    1    3    3    0    0  0.22576276695E+02 -0.27943304132E+02 -0.80785162045E+01  0.36820903565E+02  0.00000000000E+00 0.  1.
         11    1    4    4    0    0 -0.18247480446E+02  0.14807627380E+02  0.11312801530E+02  0.26080948027E+02  0.51100000000E-03 0. -1.
        -11    1    4    4    0    0  0.66737172979E+00 -0.50499272809E+01 -0.73888541500E+01  0.89745371178E+01  0.51100000000E-03 0.  1.
        -12    1    4    4    0    0 -0.49961679786E+01  0.18185604033E+02  0.41545688240E+01  0.19311611290E+02  0.00000000000E+00 0.  1.
</event>
<event>
 8    1  0.1210161E-006  0.9118800E+02  0.7816164E-02  0.1184000E+00
        -11   -1    0    0    0    0  0.00000000000E+00  0.00000000000E+00  0.45593999997E+02  0.45594000000E+02  0.51100000000E-03 0. -1.
         11   -1    0    0    0    0 -0.00000000000E+00 -0.00000000000E+00 -0.45593999997E+02  0.45594000000E+02  0.51100000000E-03 0.  1.
         23    2    1    2    0    0  0.00000000000E+00  0.17763568394E-14  0.00000000000E+00  0.91188000000E+02  0.91188000000E+02 0.  0.
    9900012    2    3    3    0    0  0.18548124520E+02 -0.10897178423E+02 -0.29883106207E+02  0.54367062242E+02  0.39999949993E+02 0.  0.
         12    1    3    3    0    0 -0.18548124520E+02  0.10897178423E+02  0.29883106207E+02  0.36820937758E+02  0.00000000000E+00 0. -1.
         11    1    4    4    0    0 -0.21913231908E+01  0.74747750484E+01  0.18828322859E+01  0.80136893519E+01  0.51100000000E-03 0. -1.
        -11    1    4    4    0    0  0.17827703456E+02 -0.36590490744E+01 -0.13179811854E+02  0.22470493796E+02  0.51100000000E-03 0.  1.
         12    1    4    4    0    0  0.29117442542E+01 -0.14712904397E+02 -0.18586126639E+02  0.23882879095E+02  0.00000000000E+00 0. -1.
</event>
<event>
 8    1  0.1210161E-006  0.9118800E+02  0.7816164E-02  0.1184000E+00
        -11   -1    0    0    0    0  0.00000000000E+00  0.00000000000E+00  0.45593999997E+02  0.45594000000E+02  0.51100000000E-03 0. -1.
         11   -1    0    0    0    0 -0.00000000000E+00 -0.00000000000E+00 -0.45593999997E+02  0.45594000000E+02  0.51100000000E-03 0.  1.
         23    2    1    2    0    0  0.00000000000E+00 -0.17763568394E-14  0.00000000000E+00  0.91188000000E+02  0.91188000000E+02 0.  0.
    9900012    2    3    3    0    0 -0.87013424789E+01 -0.90690876584E+01 -0.34609513772E+02  0.54367079922E+02  0.39999990297E+02 0.  0.
         12    1    3    3    0    0  0.87013424789E+01  0.90690876584E+01  0.34609513772E+02  0.36820920078E+02  0.00000000000E+00 0. -1.
         11    1    4    4    0    0  0.36942644512E+00 -0.67084655276E+01 -0.25427899092E+01  0.71837153630E+01  0.51100000000E-03 0. -1.
        -11    1    4    4    0    0  0.27217784051E+01 -0.16099234906E+02 -0.12822633889E+02  0.20760861792E+02  0.51100000000E-03 0.  1.
        -12    1    4    4    0    0 -0.11792547329E+02  0.13738612775E+02 -0.19244089974E+02  0.26422502766E+02  0.00000000000E+00 0.  1.
</event>
<event>
 8    1  0.1210161E-006  0.9118800E+02  0.7816164E-02  0.1184000E+00
        -11   -1    0    0    0    0  0.00000000000E+00  0.00000000000E+00  0.45593999997E+02  0.45594000000E+02  0.51100000000E-03 0. -1.
         11   -1    0    0    0    0 -0.00000000000E+00 -0.00000000000E+00 -0.45593999997E+02  0.45594000000E+02  0.51100000000E-03 0.  1.
         23    2    1    2    0    0  0.00000000000E+00 -0.35527136788E-14 -0.35527136788E-14  0.91188000000E+02  0.91188000000E+02 0.  0.
    9900012    2    3    3    0    0  0.47377163083E+01 -0.29078056008E+02 -0.22086196692E+02  0.54367090434E+02  0.40000014261E+02 0.  0.
         12    1    3    3    0    0 -0.47377163083E+01  0.29078056008E+02  0.22086196692E+02  0.36820909566E+02  0.00000000000E+00 0. -1.
         11    1    4    4    0    0  0.96849858184E+01 -0.56457222847E+01  0.54374683442E+01  0.12459502104E+02  0.51100000000E-03 0. -1.
        -11    1    4    4    0    0 -0.65668844531E+01 -0.82596584533E+01 -0.13235252776E+00  0.10552888071E+02  0.51100000000E-03 0.  1.
         12    1    4    4    0    0  0.16196149430E+01 -0.15172675270E+02 -0.27391312508E+02  0.31354700259E+02  0.00000000000E+00 0. -1.
</event>
<event>
 8    1  0.1210161E-006  0.9118800E+02  0.7816164E-02  0.1184000E+00
        -11   -1    0    0    0    0  0.00000000000E+00  0.00000000000E+00  0.45593999997E+02  0.45594000000E+02  0.51100000000E-03 0. -1.
         11   -1    0    0    0    0 -0.00000000000E+00 -0.00000000000E+00 -0.45593999997E+02  0.45594000000E+02  0.51100000000E-03 0.  1.
         23    2    1    2    0    0  0.35527136788E-14 -0.17763568394E-14  0.35527136788E-14  0.91188000000E+02  0.91188000000E+02 0.  0.
    9900012    2    3    3    0    0  0.21069867498E+02 -0.12180802167E+02  0.27630943433E+02  0.54367078056E+02  0.39999986044E+02 0.  0.
        -12    1    3    3    0    0 -0.21069867498E+02  0.12180802167E+02 -0.27630943433E+02  0.36820921944E+02  0.00000000000E+00 0.  1.
         11    1    4    4    0    0 -0.49704747938E+01 -0.79584612730E+01  0.20581585391E+02  0.22619557533E+02  0.51100000000E-03 0. -1.
        -11    1    4    4    0    0  0.88710322247E+01 -0.78349668256E+01  0.78193822513E+01  0.14185367706E+02  0.51100000000E-03 0.  1.
        -12    1    4    4    0    0  0.17169310067E+02  0.36126259312E+01 -0.77002420930E+00  0.17562152817E+02  0.00000000000E+00 0.  1.
</event>
<event>
 8    1  0.1210161E-006  0.9118800E+02  0.7816164E-02  0.1184000E+00
        -11   -1    0    0    0    0  0.00000000000E+00  0.00000000000E+00  0.45593999997E+02  0.45594000000E+02  0.51100000000E-03 0.  1.
         11   -1    0    0    0    0 -0.00000000000E+00 -0.00000000000E+00 -0.45593999997E+02  0.45594000000E+02  0.51100000000E-03 0. -1.
         23    2    1    2    0    0  0.00000000000E+00  0.00000000000E+00  0.17763568394E-14  0.91188000000E+02  0.91188000000E+02 0.  0.
    9900012    2    3    3    0    0 -0.21954871875E+01 -0.33183549898E+02  0.15805393948E+02  0.54367100695E+02  0.40000037654E+02 0.  0.
        -12    1    3    3    0    0  0.21954871875E+01  0.33183549898E+02 -0.15805393948E+02  0.36820899305E+02  0.00000000000E+00 0.  1.
         11    1    4    4    0    0 -0.17467943449E+01 -0.31996069888E+02  0.18839832342E+02  0.37171750856E+02  0.51100000000E-03 0. -1.
        -11    1    4    4    0    0  0.43364428496E+00  0.33098995010E+01  0.61123925827E+01  0.69645405749E+01  0.51100000000E-03 0.  1.
         12    1    4    4    0    0 -0.88233712757E+00 -0.44973795109E+01 -0.91468309770E+01  0.10230809264E+02  0.00000000000E+00 0. -1.
</event>
<event>
 8    1  0.1210161E-006  0.9118800E+02  0.7816164E-02  0.1184000E+00
        -11   -1    0    0    0    0  0.00000000000E+00  0.00000000000E+00  0.45593999997E+02  0.45594000000E+02  0.51100000000E-03 0. -1.
         11   -1    0    0    0    0 -0.00000000000E+00 -0.00000000000E+00 -0.45593999997E+02  0.45594000000E+02  0.51100000000E-03 0.  1.
         23    2    1    2    0    0  0.17763568394E-14  0.00000000000E+00  0.00000000000E+00  0.91188000000E+02  0.91188000000E+02 0.  0.
    9900012    2    3    3    0    0  0.46841061926E+01  0.31696156875E+02  0.18143654550E+02  0.54367090018E+02  0.40000013314E+02 0.  0.
        -12    1    3    3    0    0 -0.46841061926E+01 -0.31696156875E+02 -0.18143654550E+02  0.36820909982E+02  0.00000000000E+00 0.  1.
         11    1    4    4    0    0  0.11528392138E+02  0.68830570335E+01  0.11093192123E+02  0.17416636045E+02  0.51100000000E-03 0. -1.
        -11    1    4    4    0    0 -0.16304879967E+02  0.11653980857E+02  0.45526271971E+01  0.20552148190E+02  0.51100000000E-03 0.  1.
         12    1    4    4    0    0  0.94605940224E+01  0.13159118985E+02  0.24978352299E+01  0.16398305783E+02  0.00000000000E+00 0. -1.
</event>
<event>
 8    1  0.1210161E-006  0.9118800E+02  0.7816164E-02  0.1184000E+00
        -11   -1    0    0    0    0  0.00000000000E+00  0.00000000000E+00  0.45593999997E+02  0.45594000000E+02  0.51100000000E-03 0.  1.
         11   -1    0    0    0    0 -0.00000000000E+00 -0.00000000000E+00 -0.45593999997E+02  0.45594000000E+02  0.51100000000E-03 0. -1.
         23    2    1    2    0    0  0.35527136788E-14  0.00000000000E+00  0.00000000000E+00  0.91188000000E+02  0.91188000000E+02 0.  0.
    9900012    2    3    3    0    0  0.16016877955E+02 -0.51548338290E+01  0.32751598107E+02  0.54367083801E+02  0.39999999140E+02 0.  0.
         12    1    3    3    0    0 -0.16016877955E+02  0.51548338290E+01 -0.32751598107E+02  0.36820916199E+02  0.00000000000E+00 0. -1.
         11    1    4    4    0    0 -0.38944055113E+01  0.85690275028E+00  0.41892444821E+01  0.57836360710E+01  0.51100000000E-03 0. -1.
        -11    1    4    4    0    0  0.53545626240E+01 -0.14174913940E+02  0.28056050573E+02  0.31886384243E+02  0.51100000000E-03 0.  1.
        -12    1    4    4    0    0  0.14556720842E+02  0.81631773602E+01  0.50630305146E+00  0.16697063486E+02  0.00000000000E+00 0.  1.
</event>
<event>
 8    1  0.1210161E-006  0.9118800E+02  0.7816164E-02  0.1184000E+00
        -11   -1    0    0    0    0  0.00000000000E+00  0.00000000000E+00  0.45593999997E+02  0.45594000000E+02  0.51100000000E-03 0. -1.
         11   -1    0    0    0    0 -0.00000000000E+00 -0.00000000000E+00 -0.45593999997E+02  0.45594000000E+02  0.51100000000E-03 0.  1.
         23    2    1    2    0    0  0.35527136788E-14  0.00000000000E+00 -0.35527136788E-14  0.91188000000E+02  0.91188000000E+02 0.  0.
    9900012    2    3    3    0    0  0.22450859155E+02  0.82766917935E+01  0.27986340171E+02  0.54367082847E+02  0.39999996967E+02 0.  0.
        -12    1    3    3    0    0 -0.22450859155E+02 -0.82766917935E+01 -0.27986340171E+02  0.36820917153E+02  0.00000000000E+00 0.  1.
         11    1    4    4    0    0  0.19086921210E+01 -0.12683435564E+02  0.13360999380E+02  0.18521040684E+02  0.51100000000E-03 0. -1.
        -11    1    4    4    0    0 -0.15106507066E+00  0.31560064336E+01 -0.21348498150E+01  0.38132376346E+01  0.51100000000E-03 0.  1.
        -12    1    4    4    0    0  0.20693232105E+02  0.17804120924E+02  0.16760190606E+02  0.32032804528E+02  0.00000000000E+00 0.  1.
</event>
<event>
 8    1  0.1210161E-006  0.9118800E+02  0.7816164E-02  0.1184000E+00
        -11   -1    0    0    0    0  0.00000000000E+00  0.00000000000E+00  0.45593999997E+02  0.45594000000E+02  0.51100000000E-03 0.  1.
         11   -1    0    0    0    0 -0.00000000000E+00 -0.00000000000E+00 -0.45593999997E+02  0.45594000000E+02  0.51100000000E-03 0. -1.
         23    2    1    2    0    0  0.00000000000E+00  0.35527136788E-14  0.00000000000E+00  0.91188000000E+02  0.91188000000E+02 0.  0.
    9900012    2    3    3    0    0  0.11328648847E+02  0.16097224166E+02 -0.31117901168E+02  0.54367045590E+02  0.39999912030E+02 0.  0.
        -12    1    3    3    0    0 -0.11328648847E+02 -0.16097224166E+02  0.31117901168E+02  0.36820954410E+02  0.00000000000E+00 0.  1.
         11    1    4    4    0    0  0.12131496551E+02  0.24587746321E+02 -0.11966571625E+02  0.29915369201E+02  0.51100000000E-03 0. -1.
        -11    1    4    4    0    0 -0.46179376428E+01 -0.11990032089E+01 -0.15415022093E+01  0.50138992900E+01  0.51100000000E-03 0.  1.
         12    1    4    4    0    0  0.38150899392E+01 -0.72915189462E+01 -0.17609827334E+02  0.19437777098E+02  0.00000000000E+00 0. -1.
</event>
<event>
 8    1  0.1210161E-006  0.9118800E+02  0.7816164E-02  0.1184000E+00
        -11   -1    0    0    0    0  0.00000000000E+00  0.00000000000E+00  0.45593999997E+02  0.45594000000E+02  0.51100000000E-03 0.  1.
         11   -1    0    0    0    0 -0.00000000000E+00 -0.00000000000E+00 -0.45593999997E+02  0.45594000000E+02  0.51100000000E-03 0. -1.
         23    2    1    2    0    0  0.00000000000E+00  0.00000000000E+00  0.22204460493E-15  0.91188000000E+02  0.91188000000E+02 0.  0.
    9900012    2    3    3    0    0 -0.11645029813E+02  0.34901727913E+02 -0.14288656999E+01  0.54367095776E+02  0.40000026441E+02 0.  0.
         12    1    3    3    0    0  0.11645029813E+02 -0.34901727913E+02  0.14288656999E+01  0.36820904224E+02  0.00000000000E+00 0. -1.
         11    1    4    4    0    0 -0.79363915077E+01  0.11835564520E+02 -0.15343703077E+02  0.20940298997E+02  0.51100000000E-03 0. -1.
        -11    1    4    4    0    0 -0.94700188720E+01  0.18827565617E+02  0.15424632934E+02  0.26116618960E+02  0.51100000000E-03 0.  1.
         12    1    4    4    0    0  0.57613805665E+01  0.42385977751E+01 -0.15097955563E+01  0.73101778195E+01  0.00000000000E+00 0. -1.
</event>
<event>
 8    1  0.1210161E-006  0.9118800E+02  0.7816164E-02  0.1184000E+00
        -11   -1    0    0    0    0  0.00000000000E+00  0.00000000000E+00  0.45593999997E+02  0.45594000000E+02  0.51100000000E-03 0. -1.
         11   -1    0    0    0    0 -0.00000000000E+00 -0.00000000000E+00 -0.45593999997E+02  0.45594000000E+02  0.51100000000E-03 0.  1.
         23    2    1    2    0    0  0.00000000000E+00 -0.35527136788E-14  0.00000000000E+00  0.91188000000E+02  0.91188000000E+02 0.  0.
    9900012    2    3    3    0    0 -0.13024318294E+02 -0.28249850639E+02  0.19700082840E+02  0.54367079425E+02  0.39999989165E+02 0.  0.
        -12    1    3    3    0    0  0.13024318294E+02  0.28249850639E+02 -0.19700082840E+02  0.36820920575E+02  0.00000000000E+00 0.  1.
         11    1    4    4    0    0 -0.10760807269E+02 -0.25023567574E+01  0.14154772274E+02  0.17955899889E+02  0.51100000000E-03 0. -1.
        -11    1    4    4    0    0 -0.39754543391E+01 -0.29924721990E+01  0.11752696116E+02  0.12762640531E+02  0.51100000000E-03 0.  1.
         12    1    4    4    0    0  0.17119433148E+01 -0.22755021682E+02 -0.62073855508E+01  0.23648539005E+02  0.00000000000E+00 0. -1.
</event>
<event>
 8    1  0.1210161E-006  0.9118800E+02  0.7816164E-02  0.1184000E+00
        -11   -1    0    0    0    0  0.00000000000E+00  0.00000000000E+00  0.45593999997E+02  0.45594000000E+02  0.51100000000E-03 0. -1.
         11   -1    0    0    0    0 -0.00000000000E+00 -0.00000000000E+00 -0.45593999997E+02  0.45594000000E+02  0.51100000000E-03 0.  1.
         23    2    1    2    0    0  0.17763568394E-14 -0.35527136788E-14  0.00000000000E+00  0.91188000000E+02  0.91188000000E+02 0.  0.
    9900012    2    3    3    0    0 -0.14578290213E+02  0.26834201946E+02  0.20571496561E+02  0.54366981405E+02  0.39999765707E+02 0.  0.
        -12    1    3    3    0    0  0.14578290213E+02 -0.26834201946E+02 -0.20571496561E+02  0.36821018595E+02  0.00000000000E+00 0.  1.
         11    1    4    4    0    0 -0.27797072318E+01 -0.10320098513E+01  0.16617055891E+02  0.16879524975E+02  0.51100000000E-03 0. -1.
        -11    1    4    4    0    0  0.10776846167E+01  0.83052707878E+00  0.72359934023E+01  0.73627970324E+01  0.51100000000E-03 0.  1.
        -12    1    4    4    0    0 -0.12876267598E+02  0.27035684719E+02 -0.32815527322E+01  0.30124659397E+02  0.00000000000E+00 0.  1.
</event>
<event>
 8    1  0.1210161E-006  0.9118800E+02  0.7816164E-02  0.1184000E+00
        -11   -1    0    0    0    0  0.00000000000E+00  0.00000000000E+00  0.45593999997E+02  0.45594000000E+02  0.51100000000E-03 0. -1.
         11   -1    0    0    0    0 -0.00000000000E+00 -0.00000000000E+00 -0.45593999997E+02  0.45594000000E+02  0.51100000000E-03 0.  1.
         23    2    1    2    0    0  0.00000000000E+00  0.44408920985E-15  0.00000000000E+00  0.91188000000E+02  0.91188000000E+02 0.  0.
    9900012    2    3    3    0    0  0.17734654699E+02 -0.27408720627E+01  0.32151954806E+02  0.54367101657E+02  0.40000039847E+02 0.  0.
        -12    1    3    3    0    0 -0.17734654699E+02  0.27408720627E+01 -0.32151954806E+02  0.36820898343E+02  0.00000000000E+00 0.  1.
         11    1    4    4    0    0  0.67130983455E+00  0.15289652175E+01  0.24828582558E+02  0.24884672062E+02  0.51100000000E-03 0. -1.
        -11    1    4    4    0    0  0.18043594568E+02  0.37606588521E+00  0.12880908624E+02  0.22172743126E+02  0.51100000000E-03 0.  1.
         12    1    4    4    0    0 -0.98024970343E+00 -0.46459031654E+01 -0.55575363761E+01  0.73096864690E+01  0.00000000000E+00 0. -1.
</event>
<event>
 8    1  0.1210161E-006  0.9118800E+02  0.7816164E-02  0.1184000E+00
        -11   -1    0    0    0    0  0.00000000000E+00  0.00000000000E+00  0.45593999997E+02  0.45594000000E+02  0.51100000000E-03 0.  1.
         11   -1    0    0    0    0 -0.00000000000E+00 -0.00000000000E+00 -0.45593999997E+02  0.45594000000E+02  0.51100000000E-03 0. -1.
         23    2    1    2    0    0  0.00000000000E+00  0.44408920985E-15 -0.71054273576E-14  0.91188000000E+02  0.91188000000E+02 0.  0.
    9900012    2    3    3    0    0  0.17399077882E+02  0.32886733648E+01 -0.32283672103E+02  0.54367098761E+02  0.40000033245E+02 0.  0.
        -12    1    3    3    0    0 -0.17399077882E+02 -0.32886733648E+01  0.32283672103E+02  0.36820901239E+02  0.00000000000E+00 0.  1.
         11    1    4    4    0    0  0.11090110827E+02 -0.71927284449E+00 -0.11439242773E+01  0.11172129367E+02  0.51100000000E-03 0. -1.
        -11    1    4    4    0    0  0.39907395063E+01 -0.12569068875E+02 -0.13181583882E+02  0.18645687118E+02  0.51100000000E-03 0.  1.
         12    1    4    4    0    0  0.23182275488E+01  0.16577015084E+02 -0.17958163943E+02  0.24549282276E+02  0.00000000000E+00 0. -1.
</event>
<event>
 8    1  0.1210161E-006  0.9118800E+02  0.7816164E-02  0.1184000E+00
        -11   -1    0    0    0    0  0.00000000000E+00  0.00000000000E+00  0.45593999997E+02  0.45594000000E+02  0.51100000000E-03 0.  1.
         11   -1    0    0    0    0 -0.00000000000E+00 -0.00000000000E+00 -0.45593999997E+02  0.45594000000E+02  0.51100000000E-03 0. -1.
         23    2    1    2    0    0  0.00000000000E+00  0.00000000000E+00  0.88817841970E-15  0.91188000000E+02  0.91188000000E+02 0.  0.
    9900012    2    3    3    0    0 -0.12755203116E+02  0.34021623889E+02 -0.59677337162E+01  0.54367082789E+02  0.39999996834E+02 0.  0.
         12    1    3    3    0    0  0.12755203116E+02 -0.34021623889E+02  0.59677337162E+01  0.36820917211E+02  0.00000000000E+00 0. -1.
         11    1    4    4    0    0 -0.75759658533E+01  0.19450716582E+02 -0.13038211056E+02  0.24611391305E+02  0.51100000000E-03 0. -1.
        -11    1    4    4    0    0 -0.47740789604E+01 -0.19416636624E+01 -0.65585291137E+01  0.83412344467E+01  0.51100000000E-03 0.  1.
        -12    1    4    4    0    0 -0.40515830199E+00  0.16512570970E+02  0.13629006454E+02  0.21414457037E+02  0.00000000000E+00 0.  1.
</event>
<event>
 8    1  0.1210161E-006  0.9118800E+02  0.7816164E-02  0.1184000E+00
        -11   -1    0    0    0    0  0.00000000000E+00  0.00000000000E+00  0.45593999997E+02  0.45594000000E+02  0.51100000000E-03 0. -1.
         11   -1    0    0    0    0 -0.00000000000E+00 -0.00000000000E+00 -0.45593999997E+02  0.45594000000E+02  0.51100000000E-03 0.  1.
         23    2    1    2    0    0  0.88817841970E-15 -0.35527136788E-14  0.00000000000E+00  0.91188000000E+02  0.91188000000E+02 0.  0.
    9900012    2    3    3    0    0  0.69941118738E+01  0.18795958512E+02 -0.30880025690E+02  0.54367059709E+02  0.39999944219E+02 0.  0.
         12    1    3    3    0    0 -0.69941118738E+01 -0.18795958512E+02  0.30880025690E+02  0.36820940291E+02  0.00000000000E+00 0. -1.
         11    1    4    4    0    0 -0.31708849210E+01 -0.60025747572E+01 -0.11763602964E+02  0.13581891247E+02  0.51100000000E-03 0. -1.
        -11    1    4    4    0    0 -0.40446000111E+01  0.71484301991E+00  0.30386024287E+01  0.51090992136E+01  0.51100000000E-03 0.  1.
        -12    1    4    4    0    0  0.14209596806E+02  0.24083690249E+02 -0.22155025154E+02  0.35676069248E+02  0.00000000000E+00 0.  1.
</event>
<event>
 8    1  0.1210161E-006  0.9118800E+02  0.7816164E-02  0.1184000E+00
        -11   -1    0    0    0    0  0.00000000000E+00  0.00000000000E+00  0.45593999997E+02  0.45594000000E+02  0.51100000000E-03 0. -1.
         11   -1    0    0    0    0 -0.00000000000E+00 -0.00000000000E+00 -0.45593999997E+02  0.45594000000E+02  0.51100000000E-03 0.  1.
         23    2    1    2    0    0  0.00000000000E+00  0.00000000000E+00  0.00000000000E+00  0.91188000000E+02  0.91188000000E+02 0.  0.
    9900012    2    3    3    0    0 -0.10848958807E+02 -0.23478249829E+02  0.26207868123E+02  0.54367075599E+02  0.39999980443E+02 0.  0.
        -12    1    3    3    0    0  0.10848958807E+02  0.23478249829E+02 -0.26207868123E+02  0.36820924401E+02  0.00000000000E+00 0.  1.
         11    1    4    4    0    0 -0.10698847688E+02 -0.13323317554E+02  0.23335229586E+02  0.28922466572E+02  0.51100000000E-03 0. -1.
        -11    1    4    4    0    0 -0.72848177336E+01 -0.14835237712E+02  0.29142953607E+00  0.16529905590E+02  0.51100000000E-03 0.  1.
        -12    1    4    4    0    0  0.71347066150E+01  0.46803054374E+01  0.25812090005E+01  0.89147034372E+01  0.00000000000E+00 0.  1.
</event>
<event>
 8    1  0.1210161E-006  0.9118800E+02  0.7816164E-02  0.1184000E+00
        -11   -1    0    0    0    0  0.00000000000E+00  0.00000000000E+00  0.45593999997E+02  0.45594000000E+02  0.51100000000E-03 0. -1.
         11   -1    0    0    0    0 -0.00000000000E+00 -0.00000000000E+00 -0.45593999997E+02  0.45594000000E+02  0.51100000000E-03 0.  1.
         23    2    1    2    0    0  0.35527136788E-14  0.00000000000E+00  0.00000000000E+00  0.91188000000E+02  0.91188000000E+02 0.  0.
    9900012    2    3    3    0    0 -0.21008588859E+02  0.20627960679E+02 -0.22111225274E+02  0.54367084059E+02  0.39999999729E+02 0.  0.
         12    1    3    3    0    0  0.21008588859E+02 -0.20627960679E+02  0.22111225274E+02  0.36820915941E+02  0.00000000000E+00 0. -1.
         11    1    4    4    0    0 -0.13267193198E+02 -0.64551367404E+01 -0.12282417345E+02  0.19197525408E+02  0.51100000000E-03 0. -1.
        -11    1    4    4    0    0 -0.62269072139E+01  0.20377320623E+02  0.20904922773E+01  0.21409804471E+02  0.51100000000E-03 0.  1.
        -12    1    4    4    0    0 -0.15144884476E+01  0.67057767963E+01 -0.11919300206E+02  0.13759754180E+02  0.00000000000E+00 0.  1.
</event>
<event>
 8    1  0.1210161E-006  0.9118800E+02  0.7816164E-02  0.1184000E+00
        -11   -1    0    0    0    0  0.00000000000E+00  0.00000000000E+00  0.45593999997E+02  0.45594000000E+02  0.51100000000E-03 0.  1.
         11   -1    0    0    0    0 -0.00000000000E+00 -0.00000000000E+00 -0.45593999997E+02  0.45594000000E+02  0.51100000000E-03 0. -1.
         23    2    1    2    0    0  0.26645352591E-14 -0.53290705182E-14  0.14210854715E-13  0.91188000000E+02  0.91188000000E+02 0.  0.
    9900012    2    3    3    0    0  0.53062907273E+01 -0.10150802432E+02  0.34994076437E+02  0.54367069852E+02  0.39999967341E+02 0.  0.
         12    1    3    3    0    0 -0.53062907273E+01  0.10150802432E+02 -0.34994076437E+02  0.36820930148E+02  0.00000000000E+00 0. -1.
         11    1    4    4    0    0  0.11936340047E+02  0.31760695483E+01  0.87664152068E+01  0.15146407737E+02  0.51100000000E-03 0. -1.
        -11    1    4    4    0    0 -0.31964761220E+01  0.11839963710E+01 -0.41560074017E+01  0.53751004446E+01  0.51100000000E-03 0.  1.
        -12    1    4    4    0    0 -0.34335731980E+01 -0.14510868351E+02  0.30383668632E+02  0.33845561670E+02  0.00000000000E+00 0.  1.
</event>
<event>
 8    1  0.1210161E-006  0.9118800E+02  0.7816164E-02  0.1184000E+00
        -11   -1    0    0    0    0  0.00000000000E+00  0.00000000000E+00  0.45593999997E+02  0.45594000000E+02  0.51100000000E-03 0.  1.
         11   -1    0    0    0    0 -0.00000000000E+00 -0.00000000000E+00 -0.45593999997E+02  0.45594000000E+02  0.51100000000E-03 0. -1.
         23    2    1    2    0    0  0.35527136788E-14  0.13322676296E-14  0.00000000000E+00  0.91188000000E+02  0.91188000000E+02 0.  0.
    9900012    2    3    3    0    0  0.19619917007E+02  0.36500189122E+01 -0.30943679012E+02  0.54367149220E+02  0.40000148276E+02 0.  0.
        -12    1    3    3    0    0 -0.19619917007E+02 -0.36500189122E+01  0.30943679012E+02  0.36820850780E+02  0.00000000000E+00 0.  1.
         11    1    4    4    0    0  0.84606995054E+01  0.10343083735E+02 -0.77970934068E+00  0.13385468396E+02  0.51100000000E-03 0. -1.
        -11    1    4    4    0    0  0.73009375969E+01 -0.33307597738E+01 -0.33776918640E+02  0.34717112258E+02  0.51100000000E-03 0.  1.
        -12    1    4    4    0    0  0.38582799043E+01 -0.33623050486E+01  0.36129489691E+01  0.62645685656E+01  0.00000000000E+00 0.  1.
</event>
<event>
 8    1  0.1210161E-006  0.9118800E+02  0.7816164E-02  0.1184000E+00
        -11   -1    0    0    0    0  0.00000000000E+00  0.00000000000E+00  0.45593999997E+02  0.45594000000E+02  0.51100000000E-03 0.  1.
         11   -1    0    0    0    0 -0.00000000000E+00 -0.00000000000E+00 -0.45593999997E+02  0.45594000000E+02  0.51100000000E-03 0. -1.
         23    2    1    2    0    0  0.00000000000E+00  0.00000000000E+00  0.00000000000E+00  0.91188000000E+02  0.91188000000E+02 0.  0.
    9900012    2    3    3    0    0  0.33666878876E+02 -0.78949195694E+01  0.12648543907E+02  0.54367161454E+02  0.40000176166E+02 0.  0.
         12    1    3    3    0    0 -0.33666878876E+02  0.78949195694E+01 -0.12648543907E+02  0.36820838546E+02  0.00000000000E+00 0. -1.
         11    1    4    4    0    0  0.29716865337E+01 -0.28819360715E+01 -0.46863868627E+01  0.62528952064E+01  0.51100000000E-03 0. -1.
        -11    1    4    4    0    0  0.31652039651E+02  0.73369814397E+01  0.12236895953E+02  0.34719224265E+02  0.51100000000E-03 0.  1.
        -12    1    4    4    0    0 -0.95684730819E+00 -0.12349964938E+02  0.50980348164E+01  0.13395041983E+02  0.00000000000E+00 0.  1.
</event>
<event>
 8    1  0.1210161E-006  0.9118800E+02  0.7816164E-02  0.1184000E+00
        -11   -1    0    0    0    0  0.00000000000E+00  0.00000000000E+00  0.45593999997E+02  0.45594000000E+02  0.51100000000E-03 0.  1.
         11   -1    0    0    0    0 -0.00000000000E+00 -0.00000000000E+00 -0.45593999997E+02  0.45594000000E+02  0.51100000000E-03 0. -1.
         23    2    1    2    0    0  0.00000000000E+00 -0.17763568394E-14  0.00000000000E+00  0.91188000000E+02  0.91188000000E+02 0.  0.
    9900012    2    3    3    0    0  0.25407191644E+02 -0.13690910128E+02 -0.22865043748E+02  0.54367127754E+02  0.40000099340E+02 0.  0.
        -12    1    3    3    0    0 -0.25407191644E+02  0.13690910128E+02  0.22865043748E+02  0.36820872246E+02  0.00000000000E+00 0.  1.
         11    1    4    4    0    0  0.11299525929E+02 -0.16209194076E+02 -0.55972942219E+01  0.20536478805E+02  0.51100000000E-03 0. -1.
        -11    1    4    4    0    0  0.73328952492E+01 -0.53724722196E+00  0.59461844790E+01  0.94560614123E+01  0.51100000000E-03 0.  1.
         12    1    4    4    0    0  0.67747704660E+01  0.30555311707E+01 -0.23213934005E+02  0.24374587537E+02  0.00000000000E+00 0. -1.
</event>
<event>
 8    1  0.1210161E-006  0.9118800E+02  0.7816164E-02  0.1184000E+00
        -11   -1    0    0    0    0  0.00000000000E+00  0.00000000000E+00  0.45593999997E+02  0.45594000000E+02  0.51100000000E-03 0.  1.
         11   -1    0    0    0    0 -0.00000000000E+00 -0.00000000000E+00 -0.45593999997E+02  0.45594000000E+02  0.51100000000E-03 0. -1.
         23    2    1    2    0    0  0.00000000000E+00  0.00000000000E+00  0.35527136788E-14  0.91188000000E+02  0.91188000000E+02 0.  0.
    9900012    2    3    3    0    0  0.84480331910E+01 -0.16542987216E+02 -0.31792130871E+02  0.54367091861E+02  0.40000017516E+02 0.  0.
        -12    1    3    3    0    0 -0.84480331910E+01  0.16542987216E+02  0.31792130871E+02  0.36820908139E+02  0.00000000000E+00 0.  1.
         11    1    4    4    0    0  0.84492789263E+01 -0.24374930435E+01 -0.17845171466E+02  0.19894266300E+02  0.51100000000E-03 0. -1.
        -11    1    4    4    0    0  0.42935458350E+01 -0.92413247751E+01 -0.21932021577E+02  0.24183676109E+02  0.51100000000E-03 0.  1.
        -12    1    4    4    0    0 -0.42947915702E+01 -0.48641693977E+01  0.79850621716E+01  0.10289149452E+02  0.00000000000E+00 0.  1.
</event>
<event>
 8    1  0.1210161E-006  0.9118800E+02  0.7816164E-02  0.1184000E+00
        -11   -1    0    0    0    0  0.00000000000E+00  0.00000000000E+00  0.45593999997E+02  0.45594000000E+02  0.51100000000E-03 0.  1.
         11   -1    0    0    0    0 -0.00000000000E+00 -0.00000000000E+00 -0.45593999997E+02  0.45594000000E+02  0.51100000000E-03 0. -1.
         23    2    1    2    0    0  0.00000000000E+00  0.00000000000E+00 -0.88817841970E-15  0.91188000000E+02  0.91188000000E+02 0.  0.
    9900012    2    3    3    0    0 -0.16694441858E+02 -0.32762344639E+02  0.19237205690E+01  0.54367132058E+02  0.40000109152E+02 0.  0.
         12    1    3    3    0    0  0.16694441858E+02  0.32762344639E+02 -0.19237205690E+01  0.36820867942E+02  0.00000000000E+00 0. -1.
         11    1    4    4    0    0 -0.45404953305E+01 -0.95574541377E+01 -0.10814785229E+02  0.15130122513E+02  0.51100000000E-03 0. -1.
        -11    1    4    4    0    0  0.29204224833E+01  0.27727285849E+00  0.10882629951E+02  0.11271086133E+02  0.51100000000E-03 0.  1.
        -12    1    4    4    0    0 -0.15074369011E+02 -0.23482163360E+02  0.18558758476E+01  0.27965923412E+02  0.00000000000E+00 0.  1.
</event>
<event>
 8    1  0.1210161E-006  0.9118800E+02  0.7816164E-02  0.1184000E+00
        -11   -1    0    0    0    0  0.00000000000E+00  0.00000000000E+00  0.45593999997E+02  0.45594000000E+02  0.51100000000E-03 0. -1.
         11   -1    0    0    0    0 -0.00000000000E+00 -0.00000000000E+00 -0.45593999997E+02  0.45594000000E+02  0.51100000000E-03 0.  1.
         23    2    1    2    0    0  0.71054273576E-14  0.44408920985E-15 -0.35527136788E-14  0.91188000000E+02  0.91188000000E+02 0.  0.
    9900012    2    3    3    0    0 -0.34596727672E+02 -0.22203805611E+01  0.12406278623E+02  0.54367090116E+02  0.40000013537E+02 0.  0.
        -12    1    3    3    0    0  0.34596727672E+02  0.22203805611E+01 -0.12406278623E+02  0.36820909884E+02  0.00000000000E+00 0.  1.
         11    1    4    4    0    0 -0.29255960817E+02 -0.56131953196E+01 -0.94408587703E+00  0.29804538303E+02  0.51100000000E-03 0. -1.
        -11    1    4    4    0    0  0.46512705772E+01 -0.21474509164E+01  0.12012442955E+02  0.13059274461E+02  0.51100000000E-03 0.  1.
         12    1    4    4    0    0 -0.99920374319E+01  0.55402656749E+01  0.13379215441E+01  0.11503277352E+02  0.00000000000E+00 0. -1.
</event>
<event>
 8    1  0.1210161E-006  0.9118800E+02  0.7816164E-02  0.1184000E+00
        -11   -1    0    0    0    0  0.00000000000E+00  0.00000000000E+00  0.45593999997E+02  0.45594000000E+02  0.51100000000E-03 0.  1.
         11   -1    0    0    0    0 -0.00000000000E+00 -0.00000000000E+00 -0.45593999997E+02  0.45594000000E+02  0.51100000000E-03 0. -1.
         23    2    1    2    0    0  0.00000000000E+00 -0.35527136788E-14  0.00000000000E+00  0.91188000000E+02  0.91188000000E+02 0.  0.
    9900012    2    3    3    0    0  0.16312910631E+02 -0.22030103434E+02 -0.24583405480E+02  0.54367077475E+02  0.39999984721E+02 0.  0.
        -12    1    3    3    0    0 -0.16312910631E+02  0.22030103434E+02  0.24583405480E+02  0.36820922525E+02  0.00000000000E+00 0.  1.
         11    1    4    4    0    0  0.11992056544E+02 -0.10871018958E+02 -0.29898585261E+01  0.16459882369E+02  0.51100000000E-03 0. -1.
        -11    1    4    4    0    0  0.11026823466E+02 -0.14660311055E+02 -0.40272705433E+01  0.18781226378E+02  0.51100000000E-03 0.  1.
        -12    1    4    4    0    0 -0.67059693789E+01  0.35012265788E+01 -0.17566276411E+02  0.19125968728E+02  0.00000000000E+00 0.  1.
</event>
<event>
 8    1  0.1210161E-006  0.9118800E+02  0.7816164E-02  0.1184000E+00
        -11   -1    0    0    0    0  0.00000000000E+00  0.00000000000E+00  0.45593999997E+02  0.45594000000E+02  0.51100000000E-03 0.  1.
         11   -1    0    0    0    0 -0.00000000000E+00 -0.00000000000E+00 -0.45593999997E+02  0.45594000000E+02  0.51100000000E-03 0. -1.
         23    2    1    2    0    0  0.00000000000E+00  0.35527136788E-14  0.35527136788E-14  0.91188000000E+02  0.91188000000E+02 0.  0.
    9900012    2    3    3    0    0 -0.93785261359E+01  0.16549596857E+02  0.31526717289E+02  0.54367084590E+02  0.40000000940E+02 0.  0.
         12    1    3    3    0    0  0.93785261359E+01 -0.16549596857E+02 -0.31526717289E+02  0.36820915410E+02  0.00000000000E+00 0. -1.
         11    1    4    4    0    0 -0.16408942018E+01  0.26014586113E+02  0.24971007503E+02  0.36097125098E+02  0.51100000000E-03 0.  1.
        -11    1    4    4    0    0 -0.46609798482E+01 -0.10857206012E+02  0.83287083091E+01  0.14455830585E+02  0.51100000000E-03 0. -1.
         12    1    4    4    0    0 -0.30766520858E+01  0.13922167565E+01 -0.17729985228E+01  0.38141289066E+01  0.00000000000E+00 0. -1.
</event>
<event>
 8    1  0.1210161E-006  0.9118800E+02  0.7816164E-02  0.1184000E+00
        -11   -1    0    0    0    0  0.00000000000E+00  0.00000000000E+00  0.45593999997E+02  0.45594000000E+02  0.51100000000E-03 0. -1.
         11   -1    0    0    0    0 -0.00000000000E+00 -0.00000000000E+00 -0.45593999997E+02  0.45594000000E+02  0.51100000000E-03 0.  1.
         23    2    1    2    0    0 -0.35527136788E-14  0.00000000000E+00  0.00000000000E+00  0.91188000000E+02  0.91188000000E+02 0.  0.
    9900012    2    3    3    0    0 -0.19082257223E+02 -0.11784316806E+02  0.29202183174E+02  0.54367215578E+02  0.40000299551E+02 0.  0.
        -12    1    3    3    0    0  0.19082257223E+02  0.11784316806E+02 -0.29202183174E+02  0.36820784422E+02  0.00000000000E+00 0.  1.
         11    1    4    4    0    0 -0.27199823338E+02 -0.12313151147E+02  0.18394510398E+02  0.35068534241E+02  0.51100000000E-03 0. -1.
        -11    1    4    4    0    0  0.88094474815E+01  0.54794955353E+01  0.46542141315E+01  0.11370705593E+02  0.51100000000E-03 0.  1.
        -12    1    4    4    0    0 -0.69188136700E+00 -0.49506611946E+01  0.61534586451E+01  0.79279757433E+01  0.00000000000E+00 0.  1.
</event>
<event>
 8    1  0.1210161E-006  0.9118800E+02  0.7816164E-02  0.1184000E+00
        -11   -1    0    0    0    0  0.00000000000E+00  0.00000000000E+00  0.45593999997E+02  0.45594000000E+02  0.51100000000E-03 0.  1.
         11   -1    0    0    0    0 -0.00000000000E+00 -0.00000000000E+00 -0.45593999997E+02  0.45594000000E+02  0.51100000000E-03 0. -1.
         23    2    1    2    0    0  0.00000000000E+00  0.35527136788E-14  0.00000000000E+00  0.91188000000E+02  0.91188000000E+02 0.  0.
    9900012    2    3    3    0    0  0.87902744480E+01 -0.26186014901E+02  0.24347612809E+02  0.54367047394E+02  0.39999916145E+02 0.  0.
        -12    1    3    3    0    0 -0.87902744480E+01  0.26186014901E+02 -0.24347612809E+02  0.36820952606E+02  0.00000000000E+00 0.  1.
         11    1    4    4    0    0  0.26822926110E+01 -0.25325337774E+02  0.22316193726E+02  0.33861186183E+02  0.51100000000E-03 0. -1.
        -11    1    4    4    0    0  0.12090952987E+02  0.14466854049E+01 -0.27782173628E+01  0.12490097469E+02  0.51100000000E-03 0.  1.
         12    1    4    4    0    0 -0.59829711503E+01 -0.23073625317E+01  0.48096364459E+01  0.80157637427E+01  0.00000000000E+00 0. -1.
</event>
<event>
 8    1  0.1210161E-006  0.9118800E+02  0.7816164E-02  0.1184000E+00
        -11   -1    0    0    0    0  0.00000000000E+00  0.00000000000E+00  0.45593999997E+02  0.45594000000E+02  0.51100000000E-03 0.  1.
         11   -1    0    0    0    0 -0.00000000000E+00 -0.00000000000E+00 -0.45593999997E+02  0.45594000000E+02  0.51100000000E-03 0. -1.
         23    2    1    2    0    0  0.71054273576E-14  0.44408920985E-15  0.00000000000E+00  0.91188000000E+02  0.91188000000E+02 0.  0.
    9900012    2    3    3    0    0 -0.29146230333E+02  0.31111837054E+01  0.22284401491E+02  0.54367126076E+02  0.40000095516E+02 0.  0.
         12    1    3    3    0    0  0.29146230333E+02 -0.31111837054E+01 -0.22284401491E+02  0.36820873924E+02  0.00000000000E+00 0. -1.
         11    1    4    4    0    0  0.32720807926E+01 -0.83205384239E+01 -0.25007948825E+00  0.89442949631E+01  0.51100000000E-03 0. -1.
        -11    1    4    4    0    0 -0.27410639494E+01  0.28011993073E+01 -0.33134254291E+01  0.51321474520E+01  0.51100000000E-03 0.  1.
         12    1    4    4    0    0 -0.29677247177E+02  0.86305228219E+01  0.25847906408E+02  0.40290683661E+02  0.00000000000E+00 0. -1.
</event>
<event>
 8    1  0.1210161E-006  0.9118800E+02  0.7816164E-02  0.1184000E+00
        -11   -1    0    0    0    0  0.00000000000E+00  0.00000000000E+00  0.45593999997E+02  0.45594000000E+02  0.51100000000E-03 0.  1.
         11   -1    0    0    0    0 -0.00000000000E+00 -0.00000000000E+00 -0.45593999997E+02  0.45594000000E+02  0.51100000000E-03 0. -1.
         23    2    1    2    0    0  0.00000000000E+00  0.35527136788E-14  0.00000000000E+00  0.91188000000E+02  0.91188000000E+02 0.  0.
    9900012    2    3    3    0    0 -0.20573274484E+02 -0.30234526757E+02  0.42888189845E+01  0.54367079323E+02  0.39999988933E+02 0.  0.
         12    1    3    3    0    0  0.20573274484E+02  0.30234526757E+02 -0.42888189845E+01  0.36820920677E+02  0.00000000000E+00 0. -1.
         11    1    4    4    0    0 -0.25329343499E+01 -0.31064674764E+01  0.13313300046E+02  0.13903591442E+02  0.51100000000E-03 0. -1.
        -11    1    4    4    0    0 -0.36738091851E+01 -0.21014732706E+02  0.18849471228E+01  0.21416556458E+02  0.51100000000E-03 0.  1.
         12    1    4    4    0    0 -0.14366530949E+02 -0.61133265750E+01 -0.10909428184E+02  0.19046931423E+02  0.00000000000E+00 0. -1.
</event>
<event>
 8    1  0.1210161E-006  0.9118800E+02  0.7816164E-02  0.1184000E+00
        -11   -1    0    0    0    0  0.00000000000E+00  0.00000000000E+00  0.45593999997E+02  0.45594000000E+02  0.51100000000E-03 0.  1.
         11   -1    0    0    0    0 -0.00000000000E+00 -0.00000000000E+00 -0.45593999997E+02  0.45594000000E+02  0.51100000000E-03 0. -1.
         23    2    1    2    0    0  0.00000000000E+00  0.00000000000E+00 -0.22204460493E-14  0.91188000000E+02  0.91188000000E+02 0.  0.
    9900012    2    3    3    0    0  0.33700883396E+02 -0.14730758836E+02  0.17417017278E+01  0.54367104811E+02  0.40000047038E+02 0.  0.
         12    1    3    3    0    0 -0.33700883396E+02  0.14730758836E+02 -0.17417017278E+01  0.36820895189E+02  0.00000000000E+00 0. -1.
         11    1    4    4    0    0  0.91477447107E+01 -0.15039586704E+02  0.13531583255E+02  0.22203021127E+02  0.51100000000E-03 0. -1.
        -11    1    4    4    0    0  0.16132096888E+01 -0.33308788682E+00  0.39878604343E+01  0.43146754391E+01  0.51100000000E-03 0.  1.
         12    1    4    4    0    0  0.22939928997E+02  0.64191575492E+00 -0.15777741961E+02  0.27849408245E+02  0.00000000000E+00 0. -1.
</event>
<event>
 8    1  0.1210161E-006  0.9118800E+02  0.7816164E-02  0.1184000E+00
        -11   -1    0    0    0    0  0.00000000000E+00  0.00000000000E+00  0.45593999997E+02  0.45594000000E+02  0.51100000000E-03 0.  1.
         11   -1    0    0    0    0 -0.00000000000E+00 -0.00000000000E+00 -0.45593999997E+02  0.45594000000E+02  0.51100000000E-03 0. -1.
         23    2    1    2    0    0  0.71054273576E-14  0.00000000000E+00  0.35527136788E-14  0.91188000000E+02  0.91188000000E+02 0.  0.
    9900012    2    3    3    0    0 -0.29537051473E+02 -0.96315315175E+01 -0.19763018538E+02  0.54367072380E+02  0.39999973104E+02 0.  0.
        -12    1    3    3    0    0  0.29537051473E+02  0.96315315175E+01  0.19763018538E+02  0.36820927620E+02  0.00000000000E+00 0.  1.
         11    1    4    4    0    0  0.62514301819E+01 -0.12080502985E+02 -0.29426879636E+01  0.13916836724E+02  0.51100000000E-03 0. -1.
        -11    1    4    4    0    0 -0.17947758915E+02  0.92313653552E+00 -0.39544346026E+01  0.18401407131E+02  0.51100000000E-03 0.  1.
         12    1    4    4    0    0 -0.17840722741E+02  0.15258349321E+01 -0.12865895971E+02  0.22048828524E+02  0.00000000000E+00 0. -1.
</event>
<event>
 8    1  0.1210161E-006  0.9118800E+02  0.7816164E-02  0.1184000E+00
        -11   -1    0    0    0    0  0.00000000000E+00  0.00000000000E+00  0.45593999997E+02  0.45594000000E+02  0.51100000000E-03 0.  1.
         11   -1    0    0    0    0 -0.00000000000E+00 -0.00000000000E+00 -0.45593999997E+02  0.45594000000E+02  0.51100000000E-03 0. -1.
         23    2    1    2    0    0  0.13322676296E-14  0.35527136788E-14 -0.35527136788E-14  0.91188000000E+02  0.91188000000E+02 0.  0.
    9900012    2    3    3    0    0  0.20070743010E+01 -0.24751924916E+02  0.27186284920E+02  0.54367079017E+02  0.39999988235E+02 0.  0.
         12    1    3    3    0    0 -0.20070743010E+01  0.24751924916E+02 -0.27186284920E+02  0.36820920983E+02  0.00000000000E+00 0. -1.
         11    1    4    4    0    0  0.33360819077E+01  0.63544482194E+01  0.18625389511E+01  0.74146818053E+01  0.51100000000E-03 0. -1.
        -11    1    4    4    0    0  0.11396544379E+02 -0.14093265873E+02  0.95156973548E+01  0.20470707442E+02  0.51100000000E-03 0.  1.
        -12    1    4    4    0    0 -0.12725551986E+02 -0.17013107263E+02  0.15808048614E+02  0.26481689770E+02  0.00000000000E+00 0.  1.
</event>
<event>
 8    1  0.1210161E-006  0.9118800E+02  0.7816164E-02  0.1184000E+00
        -11   -1    0    0    0    0  0.00000000000E+00  0.00000000000E+00  0.45593999997E+02  0.45594000000E+02  0.51100000000E-03 0.  1.
         11   -1    0    0    0    0 -0.00000000000E+00 -0.00000000000E+00 -0.45593999997E+02  0.45594000000E+02  0.51100000000E-03 0. -1.
         23    2    1    2    0    0  0.00000000000E+00  0.00000000000E+00  0.17763568394E-14  0.91188000000E+02  0.91188000000E+02 0.  0.
    9900012    2    3    3    0    0  0.33912822156E+02  0.12235106212E+02  0.74833835825E+01  0.54367104296E+02  0.40000045864E+02 0.  0.
         12    1    3    3    0    0 -0.33912822156E+02 -0.12235106212E+02 -0.74833835825E+01  0.36820895704E+02  0.00000000000E+00 0. -1.
         11    1    4    4    0    0  0.14697071902E+02  0.93411669442E+01 -0.43363376600E+01  0.17946173601E+02  0.51100000000E-03 0. -1.
        -11    1    4    4    0    0  0.19865934833E+02 -0.25081027783E+01  0.18870810367E+02  0.27514603949E+02  0.51100000000E-03 0.  1.
         12    1    4    4    0    0 -0.65018457896E+00  0.54020420464E+01 -0.70510891244E+01  0.89063267455E+01  0.00000000000E+00 0. -1.
</event>
<event>
 8    1  0.1210161E-006  0.9118800E+02  0.7816164E-02  0.1184000E+00
        -11   -1    0    0    0    0  0.00000000000E+00  0.00000000000E+00  0.45593999997E+02  0.45594000000E+02  0.51100000000E-03 0.  1.
         11   -1    0    0    0    0 -0.00000000000E+00 -0.00000000000E+00 -0.45593999997E+02  0.45594000000E+02  0.51100000000E-03 0. -1.
         23    2    1    2    0    0  0.00000000000E+00  0.17763568394E-14  0.00000000000E+00  0.91188000000E+02  0.91188000000E+02 0.  0.
    9900012    2    3    3    0    0 -0.30359010394E+02  0.14333454533E+02 -0.15121589770E+02  0.54367083280E+02  0.39999997953E+02 0.  0.
        -12    1    3    3    0    0  0.30359010394E+02 -0.14333454533E+02  0.15121589770E+02  0.36820916720E+02  0.00000000000E+00 0.  1.
         11    1    4    4    0    0 -0.87202555335E+01 -0.12191796281E+02 -0.37619963724E+00  0.14994141508E+02  0.51100000000E-03 0. -1.
        -11    1    4    4    0    0 -0.75201346802E+01  0.47791389057E+01  0.11141243634E+01  0.89796362759E+01  0.51100000000E-03 0.  1.
         12    1    4    4    0    0 -0.14118620180E+02  0.21746111909E+02 -0.15859514496E+02  0.30393305496E+02  0.00000000000E+00 0. -1.
</event>
<event>
 8    1  0.1210161E-006  0.9118800E+02  0.7816164E-02  0.1184000E+00
        -11   -1    0    0    0    0  0.00000000000E+00  0.00000000000E+00  0.45593999997E+02  0.45594000000E+02  0.51100000000E-03 0. -1.
         11   -1    0    0    0    0 -0.00000000000E+00 -0.00000000000E+00 -0.45593999997E+02  0.45594000000E+02  0.51100000000E-03 0.  1.
         23    2    1    2    0    0  0.00000000000E+00  0.00000000000E+00  0.00000000000E+00  0.91188000000E+02  0.91188000000E+02 0.  0.
    9900012    2    3    3    0    0  0.19198355949E+02 -0.97670520978E+01  0.29863138048E+02  0.54367093006E+02  0.40000020125E+02 0.  0.
        -12    1    3    3    0    0 -0.19198355949E+02  0.97670520978E+01 -0.29863138048E+02  0.36820906994E+02  0.00000000000E+00 0.  1.
         11    1    4    4    0    0  0.69859614005E+01  0.12359922438E+02  0.10349014981E+02  0.17569105005E+02  0.51100000000E-03 0. -1.
        -11    1    4    4    0    0 -0.22731537135E+01 -0.89688966716E+01  0.13422064747E+02  0.16302151933E+02  0.51100000000E-03 0.  1.
        -12    1    4    4    0    0  0.14485548262E+02 -0.13158077864E+02  0.60920583201E+01  0.20495836068E+02  0.00000000000E+00 0.  1.
</event>
<event>
 8    1  0.1210161E-006  0.9118800E+02  0.7816164E-02  0.1184000E+00
        -11   -1    0    0    0    0  0.00000000000E+00  0.00000000000E+00  0.45593999997E+02  0.45594000000E+02  0.51100000000E-03 0.  1.
         11   -1    0    0    0    0 -0.00000000000E+00 -0.00000000000E+00 -0.45593999997E+02  0.45594000000E+02  0.51100000000E-03 0. -1.
         23    2    1    2    0    0  0.00000000000E+00  0.35527136788E-14  0.00000000000E+00  0.91188000000E+02  0.91188000000E+02 0.  0.
    9900012    2    3    3    0    0 -0.25654491328E+02 -0.20052221595E+02 -0.17191155909E+02  0.54367077175E+02  0.39999984035E+02 0.  0.
         12    1    3    3    0    0  0.25654491328E+02  0.20052221595E+02  0.17191155909E+02  0.36820922825E+02  0.00000000000E+00 0. -1.
         11    1    4    4    0    0 -0.16111604652E+02  0.35559140608E+01  0.19184692364E+01  0.16610504320E+02  0.51100000000E-03 0. -1.
        -11    1    4    4    0    0 -0.11070489103E+02 -0.27101839345E+01 -0.47112876374E+01  0.12332763575E+02  0.51100000000E-03 0.  1.
         12    1    4    4    0    0  0.15276024267E+01 -0.20897951722E+02 -0.14398337508E+02  0.25423809280E+02  0.00000000000E+00 0. -1.
</event>
<event>
 8    1  0.1210161E-006  0.9118800E+02  0.7816164E-02  0.1184000E+00
        -11   -1    0    0    0    0  0.00000000000E+00  0.00000000000E+00  0.45593999997E+02  0.45594000000E+02  0.51100000000E-03 0. -1.
         11   -1    0    0    0    0 -0.00000000000E+00 -0.00000000000E+00 -0.45593999997E+02  0.45594000000E+02  0.51100000000E-03 0.  1.
         23    2    1    2    0    0  0.00000000000E+00 -0.44408920985E-15 -0.88817841970E-15  0.91188000000E+02  0.91188000000E+02 0.  0.
    9900012    2    3    3    0    0 -0.36514985486E+02  0.35169760320E+01  0.31729568705E+01  0.54367069257E+02  0.39999965986E+02 0.  0.
        -12    1    3    3    0    0  0.36514985486E+02 -0.35169760320E+01 -0.31729568705E+01  0.36820930743E+02  0.00000000000E+00 0.  1.
         11    1    4    4    0    0 -0.26043509776E+02 -0.17863828870E+01  0.11006903600E+02  0.28330328138E+02  0.51100000000E-03 0.  1.
        -11    1    4    4    0    0 -0.12535740695E+02  0.20745280880E+01  0.42196626053E+01  0.13388577756E+02  0.51100000000E-03 0. -1.
        -12    1    4    4    0    0  0.20642649857E+01  0.32288308310E+01 -0.12053609335E+02  0.12648163363E+02  0.00000000000E+00 0.  1.
</event>
<event>
 8    1  0.1210161E-006  0.9118800E+02  0.7816164E-02  0.1184000E+00
        -11   -1    0    0    0    0  0.00000000000E+00  0.00000000000E+00  0.45593999997E+02  0.45594000000E+02  0.51100000000E-03 0.  1.
         11   -1    0    0    0    0 -0.00000000000E+00 -0.00000000000E+00 -0.45593999997E+02  0.45594000000E+02  0.51100000000E-03 0. -1.
         23    2    1    2    0    0  0.88817841970E-15  0.00000000000E+00  0.35527136788E-14  0.91188000000E+02  0.91188000000E+02 0.  0.
    9900012    2    3    3    0    0 -0.65429797862E+01 -0.34593731776E+02 -0.10781601021E+02  0.54367084976E+02  0.40000001819E+02 0.  0.
        -12    1    3    3    0    0  0.65429797862E+01  0.34593731776E+02  0.10781601021E+02  0.36820915024E+02  0.00000000000E+00 0.  1.
         11    1    4    4    0    0 -0.15235359295E+01  0.15269482569E+01  0.10765266054E+01  0.24107348467E+01  0.51100000000E-03 0. -1.
        -11    1    4    4    0    0 -0.13583662812E+02 -0.35066702791E+02 -0.39405930825E+00  0.37607776097E+02  0.51100000000E-03 0.  1.
         12    1    4    4    0    0  0.85642189550E+01 -0.10539772421E+01 -0.11464068318E+02  0.14348574031E+02  0.00000000000E+00 0. -1.
</event>
<event>
 8    1  0.1210161E-006  0.9118800E+02  0.7816164E-02  0.1184000E+00
        -11   -1    0    0    0    0  0.00000000000E+00  0.00000000000E+00  0.45593999997E+02  0.45594000000E+02  0.51100000000E-03 0. -1.
         11   -1    0    0    0    0 -0.00000000000E+00 -0.00000000000E+00 -0.45593999997E+02  0.45594000000E+02  0.51100000000E-03 0.  1.
         23    2    1    2    0    0  0.88817841970E-15 -0.17763568394E-14  0.00000000000E+00  0.91188000000E+02  0.91188000000E+02 0.  0.
    9900012    2    3    3    0    0  0.46989815543E+01 -0.84634618623E+01  0.35525609527E+02  0.54367088189E+02  0.40000009144E+02 0.  0.
        -12    1    3    3    0    0 -0.46989815543E+01  0.84634618623E+01 -0.35525609527E+02  0.36820911811E+02  0.00000000000E+00 0.  1.
         11    1    4    4    0    0 -0.10424914678E+02  0.29195904104E+01  0.15416280466E+02  0.18837849078E+02  0.51100000000E-03 0. -1.
        -11    1    4    4    0    0  0.52730880116E+00  0.40671350777E+01 -0.22513556960E+01  0.46784874739E+01  0.51100000000E-03 0.  1.
        -12    1    4    4    0    0  0.14596587431E+02 -0.15450187350E+02  0.22360684757E+02  0.30850751637E+02  0.00000000000E+00 0.  1.
</event>
<event>
 8    1  0.1210161E-006  0.9118800E+02  0.7816164E-02  0.1184000E+00
        -11   -1    0    0    0    0  0.00000000000E+00  0.00000000000E+00  0.45593999997E+02  0.45594000000E+02  0.51100000000E-03 0. -1.
         11   -1    0    0    0    0 -0.00000000000E+00 -0.00000000000E+00 -0.45593999997E+02  0.45594000000E+02  0.51100000000E-03 0.  1.
         23    2    1    2    0    0  0.35527136788E-14  0.00000000000E+00  0.00000000000E+00  0.91188000000E+02  0.91188000000E+02 0.  0.
    9900012    2    3    3    0    0  0.28492333461E+02  0.87777280594E+01  0.21608292806E+02  0.54367083472E+02  0.39999998392E+02 0.  0.
        -12    1    3    3    0    0 -0.28492333461E+02 -0.87777280594E+01 -0.21608292806E+02  0.36820916528E+02  0.00000000000E+00 0.  1.
         11    1    4    4    0    0 -0.80345129285E+01  0.48238864669E+01 -0.14846652609E+01  0.94882827657E+01  0.51100000000E-03 0. -1.
        -11    1    4    4    0    0  0.15764772832E+02 -0.31841787055E+01  0.64478344026E+01  0.17327481791E+02  0.51100000000E-03 0.  1.
         12    1    4    4    0    0  0.20762073558E+02  0.71380202980E+01  0.16645123664E+02  0.27551318916E+02  0.00000000000E+00 0. -1.
</event>
<event>
 8    1  0.1210161E-006  0.9118800E+02  0.7816164E-02  0.1184000E+00
        -11   -1    0    0    0    0  0.00000000000E+00  0.00000000000E+00  0.45593999997E+02  0.45594000000E+02  0.51100000000E-03 0.  1.
         11   -1    0    0    0    0 -0.00000000000E+00 -0.00000000000E+00 -0.45593999997E+02  0.45594000000E+02  0.51100000000E-03 0. -1.
         23    2    1    2    0    0  0.00000000000E+00 -0.35527136788E-14  0.35527136788E-14  0.91188000000E+02  0.91188000000E+02 0.  0.
    9900012    2    3    3    0    0  0.20340205362E+02  0.21593594696E+02 -0.21812254866E+02  0.54367058290E+02  0.39999940984E+02 0.  0.
        -12    1    3    3    0    0 -0.20340205362E+02 -0.21593594696E+02  0.21812254866E+02  0.36820941710E+02  0.00000000000E+00 0.  1.
         11    1    4    4    0    0  0.30116063695E+01  0.50270600759E+01  0.56915764531E+01  0.81691583846E+01  0.51100000000E-03 0. -1.
        -11    1    4    4    0    0  0.29890199136E+01 -0.29421822276E+01  0.44449134730E+01  0.61112954721E+01  0.51100000000E-03 0.  1.
         12    1    4    4    0    0  0.14339579079E+02  0.19508716848E+02 -0.31948744792E+02  0.40086604433E+02  0.00000000000E+00 0. -1.
</event>
<event>
 8    1  0.1210161E-006  0.9118800E+02  0.7816164E-02  0.1184000E+00
        -11   -1    0    0    0    0  0.00000000000E+00  0.00000000000E+00  0.45593999997E+02  0.45594000000E+02  0.51100000000E-03 0.  1.
         11   -1    0    0    0    0 -0.00000000000E+00 -0.00000000000E+00 -0.45593999997E+02  0.45594000000E+02  0.51100000000E-03 0. -1.
         23    2    1    2    0    0  0.17763568394E-14  0.35527136788E-14 -0.35527136788E-14  0.91188000000E+02  0.91188000000E+02 0.  0.
    9900012    2    3    3    0    0 -0.10303868703E+02 -0.22387463006E+02 -0.27357112829E+02  0.54367084308E+02  0.40000000296E+02 0.  0.
        -12    1    3    3    0    0  0.10303868703E+02  0.22387463006E+02  0.27357112829E+02  0.36820915692E+02  0.00000000000E+00 0.  1.
         11    1    4    4    0    0 -0.42832599131E+01 -0.19238735990E+02  0.52970910299E+01  0.20409175673E+02  0.51100000000E-03 0. -1.
        -11    1    4    4    0    0 -0.54148750001E+01  0.20666233330E+00 -0.24969993477E+02  0.25551206529E+02  0.51100000000E-03 0.  1.
         12    1    4    4    0    0 -0.60573378931E+00 -0.33553893490E+01 -0.76842103816E+01  0.84067021058E+01  0.00000000000E+00 0. -1.
</event>
<event>
 8    1  0.1210161E-006  0.9118800E+02  0.7816164E-02  0.1184000E+00
        -11   -1    0    0    0    0  0.00000000000E+00  0.00000000000E+00  0.45593999997E+02  0.45594000000E+02  0.51100000000E-03 0.  1.
         11   -1    0    0    0    0 -0.00000000000E+00 -0.00000000000E+00 -0.45593999997E+02  0.45594000000E+02  0.51100000000E-03 0. -1.
         23    2    1    2    0    0  0.17763568394E-14  0.00000000000E+00  0.00000000000E+00  0.91188000000E+02  0.91188000000E+02 0.  0.
    9900012    2    3    3    0    0 -0.11170661158E+01  0.29664011948E+02 -0.21784828314E+02  0.54367079503E+02  0.39999989343E+02 0.  0.
        -12    1    3    3    0    0  0.11170661158E+01 -0.29664011948E+02  0.21784828314E+02  0.36820920497E+02  0.00000000000E+00 0.  1.
         11    1    4    4    0    0  0.39176355471E+00  0.36103179674E+01 -0.96827178206E+01  0.10341319991E+02  0.51100000000E-03 0. -1.
        -11    1    4    4    0    0  0.11129860618E+02  0.27440983471E+02 -0.87047293999E+01  0.30865088456E+02  0.51100000000E-03 0.  1.
        -12    1    4    4    0    0 -0.12638690288E+02 -0.13872894903E+01 -0.33973810940E+01  0.13160671055E+02  0.00000000000E+00 0.  1.
</event>
<event>
 8    1  0.1210161E-006  0.9118800E+02  0.7816164E-02  0.1184000E+00
        -11   -1    0    0    0    0  0.00000000000E+00  0.00000000000E+00  0.45593999997E+02  0.45594000000E+02  0.51100000000E-03 0.  1.
         11   -1    0    0    0    0 -0.00000000000E+00 -0.00000000000E+00 -0.45593999997E+02  0.45594000000E+02  0.51100000000E-03 0. -1.
         23    2    1    2    0    0  0.35527136788E-14  0.35527136788E-14  0.00000000000E+00  0.91188000000E+02  0.91188000000E+02 0.  0.
    9900012    2    3    3    0    0 -0.22011162372E+02 -0.27705941924E+02  0.10181805263E+02  0.54367086849E+02  0.40000006090E+02 0.  0.
         12    1    3    3    0    0  0.22011162372E+02  0.27705941924E+02 -0.10181805263E+02  0.36820913151E+02  0.00000000000E+00 0. -1.
         11    1    4    4    0    0 -0.59211987289E+01 -0.12668175537E+02 -0.14217494394E+02  0.19941926009E+02  0.51100000000E-03 0. -1.
        -11    1    4    4    0    0 -0.77690180946E+01 -0.12346167693E+02  0.10386010310E+02  0.17906834150E+02  0.51100000000E-03 0.  1.
         12    1    4    4    0    0 -0.83209455487E+01 -0.26915986937E+01  0.14013289346E+02  0.16518326691E+02  0.00000000000E+00 0. -1.
</event>
<event>
 8    1  0.1210161E-006  0.9118800E+02  0.7816164E-02  0.1184000E+00
        -11   -1    0    0    0    0  0.00000000000E+00  0.00000000000E+00  0.45593999997E+02  0.45594000000E+02  0.51100000000E-03 0.  1.
         11   -1    0    0    0    0 -0.00000000000E+00 -0.00000000000E+00 -0.45593999997E+02  0.45594000000E+02  0.51100000000E-03 0. -1.
         23    2    1    2    0    0 -0.35527136788E-14  0.88817841970E-15  0.00000000000E+00  0.91188000000E+02  0.91188000000E+02 0.  0.
    9900012    2    3    3    0    0 -0.30039580749E+02  0.64313029201E+01 -0.20298793829E+02  0.54367094257E+02  0.40000022978E+02 0.  0.
        -12    1    3    3    0    0  0.30039580749E+02 -0.64313029201E+01  0.20298793829E+02  0.36820905743E+02  0.00000000000E+00 0.  1.
         11    1    4    4    0    0 -0.66658607061E+01  0.80346517590E+01  0.41285325504E+01  0.11226491399E+02  0.51100000000E-03 0. -1.
        -11    1    4    4    0    0  0.38912639323E+01  0.60205860273E+01 -0.38112637159E+01  0.81188128736E+01  0.51100000000E-03 0.  1.
         12    1    4    4    0    0 -0.27264983975E+02 -0.76239348662E+01 -0.20616062664E+02  0.35021789985E+02  0.00000000000E+00 0. -1.
</event>
<event>
 8    1  0.1210161E-006  0.9118800E+02  0.7816164E-02  0.1184000E+00
        -11   -1    0    0    0    0  0.00000000000E+00  0.00000000000E+00  0.45593999997E+02  0.45594000000E+02  0.51100000000E-03 0.  1.
         11   -1    0    0    0    0 -0.00000000000E+00 -0.00000000000E+00 -0.45593999997E+02  0.45594000000E+02  0.51100000000E-03 0. -1.
         23    2    1    2    0    0  0.00000000000E+00  0.35527136788E-14  0.00000000000E+00  0.91188000000E+02  0.91188000000E+02 0.  0.
    9900012    2    3    3    0    0  0.32883429411E+02  0.11816977404E+02 -0.11611111598E+02  0.54367098364E+02  0.40000032340E+02 0.  0.
        -12    1    3    3    0    0 -0.32883429411E+02 -0.11816977404E+02  0.11611111598E+02  0.36820901636E+02  0.00000000000E+00 0.  1.
         11    1    4    4    0    0  0.11853568351E+02  0.12734889029E+01 -0.19717438594E+02  0.23041402770E+02  0.51100000000E-03 0.  1.
        -11    1    4    4    0    0 -0.14961544613E+01  0.61303081328E+01 -0.14284829708E+01  0.64699087965E+01  0.51100000000E-03 0. -1.
         12    1    4    4    0    0  0.22526015520E+02  0.44131803682E+01  0.95348099671E+01  0.24855786797E+02  0.00000000000E+00 0. -1.
</event>
<event>
 8    1  0.1210161E-006  0.9118800E+02  0.7816164E-02  0.1184000E+00
        -11   -1    0    0    0    0  0.00000000000E+00  0.00000000000E+00  0.45593999997E+02  0.45594000000E+02  0.51100000000E-03 0.  1.
         11   -1    0    0    0    0 -0.00000000000E+00 -0.00000000000E+00 -0.45593999997E+02  0.45594000000E+02  0.51100000000E-03 0. -1.
         23    2    1    2    0    0  0.00000000000E+00 -0.17763568394E-14 -0.17763568394E-14  0.91188000000E+02  0.91188000000E+02 0.  0.
    9900012    2    3    3    0    0 -0.32339121393E+02  0.12405733830E+02 -0.12492370731E+02  0.54367077540E+02  0.39999984867E+02 0.  0.
        -12    1    3    3    0    0  0.32339121393E+02 -0.12405733830E+02  0.12492370731E+02  0.36820922460E+02  0.00000000000E+00 0.  1.
         11    1    4    4    0    0 -0.39035783498E+01 -0.40996049420E+01 -0.16579668245E+01  0.58986048237E+01  0.51100000000E-03 0. -1.
        -11    1    4    4    0    0 -0.35072888633E+02  0.17696605885E+02 -0.13009981378E+02  0.41382810352E+02  0.51100000000E-03 0.  1.
        -12    1    4    4    0    0  0.66373455892E+01 -0.11912671133E+01  0.21755774715E+01  0.70856623642E+01  0.00000000000E+00 0.  1.
</event>
<event>
 8    1  0.1210161E-006  0.9118800E+02  0.7816164E-02  0.1184000E+00
        -11   -1    0    0    0    0  0.00000000000E+00  0.00000000000E+00  0.45593999997E+02  0.45594000000E+02  0.51100000000E-03 0. -1.
         11   -1    0    0    0    0 -0.00000000000E+00 -0.00000000000E+00 -0.45593999997E+02  0.45594000000E+02  0.51100000000E-03 0.  1.
         23    2    1    2    0    0  0.17763568394E-14 -0.35527136788E-14  0.00000000000E+00  0.91188000000E+02  0.91188000000E+02 0.  0.
    9900012    2    3    3    0    0 -0.13415027056E+02  0.27693977234E+02  0.20220302892E+02  0.54367082371E+02  0.39999995882E+02 0.  0.
        -12    1    3    3    0    0  0.13415027056E+02 -0.27693977234E+02 -0.20220302892E+02  0.36820917629E+02  0.00000000000E+00 0.  1.
         11    1    4    4    0    0  0.38621538917E+01  0.16227661381E+02  0.23142600971E+02  0.28527762032E+02  0.51100000000E-03 0. -1.
        -11    1    4    4    0    0 -0.89070660356E+00 -0.17864821785E+01 -0.42779961942E+01  0.47208186289E+01  0.51100000000E-03 0.  1.
         12    1    4    4    0    0 -0.16386474344E+02  0.13252798032E+02  0.13556981150E+01  0.21118501710E+02  0.00000000000E+00 0. -1.
</event>
<event>
 8    1  0.1210161E-006  0.9118800E+02  0.7816164E-02  0.1184000E+00
        -11   -1    0    0    0    0  0.00000000000E+00  0.00000000000E+00  0.45593999997E+02  0.45594000000E+02  0.51100000000E-03 0.  1.
         11   -1    0    0    0    0 -0.00000000000E+00 -0.00000000000E+00 -0.45593999997E+02  0.45594000000E+02  0.51100000000E-03 0. -1.
         23    2    1    2    0    0  0.88817841970E-15  0.00000000000E+00 -0.35527136788E-14  0.91188000000E+02  0.91188000000E+02 0.  0.
    9900012    2    3    3    0    0  0.56938433750E+01  0.28587411059E+02  0.22497145956E+02  0.54367061669E+02  0.39999948686E+02 0.  0.
         12    1    3    3    0    0 -0.56938433750E+01 -0.28587411059E+02 -0.22497145956E+02  0.36820938331E+02  0.00000000000E+00 0. -1.
         11    1    4    4    0    0  0.12165822736E+02 -0.14307505249E+01  0.12543129725E+02  0.17532381283E+02  0.51100000000E-03 0. -1.
        -11    1    4    4    0    0 -0.43780824880E+01  0.32104652256E+02  0.98916709236E+01  0.33878037969E+02  0.51100000000E-03 0.  1.
        -12    1    4    4    0    0 -0.20938968731E+01 -0.20864906715E+01  0.62345307445E-01  0.29566424158E+01  0.00000000000E+00 0.  1.
</event>
<event>
 8    1  0.1210161E-006  0.9118800E+02  0.7816164E-02  0.1184000E+00
        -11   -1    0    0    0    0  0.00000000000E+00  0.00000000000E+00  0.45593999997E+02  0.45594000000E+02  0.51100000000E-03 0.  1.
         11   -1    0    0    0    0 -0.00000000000E+00 -0.00000000000E+00 -0.45593999997E+02  0.45594000000E+02  0.51100000000E-03 0. -1.
         23    2    1    2    0    0  0.00000000000E+00  0.35527136788E-14  0.00000000000E+00  0.91188000000E+02  0.91188000000E+02 0.  0.
    9900012    2    3    3    0    0 -0.24989344549E+02 -0.22720874661E+02 -0.14665409997E+02  0.54367085607E+02  0.40000003259E+02 0.  0.
        -12    1    3    3    0    0  0.24989344549E+02  0.22720874661E+02  0.14665409997E+02  0.36820914393E+02  0.00000000000E+00 0.  1.
         11    1    4    4    0    0 -0.17841728050E+02 -0.56110966315E+01 -0.13188703928E+02  0.22885663128E+02  0.51100000000E-03 0. -1.
        -11    1    4    4    0    0  0.10802556199E+01 -0.14942216793E+01 -0.11185767419E+02  0.11336712206E+02  0.51100000000E-03 0.  1.
        -12    1    4    4    0    0 -0.82278721184E+01 -0.15615556350E+02  0.97090613500E+01  0.20144710274E+02  0.00000000000E+00 0.  1.
</event>
<event>
 8    1  0.1210161E-006  0.9118800E+02  0.7816164E-02  0.1184000E+00
        -11   -1    0    0    0    0  0.00000000000E+00  0.00000000000E+00  0.45593999997E+02  0.45594000000E+02  0.51100000000E-03 0. -1.
         11   -1    0    0    0    0 -0.00000000000E+00 -0.00000000000E+00 -0.45593999997E+02  0.45594000000E+02  0.51100000000E-03 0.  1.
         23    2    1    2    0    0  0.88817841970E-15  0.00000000000E+00 -0.35527136788E-14  0.91188000000E+02  0.91188000000E+02 0.  0.
    9900012    2    3    3    0    0  0.36069671977E+01 -0.20038665365E+02  0.30679341020E+02  0.54367078129E+02  0.39999986211E+02 0.  0.
        -12    1    3    3    0    0 -0.36069671977E+01  0.20038665365E+02 -0.30679341020E+02  0.36820921871E+02  0.00000000000E+00 0.  1.
         11    1    4    4    0    0 -0.13210855141E+02 -0.17743542762E+02  0.20543830674E+02  0.30189550880E+02  0.51100000000E-03 0. -1.
        -11    1    4    4    0    0  0.82329771871E+01  0.15521814397E+01 -0.22019589257E+01  0.86625518155E+01  0.51100000000E-03 0.  1.
         12    1    4    4    0    0  0.85848451514E+01 -0.38473040425E+01  0.12337469272E+02  0.15514975434E+02  0.00000000000E+00 0. -1.
</event>
<event>
 8    1  0.1210161E-006  0.9118800E+02  0.7816164E-02  0.1184000E+00
        -11   -1    0    0    0    0  0.00000000000E+00  0.00000000000E+00  0.45593999997E+02  0.45594000000E+02  0.51100000000E-03 0.  1.
         11   -1    0    0    0    0 -0.00000000000E+00 -0.00000000000E+00 -0.45593999997E+02  0.45594000000E+02  0.51100000000E-03 0. -1.
         23    2    1    2    0    0 -0.71054273576E-14  0.00000000000E+00 -0.44408920985E-15  0.91188000000E+02  0.91188000000E+02 0.  0.
    9900012    2    3    3    0    0 -0.33008474777E+02  0.16011574382E+02 -0.31385764234E+01  0.54367074112E+02  0.39999977053E+02 0.  0.
         12    1    3    3    0    0  0.33008474777E+02 -0.16011574382E+02  0.31385764234E+01  0.36820925888E+02  0.00000000000E+00 0. -1.
         11    1    4    4    0    0  0.29205104223E+00  0.27257033121E+01 -0.72054693495E+01  0.77093152202E+01  0.51100000000E-03 0. -1.
        -11    1    4    4    0    0 -0.34966223675E+02  0.19486170427E+01  0.29512367021E+01  0.35144611319E+02  0.51100000000E-03 0.  1.
        -12    1    4    4    0    0  0.16656978556E+01  0.11337254027E+02  0.11156562240E+01  0.11513147573E+02  0.00000000000E+00 0.  1.
</event>
<event>
 8    1  0.1210161E-006  0.9118800E+02  0.7816164E-02  0.1184000E+00
        -11   -1    0    0    0    0  0.00000000000E+00  0.00000000000E+00  0.45593999997E+02  0.45594000000E+02  0.51100000000E-03 0.  1.
         11   -1    0    0    0    0 -0.00000000000E+00 -0.00000000000E+00 -0.45593999997E+02  0.45594000000E+02  0.51100000000E-03 0. -1.
         23    2    1    2    0    0  0.17763568394E-14  0.00000000000E+00  0.00000000000E+00  0.91188000000E+02  0.91188000000E+02 0.  0.
    9900012    2    3    3    0    0  0.13368859092E+02  0.20754569328E+02 -0.27318519791E+02  0.54367081150E+02  0.39999993098E+02 0.  0.
        -12    1    3    3    0    0 -0.13368859092E+02 -0.20754569328E+02  0.27318519791E+02  0.36820918850E+02  0.00000000000E+00 0.  1.
         11    1    4    4    0    0 -0.14432455394E+00  0.13482194109E+02 -0.31487438616E+02  0.34252725124E+02  0.51100000000E-03 0. -1.
        -11    1    4    4    0    0  0.61516640135E+01  0.73989146795E+01 -0.27535966159E+01  0.10008456582E+02  0.51100000000E-03 0.  1.
        -12    1    4    4    0    0  0.73615196322E+01 -0.12653946070E+00  0.69225154415E+01  0.10105899444E+02  0.00000000000E+00 0.  1.
</event>
<event>
 8    1  0.1210161E-006  0.9118800E+02  0.7816164E-02  0.1184000E+00
        -11   -1    0    0    0    0  0.00000000000E+00  0.00000000000E+00  0.45593999997E+02  0.45594000000E+02  0.51100000000E-03 0. -1.
         11   -1    0    0    0    0 -0.00000000000E+00 -0.00000000000E+00 -0.45593999997E+02  0.45594000000E+02  0.51100000000E-03 0.  1.
         23    2    1    2    0    0  0.00000000000E+00  0.00000000000E+00 -0.44408920985E-15  0.91188000000E+02  0.91188000000E+02 0.  0.
    9900012    2    3    3    0    0 -0.31038958633E+02 -0.19483207670E+02  0.35732398699E+01  0.54367076908E+02  0.39999983428E+02 0.  0.
         12    1    3    3    0    0  0.31038958633E+02  0.19483207670E+02 -0.35732398699E+01  0.36820923092E+02  0.00000000000E+00 0. -1.
         11    1    4    4    0    0  0.34274845580E+01 -0.33956012439E+01  0.90556935142E+01  0.10260767198E+02  0.51100000000E-03 0. -1.
        -11    1    4    4    0    0 -0.31469459869E+02 -0.58134501777E+01 -0.82573730048E+01  0.33050072869E+02  0.51100000000E-03 0.  1.
        -12    1    4    4    0    0 -0.29969833220E+01 -0.10274156249E+02  0.27749193605E+01  0.11056236842E+02  0.00000000000E+00 0.  1.
</event>
<event>
 8    1  0.1210161E-006  0.9118800E+02  0.7816164E-02  0.1184000E+00
        -11   -1    0    0    0    0  0.00000000000E+00  0.00000000000E+00  0.45593999997E+02  0.45594000000E+02  0.51100000000E-03 0. -1.
         11   -1    0    0    0    0 -0.00000000000E+00 -0.00000000000E+00 -0.45593999997E+02  0.45594000000E+02  0.51100000000E-03 0.  1.
         23    2    1    2    0    0  0.44408920985E-15  0.00000000000E+00  0.00000000000E+00  0.91188000000E+02  0.91188000000E+02 0.  0.
    9900012    2    3    3    0    0 -0.20893636793E+01 -0.27057184285E+02  0.24886313377E+02  0.54367010667E+02  0.39999832416E+02 0.  0.
         12    1    3    3    0    0  0.20893636793E+01  0.27057184285E+02 -0.24886313377E+02  0.36820989333E+02  0.00000000000E+00 0. -1.
         11    1    4    4    0    0  0.56800610484E+01 -0.84876868526E+01 -0.70060737153E+00  0.10236931795E+02  0.51100000000E-03 0. -1.
        -11    1    4    4    0    0 -0.35405512497E+01  0.78686259210E+01  0.31096286178E+01  0.91717265244E+01  0.51100000000E-03 0.  1.
         12    1    4    4    0    0 -0.42288734780E+01 -0.26438123353E+02  0.22477292130E+02  0.34958352347E+02  0.00000000000E+00 0. -1.
</event>
<event>
 8    1  0.1210161E-006  0.9118800E+02  0.7816164E-02  0.1184000E+00
        -11   -1    0    0    0    0  0.00000000000E+00  0.00000000000E+00  0.45593999997E+02  0.45594000000E+02  0.51100000000E-03 0.  1.
         11   -1    0    0    0    0 -0.00000000000E+00 -0.00000000000E+00 -0.45593999997E+02  0.45594000000E+02  0.51100000000E-03 0. -1.
         23    2    1    2    0    0  0.00000000000E+00  0.00000000000E+00  0.00000000000E+00  0.91188000000E+02  0.91188000000E+02 0.  0.
    9900012    2    3    3    0    0 -0.12551666512E+02 -0.26687676216E+01  0.34512566615E+02  0.54367028975E+02  0.39999874155E+02 0.  0.
         12    1    3    3    0    0  0.12551666512E+02  0.26687676216E+01 -0.34512566615E+02  0.36820971025E+02  0.00000000000E+00 0. -1.
         11    1    4    4    0    0 -0.55136299214E+01 -0.82914445431E+01  0.15923351016E+02  0.18780342791E+02  0.51100000000E-03 0. -1.
        -11    1    4    4    0    0 -0.48123816690E+01  0.26509372058E+00  0.25848488916E+02  0.26293985463E+02  0.51100000000E-03 0.  1.
        -12    1    4    4    0    0 -0.22256549217E+01  0.53575832009E+01 -0.72592733176E+01  0.92927007207E+01  0.00000000000E+00 0.  1.
</event>
<event>
 8    1  0.1210161E-006  0.9118800E+02  0.7816164E-02  0.1184000E+00
        -11   -1    0    0    0    0  0.00000000000E+00  0.00000000000E+00  0.45593999997E+02  0.45594000000E+02  0.51100000000E-03 0. -1.
         11   -1    0    0    0    0 -0.00000000000E+00 -0.00000000000E+00 -0.45593999997E+02  0.45594000000E+02  0.51100000000E-03 0.  1.
         23    2    1    2    0    0  0.35527136788E-14  0.00000000000E+00  0.00000000000E+00  0.91188000000E+02  0.91188000000E+02 0.  0.
    9900012    2    3    3    0    0 -0.26511395458E+02  0.94868953807E+01 -0.23726036929E+02  0.54367080654E+02  0.39999991968E+02 0.  0.
         12    1    3    3    0    0  0.26511395458E+02 -0.94868953807E+01  0.23726036929E+02  0.36820919346E+02  0.00000000000E+00 0. -1.
         11    1    4    4    0    0 -0.60138811959E+01  0.31772469863E+01 -0.16923287146E+02  0.18238950451E+02  0.51100000000E-03 0. -1.
        -11    1    4    4    0    0 -0.15365005105E+02 -0.57238461548E+01 -0.13674928060E+02  0.21350631241E+02  0.51100000000E-03 0.  1.
        -12    1    4    4    0    0 -0.51325091568E+01  0.12033494549E+02  0.68721782772E+01  0.14777498962E+02  0.00000000000E+00 0.  1.
</event>
<event>
 8    1  0.1210161E-006  0.9118800E+02  0.7816164E-02  0.1184000E+00
        -11   -1    0    0    0    0  0.00000000000E+00  0.00000000000E+00  0.45593999997E+02  0.45594000000E+02  0.51100000000E-03 0.  1.
         11   -1    0    0    0    0 -0.00000000000E+00 -0.00000000000E+00 -0.45593999997E+02  0.45594000000E+02  0.51100000000E-03 0. -1.
         23    2    1    2    0    0  0.22204460493E-15 -0.35527136788E-14  0.00000000000E+00  0.91188000000E+02  0.91188000000E+02 0.  0.
    9900012    2    3    3    0    0  0.92155416808E+00  0.30513286979E+02  0.20588096271E+02  0.54367086752E+02  0.40000005869E+02 0.  0.
         12    1    3    3    0    0 -0.92155416808E+00 -0.30513286979E+02 -0.20588096271E+02  0.36820913248E+02  0.00000000000E+00 0. -1.
         11    1    4    4    0    0 -0.85865034825E+01  0.41755424018E+01  0.68201549107E+01  0.11733614519E+02  0.51100000000E-03 0. -1.
        -11    1    4    4    0    0  0.74668010045E+01  0.27169736709E+02  0.20955660458E+02  0.35115344446E+02  0.51100000000E-03 0.  1.
        -12    1    4    4    0    0  0.20412566460E+01 -0.83199213175E+00 -0.71877190976E+01  0.75181277874E+01  0.00000000000E+00 0.  1.
</event>
<event>
 8    1  0.1210161E-006  0.9118800E+02  0.7816164E-02  0.1184000E+00
        -11   -1    0    0    0    0  0.00000000000E+00  0.00000000000E+00  0.45593999997E+02  0.45594000000E+02  0.51100000000E-03 0. -1.
         11   -1    0    0    0    0 -0.00000000000E+00 -0.00000000000E+00 -0.45593999997E+02  0.45594000000E+02  0.51100000000E-03 0.  1.
         23    2    1    2    0    0  0.00000000000E+00  0.00000000000E+00 -0.35527136788E-14  0.91188000000E+02  0.91188000000E+02 0.  0.
    9900012    2    3    3    0    0  0.32585565806E+02 -0.12743802616E+02 -0.11469803616E+02  0.54367082045E+02  0.39999995139E+02 0.  0.
         12    1    3    3    0    0 -0.32585565806E+02  0.12743802616E+02  0.11469803616E+02  0.36820917955E+02  0.00000000000E+00 0. -1.
         11    1    4    4    0    0  0.17667723519E+02 -0.14126134327E+02  0.38405844001E+01  0.22944415751E+02  0.51100000000E-03 0. -1.
        -11    1    4    4    0    0 -0.12221561391E+01 -0.84200587183E+01 -0.56313502325E+01  0.10203095616E+02  0.51100000000E-03 0.  1.
         12    1    4    4    0    0  0.16139998427E+02  0.98023904296E+01 -0.96790377840E+01  0.21219570678E+02  0.00000000000E+00 0. -1.
</event>
<event>
 8    1  0.1210161E-006  0.9118800E+02  0.7816164E-02  0.1184000E+00
        -11   -1    0    0    0    0  0.00000000000E+00  0.00000000000E+00  0.45593999997E+02  0.45594000000E+02  0.51100000000E-03 0. -1.
         11   -1    0    0    0    0 -0.00000000000E+00 -0.00000000000E+00 -0.45593999997E+02  0.45594000000E+02  0.51100000000E-03 0.  1.
         23    2    1    2    0    0  0.00000000000E+00 -0.66613381478E-15  0.00000000000E+00  0.91188000000E+02  0.91188000000E+02 0.  0.
    9900012    2    3    3    0    0 -0.21898159247E+02  0.15190392885E+01  0.29562527266E+02  0.54367083700E+02  0.39999998911E+02 0.  0.
        -12    1    3    3    0    0  0.21898159247E+02 -0.15190392885E+01 -0.29562527266E+02  0.36820916300E+02  0.00000000000E+00 0.  1.
         11    1    4    4    0    0 -0.11487029588E+02 -0.25420864549E+01  0.14285581588E+02  0.18506536518E+02  0.51100000000E-03 0. -1.
        -11    1    4    4    0    0 -0.17847079432E+02  0.39785853276E+01  0.19962428023E+02  0.27071127023E+02  0.51100000000E-03 0.  1.
        -12    1    4    4    0    0  0.74359497728E+01  0.82540415867E-01 -0.46854823446E+01  0.87894201597E+01  0.00000000000E+00 0.  1.
</event>
<event>
 8    1  0.1210161E-006  0.9118800E+02  0.7816164E-02  0.1184000E+00
        -11   -1    0    0    0    0  0.00000000000E+00  0.00000000000E+00  0.45593999997E+02  0.45594000000E+02  0.51100000000E-03 0. -1.
         11   -1    0    0    0    0 -0.00000000000E+00 -0.00000000000E+00 -0.45593999997E+02  0.45594000000E+02  0.51100000000E-03 0.  1.
         23    2    1    2    0    0 -0.35527136788E-14  0.35527136788E-14 -0.44408920985E-15  0.91188000000E+02  0.91188000000E+02 0.  0.
    9900012    2    3    3    0    0 -0.31166169341E+02 -0.19243767772E+02  0.37585676237E+01  0.54367088278E+02  0.40000009347E+02 0.  0.
        -12    1    3    3    0    0  0.31166169341E+02  0.19243767772E+02 -0.37585676237E+01  0.36820911722E+02  0.00000000000E+00 0.  1.
         11    1    4    4    0    0 -0.92903344339E+01  0.60586695721E+01  0.13875018301E+02  0.17763274585E+02  0.51100000000E-03 0. -1.
        -11    1    4    4    0    0 -0.54622756063E+01 -0.63349563960E+01 -0.77603506631E+01  0.11410134531E+02  0.51100000000E-03 0.  1.
         12    1    4    4    0    0 -0.16413559301E+02 -0.18967480948E+02 -0.23561000138E+01  0.25193679162E+02  0.00000000000E+00 0. -1.
</event>
<event>
 8    1  0.1210161E-006  0.9118800E+02  0.7816164E-02  0.1184000E+00
        -11   -1    0    0    0    0  0.00000000000E+00  0.00000000000E+00  0.45593999997E+02  0.45594000000E+02  0.51100000000E-03 0.  1.
         11   -1    0    0    0    0 -0.00000000000E+00 -0.00000000000E+00 -0.45593999997E+02  0.45594000000E+02  0.51100000000E-03 0. -1.
         23    2    1    2    0    0  0.17763568394E-14 -0.17763568394E-14  0.00000000000E+00  0.91188000000E+02  0.91188000000E+02 0.  0.
    9900012    2    3    3    0    0  0.15969444611E+02 -0.93359808132E+01  0.31837011325E+02  0.54367095760E+02  0.40000026404E+02 0.  0.
         12    1    3    3    0    0 -0.15969444611E+02  0.93359808132E+01 -0.31837011325E+02  0.36820904240E+02  0.00000000000E+00 0. -1.
         11    1    4    4    0    0  0.53324258954E+01  0.17959445335E+01  0.15892402365E+02  0.16859081703E+02  0.51100000000E-03 0. -1.
        -11    1    4    4    0    0  0.63702377741E+01 -0.21447098280E+02  0.13329721940E+02  0.26043030569E+02  0.51100000000E-03 0.  1.
         12    1    4    4    0    0  0.42667809411E+01  0.10315172934E+02  0.26148870200E+01  0.11464983488E+02  0.00000000000E+00 0. -1.
</event>
<event>
 8    1  0.1210161E-006  0.9118800E+02  0.7816164E-02  0.1184000E+00
        -11   -1    0    0    0    0  0.00000000000E+00  0.00000000000E+00  0.45593999997E+02  0.45594000000E+02  0.51100000000E-03 0.  1.
         11   -1    0    0    0    0 -0.00000000000E+00 -0.00000000000E+00 -0.45593999997E+02  0.45594000000E+02  0.51100000000E-03 0. -1.
         23    2    1    2    0    0  0.00000000000E+00  0.88817841970E-15  0.00000000000E+00  0.91188000000E+02  0.91188000000E+02 0.  0.
    9900012    2    3    3    0    0 -0.25766223629E+02 -0.42086763405E+01 -0.25964739426E+02  0.54367096560E+02  0.40000028228E+02 0.  0.
        -12    1    3    3    0    0  0.25766223629E+02  0.42086763405E+01  0.25964739426E+02  0.36820903440E+02  0.00000000000E+00 0.  1.
         11    1    4    4    0    0 -0.45170452581E+01  0.23512525111E+01  0.15533440229E+01  0.53239988870E+01  0.51100000000E-03 0. -1.
        -11    1    4    4    0    0 -0.21268860110E+02  0.10151570120E+02 -0.19076711954E+02  0.30320615520E+02  0.51100000000E-03 0.  1.
        -12    1    4    4    0    0  0.19681738725E-01 -0.16711498971E+02 -0.84413714948E+01  0.18722482153E+02  0.00000000000E+00 0.  1.
</event>
<event>
 8    1  0.1210161E-006  0.9118800E+02  0.7816164E-02  0.1184000E+00
        -11   -1    0    0    0    0  0.00000000000E+00  0.00000000000E+00  0.45593999997E+02  0.45594000000E+02  0.51100000000E-03 0.  1.
         11   -1    0    0    0    0 -0.00000000000E+00 -0.00000000000E+00 -0.45593999997E+02  0.45594000000E+02  0.51100000000E-03 0. -1.
         23    2    1    2    0    0  0.35527136788E-14  0.35527136788E-14  0.35527136788E-14  0.91188000000E+02  0.91188000000E+02 0.  0.
    9900012    2    3    3    0    0  0.22656405402E+02 -0.20387722832E+02  0.20659436918E+02  0.54367023888E+02  0.39999862558E+02 0.  0.
         12    1    3    3    0    0 -0.22656405402E+02  0.20387722832E+02 -0.20659436918E+02  0.36820976112E+02  0.00000000000E+00 0. -1.
         11    1    4    4    0    0  0.98903307049E+01 -0.16179125171E+01  0.18140069911E+02  0.20724343632E+02  0.51100000000E-03 0.  1.
        -11    1    4    4    0    0  0.80789911542E+01 -0.12844066364E+02  0.13502690492E+02  0.20311641726E+02  0.51100000000E-03 0. -1.
         12    1    4    4    0    0  0.46870835433E+01 -0.59257439516E+01 -0.10983323485E+02  0.13331038530E+02  0.00000000000E+00 0. -1.
</event>
<event>
 8    1  0.1210161E-006  0.9118800E+02  0.7816164E-02  0.1184000E+00
        -11   -1    0    0    0    0  0.00000000000E+00  0.00000000000E+00  0.45593999997E+02  0.45594000000E+02  0.51100000000E-03 0. -1.
         11   -1    0    0    0    0 -0.00000000000E+00 -0.00000000000E+00 -0.45593999997E+02  0.45594000000E+02  0.51100000000E-03 0.  1.
         23    2    1    2    0    0  0.00000000000E+00  0.11102230246E-15  0.00000000000E+00  0.91188000000E+02  0.91188000000E+02 0.  0.
    9900012    2    3    3    0    0 -0.33503397201E+02  0.63594920617E+00 -0.15260980919E+02  0.54367087545E+02  0.40000007677E+02 0.  0.
         12    1    3    3    0    0  0.33503397201E+02 -0.63594920617E+00  0.15260980919E+02  0.36820912455E+02  0.00000000000E+00 0. -1.
         11    1    4    4    0    0 -0.11092303763E+02 -0.32466796346E+01 -0.27294718362E+00  0.11560909646E+02  0.51100000000E-03 0. -1.
        -11    1    4    4    0    0 -0.29843246370E+02  0.41517041249E+01 -0.53007469588E+01  0.30593363980E+02  0.51100000000E-03 0.  1.
        -12    1    4    4    0    0  0.74321529327E+01 -0.26907528416E+00 -0.96872867763E+01  0.12212813919E+02  0.00000000000E+00 0.  1.
</event>
<event>
 8    1  0.1210161E-006  0.9118800E+02  0.7816164E-02  0.1184000E+00
        -11   -1    0    0    0    0  0.00000000000E+00  0.00000000000E+00  0.45593999997E+02  0.45594000000E+02  0.51100000000E-03 0.  1.
         11   -1    0    0    0    0 -0.00000000000E+00 -0.00000000000E+00 -0.45593999997E+02  0.45594000000E+02  0.51100000000E-03 0. -1.
         23    2    1    2    0    0  0.33306690739E-15  0.35527136788E-14  0.00000000000E+00  0.91188000000E+02  0.91188000000E+02 0.  0.
    9900012    2    3    3    0    0  0.60900232369E+00 -0.14755135801E+02 -0.33729734075E+02  0.54367083701E+02  0.39999998913E+02 0.  0.
        -12    1    3    3    0    0 -0.60900232369E+00  0.14755135801E+02  0.33729734075E+02  0.36820916299E+02  0.00000000000E+00 0.  1.
         11    1    4    4    0    0  0.41766480101E+01  0.76568708857E+01 -0.12520359582E+02  0.15258815966E+02  0.51100000000E-03 0. -1.
        -11    1    4    4    0    0  0.42431832550E+01  0.36750847290E+01 -0.40408537809E+01  0.69165997022E+01  0.51100000000E-03 0.  1.
        -12    1    4    4    0    0 -0.78108289414E+01 -0.26087091416E+02 -0.17168520712E+02  0.32191668033E+02  0.00000000000E+00 0.  1.
</event>
<event>
 8    1  0.1210161E-006  0.9118800E+02  0.7816164E-02  0.1184000E+00
        -11   -1    0    0    0    0  0.00000000000E+00  0.00000000000E+00  0.45593999997E+02  0.45594000000E+02  0.51100000000E-03 0. -1.
         11   -1    0    0    0    0 -0.00000000000E+00 -0.00000000000E+00 -0.45593999997E+02  0.45594000000E+02  0.51100000000E-03 0.  1.
         23    2    1    2    0    0  0.44408920985E-15 -0.35527136788E-14  0.35527136788E-14  0.91188000000E+02  0.91188000000E+02 0.  0.
    9900012    2    3    3    0    0  0.18924144013E+01  0.28498098542E+02 -0.23239129355E+02  0.54367082223E+02  0.39999995543E+02 0.  0.
        -12    1    3    3    0    0 -0.18924144013E+01 -0.28498098542E+02  0.23239129355E+02  0.36820917777E+02  0.00000000000E+00 0.  1.
         11    1    4    4    0    0 -0.15413813168E+01  0.26527613532E+02 -0.20807900689E+02  0.33749946184E+02  0.51100000000E-03 0. -1.
        -11    1    4    4    0    0 -0.29059564424E+00 -0.39463458199E+01  0.74952599151E+01  0.84756718090E+01  0.51100000000E-03 0.  1.
        -12    1    4    4    0    0  0.37243913623E+01  0.59168308299E+01 -0.99264885815E+01  0.12141464230E+02  0.00000000000E+00 0.  1.
</event>
<event>
 8    1  0.1210161E-006  0.9118800E+02  0.7816164E-02  0.1184000E+00
        -11   -1    0    0    0    0  0.00000000000E+00  0.00000000000E+00  0.45593999997E+02  0.45594000000E+02  0.51100000000E-03 0.  1.
         11   -1    0    0    0    0 -0.00000000000E+00 -0.00000000000E+00 -0.45593999997E+02  0.45594000000E+02  0.51100000000E-03 0. -1.
         23    2    1    2    0    0  0.00000000000E+00 -0.35527136788E-14 -0.17763568394E-14  0.91188000000E+02  0.91188000000E+02 0.  0.
    9900012    2    3    3    0    0 -0.25741369772E+02 -0.25683277700E+02  0.57906351760E+01  0.54367077593E+02  0.39999984989E+02 0.  0.
         12    1    3    3    0    0  0.25741369772E+02  0.25683277700E+02 -0.57906351760E+01  0.36820922407E+02  0.00000000000E+00 0. -1.
         11    1    4    4    0    0 -0.18175472786E+02 -0.14084370914E+02 -0.50412963389E+01  0.23540008158E+02  0.51100000000E-03 0. -1.
        -11    1    4    4    0    0 -0.10117814261E+02 -0.17539220944E+02  0.26835835106E+01  0.20425377781E+02  0.51100000000E-03 0.  1.
        -12    1    4    4    0    0  0.25519172750E+01  0.59403141584E+01  0.81483480043E+01  0.10401691655E+02  0.00000000000E+00 0.  1.
</event>
<event>
 8    1  0.1210161E-006  0.9118800E+02  0.7816164E-02  0.1184000E+00
        -11   -1    0    0    0    0  0.00000000000E+00  0.00000000000E+00  0.45593999997E+02  0.45594000000E+02  0.51100000000E-03 0. -1.
         11   -1    0    0    0    0 -0.00000000000E+00 -0.00000000000E+00 -0.45593999997E+02  0.45594000000E+02  0.51100000000E-03 0.  1.
         23    2    1    2    0    0  0.71054273576E-14  0.00000000000E+00  0.00000000000E+00  0.91188000000E+02  0.91188000000E+02 0.  0.
    9900012    2    3    3    0    0 -0.32993333165E+02  0.31810483197E+01 -0.16034353123E+02  0.54367087711E+02  0.40000008054E+02 0.  0.
        -12    1    3    3    0    0  0.32993333165E+02 -0.31810483197E+01  0.16034353123E+02  0.36820912289E+02  0.00000000000E+00 0.  1.
         11    1    4    4    0    0 -0.24175565383E+01  0.59844265121E+01  0.83244331328E+01  0.10533476517E+02  0.51100000000E-03 0. -1.
        -11    1    4    4    0    0  0.23574530169E+01  0.12666313405E+01 -0.11931173636E-01  0.26762066986E+01  0.51100000000E-03 0.  1.
        -12    1    4    4    0    0 -0.32933229644E+02 -0.40700095329E+01 -0.24346855082E+02  0.41157404495E+02  0.00000000000E+00 0.  1.
</event>
<event>
 8    1  0.1210161E-006  0.9118800E+02  0.7816164E-02  0.1184000E+00
        -11   -1    0    0    0    0  0.00000000000E+00  0.00000000000E+00  0.45593999997E+02  0.45594000000E+02  0.51100000000E-03 0.  1.
         11   -1    0    0    0    0 -0.00000000000E+00 -0.00000000000E+00 -0.45593999997E+02  0.45594000000E+02  0.51100000000E-03 0. -1.
         23    2    1    2    0    0  0.00000000000E+00  0.17763568394E-14  0.00000000000E+00  0.91188000000E+02  0.91188000000E+02 0.  0.
    9900012    2    3    3    0    0 -0.72724694597E+01  0.15476661583E+02 -0.32609268546E+02  0.54367078489E+02  0.39999987031E+02 0.  0.
        -12    1    3    3    0    0  0.72724694597E+01 -0.15476661583E+02  0.32609268546E+02  0.36820921511E+02  0.00000000000E+00 0.  1.
         11    1    4    4    0    0 -0.73748263302E+01  0.13245417496E+01 -0.19496097543E+02  0.20886366221E+02  0.51100000000E-03 0. -1.
        -11    1    4    4    0    0  0.13078167494E+02  0.11679069473E+02 -0.64192797109E+01  0.18672072221E+02  0.51100000000E-03 0.  1.
        -12    1    4    4    0    0 -0.12975810623E+02  0.24730503611E+01 -0.66938912925E+01  0.14808640048E+02  0.00000000000E+00 0.  1.
</event>
<event>
 8    1  0.1210161E-006  0.9118800E+02  0.7816164E-02  0.1184000E+00
        -11   -1    0    0    0    0  0.00000000000E+00  0.00000000000E+00  0.45593999997E+02  0.45594000000E+02  0.51100000000E-03 0. -1.
         11   -1    0    0    0    0 -0.00000000000E+00 -0.00000000000E+00 -0.45593999997E+02  0.45594000000E+02  0.51100000000E-03 0.  1.
         23    2    1    2    0    0  0.00000000000E+00  0.35527136788E-14 -0.35527136788E-14  0.91188000000E+02  0.91188000000E+02 0.  0.
    9900012    2    3    3    0    0 -0.24410290583E+02  0.20386179506E+02  0.18555901315E+02  0.54367081016E+02  0.39999992792E+02 0.  0.
        -12    1    3    3    0    0  0.24410290583E+02 -0.20386179506E+02 -0.18555901315E+02  0.36820918984E+02  0.00000000000E+00 0.  1.
         11    1    4    4    0    0 -0.16872163249E+02 -0.22590458366E+00  0.25557067409E+02  0.30624901965E+02  0.51100000000E-03 0. -1.
        -11    1    4    4    0    0 -0.77540486083E+01  0.16948602252E+02 -0.73943141543E+01  0.20051340858E+02  0.51100000000E-03 0.  1.
         12    1    4    4    0    0  0.21592127365E+00  0.36634818378E+01  0.39314806008E+00  0.36908381933E+01  0.00000000000E+00 0. -1.
</event>
<event>
 8    1  0.1210161E-006  0.9118800E+02  0.7816164E-02  0.1184000E+00
        -11   -1    0    0    0    0  0.00000000000E+00  0.00000000000E+00  0.45593999997E+02  0.45594000000E+02  0.51100000000E-03 0.  1.
         11   -1    0    0    0    0 -0.00000000000E+00 -0.00000000000E+00 -0.45593999997E+02  0.45594000000E+02  0.51100000000E-03 0. -1.
         23    2    1    2    0    0  0.00000000000E+00  0.00000000000E+00  0.00000000000E+00  0.91188000000E+02  0.91188000000E+02 0.  0.
    9900012    2    3    3    0    0  0.17143400048E+02 -0.22893194178E+02 -0.23190164179E+02  0.54367106210E+02  0.40000050227E+02 0.  0.
         12    1    3    3    0    0 -0.17143400048E+02  0.22893194178E+02  0.23190164179E+02  0.36820893790E+02  0.00000000000E+00 0. -1.
         11    1    4    4    0    0 -0.35939028845E+01  0.94688803295E+01 -0.32078777500E+01  0.10623855823E+02  0.51100000000E-03 0. -1.
        -11    1    4    4    0    0  0.12527078411E+02 -0.15186072452E+02 -0.80046504970E+01  0.21251327485E+02  0.51100000000E-03 0.  1.
         12    1    4    4    0    0  0.82102245217E+01 -0.17176002055E+02 -0.11977635932E+02  0.22491922901E+02  0.00000000000E+00 0. -1.
</event>
<event>
 8    1  0.1210161E-006  0.9118800E+02  0.7816164E-02  0.1184000E+00
        -11   -1    0    0    0    0  0.00000000000E+00  0.00000000000E+00  0.45593999997E+02  0.45594000000E+02  0.51100000000E-03 0.  1.
         11   -1    0    0    0    0 -0.00000000000E+00 -0.00000000000E+00 -0.45593999997E+02  0.45594000000E+02  0.51100000000E-03 0. -1.
         23    2    1    2    0    0  0.71054273576E-14  0.00000000000E+00  0.11102230246E-14  0.91188000000E+02  0.91188000000E+02 0.  0.
    9900012    2    3    3    0    0  0.36704099078E+02 -0.22053074307E+01 -0.19297671123E+01  0.54367105509E+02  0.40000048629E+02 0.  0.
         12    1    3    3    0    0 -0.36704099078E+02  0.22053074307E+01  0.19297671123E+01  0.36820894491E+02  0.00000000000E+00 0. -1.
         11    1    4    4    0    0 -0.15349608596E+01  0.77987218446E+01  0.51680609595E+01  0.94807711497E+01  0.51100000000E-03 0. -1.
        -11    1    4    4    0    0  0.32197119420E+02 -0.65203760275E+01  0.25861239870E+01  0.32952357124E+02  0.51100000000E-03 0.  1.
         12    1    4    4    0    0  0.60419405176E+01 -0.34836532478E+01 -0.96839520588E+01  0.11933977235E+02  0.00000000000E+00 0. -1.
</event>
<event>
 8    1  0.1210161E-006  0.9118800E+02  0.7816164E-02  0.1184000E+00
        -11   -1    0    0    0    0  0.00000000000E+00  0.00000000000E+00  0.45593999997E+02  0.45594000000E+02  0.51100000000E-03 0.  1.
         11   -1    0    0    0    0 -0.00000000000E+00 -0.00000000000E+00 -0.45593999997E+02  0.45594000000E+02  0.51100000000E-03 0. -1.
         23    2    1    2    0    0 -0.35527136788E-14 -0.35527136788E-14  0.00000000000E+00  0.91188000000E+02  0.91188000000E+02 0.  0.
    9900012    2    3    3    0    0 -0.29354979987E+02 -0.16925456202E+02 -0.14408123450E+02  0.54367082860E+02  0.39999996995E+02 0.  0.
        -12    1    3    3    0    0  0.29354979987E+02  0.16925456202E+02  0.14408123450E+02  0.36820917140E+02  0.00000000000E+00 0.  1.
         11    1    4    4    0    0 -0.17638042530E+02  0.72951461058E+01 -0.35266968865E+01  0.19410236789E+02  0.51100000000E-03 0. -1.
        -11    1    4    4    0    0  0.47551334448E+01 -0.21237950678E+01 -0.39539048690E+01  0.65387432694E+01  0.51100000000E-03 0.  1.
         12    1    4    4    0    0 -0.16472070902E+02 -0.22096807240E+02 -0.69275216943E+01  0.28418102801E+02  0.00000000000E+00 0. -1.
</event>
<event>
 8    1  0.1210161E-006  0.9118800E+02  0.7816164E-02  0.1184000E+00
        -11   -1    0    0    0    0  0.00000000000E+00  0.00000000000E+00  0.45593999997E+02  0.45594000000E+02  0.51100000000E-03 0.  1.
         11   -1    0    0    0    0 -0.00000000000E+00 -0.00000000000E+00 -0.45593999997E+02  0.45594000000E+02  0.51100000000E-03 0. -1.
         23    2    1    2    0    0  0.53290705182E-14  0.00000000000E+00 -0.35527136788E-14  0.91188000000E+02  0.91188000000E+02 0.  0.
    9900012    2    3    3    0    0 -0.14142698819E+02 -0.30880369252E+02  0.14218535064E+02  0.54367083738E+02  0.39999998996E+02 0.  0.
         12    1    3    3    0    0  0.14142698819E+02  0.30880369252E+02 -0.14218535064E+02  0.36820916262E+02  0.00000000000E+00 0. -1.
         11    1    4    4    0    0 -0.18456794636E+01 -0.97978317942E+00  0.98774619711E+01  0.10096076615E+02  0.51100000000E-03 0. -1.
        -11    1    4    4    0    0  0.93171322422E+01 -0.39405062976E+01 -0.58763714494E+00  0.10133205849E+02  0.51100000000E-03 0.  1.
        -12    1    4    4    0    0 -0.21614151597E+02 -0.25960079775E+02  0.49287102383E+01  0.34137801274E+02  0.00000000000E+00 0.  1.
</event>
<event>
 8    1  0.1210161E-006  0.9118800E+02  0.7816164E-02  0.1184000E+00
        -11   -1    0    0    0    0  0.00000000000E+00  0.00000000000E+00  0.45593999997E+02  0.45594000000E+02  0.51100000000E-03 0.  1.
         11   -1    0    0    0    0 -0.00000000000E+00 -0.00000000000E+00 -0.45593999997E+02  0.45594000000E+02  0.51100000000E-03 0. -1.
         23    2    1    2    0    0  0.35527136788E-14 -0.71054273576E-14  0.44408920985E-15  0.91188000000E+02  0.91188000000E+02 0.  0.
    9900012    2    3    3    0    0  0.28332715183E+02 -0.23453619887E+02 -0.17215862914E+01  0.54367097040E+02  0.40000029321E+02 0.  0.
        -12    1    3    3    0    0 -0.28332715183E+02  0.23453619887E+02  0.17215862914E+01  0.36820902960E+02  0.00000000000E+00 0.  1.
         11    1    4    4    0    0  0.12812918074E+02 -0.36429741851E+01 -0.47861679258E+01  0.14154488128E+02  0.51100000000E-03 0. -1.
        -11    1    4    4    0    0  0.27704352744E+00  0.19091686445E+01  0.12045679831E+02  0.12199183615E+02  0.51100000000E-03 0.  1.
         12    1    4    4    0    0  0.15242753581E+02 -0.21719814347E+02 -0.89810981968E+01  0.28013425296E+02  0.00000000000E+00 0. -1.
</event>
<event>
 8    1  0.1210161E-006  0.9118800E+02  0.7816164E-02  0.1184000E+00
        -11   -1    0    0    0    0  0.00000000000E+00  0.00000000000E+00  0.45593999997E+02  0.45594000000E+02  0.51100000000E-03 0.  1.
         11   -1    0    0    0    0 -0.00000000000E+00 -0.00000000000E+00 -0.45593999997E+02  0.45594000000E+02  0.51100000000E-03 0. -1.
         23    2    1    2    0    0  0.35527136788E-14  0.00000000000E+00  0.00000000000E+00  0.91188000000E+02  0.91188000000E+02 0.  0.
    9900012    2    3    3    0    0 -0.30991374661E+02 -0.98310708295E+01 -0.17281947971E+02  0.54367068688E+02  0.39999964688E+02 0.  0.
        -12    1    3    3    0    0  0.30991374661E+02  0.98310708295E+01  0.17281947971E+02  0.36820931312E+02  0.00000000000E+00 0.  1.
         11    1    4    4    0    0 -0.31287324434E+00 -0.14334305263E+02 -0.11036634356E+02  0.18093576075E+02  0.51100000000E-03 0. -1.
        -11    1    4    4    0    0 -0.25101959952E+02  0.10039521480E+02 -0.80553128839E+01  0.28209722630E+02  0.51100000000E-03 0.  1.
        -12    1    4    4    0    0 -0.55765414648E+01 -0.55362870468E+01  0.18099992694E+01  0.80637699824E+01  0.00000000000E+00 0.  1.
</event>
<event>
 8    1  0.1210161E-006  0.9118800E+02  0.7816164E-02  0.1184000E+00
        -11   -1    0    0    0    0  0.00000000000E+00  0.00000000000E+00  0.45593999997E+02  0.45594000000E+02  0.51100000000E-03 0. -1.
         11   -1    0    0    0    0 -0.00000000000E+00 -0.00000000000E+00 -0.45593999997E+02  0.45594000000E+02  0.51100000000E-03 0.  1.
         23    2    1    2    0    0  0.10658141036E-13  0.35527136788E-14  0.35527136788E-14  0.91188000000E+02  0.91188000000E+02 0.  0.
    9900012    2    3    3    0    0  0.27418379163E+02  0.17028677687E+02  0.17721064343E+02  0.54367088806E+02  0.40000010550E+02 0.  0.
        -12    1    3    3    0    0 -0.27418379163E+02 -0.17028677687E+02 -0.17721064343E+02  0.36820911194E+02  0.00000000000E+00 0.  1.
         11    1    4    4    0    0 -0.20695654956E+01  0.66651833371E+01  0.60230867583E+01  0.92187496233E+01  0.51100000000E-03 0. -1.
        -11    1    4    4    0    0 -0.60610731330E+01  0.39888111025E+01  0.24558287952E+00  0.72599953682E+01  0.51100000000E-03 0.  1.
         12    1    4    4    0    0  0.35549017792E+02  0.63746832478E+01  0.11452394705E+02  0.37888343814E+02  0.00000000000E+00 0. -1.
</event>
<event>
 8    1  0.1210161E-006  0.9118800E+02  0.7816164E-02  0.1184000E+00
        -11   -1    0    0    0    0  0.00000000000E+00  0.00000000000E+00  0.45593999997E+02  0.45594000000E+02  0.51100000000E-03 0.  1.
         11   -1    0    0    0    0 -0.00000000000E+00 -0.00000000000E+00 -0.45593999997E+02  0.45594000000E+02  0.51100000000E-03 0. -1.
         23    2    1    2    0    0  0.88817841970E-15  0.35527136788E-14  0.00000000000E+00  0.91188000000E+02  0.91188000000E+02 0.  0.
    9900012    2    3    3    0    0  0.74609912807E+01  0.24348779442E+02 -0.26594167453E+02  0.54367092981E+02  0.40000020068E+02 0.  0.
        -12    1    3    3    0    0 -0.74609912807E+01 -0.24348779442E+02  0.26594167453E+02  0.36820907019E+02  0.00000000000E+00 0.  1.
         11    1    4    4    0    0  0.11673602379E+02  0.98347998743E+01 -0.28118451585E+02  0.31994430779E+02  0.51100000000E-03 0. -1.
        -11    1    4    4    0    0 -0.51964026709E+01  0.42335993641E+01 -0.64675140466E+01  0.93142204450E+01  0.51100000000E-03 0.  1.
        -12    1    4    4    0    0  0.98379157286E+00  0.10280380204E+02  0.79917981783E+01  0.13058441757E+02  0.00000000000E+00 0.  1.
</event>
<event>
 8    1  0.1210161E-006  0.9118800E+02  0.7816164E-02  0.1184000E+00
        -11   -1    0    0    0    0  0.00000000000E+00  0.00000000000E+00  0.45593999997E+02  0.45594000000E+02  0.51100000000E-03 0.  1.
         11   -1    0    0    0    0 -0.00000000000E+00 -0.00000000000E+00 -0.45593999997E+02  0.45594000000E+02  0.51100000000E-03 0. -1.
         23    2    1    2    0    0  0.44408920985E-15  0.00000000000E+00  0.11102230246E-15  0.91188000000E+02  0.91188000000E+02 0.  0.
    9900012    2    3    3    0    0  0.30143322912E+01  0.36689485367E+02  0.75864788449E+00  0.54367080915E+02  0.39999992562E+02 0.  0.
        -12    1    3    3    0    0 -0.30143322912E+01 -0.36689485367E+02 -0.75864788449E+00  0.36820919085E+02  0.00000000000E+00 0.  1.
         11    1    4    4    0    0  0.76962992579E+01  0.14418484502E+02  0.36812719512E+01  0.16753431919E+02  0.51100000000E-03 0. -1.
        -11    1    4    4    0    0  0.72086451245E+01 -0.42737526449E+01  0.61340929668E-02  0.83803081142E+01  0.51100000000E-03 0.  1.
         12    1    4    4    0    0 -0.11890612091E+02  0.26544753509E+02 -0.29287581597E+01  0.29233340882E+02  0.00000000000E+00 0. -1.
</event>
<event>
 8    1  0.1210161E-006  0.9118800E+02  0.7816164E-02  0.1184000E+00
        -11   -1    0    0    0    0  0.00000000000E+00  0.00000000000E+00  0.45593999997E+02  0.45594000000E+02  0.51100000000E-03 0. -1.
         11   -1    0    0    0    0 -0.00000000000E+00 -0.00000000000E+00 -0.45593999997E+02  0.45594000000E+02  0.51100000000E-03 0.  1.
         23    2    1    2    0    0  0.17763568394E-14 -0.35527136788E-14  0.00000000000E+00  0.91188000000E+02  0.91188000000E+02 0.  0.
    9900012    2    3    3    0    0 -0.64764575797E+01  0.13227014430E+02  0.33747263680E+02  0.54367133370E+02  0.40000112143E+02 0.  0.
        -12    1    3    3    0    0  0.64764575797E+01 -0.13227014430E+02 -0.33747263680E+02  0.36820866630E+02  0.00000000000E+00 0.  1.
         11    1    4    4    0    0 -0.11141716261E+02  0.16868080604E+02  0.72779319126E+01  0.21485769190E+02  0.51100000000E-03 0. -1.
        -11    1    4    4    0    0 -0.15238137428E+01 -0.13287642197E+01 -0.24731320871E+01  0.31943708701E+01  0.51100000000E-03 0.  1.
         12    1    4    4    0    0  0.61890724240E+01 -0.23123019545E+01  0.28942463855E+02  0.29686993310E+02  0.00000000000E+00 0. -1.
</event>
<event>
 8    1  0.1210161E-006  0.9118800E+02  0.7816164E-02  0.1184000E+00
        -11   -1    0    0    0    0  0.00000000000E+00  0.00000000000E+00  0.45593999997E+02  0.45594000000E+02  0.51100000000E-03 0.  1.
         11   -1    0    0    0    0 -0.00000000000E+00 -0.00000000000E+00 -0.45593999997E+02  0.45594000000E+02  0.51100000000E-03 0. -1.
         23    2    1    2    0    0 -0.17763568394E-14  0.00000000000E+00  0.00000000000E+00  0.91188000000E+02  0.91188000000E+02 0.  0.
    9900012    2    3    3    0    0  0.13814392085E+02 -0.56444987954E+00  0.34126581755E+02  0.54367087265E+02  0.40000007038E+02 0.  0.
         12    1    3    3    0    0 -0.13814392085E+02  0.56444987954E+00 -0.34126581755E+02  0.36820912735E+02  0.00000000000E+00 0. -1.
         11    1    4    4    0    0  0.58079149208E+01  0.45548188580E+01 -0.80849627452E+01  0.10947368333E+02  0.51100000000E-03 0. -1.
        -11    1    4    4    0    0  0.76490250258E+01 -0.55110853434E+01  0.37036245513E+02  0.38217314498E+02  0.51100000000E-03 0.  1.
         12    1    4    4    0    0  0.35745213852E+00  0.39181660588E+00  0.51752989877E+01  0.52024044341E+01  0.00000000000E+00 0. -1.
</event>
<event>
 8    1  0.1210161E-006  0.9118800E+02  0.7816164E-02  0.1184000E+00
        -11   -1    0    0    0    0  0.00000000000E+00  0.00000000000E+00  0.45593999997E+02  0.45594000000E+02  0.51100000000E-03 0.  1.
         11   -1    0    0    0    0 -0.00000000000E+00 -0.00000000000E+00 -0.45593999997E+02  0.45594000000E+02  0.51100000000E-03 0. -1.
         23    2    1    2    0    0  0.17763568394E-14 -0.71054273576E-14  0.00000000000E+00  0.91188000000E+02  0.91188000000E+02 0.  0.
    9900012    2    3    3    0    0 -0.10133790661E+02  0.34388885907E+02 -0.83958806033E+01  0.54367082057E+02  0.39999995165E+02 0.  0.
        -12    1    3    3    0    0  0.10133790661E+02 -0.34388885907E+02  0.83958806033E+01  0.36820917943E+02  0.00000000000E+00 0.  1.
         11    1    4    4    0    0 -0.14207615459E+02  0.21956223593E+01 -0.31310976998E+01  0.14713288811E+02  0.51100000000E-03 0. -1.
        -11    1    4    4    0    0  0.13130641712E+02  0.15910037785E+02 -0.36763643199E+01  0.20953727806E+02  0.51100000000E-03 0.  1.
         12    1    4    4    0    0 -0.90568169147E+01  0.16283225762E+02 -0.15884185835E+01  0.18700065440E+02  0.00000000000E+00 0. -1.
</event>
<event>
 8    1  0.1210161E-006  0.9118800E+02  0.7816164E-02  0.1184000E+00
        -11   -1    0    0    0    0  0.00000000000E+00  0.00000000000E+00  0.45593999997E+02  0.45594000000E+02  0.51100000000E-03 0. -1.
         11   -1    0    0    0    0 -0.00000000000E+00 -0.00000000000E+00 -0.45593999997E+02  0.45594000000E+02  0.51100000000E-03 0.  1.
         23    2    1    2    0    0 -0.88817841970E-15  0.35527136788E-14  0.35527136788E-14  0.91188000000E+02  0.91188000000E+02 0.  0.
    9900012    2    3    3    0    0  0.79800028657E+01 -0.22729170615E+02 -0.27847527830E+02  0.54367075938E+02  0.39999981215E+02 0.  0.
         12    1    3    3    0    0 -0.79800028657E+01  0.22729170615E+02  0.27847527830E+02  0.36820924062E+02  0.00000000000E+00 0. -1.
         11    1    4    4    0    0 -0.21898208317E+01 -0.19217037115E+02 -0.22931360915E+02  0.29998952389E+02  0.51100000000E-03 0. -1.
        -11    1    4    4    0    0  0.12210023580E+02 -0.55706392899E+01 -0.11179293096E+02  0.17466919943E+02  0.51100000000E-03 0.  1.
         12    1    4    4    0    0 -0.20401998827E+01  0.20585057907E+01  0.62631261805E+01  0.69012036055E+01  0.00000000000E+00 0. -1.
</event>
<event>
 8    1  0.1210161E-006  0.9118800E+02  0.7816164E-02  0.1184000E+00
        -11   -1    0    0    0    0  0.00000000000E+00  0.00000000000E+00  0.45593999997E+02  0.45594000000E+02  0.51100000000E-03 0. -1.
         11   -1    0    0    0    0 -0.00000000000E+00 -0.00000000000E+00 -0.45593999997E+02  0.45594000000E+02  0.51100000000E-03 0.  1.
         23    2    1    2    0    0  0.88817841970E-15  0.00000000000E+00 -0.35527136788E-14  0.91188000000E+02  0.91188000000E+02 0.  0.
    9900012    2    3    3    0    0  0.72421380560E+01 -0.23104931310E+02 -0.27739737750E+02  0.54367089298E+02  0.40000011672E+02 0.  0.
         12    1    3    3    0    0 -0.72421380560E+01  0.23104931310E+02  0.27739737750E+02  0.36820910702E+02  0.00000000000E+00 0. -1.
         11    1    4    4    0    0  0.72225092909E+01  0.52910220003E+01 -0.13001726924E+02  0.15786210994E+02  0.51100000000E-03 0.  1.
        -11    1    4    4    0    0  0.15957070043E+01  0.20784204497E+01 -0.64474919788E+01  0.69596167629E+01  0.51100000000E-03 0. -1.
        -12    1    4    4    0    0 -0.15760782392E+01 -0.30474373760E+02 -0.82905188475E+01  0.31621261541E+02  0.00000000000E+00 0.  1.
</event>
<event>
 8    1  0.1210161E-006  0.9118800E+02  0.7816164E-02  0.1184000E+00
        -11   -1    0    0    0    0  0.00000000000E+00  0.00000000000E+00  0.45593999997E+02  0.45594000000E+02  0.51100000000E-03 0.  1.
         11   -1    0    0    0    0 -0.00000000000E+00 -0.00000000000E+00 -0.45593999997E+02  0.45594000000E+02  0.51100000000E-03 0. -1.
         23    2    1    2    0    0  0.00000000000E+00 -0.22204460493E-14  0.00000000000E+00  0.91188000000E+02  0.91188000000E+02 0.  0.
    9900012    2    3    3    0    0 -0.16368377857E+02 -0.18785409977E+01 -0.32929193959E+02  0.54367020590E+02  0.39999855038E+02 0.  0.
        -12    1    3    3    0    0  0.16368377857E+02  0.18785409977E+01  0.32929193959E+02  0.36820979410E+02  0.00000000000E+00 0.  1.
         11    1    4    4    0    0 -0.24780705947E+01  0.12353281462E+02  0.50792461297E+00  0.12609614761E+02  0.51100000000E-03 0. -1.
        -11    1    4    4    0    0 -0.11012903449E+01 -0.50233746250E+01 -0.40504584705E+00  0.51586040210E+01  0.51100000000E-03 0.  1.
         12    1    4    4    0    0 -0.12789016918E+02 -0.92084478345E+01 -0.33032072725E+02  0.36598801807E+02  0.00000000000E+00 0. -1.
</event>
<event>
 8    1  0.1210161E-006  0.9118800E+02  0.7816164E-02  0.1184000E+00
        -11   -1    0    0    0    0  0.00000000000E+00  0.00000000000E+00  0.45593999997E+02  0.45594000000E+02  0.51100000000E-03 0.  1.
         11   -1    0    0    0    0 -0.00000000000E+00 -0.00000000000E+00 -0.45593999997E+02  0.45594000000E+02  0.51100000000E-03 0. -1.
         23    2    1    2    0    0 -0.88817841970E-15  0.35527136788E-14 -0.35527136788E-14  0.91188000000E+02  0.91188000000E+02 0.  0.
    9900012    2    3    3    0    0 -0.68790399772E+01  0.21198727884E+02 -0.29309955769E+02  0.54367071684E+02  0.39999971518E+02 0.  0.
         12    1    3    3    0    0  0.68790399772E+01 -0.21198727884E+02  0.29309955769E+02  0.36820928316E+02  0.00000000000E+00 0. -1.
         11    1    4    4    0    0 -0.92382314416E+01  0.44069857321E+01  0.32328834369E+00  0.10240652275E+02  0.51100000000E-03 0. -1.
        -11    1    4    4    0    0  0.30213911840E+01  0.21078735193E+02 -0.91293054708E+01  0.23168644774E+02  0.51100000000E-03 0.  1.
         12    1    4    4    0    0 -0.66219971954E+00 -0.42869930420E+01 -0.20503938641E+02  0.20957774634E+02  0.00000000000E+00 0. -1.
</event>
<event>
 8    1  0.1210161E-006  0.9118800E+02  0.7816164E-02  0.1184000E+00
        -11   -1    0    0    0    0  0.00000000000E+00  0.00000000000E+00  0.45593999997E+02  0.45594000000E+02  0.51100000000E-03 0.  1.
         11   -1    0    0    0    0 -0.00000000000E+00 -0.00000000000E+00 -0.45593999997E+02  0.45594000000E+02  0.51100000000E-03 0. -1.
         23    2    1    2    0    0  0.00000000000E+00  0.00000000000E+00 -0.35527136788E-14  0.91188000000E+02  0.91188000000E+02 0.  0.
    9900012    2    3    3    0    0 -0.14848164957E+02  0.12363675571E+02  0.31343996670E+02  0.54367155313E+02  0.40000162167E+02 0.  0.
         12    1    3    3    0    0  0.14848164957E+02 -0.12363675571E+02 -0.31343996670E+02  0.36820844687E+02  0.00000000000E+00 0. -1.
         11    1    4    4    0    0  0.52543092764E+01 -0.10071971372E+02  0.34111763419E+01  0.11861218217E+02  0.51100000000E-03 0. -1.
        -11    1    4    4    0    0 -0.18062542731E+02  0.15906786501E+02  0.16492698763E+02  0.29176881592E+02  0.51100000000E-03 0.  1.
         12    1    4    4    0    0 -0.20399315027E+01  0.65288604425E+01  0.11440121565E+02  0.13329055504E+02  0.00000000000E+00 0. -1.
</event>
<event>
 8    1  0.1210161E-006  0.9118800E+02  0.7816164E-02  0.1184000E+00
        -11   -1    0    0    0    0  0.00000000000E+00  0.00000000000E+00  0.45593999997E+02  0.45594000000E+02  0.51100000000E-03 0. -1.
         11   -1    0    0    0    0 -0.00000000000E+00 -0.00000000000E+00 -0.45593999997E+02  0.45594000000E+02  0.51100000000E-03 0.  1.
         23    2    1    2    0    0  0.00000000000E+00  0.00000000000E+00  0.00000000000E+00  0.91188000000E+02  0.91188000000E+02 0.  0.
    9900012    2    3    3    0    0  0.54236253514E+01  0.19388396050E+02  0.30829454482E+02  0.54367070123E+02  0.39999967959E+02 0.  0.
        -12    1    3    3    0    0 -0.54236253514E+01 -0.19388396050E+02 -0.30829454482E+02  0.36820929877E+02  0.00000000000E+00 0.  1.
         11    1    4    4    0    0 -0.20789892812E+01  0.27101248155E+02  0.20981983779E+02  0.34337202733E+02  0.51100000000E-03 0. -1.
        -11    1    4    4    0    0 -0.26631354888E+01 -0.31656676108E+01 -0.12364332972E+01  0.43176972581E+01  0.51100000000E-03 0.  1.
         12    1    4    4    0    0  0.10165750121E+02 -0.45471844940E+01  0.11083904001E+02  0.15712170132E+02  0.00000000000E+00 0. -1.
</event>
<event>
 8    1  0.1210161E-006  0.9118800E+02  0.7816164E-02  0.1184000E+00
        -11   -1    0    0    0    0  0.00000000000E+00  0.00000000000E+00  0.45593999997E+02  0.45594000000E+02  0.51100000000E-03 0. -1.
         11   -1    0    0    0    0 -0.00000000000E+00 -0.00000000000E+00 -0.45593999997E+02  0.45594000000E+02  0.51100000000E-03 0.  1.
         23    2    1    2    0    0  0.35527136788E-14  0.35527136788E-14 -0.17763568394E-14  0.91188000000E+02  0.91188000000E+02 0.  0.
    9900012    2    3    3    0    0 -0.23595508972E+02  0.26807759268E+02 -0.89653132079E+01  0.54367070604E+02  0.39999969057E+02 0.  0.
         12    1    3    3    0    0  0.23595508972E+02 -0.26807759268E+02  0.89653132079E+01  0.36820929396E+02  0.00000000000E+00 0. -1.
         11    1    4    4    0    0 -0.19847284543E+02  0.17374229014E+02 -0.51197281354E+01  0.26869874470E+02  0.51100000000E-03 0. -1.
        -11    1    4    4    0    0 -0.29498626610E+01 -0.36956930380E+01  0.83267378611E+01  0.95757193160E+01  0.51100000000E-03 0.  1.
        -12    1    4    4    0    0 -0.79836176824E+00  0.13129223292E+02 -0.12172322934E+02  0.17921476819E+02  0.00000000000E+00 0.  1.
</event>
<event>
 8    1  0.1210161E-006  0.9118800E+02  0.7816164E-02  0.1184000E+00
        -11   -1    0    0    0    0  0.00000000000E+00  0.00000000000E+00  0.45593999997E+02  0.45594000000E+02  0.51100000000E-03 0.  1.
         11   -1    0    0    0    0 -0.00000000000E+00 -0.00000000000E+00 -0.45593999997E+02  0.45594000000E+02  0.51100000000E-03 0. -1.
         23    2    1    2    0    0 -0.35527136788E-14 -0.35527136788E-14  0.00000000000E+00  0.91188000000E+02  0.91188000000E+02 0.  0.
    9900012    2    3    3    0    0 -0.21529211859E+02 -0.26330979737E+02 -0.14105037766E+02  0.54367088176E+02  0.40000009114E+02 0.  0.
         12    1    3    3    0    0  0.21529211859E+02  0.26330979737E+02  0.14105037766E+02  0.36820911824E+02  0.00000000000E+00 0. -1.
         11    1    4    4    0    0 -0.16232648580E+02 -0.89064443698E+01 -0.13804940960E+02  0.23095454670E+02  0.51100000000E-03 0. -1.
        -11    1    4    4    0    0 -0.12955711366E+02 -0.37695675471E+01  0.55063527204E+01  0.14573263775E+02  0.51100000000E-03 0.  1.
        -12    1    4    4    0    0  0.76591480871E+01 -0.13654967820E+02 -0.58064495268E+01  0.16698369731E+02  0.00000000000E+00 0.  1.
</event>
<event>
 8    1  0.1210161E-006  0.9118800E+02  0.7816164E-02  0.1184000E+00
        -11   -1    0    0    0    0  0.00000000000E+00  0.00000000000E+00  0.45593999997E+02  0.45594000000E+02  0.51100000000E-03 0. -1.
         11   -1    0    0    0    0 -0.00000000000E+00 -0.00000000000E+00 -0.45593999997E+02  0.45594000000E+02  0.51100000000E-03 0.  1.
         23    2    1    2    0    0 -0.17763568394E-14 -0.11102230246E-15  0.00000000000E+00  0.91188000000E+02  0.91188000000E+02 0.  0.
    9900012    2    3    3    0    0  0.11248342471E+02  0.88187406654E+00  0.35049624342E+02  0.54367094569E+02  0.40000023689E+02 0.  0.
        -12    1    3    3    0    0 -0.11248342471E+02 -0.88187406654E+00 -0.35049624342E+02  0.36820905431E+02  0.00000000000E+00 0.  1.
         11    1    4    4    0    0 -0.13298813098E+01  0.13281797539E+01  0.13805777746E+02  0.13933131205E+02  0.51100000000E-03 0. -1.
        -11    1    4    4    0    0 -0.94354911114E+01  0.12126738356E+01  0.14515831660E+02  0.17355357657E+02  0.51100000000E-03 0.  1.
        -12    1    4    4    0    0  0.22013714892E+02 -0.16589795229E+01  0.67280149365E+01  0.23078605707E+02  0.00000000000E+00 0.  1.
</event>
<event>
 8    1  0.1210161E-006  0.9118800E+02  0.7816164E-02  0.1184000E+00
        -11   -1    0    0    0    0  0.00000000000E+00  0.00000000000E+00  0.45593999997E+02  0.45594000000E+02  0.51100000000E-03 0.  1.
         11   -1    0    0    0    0 -0.00000000000E+00 -0.00000000000E+00 -0.45593999997E+02  0.45594000000E+02  0.51100000000E-03 0. -1.
         23    2    1    2    0    0  0.00000000000E+00  0.00000000000E+00 -0.17763568394E-14  0.91188000000E+02  0.91188000000E+02 0.  0.
    9900012    2    3    3    0    0  0.23973103242E+02  0.24748194935E+02 -0.12984539634E+02  0.54367067080E+02  0.39999961022E+02 0.  0.
        -12    1    3    3    0    0 -0.23973103242E+02 -0.24748194935E+02  0.12984539634E+02  0.36820932920E+02  0.00000000000E+00 0.  1.
         11    1    4    4    0    0 -0.69769076109E+01  0.14684518218E+02 -0.84048353642E+01  0.18301736881E+02  0.51100000000E-03 0. -1.
        -11    1    4    4    0    0  0.24934824563E+01 -0.70739424996E+00  0.37135006584E+01  0.45285702806E+01  0.51100000000E-03 0.  1.
         12    1    4    4    0    0  0.28456528396E+02  0.10771070966E+02 -0.82932049285E+01  0.31536759918E+02  0.00000000000E+00 0. -1.
</event>
<event>
 8    1  0.1210161E-006  0.9118800E+02  0.7816164E-02  0.1184000E+00
        -11   -1    0    0    0    0  0.00000000000E+00  0.00000000000E+00  0.45593999997E+02  0.45594000000E+02  0.51100000000E-03 0. -1.
         11   -1    0    0    0    0 -0.00000000000E+00 -0.00000000000E+00 -0.45593999997E+02  0.45594000000E+02  0.51100000000E-03 0.  1.
         23    2    1    2    0    0  0.35527136788E-14  0.00000000000E+00  0.00000000000E+00  0.91188000000E+02  0.91188000000E+02 0.  0.
    9900012    2    3    3    0    0  0.28869027767E+02 -0.13735888512E+02 -0.18266999001E+02  0.54367100365E+02  0.40000036903E+02 0.  0.
         12    1    3    3    0    0 -0.28869027767E+02  0.13735888512E+02  0.18266999001E+02  0.36820899635E+02  0.00000000000E+00 0. -1.
         11    1    4    4    0    0 -0.61162438813E+01 -0.51697476225E+01 -0.33299108845E+01  0.86731214943E+01  0.51100000000E-03 0. -1.
        -11    1    4    4    0    0  0.63633163522E+01  0.15360934628E+01 -0.13853448580E+02  0.15322187048E+02  0.51100000000E-03 0.  1.
        -12    1    4    4    0    0  0.28621955296E+02 -0.10102234352E+02 -0.10836395364E+01  0.30371791823E+02  0.00000000000E+00 0.  1.
</event>
<event>
 8    1  0.1210161E-006  0.9118800E+02  0.7816164E-02  0.1184000E+00
        -11   -1    0    0    0    0  0.00000000000E+00  0.00000000000E+00  0.45593999997E+02  0.45594000000E+02  0.51100000000E-03 0.  1.
         11   -1    0    0    0    0 -0.00000000000E+00 -0.00000000000E+00 -0.45593999997E+02  0.45594000000E+02  0.51100000000E-03 0. -1.
         23    2    1    2    0    0  0.00000000000E+00 -0.35527136788E-14  0.00000000000E+00  0.91188000000E+02  0.91188000000E+02 0.  0.
    9900012    2    3    3    0    0  0.12266106976E+02 -0.12779405084E+02 -0.32280167447E+02  0.54367084951E+02  0.40000001763E+02 0.  0.
        -12    1    3    3    0    0 -0.12266106976E+02  0.12779405084E+02  0.32280167447E+02  0.36820915049E+02  0.00000000000E+00 0.  1.
         11    1    4    4    0    0 -0.24590579923E+01  0.70287834676E+00 -0.30748302652E+02  0.30854482987E+02  0.51100000000E-03 0. -1.
        -11    1    4    4    0    0  0.13983464985E+01  0.16301460876E+01  0.21396526130E+01  0.30316435744E+01  0.51100000000E-03 0.  1.
         12    1    4    4    0    0  0.13326818470E+02 -0.15112429518E+02 -0.36715174078E+01  0.20480958390E+02  0.00000000000E+00 0. -1.
</event>
<event>
 8    1  0.1210161E-006  0.9118800E+02  0.7816164E-02  0.1184000E+00
        -11   -1    0    0    0    0  0.00000000000E+00  0.00000000000E+00  0.45593999997E+02  0.45594000000E+02  0.51100000000E-03 0.  1.
         11   -1    0    0    0    0 -0.00000000000E+00 -0.00000000000E+00 -0.45593999997E+02  0.45594000000E+02  0.51100000000E-03 0. -1.
         23    2    1    2    0    0  0.35527136788E-14  0.35527136788E-14  0.00000000000E+00  0.91188000000E+02  0.91188000000E+02 0.  0.
    9900012    2    3    3    0    0 -0.23538763849E+02 -0.16514312609E+02  0.22999651165E+02  0.54367083686E+02  0.39999998878E+02 0.  0.
         12    1    3    3    0    0  0.23538763849E+02  0.16514312609E+02 -0.22999651165E+02  0.36820916314E+02  0.00000000000E+00 0. -1.
         11    1    4    4    0    0 -0.81155588370E+01  0.12311715807E+02  0.32222407279E+01  0.15093822476E+02  0.51100000000E-03 0. -1.
        -11    1    4    4    0    0 -0.76120396347E+00 -0.95922373929E+01  0.71662633340E+01  0.11997740625E+02  0.51100000000E-03 0.  1.
        -12    1    4    4    0    0 -0.14662001049E+02 -0.19233791024E+02  0.12611147103E+02  0.27275520585E+02  0.00000000000E+00 0.  1.
</event>
<event>
 8    1  0.1210161E-006  0.9118800E+02  0.7816164E-02  0.1184000E+00
        -11   -1    0    0    0    0  0.00000000000E+00  0.00000000000E+00  0.45593999997E+02  0.45594000000E+02  0.51100000000E-03 0. -1.
         11   -1    0    0    0    0 -0.00000000000E+00 -0.00000000000E+00 -0.45593999997E+02  0.45594000000E+02  0.51100000000E-03 0.  1.
         23    2    1    2    0    0  0.88817841970E-15  0.00000000000E+00  0.00000000000E+00  0.91188000000E+02  0.91188000000E+02 0.  0.
    9900012    2    3    3    0    0  0.42513455300E+01 -0.19584675369E+02  0.30889219537E+02  0.54367118265E+02  0.40000077710E+02 0.  0.
        -12    1    3    3    0    0 -0.42513455300E+01  0.19584675369E+02 -0.30889219537E+02  0.36820881735E+02  0.00000000000E+00 0.  1.
         11    1    4    4    0    0  0.12900520311E+02 -0.24421989951E+02  0.17389509499E+02  0.32638199373E+02  0.51100000000E-03 0. -1.
        -11    1    4    4    0    0  0.36547072794E+01  0.25843177980E+01  0.29010807940E+01  0.53340279165E+01  0.51100000000E-03 0.  1.
         12    1    4    4    0    0 -0.12303882060E+02  0.22529967841E+01  0.10598629244E+02  0.16394890976E+02  0.00000000000E+00 0. -1.
</event>
<event>
 8    1  0.1210161E-006  0.9118800E+02  0.7816164E-02  0.1184000E+00
        -11   -1    0    0    0    0  0.00000000000E+00  0.00000000000E+00  0.45593999997E+02  0.45594000000E+02  0.51100000000E-03 0. -1.
         11   -1    0    0    0    0 -0.00000000000E+00 -0.00000000000E+00 -0.45593999997E+02  0.45594000000E+02  0.51100000000E-03 0.  1.
         23    2    1    2    0    0  0.00000000000E+00  0.33306690739E-15  0.00000000000E+00  0.91188000000E+02  0.91188000000E+02 0.  0.
    9900012    2    3    3    0    0  0.14277496737E+02 -0.88402066360E+00 -0.33928630873E+02  0.54367076621E+02  0.39999982772E+02 0.  0.
         12    1    3    3    0    0 -0.14277496737E+02  0.88402066360E+00  0.33928630873E+02  0.36820923379E+02  0.00000000000E+00 0. -1.
         11    1    4    4    0    0 -0.10992568793E+01  0.12859705474E+01 -0.92142597997E+00  0.19264246762E+01  0.51100000000E-03 0. -1.
        -11    1    4    4    0    0  0.78951486817E+01  0.14884752408E+02 -0.29852993534E+01  0.17111435926E+02  0.51100000000E-03 0.  1.
         12    1    4    4    0    0  0.74816049348E+01 -0.17054743619E+02 -0.30021905539E+02  0.35329216019E+02  0.00000000000E+00 0. -1.
</event>
<event>
 8    1  0.1210161E-006  0.9118800E+02  0.7816164E-02  0.1184000E+00
        -11   -1    0    0    0    0  0.00000000000E+00  0.00000000000E+00  0.45593999997E+02  0.45594000000E+02  0.51100000000E-03 0.  1.
         11   -1    0    0    0    0 -0.00000000000E+00 -0.00000000000E+00 -0.45593999997E+02  0.45594000000E+02  0.51100000000E-03 0. -1.
         23    2    1    2    0    0  0.17763568394E-14  0.35527136788E-14  0.00000000000E+00  0.91188000000E+02  0.91188000000E+02 0.  0.
    9900012    2    3    3    0    0 -0.10711642684E+02 -0.23949856101E+02 -0.25834982637E+02  0.54367065410E+02  0.39999957214E+02 0.  0.
        -12    1    3    3    0    0  0.10711642684E+02  0.23949856101E+02  0.25834982637E+02  0.36820934590E+02  0.00000000000E+00 0.  1.
         11    1    4    4    0    0  0.61615208282E+01 -0.46608332653E+01 -0.68137411059E+01  0.10301202540E+02  0.51100000000E-03 0. -1.
        -11    1    4    4    0    0 -0.21872111189E+02 -0.13843165752E+02 -0.23881749851E+02  0.35218751569E+02  0.51100000000E-03 0.  1.
        -12    1    4    4    0    0  0.49989476762E+01 -0.54458570842E+01  0.48605083196E+01  0.88471113012E+01  0.00000000000E+00 0.  1.
</event>
<event>
 8    1  0.1210161E-006  0.9118800E+02  0.7816164E-02  0.1184000E+00
        -11   -1    0    0    0    0  0.00000000000E+00  0.00000000000E+00  0.45593999997E+02  0.45594000000E+02  0.51100000000E-03 0. -1.
         11   -1    0    0    0    0 -0.00000000000E+00 -0.00000000000E+00 -0.45593999997E+02  0.45594000000E+02  0.51100000000E-03 0.  1.
         23    2    1    2    0    0  0.00000000000E+00 -0.13322676296E-14 -0.14210854715E-13  0.91188000000E+02  0.91188000000E+02 0.  0.
    9900012    2    3    3    0    0  0.11548975820E+02  0.14770109397E+01 -0.34931636274E+02  0.54367087238E+02  0.40000006977E+02 0.  0.
         12    1    3    3    0    0 -0.11548975820E+02 -0.14770109397E+01  0.34931636274E+02  0.36820912762E+02  0.00000000000E+00 0. -1.
         11    1    4    4    0    0 -0.76700254050E+00  0.67936141066E+01 -0.61948643541E+00  0.68647832618E+01  0.51100000000E-03 0. -1.
        -11    1    4    4    0    0  0.13388978409E+02  0.33245041012E+01 -0.36070894238E+02  0.38618991206E+02  0.51100000000E-03 0.  1.
         12    1    4    4    0    0 -0.10730000490E+01 -0.86411072682E+01  0.17587443986E+01  0.88833127709E+01  0.00000000000E+00 0. -1.
</event>
<event>
 8    1  0.1210161E-006  0.9118800E+02  0.7816164E-02  0.1184000E+00
        -11   -1    0    0    0    0  0.00000000000E+00  0.00000000000E+00  0.45593999997E+02  0.45594000000E+02  0.51100000000E-03 0. -1.
         11   -1    0    0    0    0 -0.00000000000E+00 -0.00000000000E+00 -0.45593999997E+02  0.45594000000E+02  0.51100000000E-03 0.  1.
         23    2    1    2    0    0  0.00000000000E+00  0.71054273576E-14 -0.88817841970E-15  0.91188000000E+02  0.91188000000E+02 0.  0.
    9900012    2    3    3    0    0  0.14019008442E+02 -0.33227042195E+02 -0.74303644037E+01  0.54367092272E+02  0.40000018452E+02 0.  0.
        -12    1    3    3    0    0 -0.14019008442E+02  0.33227042195E+02  0.74303644037E+01  0.36820907728E+02  0.00000000000E+00 0.  1.
         11    1    4    4    0    0 -0.27810881114E+01 -0.18164061251E+02  0.77427099381E+01  0.19940339256E+02  0.51100000000E-03 0. -1.
        -11    1    4    4    0    0  0.78044297971E+01  0.47542314056E+01 -0.46067216254E+01  0.10233949634E+02  0.51100000000E-03 0.  1.
         12    1    4    4    0    0  0.89956667566E+01 -0.19817212350E+02 -0.10566352716E+02  0.24192803381E+02  0.00000000000E+00 0. -1.
</event>
<event>
 8    1  0.1210161E-006  0.9118800E+02  0.7816164E-02  0.1184000E+00
        -11   -1    0    0    0    0  0.00000000000E+00  0.00000000000E+00  0.45593999997E+02  0.45594000000E+02  0.51100000000E-03 0.  1.
         11   -1    0    0    0    0 -0.00000000000E+00 -0.00000000000E+00 -0.45593999997E+02  0.45594000000E+02  0.51100000000E-03 0. -1.
         23    2    1    2    0    0  0.00000000000E+00 -0.88817841970E-15  0.35527136788E-14  0.91188000000E+02  0.91188000000E+02 0.  0.
    9900012    2    3    3    0    0  0.24462251129E+02  0.77081400876E+01  0.26418955119E+02  0.54367104527E+02  0.40000046390E+02 0.  0.
         12    1    3    3    0    0 -0.24462251129E+02 -0.77081400876E+01 -0.26418955119E+02  0.36820895473E+02  0.00000000000E+00 0. -1.
         11    1    4    4    0    0  0.41561352142E+01 -0.46660367213E+01  0.98835236261E+01  0.11693134658E+02  0.51100000000E-03 0. -1.
        -11    1    4    4    0    0  0.49341296992E+01 -0.79721256654E+01  0.14268393257E+02  0.17073004126E+02  0.51100000000E-03 0.  1.
         12    1    4    4    0    0  0.15371986215E+02  0.20346302474E+02  0.22670382361E+01  0.25600965742E+02  0.00000000000E+00 0. -1.
</event>
<event>
 8    1  0.1210161E-006  0.9118800E+02  0.7816164E-02  0.1184000E+00
        -11   -1    0    0    0    0  0.00000000000E+00  0.00000000000E+00  0.45593999997E+02  0.45594000000E+02  0.51100000000E-03 0. -1.
         11   -1    0    0    0    0 -0.00000000000E+00 -0.00000000000E+00 -0.45593999997E+02  0.45594000000E+02  0.51100000000E-03 0.  1.
         23    2    1    2    0    0  0.00000000000E+00 -0.35527136788E-14  0.00000000000E+00  0.91188000000E+02  0.91188000000E+02 0.  0.
    9900012    2    3    3    0    0  0.16070814012E+02 -0.19875041839E+02 -0.26504575122E+02  0.54367070442E+02  0.39999968687E+02 0.  0.
         12    1    3    3    0    0 -0.16070814012E+02  0.19875041839E+02  0.26504575122E+02  0.36820929558E+02  0.00000000000E+00 0. -1.
         11    1    4    4    0    0  0.13037040673E+02 -0.16485504212E+02 -0.39976463300E+01  0.21394332312E+02  0.51100000000E-03 0. -1.
        -11    1    4    4    0    0 -0.58964738636E+01 -0.79961363341E+01 -0.19973668190E+01  0.10133907182E+02  0.51100000000E-03 0.  1.
         12    1    4    4    0    0  0.89302472023E+01  0.46065987075E+01 -0.20509561973E+02  0.22838830948E+02  0.00000000000E+00 0. -1.
</event>
<event>
 8    1  0.1210161E-006  0.9118800E+02  0.7816164E-02  0.1184000E+00
        -11   -1    0    0    0    0  0.00000000000E+00  0.00000000000E+00  0.45593999997E+02  0.45594000000E+02  0.51100000000E-03 0.  1.
         11   -1    0    0    0    0 -0.00000000000E+00 -0.00000000000E+00 -0.45593999997E+02  0.45594000000E+02  0.51100000000E-03 0. -1.
         23    2    1    2    0    0  0.00000000000E+00  0.00000000000E+00  0.00000000000E+00  0.91188000000E+02  0.91188000000E+02 0.  0.
    9900012    2    3    3    0    0 -0.16620989274E+02  0.32462291811E+02  0.50716763401E+01  0.54367087804E+02  0.40000008266E+02 0.  0.
         12    1    3    3    0    0  0.16620989274E+02 -0.32462291811E+02 -0.50716763401E+01  0.36820912196E+02  0.00000000000E+00 0. -1.
         11    1    4    4    0    0 -0.69818344702E+00  0.33135918061E+02  0.13946770099E+02  0.35958155157E+02  0.51100000000E-03 0. -1.
        -11    1    4    4    0    0 -0.14398030820E+02  0.12540200379E+00 -0.77416923399E+01  0.16347868904E+02  0.51100000000E-03 0.  1.
         12    1    4    4    0    0 -0.15247750076E+01 -0.79902825396E+00 -0.11334014191E+01  0.20610637427E+01  0.00000000000E+00 0. -1.
</event>
<event>
 8    1  0.1210161E-006  0.9118800E+02  0.7816164E-02  0.1184000E+00
        -11   -1    0    0    0    0  0.00000000000E+00  0.00000000000E+00  0.45593999997E+02  0.45594000000E+02  0.51100000000E-03 0. -1.
         11   -1    0    0    0    0 -0.00000000000E+00 -0.00000000000E+00 -0.45593999997E+02  0.45594000000E+02  0.51100000000E-03 0.  1.
         23    2    1    2    0    0  0.00000000000E+00  0.17763568394E-14  0.00000000000E+00  0.91188000000E+02  0.91188000000E+02 0.  0.
    9900012    2    3    3    0    0  0.29117878551E+02  0.14068586380E+02 -0.17606946716E+02  0.54367074608E+02  0.39999978185E+02 0.  0.
         12    1    3    3    0    0 -0.29117878551E+02 -0.14068586380E+02  0.17606946716E+02  0.36820925392E+02  0.00000000000E+00 0. -1.
         11    1    4    4    0    0  0.20351836556E+02  0.42962419785E+01 -0.21981023998E+01  0.20916180358E+02  0.51100000000E-03 0. -1.
        -11    1    4    4    0    0  0.15630108595E+02 -0.19052998479E+01 -0.55418039904E+01  0.16692574815E+02  0.51100000000E-03 0.  1.
         12    1    4    4    0    0 -0.68640666010E+01  0.11677644249E+02 -0.98670403263E+01  0.16758319436E+02  0.00000000000E+00 0. -1.
</event>
<event>
 8    1  0.1210161E-006  0.9118800E+02  0.7816164E-02  0.1184000E+00
        -11   -1    0    0    0    0  0.00000000000E+00  0.00000000000E+00  0.45593999997E+02  0.45594000000E+02  0.51100000000E-03 0. -1.
         11   -1    0    0    0    0 -0.00000000000E+00 -0.00000000000E+00 -0.45593999997E+02  0.45594000000E+02  0.51100000000E-03 0.  1.
         23    2    1    2    0    0 -0.17763568394E-14  0.88817841970E-15  0.00000000000E+00  0.91188000000E+02  0.91188000000E+02 0.  0.
    9900012    2    3    3    0    0  0.68468849163E+01 -0.67707414501E+01 -0.35539522304E+02  0.54367076350E+02  0.39999982155E+02 0.  0.
         12    1    3    3    0    0 -0.68468849163E+01  0.67707414501E+01  0.35539522304E+02  0.36820923650E+02  0.00000000000E+00 0. -1.
         11    1    4    4    0    0 -0.18683340034E+01 -0.93869540235E+01 -0.11120988066E+02  0.14672489687E+02  0.51100000000E-03 0. -1.
        -11    1    4    4    0    0  0.16341848002E+02 -0.57612523014E+01 -0.22180739845E+02  0.28146638246E+02  0.51100000000E-03 0.  1.
         12    1    4    4    0    0 -0.76266290823E+01  0.83774648748E+01 -0.22377943923E+01  0.11547948416E+02  0.00000000000E+00 0. -1.
</event>
<event>
 8    1  0.1210161E-006  0.9118800E+02  0.7816164E-02  0.1184000E+00
        -11   -1    0    0    0    0  0.00000000000E+00  0.00000000000E+00  0.45593999997E+02  0.45594000000E+02  0.51100000000E-03 0. -1.
         11   -1    0    0    0    0 -0.00000000000E+00 -0.00000000000E+00 -0.45593999997E+02  0.45594000000E+02  0.51100000000E-03 0.  1.
         23    2    1    2    0    0  0.00000000000E+00  0.00000000000E+00  0.27755575616E-15  0.91188000000E+02  0.91188000000E+02 0.  0.
    9900012    2    3    3    0    0 -0.26424606572E+02 -0.25641792226E+02  0.13583433304E+00  0.54367084857E+02  0.40000001548E+02 0.  0.
         12    1    3    3    0    0  0.26424606572E+02  0.25641792226E+02 -0.13583433304E+00  0.36820915143E+02  0.00000000000E+00 0. -1.
         11    1    4    4    0    0 -0.12399466448E+02  0.45831781066E+01 -0.63959306747E+01  0.14685374330E+02  0.51100000000E-03 0. -1.
        -11    1    4    4    0    0 -0.16517426670E+02 -0.21600692757E+02 -0.20410701408E+01  0.27268686785E+02  0.51100000000E-03 0.  1.
        -12    1    4    4    0    0  0.24922865463E+01 -0.86242775755E+01  0.85728351486E+01  0.12413023742E+02  0.00000000000E+00 0.  1.
</event>
<event>
 8    1  0.1210161E-006  0.9118800E+02  0.7816164E-02  0.1184000E+00
        -11   -1    0    0    0    0  0.00000000000E+00  0.00000000000E+00  0.45593999997E+02  0.45594000000E+02  0.51100000000E-03 0.  1.
         11   -1    0    0    0    0 -0.00000000000E+00 -0.00000000000E+00 -0.45593999997E+02  0.45594000000E+02  0.51100000000E-03 0. -1.
         23    2    1    2    0    0  0.17763568394E-14  0.00000000000E+00 -0.35527136788E-14  0.91188000000E+02  0.91188000000E+02 0.  0.
    9900012    2    3    3    0    0  0.14085405532E+02  0.16924473629E+02 -0.29511818002E+02  0.54367029638E+02  0.39999875666E+02 0.  0.
        -12    1    3    3    0    0 -0.14085405532E+02 -0.16924473629E+02  0.29511818002E+02  0.36820970362E+02  0.00000000000E+00 0.  1.
         11    1    4    4    0    0  0.12050912340E+02  0.59689779376E+01  0.33128344331E+01  0.13850200652E+02  0.51100000000E-03 0. -1.
        -11    1    4    4    0    0  0.66171703642E+00 -0.46601786635E+01 -0.68297093029E+00  0.47562153194E+01  0.51100000000E-03 0.  1.
         12    1    4    4    0    0  0.13727761552E+01  0.15615674355E+02 -0.32141681504E+02  0.35760613667E+02  0.00000000000E+00 0. -1.
</event>
<event>
 8    1  0.1210161E-006  0.9118800E+02  0.7816164E-02  0.1184000E+00
        -11   -1    0    0    0    0  0.00000000000E+00  0.00000000000E+00  0.45593999997E+02  0.45594000000E+02  0.51100000000E-03 0.  1.
         11   -1    0    0    0    0 -0.00000000000E+00 -0.00000000000E+00 -0.45593999997E+02  0.45594000000E+02  0.51100000000E-03 0. -1.
         23    2    1    2    0    0 -0.35527136788E-14  0.71054273576E-14 -0.71054273576E-14  0.91188000000E+02  0.91188000000E+02 0.  0.
    9900012    2    3    3    0    0  0.21334115365E+02 -0.17342905971E+02  0.24491992385E+02  0.54367101629E+02  0.40000039783E+02 0.  0.
         12    1    3    3    0    0 -0.21334115365E+02  0.17342905971E+02 -0.24491992385E+02  0.36820898371E+02  0.00000000000E+00 0. -1.
         11    1    4    4    0    0  0.78720143940E+01  0.15752518160E+01  0.15423953504E+02  0.17388167553E+02  0.51100000000E-03 0. -1.
        -11    1    4    4    0    0 -0.62024974947E+01  0.18852484871E+01  0.47316852372E+01  0.80258321983E+01  0.51100000000E-03 0.  1.
         12    1    4    4    0    0  0.19664598465E+02 -0.20803406274E+02  0.43363536439E+01  0.28953101877E+02  0.00000000000E+00 0. -1.
</event>
<event>
 8    1  0.1210161E-006  0.9118800E+02  0.7816164E-02  0.1184000E+00
        -11   -1    0    0    0    0  0.00000000000E+00  0.00000000000E+00  0.45593999997E+02  0.45594000000E+02  0.51100000000E-03 0. -1.
         11   -1    0    0    0    0 -0.00000000000E+00 -0.00000000000E+00 -0.45593999997E+02  0.45594000000E+02  0.51100000000E-03 0.  1.
         23    2    1    2    0    0  0.00000000000E+00  0.00000000000E+00  0.00000000000E+00  0.91188000000E+02  0.91188000000E+02 0.  0.
    9900012    2    3    3    0    0  0.43999095779E+01 -0.90689488993E+01  0.35414319404E+02  0.54367094834E+02  0.40000024292E+02 0.  0.
        -12    1    3    3    0    0 -0.43999095779E+01  0.90689488993E+01 -0.35414319404E+02  0.36820905166E+02  0.00000000000E+00 0.  1.
         11    1    4    4    0    0  0.21630780401E+01 -0.12631161344E+02  0.25287148987E+02  0.28348986713E+02  0.51100000000E-03 0. -1.
        -11    1    4    4    0    0  0.20105936490E+00 -0.89080982294E+01  0.99840309126E+01  0.13381909896E+02  0.51100000000E-03 0.  1.
         12    1    4    4    0    0  0.20357721728E+01  0.12470310675E+02  0.14313950466E+00  0.12636198225E+02  0.00000000000E+00 0. -1.
</event>
<event>
 8    1  0.1210161E-006  0.9118800E+02  0.7816164E-02  0.1184000E+00
        -11   -1    0    0    0    0  0.00000000000E+00  0.00000000000E+00  0.45593999997E+02  0.45594000000E+02  0.51100000000E-03 0.  1.
         11   -1    0    0    0    0 -0.00000000000E+00 -0.00000000000E+00 -0.45593999997E+02  0.45594000000E+02  0.51100000000E-03 0. -1.
         23    2    1    2    0    0 -0.35527136788E-14 -0.35527136788E-14  0.00000000000E+00  0.91188000000E+02  0.91188000000E+02 0.  0.
    9900012    2    3    3    0    0 -0.29175630402E+02  0.20516654330E+02 -0.91448447328E+01  0.54367099693E+02  0.40000035370E+02 0.  0.
         12    1    3    3    0    0  0.29175630402E+02 -0.20516654330E+02  0.91448447328E+01  0.36820900307E+02  0.00000000000E+00 0. -1.
         11    1    4    4    0    0 -0.22909662917E+02  0.10491314612E+02 -0.14451012700E+02  0.29047411340E+02  0.51100000000E-03 0. -1.
        -11    1    4    4    0    0  0.11925740383E+01 -0.56333702998E+01  0.55162751330E+01  0.79741071835E+01  0.51100000000E-03 0.  1.
        -12    1    4    4    0    0 -0.74585415230E+01  0.15658710018E+02 -0.21010716528E+00  0.17345581169E+02  0.00000000000E+00 0.  1.
</event>
<event>
 8    1  0.1210161E-006  0.9118800E+02  0.7816164E-02  0.1184000E+00
        -11   -1    0    0    0    0  0.00000000000E+00  0.00000000000E+00  0.45593999997E+02  0.45594000000E+02  0.51100000000E-03 0. -1.
         11   -1    0    0    0    0 -0.00000000000E+00 -0.00000000000E+00 -0.45593999997E+02  0.45594000000E+02  0.51100000000E-03 0.  1.
         23    2    1    2    0    0  0.00000000000E+00 -0.13877787808E-16  0.71054273576E-14  0.91188000000E+02  0.91188000000E+02 0.  0.
    9900012    2    3    3    0    0 -0.76780341465E+01 -0.42096254837E-01 -0.36011481944E+02  0.54367071003E+02  0.39999969965E+02 0.  0.
         12    1    3    3    0    0  0.76780341465E+01  0.42096254837E-01  0.36011481944E+02  0.36820928997E+02  0.00000000000E+00 0. -1.
         11    1    4    4    0    0  0.20693380647E+01 -0.10061498531E+02 -0.37271606350E+01  0.10927380261E+02  0.51100000000E-03 0. -1.
        -11    1    4    4    0    0 -0.73324081523E+01  0.11859347945E+02 -0.33412127527E+01  0.14337783857E+02  0.51100000000E-03 0.  1.
        -12    1    4    4    0    0 -0.24149640589E+01 -0.18399456692E+01 -0.28943108556E+02  0.29101906885E+02  0.00000000000E+00 0.  1.
</event>
<event>
 8    1  0.1210161E-006  0.9118800E+02  0.7816164E-02  0.1184000E+00
        -11   -1    0    0    0    0  0.00000000000E+00  0.00000000000E+00  0.45593999997E+02  0.45594000000E+02  0.51100000000E-03 0. -1.
         11   -1    0    0    0    0 -0.00000000000E+00 -0.00000000000E+00 -0.45593999997E+02  0.45594000000E+02  0.51100000000E-03 0.  1.
         23    2    1    2    0    0  0.00000000000E+00 -0.44408920985E-15  0.00000000000E+00  0.91188000000E+02  0.91188000000E+02 0.  0.
    9900012    2    3    3    0    0 -0.31491635630E+02  0.35298031596E+01 -0.18750924202E+02  0.54367084973E+02  0.40000001813E+02 0.  0.
         12    1    3    3    0    0  0.31491635630E+02 -0.35298031596E+01  0.18750924202E+02  0.36820915027E+02  0.00000000000E+00 0. -1.
         11    1    4    4    0    0 -0.15351588482E+02  0.68176971600E+01 -0.14384653742E+02  0.22114939001E+02  0.51100000000E-03 0. -1.
        -11    1    4    4    0    0 -0.36453645843E+00 -0.12175794046E+01 -0.13731196710E+02  0.13789893030E+02  0.51100000000E-03 0.  1.
         12    1    4    4    0    0 -0.15775510689E+02 -0.20703145959E+01  0.93649262496E+01  0.18462252942E+02  0.00000000000E+00 0. -1.
</event>
<event>
 8    1  0.1210161E-006  0.9118800E+02  0.7816164E-02  0.1184000E+00
        -11   -1    0    0    0    0  0.00000000000E+00  0.00000000000E+00  0.45593999997E+02  0.45594000000E+02  0.51100000000E-03 0.  1.
         11   -1    0    0    0    0 -0.00000000000E+00 -0.00000000000E+00 -0.45593999997E+02  0.45594000000E+02  0.51100000000E-03 0. -1.
         23    2    1    2    0    0  0.44408920985E-15  0.00000000000E+00  0.00000000000E+00  0.91188000000E+02  0.91188000000E+02 0.  0.
    9900012    2    3    3    0    0  0.26683846552E+01  0.34547608811E+02 -0.12454830589E+02  0.54367077195E+02  0.39999984082E+02 0.  0.
         12    1    3    3    0    0 -0.26683846552E+01 -0.34547608811E+02  0.12454830589E+02  0.36820922805E+02  0.00000000000E+00 0. -1.
         11    1    4    4    0    0  0.10402619897E+02  0.16517837344E+02  0.16596657220E+01  0.19591016865E+02  0.51100000000E-03 0.  1.
        -11    1    4    4    0    0 -0.13522304347E+02  0.20193768286E+02 -0.68727277239E+01  0.25256194865E+02  0.51100000000E-03 0. -1.
        -12    1    4    4    0    0  0.57880691053E+01 -0.21639968189E+01 -0.72417685871E+01  0.95198654648E+01  0.00000000000E+00 0.  1.
</event>
<event>
 8    1  0.1210161E-006  0.9118800E+02  0.7816164E-02  0.1184000E+00
        -11   -1    0    0    0    0  0.00000000000E+00  0.00000000000E+00  0.45593999997E+02  0.45594000000E+02  0.51100000000E-03 0. -1.
         11   -1    0    0    0    0 -0.00000000000E+00 -0.00000000000E+00 -0.45593999997E+02  0.45594000000E+02  0.51100000000E-03 0.  1.
         23    2    1    2    0    0  0.00000000000E+00  0.00000000000E+00  0.00000000000E+00  0.91188000000E+02  0.91188000000E+02 0.  0.
    9900012    2    3    3    0    0  0.29712527548E+02 -0.93986658646E+01  0.19611448948E+02  0.54367107247E+02  0.40000052590E+02 0.  0.
        -12    1    3    3    0    0 -0.29712527548E+02  0.93986658646E+01 -0.19611448948E+02  0.36820892753E+02  0.00000000000E+00 0.  1.
         11    1    4    4    0    0  0.94828715784E+01  0.30191282378E+01 -0.51373970343E+01  0.11199680229E+02  0.51100000000E-03 0. -1.
        -11    1    4    4    0    0  0.73198611700E+01 -0.12734327811E+02  0.26337518298E+02  0.30156398039E+02  0.51100000000E-03 0.  1.
        -12    1    4    4    0    0  0.12909794799E+02  0.31653370876E+00 -0.15886723154E+01  0.13011028978E+02  0.00000000000E+00 0.  1.
</event>
<event>
 8    1  0.1210161E-006  0.9118800E+02  0.7816164E-02  0.1184000E+00
        -11   -1    0    0    0    0  0.00000000000E+00  0.00000000000E+00  0.45593999997E+02  0.45594000000E+02  0.51100000000E-03 0.  1.
         11   -1    0    0    0    0 -0.00000000000E+00 -0.00000000000E+00 -0.45593999997E+02  0.45594000000E+02  0.51100000000E-03 0. -1.
         23    2    1    2    0    0 -0.35527136788E-14  0.00000000000E+00  0.00000000000E+00  0.91188000000E+02  0.91188000000E+02 0.  0.
    9900012    2    3    3    0    0  0.30805753563E+02 -0.17440908324E+02 -0.10129178165E+02  0.54367082222E+02  0.39999995540E+02 0.  0.
         12    1    3    3    0    0 -0.30805753563E+02  0.17440908324E+02  0.10129178165E+02  0.36820917778E+02  0.00000000000E+00 0. -1.
         11    1    4    4    0    0  0.37000185945E+01 -0.10071803685E+02 -0.96603136270E+01  0.14437902434E+02  0.51100000000E-03 0. -1.
        -11    1    4    4    0    0 -0.45684327853E+01  0.26124605404E+01  0.37365693273E+01  0.64542605145E+01  0.51100000000E-03 0.  1.
         12    1    4    4    0    0  0.31674167754E+02 -0.99815651801E+01 -0.42054338649E+01  0.33474919273E+02  0.00000000000E+00 0. -1.
</event>
<event>
 8    1  0.1210161E-006  0.9118800E+02  0.7816164E-02  0.1184000E+00
        -11   -1    0    0    0    0  0.00000000000E+00  0.00000000000E+00  0.45593999997E+02  0.45594000000E+02  0.51100000000E-03 0. -1.
         11   -1    0    0    0    0 -0.00000000000E+00 -0.00000000000E+00 -0.45593999997E+02  0.45594000000E+02  0.51100000000E-03 0.  1.
         23    2    1    2    0    0  0.00000000000E+00  0.35527136788E-14  0.35527136788E-14  0.91188000000E+02  0.91188000000E+02 0.  0.
    9900012    2    3    3    0    0 -0.20373560055E+02 -0.17842914962E+02 -0.24946505909E+02  0.54367085824E+02  0.40000003754E+02 0.  0.
         12    1    3    3    0    0  0.20373560055E+02  0.17842914962E+02  0.24946505909E+02  0.36820914176E+02  0.00000000000E+00 0. -1.
         11    1    4    4    0    0 -0.27872378642E+02 -0.19685435132E+02 -0.11265837032E+02  0.35934731553E+02  0.51100000000E-03 0. -1.
        -11    1    4    4    0    0  0.38294785777E+01  0.46908262072E+01 -0.29424524626E+01  0.67325168725E+01  0.51100000000E-03 0.  1.
        -12    1    4    4    0    0  0.36693400098E+01 -0.28483060374E+01 -0.10738216415E+02  0.11699837399E+02  0.00000000000E+00 0.  1.
</event>
<event>
 8    1  0.1210161E-006  0.9118800E+02  0.7816164E-02  0.1184000E+00
        -11   -1    0    0    0    0  0.00000000000E+00  0.00000000000E+00  0.45593999997E+02  0.45594000000E+02  0.51100000000E-03 0.  1.
         11   -1    0    0    0    0 -0.00000000000E+00 -0.00000000000E+00 -0.45593999997E+02  0.45594000000E+02  0.51100000000E-03 0. -1.
         23    2    1    2    0    0  0.00000000000E+00  0.17763568394E-14  0.00000000000E+00  0.91188000000E+02  0.91188000000E+02 0.  0.
    9900012    2    3    3    0    0 -0.15590693862E+02 -0.18961196209E+01 -0.33303376692E+02  0.54367083339E+02  0.39999998088E+02 0.  0.
        -12    1    3    3    0    0  0.15590693862E+02  0.18961196209E+01  0.33303376692E+02  0.36820916661E+02  0.00000000000E+00 0.  1.
         11    1    4    4    0    0 -0.16484587858E+02 -0.92912575570E+01 -0.31770077757E+02  0.36978465960E+02  0.51100000000E-03 0. -1.
        -11    1    4    4    0    0 -0.41832238877E+01  0.10452843630E+02  0.31006946585E-01  0.11258874888E+02  0.51100000000E-03 0.  1.
         12    1    4    4    0    0  0.50771178837E+01 -0.30577056939E+01 -0.15643058813E+01  0.61297424910E+01  0.00000000000E+00 0. -1.
</event>
<event>
 8    1  0.1210161E-006  0.9118800E+02  0.7816164E-02  0.1184000E+00
        -11   -1    0    0    0    0  0.00000000000E+00  0.00000000000E+00  0.45593999997E+02  0.45594000000E+02  0.51100000000E-03 0. -1.
         11   -1    0    0    0    0 -0.00000000000E+00 -0.00000000000E+00 -0.45593999997E+02  0.45594000000E+02  0.51100000000E-03 0.  1.
         23    2    1    2    0    0 -0.35527136788E-14  0.00000000000E+00  0.35527136788E-14  0.91188000000E+02  0.91188000000E+02 0.  0.
    9900012    2    3    3    0    0 -0.17716011327E+02 -0.18402412699E+02  0.26519480220E+02  0.54366964142E+02  0.39999726354E+02 0.  0.
        -12    1    3    3    0    0  0.17716011327E+02  0.18402412699E+02 -0.26519480220E+02  0.36821035858E+02  0.00000000000E+00 0.  1.
         11    1    4    4    0    0 -0.25097189971E+02 -0.87841781310E+01  0.15875600270E+02  0.30968781282E+02  0.51100000000E-03 0. -1.
        -11    1    4    4    0    0  0.92898317367E+01  0.25494475958E-01  0.54703330362E+00  0.93059588093E+01  0.51100000000E-03 0.  1.
         12    1    4    4    0    0 -0.19086530920E+01 -0.96437290441E+01  0.10096846647E+02  0.14092224051E+02  0.00000000000E+00 0. -1.
</event>
<event>
 8    1  0.1210161E-006  0.9118800E+02  0.7816164E-02  0.1184000E+00
        -11   -1    0    0    0    0  0.00000000000E+00  0.00000000000E+00  0.45593999997E+02  0.45594000000E+02  0.51100000000E-03 0.  1.
         11   -1    0    0    0    0 -0.00000000000E+00 -0.00000000000E+00 -0.45593999997E+02  0.45594000000E+02  0.51100000000E-03 0. -1.
         23    2    1    2    0    0  0.44408920985E-15  0.00000000000E+00  0.17763568394E-14  0.91188000000E+02  0.91188000000E+02 0.  0.
    9900012    2    3    3    0    0  0.39813715734E+01 -0.35600452889E+02  0.85167894419E+01  0.54367091974E+02  0.40000017772E+02 0.  0.
         12    1    3    3    0    0 -0.39813715734E+01  0.35600452889E+02 -0.85167894419E+01  0.36820908026E+02  0.00000000000E+00 0. -1.
         11    1    4    4    0    0  0.32423856793E+01 -0.53064307643E+01 -0.11052994165E+02  0.12682269222E+02  0.51100000000E-03 0. -1.
        -11    1    4    4    0    0  0.79196784826E+01 -0.30230652542E+01  0.60259782456E+01  0.10400607909E+02  0.51100000000E-03 0.  1.
        -12    1    4    4    0    0 -0.71806925885E+01 -0.27270956870E+02  0.13543805361E+02  0.31284214843E+02  0.00000000000E+00 0.  1.
</event>
<event>
 8    1  0.1210161E-006  0.9118800E+02  0.7816164E-02  0.1184000E+00
        -11   -1    0    0    0    0  0.00000000000E+00  0.00000000000E+00  0.45593999997E+02  0.45594000000E+02  0.51100000000E-03 0.  1.
         11   -1    0    0    0    0 -0.00000000000E+00 -0.00000000000E+00 -0.45593999997E+02  0.45594000000E+02  0.51100000000E-03 0. -1.
         23    2    1    2    0    0 -0.17763568394E-14  0.00000000000E+00 -0.71054273576E-14  0.91188000000E+02  0.91188000000E+02 0.  0.
    9900012    2    3    3    0    0 -0.13470473374E+02 -0.31056187776E+01 -0.34127435402E+02  0.54367077034E+02  0.39999983715E+02 0.  0.
        -12    1    3    3    0    0  0.13470473374E+02  0.31056187776E+01  0.34127435402E+02  0.36820922966E+02  0.00000000000E+00 0.  1.
         11    1    4    4    0    0  0.26096067603E+01 -0.68473111441E+01 -0.37325620525E+01  0.82236085196E+01  0.51100000000E-03 0. -1.
        -11    1    4    4    0    0 -0.18589345990E+02 -0.86122032658E+01 -0.11692301200E+02  0.23589059689E+02  0.51100000000E-03 0.  1.
         12    1    4    4    0    0  0.25092658557E+01  0.12353895632E+02 -0.18702572150E+02  0.22554408825E+02  0.00000000000E+00 0. -1.
</event>
<event>
 8    1  0.1210161E-006  0.9118800E+02  0.7816164E-02  0.1184000E+00
        -11   -1    0    0    0    0  0.00000000000E+00  0.00000000000E+00  0.45593999997E+02  0.45594000000E+02  0.51100000000E-03 0. -1.
         11   -1    0    0    0    0 -0.00000000000E+00 -0.00000000000E+00 -0.45593999997E+02  0.45594000000E+02  0.51100000000E-03 0.  1.
         23    2    1    2    0    0  0.13877787808E-15 -0.88817841970E-15  0.00000000000E+00  0.91188000000E+02  0.91188000000E+02 0.  0.
    9900012    2    3    3    0    0  0.18054102807E+00 -0.41190882943E+01  0.36589367236E+02  0.54367064676E+02  0.39999955542E+02 0.  0.
        -12    1    3    3    0    0 -0.18054102807E+00  0.41190882943E+01 -0.36589367236E+02  0.36820935324E+02  0.00000000000E+00 0.  1.
         11    1    4    4    0    0 -0.73664701195E+01 -0.62315394605E+01  0.22081247233E+02  0.24097270503E+02  0.51100000000E-03 0. -1.
        -11    1    4    4    0    0  0.16378014009E+02 -0.25488232415E+01  0.87526698612E+01  0.18744201044E+02  0.51100000000E-03 0.  1.
        -12    1    4    4    0    0 -0.88310028618E+01  0.46612744078E+01  0.57554501418E+01  0.11525593129E+02  0.00000000000E+00 0.  1.
</event>
<event>
 8    1  0.1210161E-006  0.9118800E+02  0.7816164E-02  0.1184000E+00
        -11   -1    0    0    0    0  0.00000000000E+00  0.00000000000E+00  0.45593999997E+02  0.45594000000E+02  0.51100000000E-03 0. -1.
         11   -1    0    0    0    0 -0.00000000000E+00 -0.00000000000E+00 -0.45593999997E+02  0.45594000000E+02  0.51100000000E-03 0.  1.
         23    2    1    2    0    0 -0.35527136788E-14 -0.22204460493E-15  0.35527136788E-14  0.91188000000E+02  0.91188000000E+02 0.  0.
    9900012    2    3    3    0    0  0.30658476714E+02  0.11624649750E+01 -0.20358923593E+02  0.54367091685E+02  0.40000017115E+02 0.  0.
         12    1    3    3    0    0 -0.30658476714E+02 -0.11624649750E+01  0.20358923593E+02  0.36820908315E+02  0.00000000000E+00 0. -1.
         11    1    4    4    0    0 -0.59924477768E+01  0.18921643549E+01  0.15940013538E+00  0.62861057077E+01  0.51100000000E-03 0. -1.
        -11    1    4    4    0    0  0.18589068265E+02  0.47577672349E+00 -0.23252681262E+02  0.29773595829E+02  0.51100000000E-03 0.  1.
         12    1    4    4    0    0  0.18061856225E+02 -0.12054761034E+01  0.27343575332E+01  0.18307390149E+02  0.00000000000E+00 0. -1.
</event>
<event>
 8    1  0.1210161E-006  0.9118800E+02  0.7816164E-02  0.1184000E+00
        -11   -1    0    0    0    0  0.00000000000E+00  0.00000000000E+00  0.45593999997E+02  0.45594000000E+02  0.51100000000E-03 0. -1.
         11   -1    0    0    0    0 -0.00000000000E+00 -0.00000000000E+00 -0.45593999997E+02  0.45594000000E+02  0.51100000000E-03 0.  1.
         23    2    1    2    0    0 -0.17763568394E-14 -0.88817841970E-15  0.00000000000E+00  0.91188000000E+02  0.91188000000E+02 0.  0.
    9900012    2    3    3    0    0 -0.26806002249E+01  0.45731666987E+01  0.36437369832E+02  0.54367063137E+02  0.39999952033E+02 0.  0.
        -12    1    3    3    0    0  0.26806002249E+01 -0.45731666987E+01 -0.36437369832E+02  0.36820936863E+02  0.00000000000E+00 0.  1.
         11    1    4    4    0    0  0.28741666957E+00  0.78495722865E+00  0.15762029190E+02  0.15784179758E+02  0.51100000000E-03 0. -1.
        -11    1    4    4    0    0  0.68953863466E+01 -0.65093208822E+00  0.25728484651E+02  0.26644417579E+02  0.51100000000E-03 0.  1.
        -12    1    4    4    0    0 -0.98634032411E+01  0.44391415583E+01 -0.50531440091E+01  0.11938465800E+02  0.00000000000E+00 0.  1.
</event>
<event>
 8    1  0.1210161E-006  0.9118800E+02  0.7816164E-02  0.1184000E+00
        -11   -1    0    0    0    0  0.00000000000E+00  0.00000000000E+00  0.45593999997E+02  0.45594000000E+02  0.51100000000E-03 0.  1.
         11   -1    0    0    0    0 -0.00000000000E+00 -0.00000000000E+00 -0.45593999997E+02  0.45594000000E+02  0.51100000000E-03 0. -1.
         23    2    1    2    0    0 -0.88817841970E-15  0.35527136788E-14  0.00000000000E+00  0.91188000000E+02  0.91188000000E+02 0.  0.
    9900012    2    3    3    0    0  0.68631035850E+01 -0.29010610617E+02  0.21611617756E+02  0.54367085546E+02  0.40000003119E+02 0.  0.
         12    1    3    3    0    0 -0.68631035850E+01  0.29010610617E+02 -0.21611617756E+02  0.36820914454E+02  0.00000000000E+00 0. -1.
         11    1    4    4    0    0  0.68869418254E+01 -0.30981153774E+02  0.12965815154E+02  0.34283731123E+02  0.51100000000E-03 0. -1.
        -11    1    4    4    0    0  0.47379854319E+01 -0.60500612094E+01  0.50208352549E+00  0.77008983060E+01  0.51100000000E-03 0.  1.
         12    1    4    4    0    0 -0.47618236724E+01  0.80206043660E+01  0.81437190767E+01  0.12382456117E+02  0.00000000000E+00 0. -1.
</event>
<event>
 8    1  0.1210161E-006  0.9118800E+02  0.7816164E-02  0.1184000E+00
        -11   -1    0    0    0    0  0.00000000000E+00  0.00000000000E+00  0.45593999997E+02  0.45594000000E+02  0.51100000000E-03 0.  1.
         11   -1    0    0    0    0 -0.00000000000E+00 -0.00000000000E+00 -0.45593999997E+02  0.45594000000E+02  0.51100000000E-03 0. -1.
         23    2    1    2    0    0  0.00000000000E+00 -0.88817841970E-15 -0.17763568394E-14  0.91188000000E+02  0.91188000000E+02 0.  0.
    9900012    2    3    3    0    0  0.33720018907E+02  0.74957929559E+01 -0.12749624559E+02  0.54367088638E+02  0.40000010168E+02 0.  0.
        -12    1    3    3    0    0 -0.33720018907E+02 -0.74957929559E+01  0.12749624559E+02  0.36820911362E+02  0.00000000000E+00 0.  1.
         11    1    4    4    0    0  0.25810243844E+02 -0.52993472761E+01 -0.49557728140E+01  0.26810659322E+02  0.51100000000E-03 0. -1.
        -11    1    4    4    0    0  0.15494600228E+02  0.89961446522E+01 -0.59133495459E+01  0.18867457644E+02  0.51100000000E-03 0.  1.
        -12    1    4    4    0    0 -0.75848251650E+01  0.37989955798E+01 -0.18805021990E+01  0.86889716721E+01  0.00000000000E+00 0.  1.
</event>
<event>
 8    1  0.1210161E-006  0.9118800E+02  0.7816164E-02  0.1184000E+00
        -11   -1    0    0    0    0  0.00000000000E+00  0.00000000000E+00  0.45593999997E+02  0.45594000000E+02  0.51100000000E-03 0.  1.
         11   -1    0    0    0    0 -0.00000000000E+00 -0.00000000000E+00 -0.45593999997E+02  0.45594000000E+02  0.51100000000E-03 0. -1.
         23    2    1    2    0    0  0.00000000000E+00  0.00000000000E+00  0.88817841970E-15  0.91188000000E+02  0.91188000000E+02 0.  0.
    9900012    2    3    3    0    0  0.22950076566E+02 -0.27936843000E+02  0.69718463971E+01  0.54367084023E+02  0.39999999648E+02 0.  0.
         12    1    3    3    0    0 -0.22950076566E+02  0.27936843000E+02 -0.69718463971E+01  0.36820915977E+02  0.00000000000E+00 0. -1.
         11    1    4    4    0    0  0.64816774442E+01 -0.28668896923E+01 -0.14271211268E+02  0.15934198138E+02  0.51100000000E-03 0. -1.
        -11    1    4    4    0    0  0.15249690086E+02 -0.13659050769E+02  0.14901364154E+02  0.25321401413E+02  0.51100000000E-03 0.  1.
         12    1    4    4    0    0  0.12187090360E+01 -0.11410902539E+02  0.63416935111E+01  0.13111484472E+02  0.00000000000E+00 0. -1.
</event>
<event>
 8    1  0.1210161E-006  0.9118800E+02  0.7816164E-02  0.1184000E+00
        -11   -1    0    0    0    0  0.00000000000E+00  0.00000000000E+00  0.45593999997E+02  0.45594000000E+02  0.51100000000E-03 0.  1.
         11   -1    0    0    0    0 -0.00000000000E+00 -0.00000000000E+00 -0.45593999997E+02  0.45594000000E+02  0.51100000000E-03 0. -1.
         23    2    1    2    0    0  0.00000000000E+00  0.71054273576E-14  0.00000000000E+00  0.91188000000E+02  0.91188000000E+02 0.  0.
    9900012    2    3    3    0    0 -0.88762727607E+01 -0.28400608097E+02 -0.21688611314E+02  0.54367100783E+02  0.40000037855E+02 0.  0.
        -12    1    3    3    0    0  0.88762727607E+01  0.28400608097E+02  0.21688611314E+02  0.36820899217E+02  0.00000000000E+00 0.  1.
         11    1    4    4    0    0 -0.15928782725E+02 -0.29024053092E+01 -0.59483083199E+01  0.17249128900E+02  0.51100000000E-03 0. -1.
        -11    1    4    4    0    0 -0.62374957021E+01 -0.40212895472E+01 -0.75004923580E+01  0.10551516864E+02  0.51100000000E-03 0.  1.
         12    1    4    4    0    0  0.13290005666E+02 -0.21476913241E+02 -0.82398106362E+01  0.26566455019E+02  0.00000000000E+00 0. -1.
</event>
<event>
 8    1  0.1210161E-006  0.9118800E+02  0.7816164E-02  0.1184000E+00
        -11   -1    0    0    0    0  0.00000000000E+00  0.00000000000E+00  0.45593999997E+02  0.45594000000E+02  0.51100000000E-03 0. -1.
         11   -1    0    0    0    0 -0.00000000000E+00 -0.00000000000E+00 -0.45593999997E+02  0.45594000000E+02  0.51100000000E-03 0.  1.
         23    2    1    2    0    0 -0.88817841970E-15 -0.71054273576E-14 -0.17763568394E-14  0.91188000000E+02  0.91188000000E+02 0.  0.
    9900012    2    3    3    0    0 -0.49342606973E+01 -0.32918954733E+02 -0.15740889149E+02  0.54367080667E+02  0.39999991996E+02 0.  0.
         12    1    3    3    0    0  0.49342606973E+01  0.32918954733E+02  0.15740889149E+02  0.36820919333E+02  0.00000000000E+00 0. -1.
         11    1    4    4    0    0  0.12571886203E+01 -0.12132637095E+02 -0.55192402556E+01  0.13388182078E+02  0.51100000000E-03 0. -1.
        -11    1    4    4    0    0  0.75872059596E+01 -0.19595126134E+02 -0.15568002772E+02  0.26151431568E+02  0.51100000000E-03 0.  1.
         12    1    4    4    0    0 -0.13778655277E+02 -0.11911915043E+01  0.53463538784E+01  0.14827467020E+02  0.00000000000E+00 0. -1.
</event>
<event>
 8    1  0.1210161E-006  0.9118800E+02  0.7816164E-02  0.1184000E+00
        -11   -1    0    0    0    0  0.00000000000E+00  0.00000000000E+00  0.45593999997E+02  0.45594000000E+02  0.51100000000E-03 0. -1.
         11   -1    0    0    0    0 -0.00000000000E+00 -0.00000000000E+00 -0.45593999997E+02  0.45594000000E+02  0.51100000000E-03 0.  1.
         23    2    1    2    0    0  0.00000000000E+00  0.35527136788E-14 -0.71054273576E-14  0.91188000000E+02  0.91188000000E+02 0.  0.
    9900012    2    3    3    0    0 -0.19680580133E+02 -0.25870168793E+02 -0.17297065151E+02  0.54367091122E+02  0.40000015832E+02 0.  0.
        -12    1    3    3    0    0  0.19680580133E+02  0.25870168793E+02  0.17297065151E+02  0.36820908878E+02  0.00000000000E+00 0.  1.
         11    1    4    4    0    0 -0.18602360351E+02 -0.33830314961E+01  0.16461353239E+01  0.18979000882E+02  0.51100000000E-03 0. -1.
        -11    1    4    4    0    0 -0.38248972113E+01  0.59530213569E+00  0.17670412194E+01  0.42551919160E+01  0.51100000000E-03 0.  1.
        -12    1    4    4    0    0  0.27466774289E+01 -0.23082439432E+02 -0.20710241694E+02  0.31132898324E+02  0.00000000000E+00 0.  1.
</event>
<event>
 8    1  0.1210161E-006  0.9118800E+02  0.7816164E-02  0.1184000E+00
        -11   -1    0    0    0    0  0.00000000000E+00  0.00000000000E+00  0.45593999997E+02  0.45594000000E+02  0.51100000000E-03 0. -1.
         11   -1    0    0    0    0 -0.00000000000E+00 -0.00000000000E+00 -0.45593999997E+02  0.45594000000E+02  0.51100000000E-03 0.  1.
         23    2    1    2    0    0  0.35527136788E-14  0.17763568394E-14 -0.35527136788E-14  0.91188000000E+02  0.91188000000E+02 0.  0.
    9900012    2    3    3    0    0  0.20307581027E+02  0.72603349988E+01 -0.29844103137E+02  0.54367071121E+02  0.39999970234E+02 0.  0.
         12    1    3    3    0    0 -0.20307581027E+02 -0.72603349988E+01  0.29844103137E+02  0.36820928879E+02  0.00000000000E+00 0. -1.
         11    1    4    4    0    0  0.14416201271E+02  0.12267430698E+02 -0.15473611189E+02  0.24448913238E+02  0.51100000000E-03 0. -1.
        -11    1    4    4    0    0 -0.42653531699E+01  0.77922890971E+01 -0.12666877868E+01  0.89731546987E+01  0.51100000000E-03 0.  1.
         12    1    4    4    0    0  0.10156732926E+02 -0.12799384796E+02 -0.13103804161E+02  0.20945003184E+02  0.00000000000E+00 0. -1.
</event>
<event>
 8    1  0.1210161E-006  0.9118800E+02  0.7816164E-02  0.1184000E+00
        -11   -1    0    0    0    0  0.00000000000E+00  0.00000000000E+00  0.45593999997E+02  0.45594000000E+02  0.51100000000E-03 0. -1.
         11   -1    0    0    0    0 -0.00000000000E+00 -0.00000000000E+00 -0.45593999997E+02  0.45594000000E+02  0.51100000000E-03 0.  1.
         23    2    1    2    0    0  0.17763568394E-14  0.00000000000E+00  0.35527136788E-14  0.91188000000E+02  0.91188000000E+02 0.  0.
    9900012    2    3    3    0    0 -0.51084910629E+01  0.19918675985E+02 -0.30543946171E+02  0.54367041544E+02  0.39999902808E+02 0.  0.
         12    1    3    3    0    0  0.51084910629E+01 -0.19918675985E+02  0.30543946171E+02  0.36820958456E+02  0.00000000000E+00 0. -1.
         11    1    4    4    0    0  0.45059348333E+01  0.13537037653E+02 -0.86235217182E+01  0.16670931714E+02  0.51100000000E-03 0. -1.
        -11    1    4    4    0    0  0.21783388043E+01  0.15504030361E+02 -0.96921354948E+01  0.18413516994E+02  0.51100000000E-03 0.  1.
        -12    1    4    4    0    0 -0.11792764700E+02 -0.91223920293E+01 -0.12228288958E+02  0.19282592835E+02  0.00000000000E+00 0.  1.
</event>
<event>
 8    1  0.1210161E-006  0.9118800E+02  0.7816164E-02  0.1184000E+00
        -11   -1    0    0    0    0  0.00000000000E+00  0.00000000000E+00  0.45593999997E+02  0.45594000000E+02  0.51100000000E-03 0. -1.
         11   -1    0    0    0    0 -0.00000000000E+00 -0.00000000000E+00 -0.45593999997E+02  0.45594000000E+02  0.51100000000E-03 0.  1.
         23    2    1    2    0    0 -0.35527136788E-14  0.00000000000E+00  0.00000000000E+00  0.91188000000E+02  0.91188000000E+02 0.  0.
    9900012    2    3    3    0    0 -0.28498722976E+02 -0.27669852707E+01  0.23150509329E+02  0.54367088809E+02  0.40000010558E+02 0.  0.
        -12    1    3    3    0    0  0.28498722976E+02  0.27669852707E+01 -0.23150509329E+02  0.36820911191E+02  0.00000000000E+00 0.  1.
         11    1    4    4    0    0 -0.16292368302E+01  0.47070295179E+00 -0.45732725934E+01  0.48775809980E+01  0.51100000000E-03 0. -1.
        -11    1    4    4    0    0  0.64852133763E+01  0.19602981335E+01  0.20497442029E+01  0.70782916630E+01  0.51100000000E-03 0.  1.
         12    1    4    4    0    0 -0.33354699522E+02 -0.51979863559E+01  0.25674037720E+02  0.42411216148E+02  0.00000000000E+00 0. -1.
</event>
<event>
 8    1  0.1210161E-006  0.9118800E+02  0.7816164E-02  0.1184000E+00
        -11   -1    0    0    0    0  0.00000000000E+00  0.00000000000E+00  0.45593999997E+02  0.45594000000E+02  0.51100000000E-03 0.  1.
         11   -1    0    0    0    0 -0.00000000000E+00 -0.00000000000E+00 -0.45593999997E+02  0.45594000000E+02  0.51100000000E-03 0. -1.
         23    2    1    2    0    0  0.00000000000E+00  0.00000000000E+00  0.71054273576E-14  0.91188000000E+02  0.91188000000E+02 0.  0.
    9900012    2    3    3    0    0 -0.96424845422E+01 -0.12863605028E+02 -0.33125996576E+02  0.54367061777E+02  0.39999948934E+02 0.  0.
        -12    1    3    3    0    0  0.96424845422E+01  0.12863605028E+02  0.33125996576E+02  0.36820938223E+02  0.00000000000E+00 0.  1.
         11    1    4    4    0    0  0.12136444416E+01  0.11547229734E+02 -0.18603843128E+01  0.11758931814E+02  0.51100000000E-03 0. -1.
        -11    1    4    4    0    0  0.15577102072E+01 -0.19050579463E+01 -0.48615004755E+00  0.25083957021E+01  0.51100000000E-03 0.  1.
         12    1    4    4    0    0 -0.12413839191E+02 -0.22505776816E+02 -0.30779462215E+02  0.40099734261E+02  0.00000000000E+00 0. -1.
</event>
<event>
 8    1  0.1210161E-006  0.9118800E+02  0.7816164E-02  0.1184000E+00
        -11   -1    0    0    0    0  0.00000000000E+00  0.00000000000E+00  0.45593999997E+02  0.45594000000E+02  0.51100000000E-03 0. -1.
         11   -1    0    0    0    0 -0.00000000000E+00 -0.00000000000E+00 -0.45593999997E+02  0.45594000000E+02  0.51100000000E-03 0.  1.
         23    2    1    2    0    0 -0.17763568394E-14  0.88817841970E-15  0.00000000000E+00  0.91188000000E+02  0.91188000000E+02 0.  0.
    9900012    2    3    3    0    0 -0.96512624581E+01  0.70140469738E+01  0.34834401534E+02  0.54367092186E+02  0.40000018257E+02 0.  0.
        -12    1    3    3    0    0  0.96512624581E+01 -0.70140469738E+01 -0.34834401534E+02  0.36820907814E+02  0.00000000000E+00 0.  1.
         11    1    4    4    0    0  0.36648501688E+01 -0.60507441279E+01  0.19892914413E+01  0.73484632380E+01  0.51100000000E-03 0. -1.
        -11    1    4    4    0    0 -0.19396465274E+02  0.19248413296E+01  0.12885666915E+02  0.23365964379E+02  0.51100000000E-03 0.  1.
         12    1    4    4    0    0  0.60803526472E+01  0.11139949772E+02  0.19959443178E+02  0.23652664569E+02  0.00000000000E+00 0. -1.
</event>
<event>
 8    1  0.1210161E-006  0.9118800E+02  0.7816164E-02  0.1184000E+00
        -11   -1    0    0    0    0  0.00000000000E+00  0.00000000000E+00  0.45593999997E+02  0.45594000000E+02  0.51100000000E-03 0. -1.
         11   -1    0    0    0    0 -0.00000000000E+00 -0.00000000000E+00 -0.45593999997E+02  0.45594000000E+02  0.51100000000E-03 0.  1.
         23    2    1    2    0    0  0.00000000000E+00  0.35527136788E-14  0.00000000000E+00  0.91188000000E+02  0.91188000000E+02 0.  0.
    9900012    2    3    3    0    0 -0.27026497469E+02 -0.22406707125E+02 -0.11103480502E+02  0.54367090602E+02  0.40000014646E+02 0.  0.
         12    1    3    3    0    0  0.27026497469E+02  0.22406707125E+02  0.11103480502E+02  0.36820909398E+02  0.00000000000E+00 0. -1.
         11    1    4    4    0    0 -0.17182456874E+01 -0.28677546014E+01  0.49415892363E+01  0.59662122941E+01  0.51100000000E-03 0. -1.
        -11    1    4    4    0    0 -0.11869562469E+01 -0.21351172512E+02 -0.90513736346E+01  0.23220869874E+02  0.51100000000E-03 0.  1.
         12    1    4    4    0    0 -0.24121295535E+02  0.18122199881E+01 -0.69936961037E+01  0.25180008434E+02  0.00000000000E+00 0. -1.
</event>
<event>
 8    1  0.1210161E-006  0.9118800E+02  0.7816164E-02  0.1184000E+00
        -11   -1    0    0    0    0  0.00000000000E+00  0.00000000000E+00  0.45593999997E+02  0.45594000000E+02  0.51100000000E-03 0. -1.
         11   -1    0    0    0    0 -0.00000000000E+00 -0.00000000000E+00 -0.45593999997E+02  0.45594000000E+02  0.51100000000E-03 0.  1.
         23    2    1    2    0    0  0.00000000000E+00  0.00000000000E+00 -0.35527136788E-14  0.91188000000E+02  0.91188000000E+02 0.  0.
    9900012    2    3    3    0    0  0.96802436895E+01  0.17078813960E+02 -0.31151047498E+02  0.54367071652E+02  0.39999971445E+02 0.  0.
         12    1    3    3    0    0 -0.96802436895E+01 -0.17078813960E+02  0.31151047498E+02  0.36820928348E+02  0.00000000000E+00 0. -1.
         11    1    4    4    0    0  0.42436797924E+01 -0.48716841661E+01 -0.18778327348E+02  0.19858693387E+02  0.51100000000E-03 0. -1.
        -11    1    4    4    0    0  0.82948881922E+01  0.10705088442E+02 -0.17242367703E+02  0.21924947729E+02  0.51100000000E-03 0.  1.
        -12    1    4    4    0    0 -0.28583242951E+01  0.11245409684E+02  0.48696475529E+01  0.12583430535E+02  0.00000000000E+00 0.  1.
</event>
<event>
 8    1  0.1210161E-006  0.9118800E+02  0.7816164E-02  0.1184000E+00
        -11   -1    0    0    0    0  0.00000000000E+00  0.00000000000E+00  0.45593999997E+02  0.45594000000E+02  0.51100000000E-03 0. -1.
         11   -1    0    0    0    0 -0.00000000000E+00 -0.00000000000E+00 -0.45593999997E+02  0.45594000000E+02  0.51100000000E-03 0.  1.
         23    2    1    2    0    0  0.00000000000E+00  0.00000000000E+00 -0.35527136788E-14  0.91188000000E+02  0.91188000000E+02 0.  0.
    9900012    2    3    3    0    0  0.23559032363E+02 -0.59973801052E+01  0.27654676196E+02  0.54367113407E+02  0.40000066634E+02 0.  0.
        -12    1    3    3    0    0 -0.23559032363E+02  0.59973801052E+01 -0.27654676196E+02  0.36820886593E+02  0.00000000000E+00 0.  1.
         11    1    4    4    0    0  0.15300817076E+02  0.59353080560E+01  0.11850599169E+01  0.16454399174E+02  0.51100000000E-03 0. -1.
        -11    1    4    4    0    0  0.31984765376E+01  0.27934352822E+01 -0.25686743973E+01  0.49630254138E+01  0.51100000000E-03 0.  1.
        -12    1    4    4    0    0  0.50597387498E+01 -0.14726123443E+02  0.29038290676E+02  0.32949688819E+02  0.00000000000E+00 0.  1.
</event>
<event>
 8    1  0.1210161E-006  0.9118800E+02  0.7816164E-02  0.1184000E+00
        -11   -1    0    0    0    0  0.00000000000E+00  0.00000000000E+00  0.45593999997E+02  0.45594000000E+02  0.51100000000E-03 0. -1.
         11   -1    0    0    0    0 -0.00000000000E+00 -0.00000000000E+00 -0.45593999997E+02  0.45594000000E+02  0.51100000000E-03 0.  1.
         23    2    1    2    0    0  0.00000000000E+00 -0.35527136788E-14  0.17763568394E-14  0.91188000000E+02  0.91188000000E+02 0.  0.
    9900012    2    3    3    0    0  0.19292799970E+02 -0.27138636051E+02  0.15718185138E+02  0.54367095049E+02  0.40000024783E+02 0.  0.
        -12    1    3    3    0    0 -0.19292799970E+02  0.27138636051E+02 -0.15718185138E+02  0.36820904951E+02  0.00000000000E+00 0.  1.
         11    1    4    4    0    0  0.20375853069E+02 -0.97023439984E+00  0.64970919845E+01  0.21408618536E+02  0.51100000000E-03 0. -1.
        -11    1    4    4    0    0  0.27716301748E+01 -0.69593099641E+00 -0.32572003720E+01  0.43330830020E+01  0.51100000000E-03 0.  1.
        -12    1    4    4    0    0 -0.38546832736E+01 -0.25472470654E+02  0.12478293525E+02  0.28625393511E+02  0.00000000000E+00 0.  1.
</event>
<event>
 8    1  0.1210161E-006  0.9118800E+02  0.7816164E-02  0.1184000E+00
        -11   -1    0    0    0    0  0.00000000000E+00  0.00000000000E+00  0.45593999997E+02  0.45594000000E+02  0.51100000000E-03 0. -1.
         11   -1    0    0    0    0 -0.00000000000E+00 -0.00000000000E+00 -0.45593999997E+02  0.45594000000E+02  0.51100000000E-03 0.  1.
         23    2    1    2    0    0  0.17763568394E-14  0.00000000000E+00 -0.35527136788E-14  0.91188000000E+02  0.91188000000E+02 0.  0.
    9900012    2    3    3    0    0  0.10585128796E+02 -0.27119742114E+02 -0.22544561949E+02  0.54367046218E+02  0.39999913462E+02 0.  0.
         12    1    3    3    0    0 -0.10585128796E+02  0.27119742114E+02  0.22544561949E+02  0.36820953782E+02  0.00000000000E+00 0. -1.
         11    1    4    4    0    0  0.17306263795E+02 -0.40892782483E+01 -0.60664812086E+01  0.18789123387E+02  0.51100000000E-03 0. -1.
        -11    1    4    4    0    0 -0.37185894410E+01 -0.25153097185E+02 -0.85277569731E+01  0.26818442250E+02  0.51100000000E-03 0.  1.
         12    1    4    4    0    0 -0.30025455582E+01  0.21226333198E+01 -0.79503237675E+01  0.87594805809E+01  0.00000000000E+00 0. -1.
</event>
<event>
 8    1  0.1210161E-006  0.9118800E+02  0.7816164E-02  0.1184000E+00
        -11   -1    0    0    0    0  0.00000000000E+00  0.00000000000E+00  0.45593999997E+02  0.45594000000E+02  0.51100000000E-03 0.  1.
         11   -1    0    0    0    0 -0.00000000000E+00 -0.00000000000E+00 -0.45593999997E+02  0.45594000000E+02  0.51100000000E-03 0. -1.
         23    2    1    2    0    0  0.00000000000E+00  0.00000000000E+00  0.17763568394E-14  0.91188000000E+02  0.91188000000E+02 0.  0.
    9900012    2    3    3    0    0  0.30916453107E+02 -0.17399960751E+02 -0.98587415189E+01  0.54367075362E+02  0.39999979903E+02 0.  0.
        -12    1    3    3    0    0 -0.30916453107E+02  0.17399960751E+02  0.98587415189E+01  0.36820924638E+02  0.00000000000E+00 0.  1.
         11    1    4    4    0    0  0.35847773506E+02 -0.60037553422E+01 -0.12107530931E+02  0.38310576204E+02  0.51100000000E-03 0. -1.
        -11    1    4    4    0    0  0.15904143597E+00 -0.46155240290E+01  0.53142767119E+01  0.70405890004E+01  0.51100000000E-03 0.  1.
         12    1    4    4    0    0 -0.50903618355E+01 -0.67806813798E+01 -0.30654873001E+01  0.90159101581E+01  0.00000000000E+00 0. -1.
</event>
<event>
 8    1  0.1210161E-006  0.9118800E+02  0.7816164E-02  0.1184000E+00
        -11   -1    0    0    0    0  0.00000000000E+00  0.00000000000E+00  0.45593999997E+02  0.45594000000E+02  0.51100000000E-03 0.  1.
         11   -1    0    0    0    0 -0.00000000000E+00 -0.00000000000E+00 -0.45593999997E+02  0.45594000000E+02  0.51100000000E-03 0. -1.
         23    2    1    2    0    0  0.71054273576E-14 -0.88817841970E-15 -0.22204460493E-15  0.91188000000E+02  0.91188000000E+02 0.  0.
    9900012    2    3    3    0    0 -0.36299686983E+02  0.61152860573E+01  0.84580024274E+00  0.54367090496E+02  0.40000014404E+02 0.  0.
         12    1    3    3    0    0  0.36299686983E+02 -0.61152860573E+01 -0.84580024274E+00  0.36820909504E+02  0.00000000000E+00 0. -1.
         11    1    4    4    0    0 -0.95703586894E+01 -0.61316779587E+01 -0.36477624976E+00  0.11371996395E+02  0.51100000000E-03 0. -1.
        -11    1    4    4    0    0  0.61060009269E+01 -0.40729571954E-01  0.47801526261E+01  0.77546608958E+01  0.51100000000E-03 0.  1.
        -12    1    4    4    0    0 -0.32835329221E+02  0.12287693588E+02 -0.35695761336E+01  0.35240433206E+02  0.00000000000E+00 0.  1.
</event>
<event>
 8    1  0.1210161E-006  0.9118800E+02  0.7816164E-02  0.1184000E+00
        -11   -1    0    0    0    0  0.00000000000E+00  0.00000000000E+00  0.45593999997E+02  0.45594000000E+02  0.51100000000E-03 0. -1.
         11   -1    0    0    0    0 -0.00000000000E+00 -0.00000000000E+00 -0.45593999997E+02  0.45594000000E+02  0.51100000000E-03 0.  1.
         23    2    1    2    0    0  0.00000000000E+00 -0.88817841970E-15  0.35527136788E-14  0.91188000000E+02  0.91188000000E+02 0.  0.
    9900012    2    3    3    0    0  0.17719828483E+02 -0.78868838739E+01  0.31298328734E+02  0.54367073338E+02  0.39999975289E+02 0.  0.
        -12    1    3    3    0    0 -0.17719828483E+02  0.78868838739E+01 -0.31298328734E+02  0.36820926662E+02  0.00000000000E+00 0.  1.
         11    1    4    4    0    0 -0.50504631132E+01 -0.10079542890E+02  0.25173353867E+02  0.27582641420E+02  0.51100000000E-03 0. -1.
        -11    1    4    4    0    0  0.11265407437E+02 -0.35544609759E+01 -0.13817679603E+01  0.11893396509E+02  0.51100000000E-03 0.  1.
         12    1    4    4    0    0  0.11504884158E+02  0.57471199918E+01  0.75067428274E+01  0.14891035410E+02  0.00000000000E+00 0. -1.
</event>
<event>
 8    1  0.1210161E-006  0.9118800E+02  0.7816164E-02  0.1184000E+00
        -11   -1    0    0    0    0  0.00000000000E+00  0.00000000000E+00  0.45593999997E+02  0.45594000000E+02  0.51100000000E-03 0.  1.
         11   -1    0    0    0    0 -0.00000000000E+00 -0.00000000000E+00 -0.45593999997E+02  0.45594000000E+02  0.51100000000E-03 0. -1.
         23    2    1    2    0    0  0.00000000000E+00  0.00000000000E+00 -0.17763568394E-14  0.91188000000E+02  0.91188000000E+02 0.  0.
    9900012    2    3    3    0    0  0.34679933835E+02 -0.40790531002E+01  0.11680717615E+02  0.54367141115E+02  0.40000129801E+02 0.  0.
         12    1    3    3    0    0 -0.34679933835E+02  0.40790531002E+01 -0.11680717615E+02  0.36820858885E+02  0.00000000000E+00 0. -1.
         11    1    4    4    0    0 -0.20349203211E+01 -0.54324730658E+01  0.43434680440E+01  0.72469565498E+01  0.51100000000E-03 0. -1.
        -11    1    4    4    0    0  0.17152877088E+02 -0.78835367849E+00  0.17884422488E+02  0.24793048661E+02  0.51100000000E-03 0.  1.
        -12    1    4    4    0    0  0.19561977068E+02  0.21417736442E+01 -0.10547172917E+02  0.22327135904E+02  0.00000000000E+00 0.  1.
</event>
<event>
 8    1  0.1210161E-006  0.9118800E+02  0.7816164E-02  0.1184000E+00
        -11   -1    0    0    0    0  0.00000000000E+00  0.00000000000E+00  0.45593999997E+02  0.45594000000E+02  0.51100000000E-03 0.  1.
         11   -1    0    0    0    0 -0.00000000000E+00 -0.00000000000E+00 -0.45593999997E+02  0.45594000000E+02  0.51100000000E-03 0. -1.
         23    2    1    2    0    0  0.71054273576E-14 -0.24980018054E-15  0.35527136788E-14  0.91188000000E+02  0.91188000000E+02 0.  0.
    9900012    2    3    3    0    0  0.32004346809E+02 -0.16642298279E+00  0.18206441826E+02  0.54367076122E+02  0.39999981634E+02 0.  0.
        -12    1    3    3    0    0 -0.32004346809E+02  0.16642298279E+00 -0.18206441826E+02  0.36820923878E+02  0.00000000000E+00 0.  1.
         11    1    4    4    0    0  0.11280568187E+02 -0.34205346894E+01 -0.10071912620E+02  0.15504667048E+02  0.51100000000E-03 0. -1.
        -11    1    4    4    0    0  0.11384373683E+02  0.96054852653E+01  0.19606479857E+02  0.24622822015E+02  0.51100000000E-03 0.  1.
         12    1    4    4    0    0  0.93394049399E+01 -0.63513735587E+01  0.86718745893E+01  0.14239587059E+02  0.00000000000E+00 0. -1.
</event>
<event>
 8    1  0.1210161E-006  0.9118800E+02  0.7816164E-02  0.1184000E+00
        -11   -1    0    0    0    0  0.00000000000E+00  0.00000000000E+00  0.45593999997E+02  0.45594000000E+02  0.51100000000E-03 0.  1.
         11   -1    0    0    0    0 -0.00000000000E+00 -0.00000000000E+00 -0.45593999997E+02  0.45594000000E+02  0.51100000000E-03 0. -1.
         23    2    1    2    0    0  0.17763568394E-14  0.00000000000E+00  0.00000000000E+00  0.91188000000E+02  0.91188000000E+02 0.  0.
    9900012    2    3    3    0    0  0.28360987230E+01 -0.71898713481E+01 -0.36000605840E+02  0.54367064015E+02  0.39999954035E+02 0.  0.
        -12    1    3    3    0    0 -0.28360987230E+01  0.71898713481E+01  0.36000605840E+02  0.36820935985E+02  0.00000000000E+00 0.  1.
         11    1    4    4    0    0  0.83805941126E+01  0.29581690835E+01 -0.71451585747E+01  0.11403438662E+02  0.51100000000E-03 0. -1.
        -11    1    4    4    0    0  0.54753569900E+00  0.28854518042E+01  0.52121981238E+01  0.59826947941E+01  0.51100000000E-03 0.  1.
         12    1    4    4    0    0 -0.60920310887E+01 -0.13033492236E+02 -0.34067645389E+02  0.36980930559E+02  0.00000000000E+00 0. -1.
</event>
<event>
 8    1  0.1210161E-006  0.9118800E+02  0.7816164E-02  0.1184000E+00
        -11   -1    0    0    0    0  0.00000000000E+00  0.00000000000E+00  0.45593999997E+02  0.45594000000E+02  0.51100000000E-03 0.  1.
         11   -1    0    0    0    0 -0.00000000000E+00 -0.00000000000E+00 -0.45593999997E+02  0.45594000000E+02  0.51100000000E-03 0. -1.
         23    2    1    2    0    0  0.00000000000E+00  0.00000000000E+00 -0.17763568394E-14  0.91188000000E+02  0.91188000000E+02 0.  0.
    9900012    2    3    3    0    0  0.32647876913E+02  0.11076297385E+02 -0.12930975766E+02  0.54367104235E+02  0.40000045724E+02 0.  0.
        -12    1    3    3    0    0 -0.32647876913E+02 -0.11076297385E+02  0.12930975766E+02  0.36820895765E+02  0.00000000000E+00 0.  1.
         11    1    4    4    0    0  0.89244156808E+01  0.69560527837E+00  0.25126110855E+01  0.92974338758E+01  0.51100000000E-03 0. -1.
        -11    1    4    4    0    0  0.20518661299E+00  0.51911723120E+01  0.92291494692E+01  0.10590919304E+02  0.51100000000E-03 0.  1.
         12    1    4    4    0    0  0.23518274619E+02  0.51895197949E+01 -0.24672736320E+02  0.34478751055E+02  0.00000000000E+00 0. -1.
</event>
<event>
 8    1  0.1210161E-006  0.9118800E+02  0.7816164E-02  0.1184000E+00
        -11   -1    0    0    0    0  0.00000000000E+00  0.00000000000E+00  0.45593999997E+02  0.45594000000E+02  0.51100000000E-03 0. -1.
         11   -1    0    0    0    0 -0.00000000000E+00 -0.00000000000E+00 -0.45593999997E+02  0.45594000000E+02  0.51100000000E-03 0.  1.
         23    2    1    2    0    0  0.00000000000E+00  0.00000000000E+00 -0.35527136788E-14  0.91188000000E+02  0.91188000000E+02 0.  0.
    9900012    2    3    3    0    0  0.17021046973E+02  0.24590629484E+02  0.21479379969E+02  0.54367097481E+02  0.40000030328E+02 0.  0.
        -12    1    3    3    0    0 -0.17021046973E+02 -0.24590629484E+02 -0.21479379969E+02  0.36820902519E+02  0.00000000000E+00 0.  1.
         11    1    4    4    0    0  0.38029105722E+01  0.15341655798E+02 -0.16265641139E+01  0.15889438081E+02  0.51100000000E-03 0. -1.
        -11    1    4    4    0    0 -0.70546681227E+01 -0.15930187492E+01  0.88385656575E+01  0.11420433188E+02  0.51100000000E-03 0.  1.
         12    1    4    4    0    0  0.20272804523E+02  0.10841992435E+02  0.14267378425E+02  0.27057226213E+02  0.00000000000E+00 0. -1.
</event>
<event>
 8    1  0.1210161E-006  0.9118800E+02  0.7816164E-02  0.1184000E+00
        -11   -1    0    0    0    0  0.00000000000E+00  0.00000000000E+00  0.45593999997E+02  0.45594000000E+02  0.51100000000E-03 0.  1.
         11   -1    0    0    0    0 -0.00000000000E+00 -0.00000000000E+00 -0.45593999997E+02  0.45594000000E+02  0.51100000000E-03 0. -1.
         23    2    1    2    0    0  0.00000000000E+00 -0.17763568394E-14  0.00000000000E+00  0.91188000000E+02  0.91188000000E+02 0.  0.
    9900012    2    3    3    0    0 -0.16961518943E+02 -0.10310144200E+02  0.31012627177E+02  0.54367146632E+02  0.40000142377E+02 0.  0.
         12    1    3    3    0    0  0.16961518943E+02  0.10310144200E+02 -0.31012627177E+02  0.36820853368E+02  0.00000000000E+00 0. -1.
         11    1    4    4    0    0 -0.26125121812E+01  0.59469501449E+00  0.18948909868E+02  0.19137399706E+02  0.51100000000E-03 0. -1.
        -11    1    4    4    0    0 -0.87774097685E+00  0.83417520772E+01 -0.83444473138E+00  0.84292084570E+01  0.51100000000E-03 0.  1.
         12    1    4    4    0    0 -0.13471265785E+02 -0.19246591292E+02  0.12898162041E+02  0.26800538469E+02  0.00000000000E+00 0. -1.
</event>
<event>
 8    1  0.1210161E-006  0.9118800E+02  0.7816164E-02  0.1184000E+00
        -11   -1    0    0    0    0  0.00000000000E+00  0.00000000000E+00  0.45593999997E+02  0.45594000000E+02  0.51100000000E-03 0.  1.
         11   -1    0    0    0    0 -0.00000000000E+00 -0.00000000000E+00 -0.45593999997E+02  0.45594000000E+02  0.51100000000E-03 0. -1.
         23    2    1    2    0    0  0.00000000000E+00  0.00000000000E+00 -0.17763568394E-14  0.91188000000E+02  0.91188000000E+02 0.  0.
    9900012    2    3    3    0    0 -0.35272794536E+02  0.58537989604E+01  0.87943488189E+01  0.54367115059E+02  0.40000070400E+02 0.  0.
         12    1    3    3    0    0  0.35272794536E+02 -0.58537989604E+01 -0.87943488189E+01  0.36820884941E+02  0.00000000000E+00 0. -1.
         11    1    4    4    0    0  0.46319269598E+01  0.65736516016E+01 -0.49397784641E+01  0.94376402917E+01  0.51100000000E-03 0. -1.
        -11    1    4    4    0    0  0.70505165107E+00  0.10164919970E+01 -0.11048768623E+01  0.16586461204E+01  0.51100000000E-03 0.  1.
        -12    1    4    4    0    0 -0.40609773147E+02 -0.17363446381E+01  0.14839004145E+02  0.43270828647E+02  0.00000000000E+00 0.  1.
</event>
<event>
 8    1  0.1210161E-006  0.9118800E+02  0.7816164E-02  0.1184000E+00
        -11   -1    0    0    0    0  0.00000000000E+00  0.00000000000E+00  0.45593999997E+02  0.45594000000E+02  0.51100000000E-03 0.  1.
         11   -1    0    0    0    0 -0.00000000000E+00 -0.00000000000E+00 -0.45593999997E+02  0.45594000000E+02  0.51100000000E-03 0. -1.
         23    2    1    2    0    0  0.35527136788E-14  0.00000000000E+00  0.00000000000E+00  0.91188000000E+02  0.91188000000E+02 0.  0.
    9900012    2    3    3    0    0  0.23239262628E+02  0.10262346601E+02  0.26653355887E+02  0.54367075714E+02  0.39999980705E+02 0.  0.
         12    1    3    3    0    0 -0.23239262628E+02 -0.10262346601E+02 -0.26653355887E+02  0.36820924286E+02  0.00000000000E+00 0. -1.
         11    1    4    4    0    0 -0.28429016186E+01 -0.63415617281E+01 -0.24811636449E+01  0.73792728679E+01  0.51100000000E-03 0. -1.
        -11    1    4    4    0    0  0.18812524287E+02  0.22808014373E+01  0.22982243755E+02  0.29787525133E+02  0.51100000000E-03 0.  1.
         12    1    4    4    0    0  0.72696399599E+01  0.14323106892E+02  0.61522757766E+01  0.17200277713E+02  0.00000000000E+00 0. -1.
</event>
<event>
 8    1  0.1210161E-006  0.9118800E+02  0.7816164E-02  0.1184000E+00
        -11   -1    0    0    0    0  0.00000000000E+00  0.00000000000E+00  0.45593999997E+02  0.45594000000E+02  0.51100000000E-03 0.  1.
         11   -1    0    0    0    0 -0.00000000000E+00 -0.00000000000E+00 -0.45593999997E+02  0.45594000000E+02  0.51100000000E-03 0. -1.
         23    2    1    2    0    0 -0.35527136788E-14  0.00000000000E+00  0.00000000000E+00  0.91188000000E+02  0.91188000000E+02 0.  0.
    9900012    2    3    3    0    0 -0.26642350435E+02 -0.21283086567E+02 -0.13892381548E+02  0.54367042984E+02  0.39999906090E+02 0.  0.
        -12    1    3    3    0    0  0.26642350435E+02  0.21283086567E+02  0.13892381548E+02  0.36820957016E+02  0.00000000000E+00 0.  1.
         11    1    4    4    0    0 -0.12205120313E+02 -0.14282316562E+02 -0.10445022879E+02  0.21495302544E+02  0.51100000000E-03 0. -1.
        -11    1    4    4    0    0 -0.10198891894E+02  0.41760114748E+01  0.99987557203E+01  0.14880577406E+02  0.51100000000E-03 0.  1.
        -12    1    4    4    0    0 -0.42383382273E+01 -0.11176781480E+02 -0.13446114389E+02  0.17991163035E+02  0.00000000000E+00 0.  1.
</event>
<event>
 8    1  0.1210161E-006  0.9118800E+02  0.7816164E-02  0.1184000E+00
        -11   -1    0    0    0    0  0.00000000000E+00  0.00000000000E+00  0.45593999997E+02  0.45594000000E+02  0.51100000000E-03 0. -1.
         11   -1    0    0    0    0 -0.00000000000E+00 -0.00000000000E+00 -0.45593999997E+02  0.45594000000E+02  0.51100000000E-03 0.  1.
         23    2    1    2    0    0  0.00000000000E+00 -0.35527136788E-14 -0.35527136788E-14  0.91188000000E+02  0.91188000000E+02 0.  0.
    9900012    2    3    3    0    0 -0.25000038118E+02  0.13072038957E+02  0.23662229350E+02  0.54367065653E+02  0.39999957768E+02 0.  0.
         12    1    3    3    0    0  0.25000038118E+02 -0.13072038957E+02 -0.23662229350E+02  0.36820934347E+02  0.00000000000E+00 0. -1.
         11    1    4    4    0    0 -0.16459097458E+02 -0.40787485764E+01  0.18238576137E+02  0.24903488487E+02  0.51100000000E-03 0. -1.
        -11    1    4    4    0    0 -0.14059620831E+02  0.85819069754E+01 -0.23587364869E+01  0.16639882912E+02  0.51100000000E-03 0.  1.
         12    1    4    4    0    0  0.55186801713E+01  0.85688805582E+01  0.77823896999E+01  0.12823694253E+02  0.00000000000E+00 0. -1.
</event>
<event>
 8    1  0.1210161E-006  0.9118800E+02  0.7816164E-02  0.1184000E+00
        -11   -1    0    0    0    0  0.00000000000E+00  0.00000000000E+00  0.45593999997E+02  0.45594000000E+02  0.51100000000E-03 0.  1.
         11   -1    0    0    0    0 -0.00000000000E+00 -0.00000000000E+00 -0.45593999997E+02  0.45594000000E+02  0.51100000000E-03 0. -1.
         23    2    1    2    0    0  0.17763568394E-14  0.00000000000E+00  0.35527136788E-14  0.91188000000E+02  0.91188000000E+02 0.  0.
    9900012    2    3    3    0    0  0.68374276326E+01 -0.27384315266E+02  0.23645907809E+02  0.54367080737E+02  0.39999992157E+02 0.  0.
         12    1    3    3    0    0 -0.68374276326E+01  0.27384315266E+02 -0.23645907809E+02  0.36820919263E+02  0.00000000000E+00 0. -1.
         11    1    4    4    0    0  0.77699978045E+01 -0.20430771914E+02  0.82536711693E+01  0.23364768240E+02  0.51100000000E-03 0. -1.
        -11    1    4    4    0    0 -0.44410654271E+01 -0.16187290347E+02  0.11682971659E+02  0.20450996503E+02  0.51100000000E-03 0.  1.
        -12    1    4    4    0    0  0.35084952552E+01  0.92337469948E+01  0.37092649809E+01  0.10551315995E+02  0.00000000000E+00 0.  1.
</event>
<event>
 8    1  0.1210161E-006  0.9118800E+02  0.7816164E-02  0.1184000E+00
        -11   -1    0    0    0    0  0.00000000000E+00  0.00000000000E+00  0.45593999997E+02  0.45594000000E+02  0.51100000000E-03 0.  1.
         11   -1    0    0    0    0 -0.00000000000E+00 -0.00000000000E+00 -0.45593999997E+02  0.45594000000E+02  0.51100000000E-03 0. -1.
         23    2    1    2    0    0  0.00000000000E+00  0.35527136788E-14  0.00000000000E+00  0.91188000000E+02  0.91188000000E+02 0.  0.
    9900012    2    3    3    0    0 -0.22812851592E+02  0.17164008105E+02  0.23254063110E+02  0.54367070855E+02  0.39999969627E+02 0.  0.
         12    1    3    3    0    0  0.22812851592E+02 -0.17164008105E+02 -0.23254063110E+02  0.36820929145E+02  0.00000000000E+00 0. -1.
         11    1    4    4    0    0 -0.10067978222E+02 -0.11303697329E+02  0.63980037704E+01  0.16433873898E+02  0.51100000000E-03 0. -1.
        -11    1    4    4    0    0 -0.62793194681E+01  0.25735003582E+02  0.10605170663E+02  0.28534013167E+02  0.51100000000E-03 0.  1.
        -12    1    4    4    0    0 -0.64655539019E+01  0.27327018520E+01  0.62508886766E+01  0.93991837899E+01  0.00000000000E+00 0.  1.
</event>
<event>
 8    1  0.1210161E-006  0.9118800E+02  0.7816164E-02  0.1184000E+00
        -11   -1    0    0    0    0  0.00000000000E+00  0.00000000000E+00  0.45593999997E+02  0.45594000000E+02  0.51100000000E-03 0. -1.
         11   -1    0    0    0    0 -0.00000000000E+00 -0.00000000000E+00 -0.45593999997E+02  0.45594000000E+02  0.51100000000E-03 0.  1.
         23    2    1    2    0    0  0.00000000000E+00  0.71054273576E-14  0.00000000000E+00  0.91188000000E+02  0.91188000000E+02 0.  0.
    9900012    2    3    3    0    0  0.11525183149E+02  0.34815162937E+02 -0.32945700824E+01  0.54367087342E+02  0.40000007213E+02 0.  0.
         12    1    3    3    0    0 -0.11525183149E+02 -0.34815162937E+02  0.32945700824E+01  0.36820912658E+02  0.00000000000E+00 0. -1.
         11    1    4    4    0    0  0.12050790742E+02  0.31235358289E+02  0.34719791817E+01  0.33658933504E+02  0.51100000000E-03 0. -1.
        -11    1    4    4    0    0 -0.91745234744E+01 -0.87635116674E+00 -0.70100035493E+00  0.92429039868E+01  0.51100000000E-03 0.  1.
        -12    1    4    4    0    0  0.86489158813E+01  0.44561558154E+01 -0.60655489091E+01  0.11465249851E+02  0.00000000000E+00 0.  1.
</event>
<event>
 8    1  0.1210161E-006  0.9118800E+02  0.7816164E-02  0.1184000E+00
        -11   -1    0    0    0    0  0.00000000000E+00  0.00000000000E+00  0.45593999997E+02  0.45594000000E+02  0.51100000000E-03 0. -1.
         11   -1    0    0    0    0 -0.00000000000E+00 -0.00000000000E+00 -0.45593999997E+02  0.45594000000E+02  0.51100000000E-03 0.  1.
         23    2    1    2    0    0 -0.17763568394E-14 -0.35527136788E-14  0.35527136788E-14  0.91188000000E+02  0.91188000000E+02 0.  0.
    9900012    2    3    3    0    0 -0.12717519800E+02 -0.20087906776E+02  0.28116157080E+02  0.54367114657E+02  0.40000069483E+02 0.  0.
        -12    1    3    3    0    0  0.12717519800E+02  0.20087906776E+02 -0.28116157080E+02  0.36820885343E+02  0.00000000000E+00 0.  1.
         11    1    4    4    0    0  0.87324415325E+01 -0.53882480129E+01 -0.24611023925E+01  0.10552050844E+02  0.51100000000E-03 0. -1.
        -11    1    4    4    0    0 -0.87186748783E+00 -0.98839493398E+01  0.69458625852E+01  0.12111879077E+02  0.51100000000E-03 0.  1.
        -12    1    4    4    0    0 -0.20578093845E+02 -0.48157094231E+01  0.23631396888E+02  0.31703184736E+02  0.00000000000E+00 0.  1.
</event>
<event>
 8    1  0.1210161E-006  0.9118800E+02  0.7816164E-02  0.1184000E+00
        -11   -1    0    0    0    0  0.00000000000E+00  0.00000000000E+00  0.45593999997E+02  0.45594000000E+02  0.51100000000E-03 0.  1.
         11   -1    0    0    0    0 -0.00000000000E+00 -0.00000000000E+00 -0.45593999997E+02  0.45594000000E+02  0.51100000000E-03 0. -1.
         23    2    1    2    0    0  0.00000000000E+00 -0.17763568394E-14  0.00000000000E+00  0.91188000000E+02  0.91188000000E+02 0.  0.
    9900012    2    3    3    0    0 -0.52151660619E+01 -0.13741819472E+02 -0.33760049464E+02  0.54367129569E+02  0.40000103479E+02 0.  0.
        -12    1    3    3    0    0  0.52151660619E+01  0.13741819472E+02  0.33760049464E+02  0.36820870431E+02  0.00000000000E+00 0.  1.
         11    1    4    4    0    0  0.13154792604E+02 -0.14113672143E+02 -0.27232842753E+02  0.33374721489E+02  0.51100000000E-03 0. -1.
        -11    1    4    4    0    0 -0.12204873804E+02 -0.40601460334E+00 -0.32956751219E+00  0.12216071686E+02  0.51100000000E-03 0.  1.
         12    1    4    4    0    0 -0.61650848619E+01  0.77786727430E+00 -0.61976391992E+01  0.87763363937E+01  0.00000000000E+00 0. -1.
</event>
<event>
 8    1  0.1210161E-006  0.9118800E+02  0.7816164E-02  0.1184000E+00
        -11   -1    0    0    0    0  0.00000000000E+00  0.00000000000E+00  0.45593999997E+02  0.45594000000E+02  0.51100000000E-03 0. -1.
         11   -1    0    0    0    0 -0.00000000000E+00 -0.00000000000E+00 -0.45593999997E+02  0.45594000000E+02  0.51100000000E-03 0.  1.
         23    2    1    2    0    0 -0.17763568394E-14 -0.35527136788E-14  0.00000000000E+00  0.91188000000E+02  0.91188000000E+02 0.  0.
    9900012    2    3    3    0    0 -0.34017781949E+01 -0.31499207351E+02 -0.18761852097E+02  0.54367092179E+02  0.40000018240E+02 0.  0.
         12    1    3    3    0    0  0.34017781949E+01  0.31499207351E+02  0.18761852097E+02  0.36820907821E+02  0.00000000000E+00 0. -1.
         11    1    4    4    0    0  0.12007926559E+02 -0.78775034345E+01 -0.10784352676E+01  0.14401679885E+02  0.51100000000E-03 0. -1.
        -11    1    4    4    0    0 -0.14057276818E+02 -0.51556945098E+01 -0.94040438490E+00  0.15002419075E+02  0.51100000000E-03 0.  1.
        -12    1    4    4    0    0 -0.13524279362E+01 -0.18466009407E+02 -0.16743012445E+02  0.24962993219E+02  0.00000000000E+00 0.  1.
</event>
<event>
 8    1  0.1210161E-006  0.9118800E+02  0.7816164E-02  0.1184000E+00
        -11   -1    0    0    0    0  0.00000000000E+00  0.00000000000E+00  0.45593999997E+02  0.45594000000E+02  0.51100000000E-03 0.  1.
         11   -1    0    0    0    0 -0.00000000000E+00 -0.00000000000E+00 -0.45593999997E+02  0.45594000000E+02  0.51100000000E-03 0. -1.
         23    2    1    2    0    0  0.00000000000E+00  0.35527136788E-14  0.00000000000E+00  0.91188000000E+02  0.91188000000E+02 0.  0.
    9900012    2    3    3    0    0  0.21770078803E+02 -0.26583369190E+02  0.13235115234E+02  0.54367080350E+02  0.39999991274E+02 0.  0.
         12    1    3    3    0    0 -0.21770078803E+02  0.26583369190E+02 -0.13235115234E+02  0.36820919650E+02  0.00000000000E+00 0. -1.
         11    1    4    4    0    0  0.49195093320E+01 -0.96220658959E+00  0.18684426035E+02  0.19345159345E+02  0.51100000000E-03 0. -1.
        -11    1    4    4    0    0  0.21231569895E+01  0.42519662112E+00  0.32103184413E+01  0.38723032583E+01  0.51100000000E-03 0.  1.
        -12    1    4    4    0    0  0.14727412482E+02 -0.26046359222E+02 -0.86596292420E+01  0.31149617746E+02  0.00000000000E+00 0.  1.
</event>
<event>
 8    1  0.1210161E-006  0.9118800E+02  0.7816164E-02  0.1184000E+00
        -11   -1    0    0    0    0  0.00000000000E+00  0.00000000000E+00  0.45593999997E+02  0.45594000000E+02  0.51100000000E-03 0. -1.
         11   -1    0    0    0    0 -0.00000000000E+00 -0.00000000000E+00 -0.45593999997E+02  0.45594000000E+02  0.51100000000E-03 0.  1.
         23    2    1    2    0    0  0.00000000000E+00  0.35527136788E-14 -0.88817841970E-15  0.91188000000E+02  0.91188000000E+02 0.  0.
    9900012    2    3    3    0    0 -0.30271287134E+02 -0.20479535144E+02 -0.44741369347E+01  0.54367080867E+02  0.39999992453E+02 0.  0.
         12    1    3    3    0    0  0.30271287134E+02  0.20479535144E+02  0.44741369347E+01  0.36820919133E+02  0.00000000000E+00 0. -1.
         11    1    4    4    0    0  0.39093230325E+01 -0.86731159790E+01  0.63884275839E+01  0.11459395910E+02  0.51100000000E-03 0. -1.
        -11    1    4    4    0    0 -0.23654177631E+02  0.40478771785E+00 -0.34847676645E+00  0.23660207286E+02  0.51100000000E-03 0.  1.
        -12    1    4    4    0    0 -0.10526432536E+02 -0.12211206883E+02 -0.10514087752E+02  0.19247477672E+02  0.00000000000E+00 0.  1.
</event>
<event>
 8    1  0.1210161E-006  0.9118800E+02  0.7816164E-02  0.1184000E+00
        -11   -1    0    0    0    0  0.00000000000E+00  0.00000000000E+00  0.45593999997E+02  0.45594000000E+02  0.51100000000E-03 0.  1.
         11   -1    0    0    0    0 -0.00000000000E+00 -0.00000000000E+00 -0.45593999997E+02  0.45594000000E+02  0.51100000000E-03 0. -1.
         23    2    1    2    0    0  0.00000000000E+00  0.88817841970E-15 -0.71054273576E-14  0.91188000000E+02  0.91188000000E+02 0.  0.
    9900012    2    3    3    0    0 -0.94590026914E+01  0.54535922127E+01 -0.35164853186E+02  0.54367064386E+02  0.39999954880E+02 0.  0.
        -12    1    3    3    0    0  0.94590026914E+01 -0.54535922127E+01  0.35164853186E+02  0.36820935614E+02  0.00000000000E+00 0.  1.
         11    1    4    4    0    0 -0.17397758420E+02  0.30705736224E+01 -0.83279044184E+01  0.19531113964E+02  0.51100000000E-03 0. -1.
        -11    1    4    4    0    0  0.28934834365E+01 -0.78213674965E+01 -0.19719822049E+02  0.21410684665E+02  0.51100000000E-03 0.  1.
        -12    1    4    4    0    0  0.50452722923E+01  0.10204386087E+02 -0.71171267178E+01  0.13425265756E+02  0.00000000000E+00 0.  1.
</event>
<event>
 8    1  0.1210161E-006  0.9118800E+02  0.7816164E-02  0.1184000E+00
        -11   -1    0    0    0    0  0.00000000000E+00  0.00000000000E+00  0.45593999997E+02  0.45594000000E+02  0.51100000000E-03 0.  1.
         11   -1    0    0    0    0 -0.00000000000E+00 -0.00000000000E+00 -0.45593999997E+02  0.45594000000E+02  0.51100000000E-03 0. -1.
         23    2    1    2    0    0 -0.17763568394E-14 -0.35527136788E-14  0.00000000000E+00  0.91188000000E+02  0.91188000000E+02 0.  0.
    9900012    2    3    3    0    0 -0.15984615498E+02 -0.30611690329E+02 -0.12774801825E+02  0.54367094538E+02  0.40000023618E+02 0.  0.
        -12    1    3    3    0    0  0.15984615498E+02  0.30611690329E+02  0.12774801825E+02  0.36820905462E+02  0.00000000000E+00 0.  1.
         11    1    4    4    0    0 -0.60476996005E+01 -0.17832171597E+02 -0.13674291340E+02  0.23271167960E+02  0.51100000000E-03 0. -1.
        -11    1    4    4    0    0 -0.20830817314E+00 -0.19542908394E+01  0.12394646522E+02  0.12549498302E+02  0.51100000000E-03 0.  1.
        -12    1    4    4    0    0 -0.97286077240E+01 -0.10825227892E+02 -0.11495157007E+02  0.18546428275E+02  0.00000000000E+00 0.  1.
</event>
<event>
 8    1  0.1210161E-006  0.9118800E+02  0.7816164E-02  0.1184000E+00
        -11   -1    0    0    0    0  0.00000000000E+00  0.00000000000E+00  0.45593999997E+02  0.45594000000E+02  0.51100000000E-03 0. -1.
         11   -1    0    0    0    0 -0.00000000000E+00 -0.00000000000E+00 -0.45593999997E+02  0.45594000000E+02  0.51100000000E-03 0.  1.
         23    2    1    2    0    0  0.00000000000E+00 -0.15543122345E-14 -0.66613381478E-15  0.91188000000E+02  0.91188000000E+02 0.  0.
    9900012    2    3    3    0    0 -0.36761133531E+02  0.15274572288E+01 -0.14375373711E+01  0.54367074187E+02  0.39999977223E+02 0.  0.
         12    1    3    3    0    0  0.36761133531E+02 -0.15274572288E+01  0.14375373711E+01  0.36820925813E+02  0.00000000000E+00 0. -1.
         11    1    4    4    0    0 -0.15990822297E+02  0.16400120477E+02 -0.64637441550E+01  0.23800217187E+02  0.51100000000E-03 0. -1.
        -11    1    4    4    0    0 -0.14231606983E+02 -0.45753441629E+00  0.35128869059E+01  0.14665890690E+02  0.51100000000E-03 0.  1.
         12    1    4    4    0    0 -0.65387042512E+01 -0.14415128832E+02  0.15133198780E+01  0.15900966309E+02  0.00000000000E+00 0. -1.
</event>
<event>
 8    1  0.1210161E-006  0.9118800E+02  0.7816164E-02  0.1184000E+00
        -11   -1    0    0    0    0  0.00000000000E+00  0.00000000000E+00  0.45593999997E+02  0.45594000000E+02  0.51100000000E-03 0.  1.
         11   -1    0    0    0    0 -0.00000000000E+00 -0.00000000000E+00 -0.45593999997E+02  0.45594000000E+02  0.51100000000E-03 0. -1.
         23    2    1    2    0    0  0.17763568394E-14 -0.35527136788E-14 -0.35527136788E-14  0.91188000000E+02  0.91188000000E+02 0.  0.
    9900012    2    3    3    0    0  0.63770861939E+01 -0.22360448652E+02 -0.28550309623E+02  0.54367121795E+02  0.40000085755E+02 0.  0.
        -12    1    3    3    0    0 -0.63770861939E+01  0.22360448652E+02  0.28550309623E+02  0.36820878205E+02  0.00000000000E+00 0.  1.
         11    1    4    4    0    0  0.35720932458E+01  0.62389076853E+01 -0.11919363317E+02  0.13919591998E+02  0.51100000000E-03 0. -1.
        -11    1    4    4    0    0  0.12750165707E+02 -0.11988905713E+02 -0.74579050165E+01  0.19024219649E+02  0.51100000000E-03 0.  1.
        -12    1    4    4    0    0 -0.99451727592E+01 -0.16610450625E+02 -0.91730412897E+01  0.21423310147E+02  0.00000000000E+00 0.  1.
</event>
<event>
 8    1  0.1210161E-006  0.9118800E+02  0.7816164E-02  0.1184000E+00
        -11   -1    0    0    0    0  0.00000000000E+00  0.00000000000E+00  0.45593999997E+02  0.45594000000E+02  0.51100000000E-03 0. -1.
         11   -1    0    0    0    0 -0.00000000000E+00 -0.00000000000E+00 -0.45593999997E+02  0.45594000000E+02  0.51100000000E-03 0.  1.
         23    2    1    2    0    0  0.00000000000E+00  0.00000000000E+00  0.00000000000E+00  0.91188000000E+02  0.91188000000E+02 0.  0.
    9900012    2    3    3    0    0 -0.65865903737E+01 -0.20619472427E+02  0.29786460524E+02  0.54367094980E+02  0.40000024626E+02 0.  0.
        -12    1    3    3    0    0  0.65865903737E+01  0.20619472427E+02 -0.29786460524E+02  0.36820905020E+02  0.00000000000E+00 0.  1.
         11    1    4    4    0    0 -0.74737393550E+01 -0.21765357732E+02  0.15069098845E+02  0.27507550189E+02  0.51100000000E-03 0. -1.
        -11    1    4    4    0    0 -0.10656261055E+02  0.13868261772E+01  0.87776162707E+01  0.13875364290E+02  0.51100000000E-03 0.  1.
         12    1    4    4    0    0  0.11543410036E+02 -0.24094087312E+00  0.59397454085E+01  0.12984180501E+02  0.00000000000E+00 0. -1.
</event>
<event>
 8    1  0.1210161E-006  0.9118800E+02  0.7816164E-02  0.1184000E+00
        -11   -1    0    0    0    0  0.00000000000E+00  0.00000000000E+00  0.45593999997E+02  0.45594000000E+02  0.51100000000E-03 0.  1.
         11   -1    0    0    0    0 -0.00000000000E+00 -0.00000000000E+00 -0.45593999997E+02  0.45594000000E+02  0.51100000000E-03 0. -1.
         23    2    1    2    0    0  0.17763568394E-14  0.00000000000E+00  0.00000000000E+00  0.91188000000E+02  0.91188000000E+02 0.  0.
    9900012    2    3    3    0    0 -0.77514177794E+01  0.35882721966E+02 -0.28505928251E+01  0.54367080773E+02  0.39999992239E+02 0.  0.
        -12    1    3    3    0    0  0.77514177794E+01 -0.35882721966E+02  0.28505928251E+01  0.36820919227E+02  0.00000000000E+00 0.  1.
         11    1    4    4    0    0  0.24714499211E+01  0.27486448085E+02  0.38495718999E+01  0.27864531166E+02  0.51100000000E-03 0. -1.
        -11    1    4    4    0    0  0.29019438829E+01 -0.53647814727E+01  0.60912827005E+00  0.61296978767E+01  0.51100000000E-03 0.  1.
        -12    1    4    4    0    0 -0.13124811583E+02  0.13761055353E+02 -0.73092929951E+01  0.20372851730E+02  0.00000000000E+00 0.  1.
</event>
<event>
 8    1  0.1210161E-006  0.9118800E+02  0.7816164E-02  0.1184000E+00
        -11   -1    0    0    0    0  0.00000000000E+00  0.00000000000E+00  0.45593999997E+02  0.45594000000E+02  0.51100000000E-03 0. -1.
         11   -1    0    0    0    0 -0.00000000000E+00 -0.00000000000E+00 -0.45593999997E+02  0.45594000000E+02  0.51100000000E-03 0.  1.
         23    2    1    2    0    0 -0.88817841970E-15  0.17763568394E-14  0.00000000000E+00  0.91188000000E+02  0.91188000000E+02 0.  0.
    9900012    2    3    3    0    0 -0.71337393342E+01  0.85177519068E+01 -0.35104673744E+02  0.54367075879E+02  0.39999981082E+02 0.  0.
         12    1    3    3    0    0  0.71337393342E+01 -0.85177519068E+01  0.35104673744E+02  0.36820924121E+02  0.00000000000E+00 0. -1.
         11    1    4    4    0    0 -0.34290565776E+01 -0.11516059028E+02 -0.12750852528E+02  0.17520339181E+02  0.51100000000E-03 0. -1.
        -11    1    4    4    0    0 -0.69692090067E+01  0.18755026960E+02 -0.25308243020E+02  0.32261867204E+02  0.51100000000E-03 0.  1.
         12    1    4    4    0    0  0.32645262501E+01  0.12787839752E+01  0.29544218039E+01  0.45848694952E+01  0.00000000000E+00 0. -1.
</event>
<event>
 8    1  0.1210161E-006  0.9118800E+02  0.7816164E-02  0.1184000E+00
        -11   -1    0    0    0    0  0.00000000000E+00  0.00000000000E+00  0.45593999997E+02  0.45594000000E+02  0.51100000000E-03 0.  1.
         11   -1    0    0    0    0 -0.00000000000E+00 -0.00000000000E+00 -0.45593999997E+02  0.45594000000E+02  0.51100000000E-03 0. -1.
         23    2    1    2    0    0  0.35527136788E-14  0.35527136788E-14  0.00000000000E+00  0.91188000000E+02  0.91188000000E+02 0.  0.
    9900012    2    3    3    0    0 -0.31398523901E+02 -0.18921519782E+02 -0.34479448115E+01  0.54367088313E+02  0.40000009428E+02 0.  0.
         12    1    3    3    0    0  0.31398523901E+02  0.18921519782E+02  0.34479448115E+01  0.36820911687E+02  0.00000000000E+00 0. -1.
         11    1    4    4    0    0 -0.24045859184E+02 -0.46432050062E+01 -0.13719766568E+02  0.28071243143E+02  0.51100000000E-03 0. -1.
        -11    1    4    4    0    0 -0.97523123737E+01 -0.26764532963E-01  0.39680219843E+01  0.10528699431E+02  0.51100000000E-03 0.  1.
         12    1    4    4    0    0  0.23996476570E+01 -0.14251550243E+02  0.63037997724E+01  0.15767145740E+02  0.00000000000E+00 0. -1.
</event>
<event>
 8    1  0.1210161E-006  0.9118800E+02  0.7816164E-02  0.1184000E+00
        -11   -1    0    0    0    0  0.00000000000E+00  0.00000000000E+00  0.45593999997E+02  0.45594000000E+02  0.51100000000E-03 0.  1.
         11   -1    0    0    0    0 -0.00000000000E+00 -0.00000000000E+00 -0.45593999997E+02  0.45594000000E+02  0.51100000000E-03 0. -1.
         23    2    1    2    0    0  0.35527136788E-14  0.00000000000E+00  0.00000000000E+00  0.91188000000E+02  0.91188000000E+02 0.  0.
    9900012    2    3    3    0    0  0.27390124517E+02  0.15373917724E+02  0.19214610684E+02  0.54367115560E+02  0.40000071542E+02 0.  0.
         12    1    3    3    0    0 -0.27390124517E+02 -0.15373917724E+02 -0.19214610684E+02  0.36820884440E+02  0.00000000000E+00 0. -1.
         11    1    4    4    0    0 -0.47056046576E+01  0.47426125300E+01 -0.50762529664E+00  0.67002069003E+01  0.51100000000E-03 0. -1.
        -11    1    4    4    0    0  0.69072417945E+01  0.16097635229E+02  0.63724074095E+01  0.18640048971E+02  0.51100000000E-03 0.  1.
        -12    1    4    4    0    0  0.25188487380E+02 -0.54663300354E+01  0.13349828571E+02  0.29026859689E+02  0.00000000000E+00 0.  1.
</event>
<event>
 8    1  0.1210161E-006  0.9118800E+02  0.7816164E-02  0.1184000E+00
        -11   -1    0    0    0    0  0.00000000000E+00  0.00000000000E+00  0.45593999997E+02  0.45594000000E+02  0.51100000000E-03 0.  1.
         11   -1    0    0    0    0 -0.00000000000E+00 -0.00000000000E+00 -0.45593999997E+02  0.45594000000E+02  0.51100000000E-03 0. -1.
         23    2    1    2    0    0  0.00000000000E+00  0.00000000000E+00  0.00000000000E+00  0.91188000000E+02  0.91188000000E+02 0.  0.
    9900012    2    3    3    0    0 -0.19136031042E+02  0.26658876173E+02  0.16700194662E+02  0.54367083871E+02  0.39999999301E+02 0.  0.
         12    1    3    3    0    0  0.19136031042E+02 -0.26658876173E+02 -0.16700194662E+02  0.36820916129E+02  0.00000000000E+00 0. -1.
         11    1    4    4    0    0  0.24307476513E+01 -0.49297977867E+01  0.27850602448E+01  0.61618180101E+01  0.51100000000E-03 0. -1.
        -11    1    4    4    0    0 -0.71922782187E+01 -0.17596654631E+01 -0.31919785192E+01  0.80631269149E+01  0.51100000000E-03 0.  1.
        -12    1    4    4    0    0 -0.14374500474E+02  0.33348339423E+02  0.17107112936E+02  0.40142138946E+02  0.00000000000E+00 0.  1.
</event>
<event>
 8    1  0.1210161E-006  0.9118800E+02  0.7816164E-02  0.1184000E+00
        -11   -1    0    0    0    0  0.00000000000E+00  0.00000000000E+00  0.45593999997E+02  0.45594000000E+02  0.51100000000E-03 0.  1.
         11   -1    0    0    0    0 -0.00000000000E+00 -0.00000000000E+00 -0.45593999997E+02  0.45594000000E+02  0.51100000000E-03 0. -1.
         23    2    1    2    0    0  0.35527136788E-14  0.35527136788E-14  0.88817841970E-15  0.91188000000E+02  0.91188000000E+02 0.  0.
    9900012    2    3    3    0    0  0.24304206261E+02  0.26487277463E+02 -0.79692243234E+01  0.54367097707E+02  0.40000030842E+02 0.  0.
        -12    1    3    3    0    0 -0.24304206261E+02 -0.26487277463E+02  0.79692243234E+01  0.36820902293E+02  0.00000000000E+00 0.  1.
         11    1    4    4    0    0  0.11645044698E+01  0.63759455214E+01  0.10417656485E+01  0.65646041677E+01  0.51100000000E-03 0. -1.
        -11    1    4    4    0    0  0.18478368193E+01  0.20774140889E+02  0.60475851263E+01  0.21715264601E+02  0.51100000000E-03 0.  1.
         12    1    4    4    0    0  0.21291864971E+02 -0.66280894738E+00 -0.15058575098E+02  0.26087228938E+02  0.00000000000E+00 0. -1.
</event>
<event>
 8    1  0.1210161E-006  0.9118800E+02  0.7816164E-02  0.1184000E+00
        -11   -1    0    0    0    0  0.00000000000E+00  0.00000000000E+00  0.45593999997E+02  0.45594000000E+02  0.51100000000E-03 0.  1.
         11   -1    0    0    0    0 -0.00000000000E+00 -0.00000000000E+00 -0.45593999997E+02  0.45594000000E+02  0.51100000000E-03 0. -1.
         23    2    1    2    0    0 -0.35527136788E-14 -0.17763568394E-14  0.35527136788E-14  0.91188000000E+02  0.91188000000E+02 0.  0.
    9900012    2    3    3    0    0  0.19761916308E+02 -0.82531577071E+01  0.29952158611E+02  0.54367085376E+02  0.40000002731E+02 0.  0.
         12    1    3    3    0    0 -0.19761916308E+02  0.82531577071E+01 -0.29952158611E+02  0.36820914624E+02  0.00000000000E+00 0. -1.
         11    1    4    4    0    0  0.35748886517E+00 -0.91946367685E+00  0.10242928497E+02  0.10290325369E+02  0.51100000000E-03 0. -1.
        -11    1    4    4    0    0 -0.87830811733E+00  0.90982680090E+01  0.14979540553E+02  0.17548120736E+02  0.51100000000E-03 0.  1.
         12    1    4    4    0    0  0.20282735560E+02 -0.16431962039E+02  0.47296895617E+01  0.26528639272E+02  0.00000000000E+00 0. -1.
</event>
<event>
 8    1  0.1210161E-006  0.9118800E+02  0.7816164E-02  0.1184000E+00
        -11   -1    0    0    0    0  0.00000000000E+00  0.00000000000E+00  0.45593999997E+02  0.45594000000E+02  0.51100000000E-03 0.  1.
         11   -1    0    0    0    0 -0.00000000000E+00 -0.00000000000E+00 -0.45593999997E+02  0.45594000000E+02  0.51100000000E-03 0. -1.
         23    2    1    2    0    0 -0.71054273576E-14 -0.35527136788E-14  0.00000000000E+00  0.91188000000E+02  0.91188000000E+02 0.  0.
    9900012    2    3    3    0    0  0.28251753413E+02  0.22827781056E+02  0.60424186146E+01  0.54367082282E+02  0.39999995679E+02 0.  0.
         12    1    3    3    0    0 -0.28251753413E+02 -0.22827781056E+02 -0.60424186146E+01  0.36820917718E+02  0.00000000000E+00 0. -1.
         11    1    4    4    0    0  0.92472405738E+01 -0.20926320254E+01  0.15353569256E+02  0.18045017490E+02  0.51100000000E-03 0. -1.
        -11    1    4    4    0    0 -0.68454672775E+00 -0.17840967015E+01 -0.23808228355E+00  0.19256917452E+01  0.51100000000E-03 0.  1.
         12    1    4    4    0    0  0.19689059567E+02  0.26704509783E+02 -0.90730683584E+01  0.34396373047E+02  0.00000000000E+00 0. -1.
</event>
<event>
 8    1  0.1210161E-006  0.9118800E+02  0.7816164E-02  0.1184000E+00
        -11   -1    0    0    0    0  0.00000000000E+00  0.00000000000E+00  0.45593999997E+02  0.45594000000E+02  0.51100000000E-03 0. -1.
         11   -1    0    0    0    0 -0.00000000000E+00 -0.00000000000E+00 -0.45593999997E+02  0.45594000000E+02  0.51100000000E-03 0.  1.
         23    2    1    2    0    0  0.35527136788E-14  0.00000000000E+00 -0.17763568394E-14  0.91188000000E+02  0.91188000000E+02 0.  0.
    9900012    2    3    3    0    0 -0.20362528037E+02  0.27018482053E+02 -0.14530968969E+02  0.54367082309E+02  0.39999995739E+02 0.  0.
         12    1    3    3    0    0  0.20362528037E+02 -0.27018482053E+02  0.14530968969E+02  0.36820917691E+02  0.00000000000E+00 0. -1.
         11    1    4    4    0    0 -0.10398656457E+02  0.20393778782E+01  0.60307863065E+01  0.12192682313E+02  0.51100000000E-03 0. -1.
        -11    1    4    4    0    0 -0.18151611491E+02  0.20350351422E+02 -0.16897617092E+02  0.32080325222E+02  0.51100000000E-03 0.  1.
        -12    1    4    4    0    0  0.81877399117E+01  0.46287527528E+01 -0.36641381832E+01  0.10094074774E+02  0.00000000000E+00 0.  1.
</event>
<event>
 8    1  0.1210161E-006  0.9118800E+02  0.7816164E-02  0.1184000E+00
        -11   -1    0    0    0    0  0.00000000000E+00  0.00000000000E+00  0.45593999997E+02  0.45594000000E+02  0.51100000000E-03 0.  1.
         11   -1    0    0    0    0 -0.00000000000E+00 -0.00000000000E+00 -0.45593999997E+02  0.45594000000E+02  0.51100000000E-03 0. -1.
         23    2    1    2    0    0  0.00000000000E+00 -0.17763568394E-14  0.00000000000E+00  0.91188000000E+02  0.91188000000E+02 0.  0.
    9900012    2    3    3    0    0 -0.27043885530E+02  0.14038170799E+02 -0.20672152927E+02  0.54367083518E+02  0.39999998496E+02 0.  0.
        -12    1    3    3    0    0  0.27043885530E+02 -0.14038170799E+02  0.20672152927E+02  0.36820916482E+02  0.00000000000E+00 0.  1.
         11    1    4    4    0    0 -0.26788341243E+01 -0.13776142711E+01 -0.15515731769E+02  0.15805439125E+02  0.51100000000E-03 0. -1.
        -11    1    4    4    0    0 -0.20556496018E+02  0.22305608987E+02 -0.44431138095E+01  0.30656989112E+02  0.51100000000E-03 0.  1.
        -12    1    4    4    0    0 -0.38085553874E+01 -0.68898239165E+01 -0.71330734872E+00  0.79046552811E+01  0.00000000000E+00 0.  1.
</event>
<event>
 8    1  0.1210161E-006  0.9118800E+02  0.7816164E-02  0.1184000E+00
        -11   -1    0    0    0    0  0.00000000000E+00  0.00000000000E+00  0.45593999997E+02  0.45594000000E+02  0.51100000000E-03 0.  1.
         11   -1    0    0    0    0 -0.00000000000E+00 -0.00000000000E+00 -0.45593999997E+02  0.45594000000E+02  0.51100000000E-03 0. -1.
         23    2    1    2    0    0  0.00000000000E+00  0.00000000000E+00  0.00000000000E+00  0.91188000000E+02  0.91188000000E+02 0.  0.
    9900012    2    3    3    0    0 -0.10528504965E+02  0.23760970629E+02 -0.26083463153E+02  0.54367079423E+02  0.39999989161E+02 0.  0.
        -12    1    3    3    0    0  0.10528504965E+02 -0.23760970629E+02  0.26083463153E+02  0.36820920577E+02  0.00000000000E+00 0.  1.
         11    1    4    4    0    0 -0.65668957969E+01  0.25879035069E+02 -0.14964111760E+02  0.30606751176E+02  0.51100000000E-03 0.  1.
        -11    1    4    4    0    0 -0.20549921924E+01  0.91671996144E+01 -0.35729879183E+01  0.10051208117E+02  0.51100000000E-03 0. -1.
         12    1    4    4    0    0 -0.19066169757E+01 -0.11285264054E+02 -0.75463634754E+01  0.13709120131E+02  0.00000000000E+00 0. -1.
</event>
<event>
 8    1  0.1210161E-006  0.9118800E+02  0.7816164E-02  0.1184000E+00
        -11   -1    0    0    0    0  0.00000000000E+00  0.00000000000E+00  0.45593999997E+02  0.45594000000E+02  0.51100000000E-03 0. -1.
         11   -1    0    0    0    0 -0.00000000000E+00 -0.00000000000E+00 -0.45593999997E+02  0.45594000000E+02  0.51100000000E-03 0.  1.
         23    2    1    2    0    0  0.00000000000E+00  0.44408920985E-15  0.00000000000E+00  0.91188000000E+02  0.91188000000E+02 0.  0.
    9900012    2    3    3    0    0 -0.35285939586E+02  0.23482718327E+01  0.10255165419E+02  0.54367077539E+02  0.39999984867E+02 0.  0.
         12    1    3    3    0    0  0.35285939586E+02 -0.23482718327E+01 -0.10255165419E+02  0.36820922461E+02  0.00000000000E+00 0. -1.
         11    1    4    4    0    0 -0.27786460199E+02  0.66251086367E+01 -0.29951548192E+01  0.28721949576E+02  0.51100000000E-03 0. -1.
        -11    1    4    4    0    0 -0.30182178777E+01  0.78876061352E+01  0.80814074003E+01  0.11689016876E+02  0.51100000000E-03 0.  1.
         12    1    4    4    0    0 -0.44812615097E+01 -0.12164442939E+02  0.51689128381E+01  0.13956111087E+02  0.00000000000E+00 0. -1.
</event>
<event>
 8    1  0.1210161E-006  0.9118800E+02  0.7816164E-02  0.1184000E+00
        -11   -1    0    0    0    0  0.00000000000E+00  0.00000000000E+00  0.45593999997E+02  0.45594000000E+02  0.51100000000E-03 0.  1.
         11   -1    0    0    0    0 -0.00000000000E+00 -0.00000000000E+00 -0.45593999997E+02  0.45594000000E+02  0.51100000000E-03 0. -1.
         23    2    1    2    0    0  0.00000000000E+00 -0.35527136788E-14  0.00000000000E+00  0.91188000000E+02  0.91188000000E+02 0.  0.
    9900012    2    3    3    0    0  0.32165303224E+02  0.16909600707E+02 -0.59362894166E+01  0.54367070359E+02  0.39999968498E+02 0.  0.
        -12    1    3    3    0    0 -0.32165303224E+02 -0.16909600707E+02  0.59362894166E+01  0.36820929641E+02  0.00000000000E+00 0.  1.
         11    1    4    4    0    0  0.35397348964E+00  0.18759348499E+02 -0.56582196487E+01  0.19597293262E+02  0.51100000000E-03 0. -1.
        -11    1    4    4    0    0  0.17191668551E+02 -0.45210184308E+01 -0.61213178257E+01  0.18800627846E+02  0.51100000000E-03 0.  1.
         12    1    4    4    0    0  0.14619661183E+02  0.26712706390E+01  0.58432480579E+01  0.15969149251E+02  0.00000000000E+00 0. -1.
</event>
<event>
 8    1  0.1210161E-006  0.9118800E+02  0.7816164E-02  0.1184000E+00
        -11   -1    0    0    0    0  0.00000000000E+00  0.00000000000E+00  0.45593999997E+02  0.45594000000E+02  0.51100000000E-03 0.  1.
         11   -1    0    0    0    0 -0.00000000000E+00 -0.00000000000E+00 -0.45593999997E+02  0.45594000000E+02  0.51100000000E-03 0. -1.
         23    2    1    2    0    0  0.22204460493E-15  0.00000000000E+00  0.35527136788E-14  0.91188000000E+02  0.91188000000E+02 0.  0.
    9900012    2    3    3    0    0  0.18935563314E+01  0.20736610513E+02 -0.30367528215E+02  0.54367090980E+02  0.40000015508E+02 0.  0.
        -12    1    3    3    0    0 -0.18935563314E+01 -0.20736610513E+02  0.30367528215E+02  0.36820909020E+02  0.00000000000E+00 0.  1.
         11    1    4    4    0    0 -0.14745055036E+02  0.10701346280E+02 -0.17957544134E+02  0.25581416141E+02  0.51100000000E-03 0. -1.
        -11    1    4    4    0    0  0.53623498392E+01  0.97643462664E+01 -0.13443119416E+02  0.17458943659E+02  0.51100000000E-03 0.  1.
        -12    1    4    4    0    0  0.11276261529E+02  0.27091796659E+00  0.10331353339E+01  0.11326731180E+02  0.00000000000E+00 0.  1.
</event>
<event>
 8    1  0.1210161E-006  0.9118800E+02  0.7816164E-02  0.1184000E+00
        -11   -1    0    0    0    0  0.00000000000E+00  0.00000000000E+00  0.45593999997E+02  0.45594000000E+02  0.51100000000E-03 0.  1.
         11   -1    0    0    0    0 -0.00000000000E+00 -0.00000000000E+00 -0.45593999997E+02  0.45594000000E+02  0.51100000000E-03 0. -1.
         23    2    1    2    0    0  0.88817841970E-15  0.00000000000E+00  0.71054273576E-14  0.91188000000E+02  0.91188000000E+02 0.  0.
    9900012    2    3    3    0    0 -0.75262774062E+01 -0.51521868436E+01 -0.35673394225E+02  0.54367069316E+02  0.39999966121E+02 0.  0.
        -12    1    3    3    0    0  0.75262774062E+01  0.51521868436E+01  0.35673394225E+02  0.36820930684E+02  0.00000000000E+00 0.  1.
         11    1    4    4    0    0 -0.38476864666E+01 -0.48299375567E+01  0.44381783344E+01  0.76046311637E+01  0.51100000000E-03 0. -1.
        -11    1    4    4    0    0  0.69814757421E+01 -0.48652610076E+01 -0.51872399978E+01  0.99659032339E+01  0.51100000000E-03 0.  1.
         12    1    4    4    0    0 -0.10660066682E+02  0.45430117207E+01 -0.34924332562E+02  0.36796534919E+02  0.00000000000E+00 0. -1.
</event>
<event>
 8    1  0.1210161E-006  0.9118800E+02  0.7816164E-02  0.1184000E+00
        -11   -1    0    0    0    0  0.00000000000E+00  0.00000000000E+00  0.45593999997E+02  0.45594000000E+02  0.51100000000E-03 0. -1.
         11   -1    0    0    0    0 -0.00000000000E+00 -0.00000000000E+00 -0.45593999997E+02  0.45594000000E+02  0.51100000000E-03 0.  1.
         23    2    1    2    0    0  0.00000000000E+00  0.38857805862E-15 -0.35527136788E-14  0.91188000000E+02  0.91188000000E+02 0.  0.
    9900012    2    3    3    0    0  0.32501247669E+02 -0.30371782548E+00 -0.17301816047E+02  0.54367133863E+02  0.40000113267E+02 0.  0.
        -12    1    3    3    0    0 -0.32501247669E+02  0.30371782548E+00  0.17301816047E+02  0.36820866137E+02  0.00000000000E+00 0.  1.
         11    1    4    4    0    0  0.12266061508E+02 -0.44491575735E+01  0.29014861335E+01  0.13366745680E+02  0.51100000000E-03 0. -1.
        -11    1    4    4    0    0  0.17586070353E+02 -0.30327636005E+01 -0.25905899374E+02  0.31457640537E+02  0.51100000000E-03 0.  1.
        -12    1    4    4    0    0  0.26491158075E+01  0.71782033486E+01  0.57025971932E+01  0.95427476454E+01  0.00000000000E+00 0.  1.
</event>
<event>
 8    1  0.1210161E-006  0.9118800E+02  0.7816164E-02  0.1184000E+00
        -11   -1    0    0    0    0  0.00000000000E+00  0.00000000000E+00  0.45593999997E+02  0.45594000000E+02  0.51100000000E-03 0. -1.
         11   -1    0    0    0    0 -0.00000000000E+00 -0.00000000000E+00 -0.45593999997E+02  0.45594000000E+02  0.51100000000E-03 0.  1.
         23    2    1    2    0    0  0.00000000000E+00  0.00000000000E+00  0.00000000000E+00  0.91188000000E+02  0.91188000000E+02 0.  0.
    9900012    2    3    3    0    0 -0.18958671851E+02  0.25348492324E+02  0.18809636930E+02  0.54367085523E+02  0.40000003068E+02 0.  0.
        -12    1    3    3    0    0  0.18958671851E+02 -0.25348492324E+02 -0.18809636930E+02  0.36820914477E+02  0.00000000000E+00 0.  1.
         11    1    4    4    0    0  0.37115100971E+00  0.69931647739E+01 -0.11376333105E+02  0.13359006767E+02  0.51100000000E-03 0. -1.
        -11    1    4    4    0    0 -0.26492148107E+01  0.42624229575E+01  0.21211942991E+01  0.54484909927E+01  0.51100000000E-03 0.  1.
         12    1    4    4    0    0 -0.16680608050E+02  0.14092904592E+02  0.28064775736E+02  0.35559587763E+02  0.00000000000E+00 0. -1.
</event>
<event>
 8    1  0.1210161E-006  0.9118800E+02  0.7816164E-02  0.1184000E+00
        -11   -1    0    0    0    0  0.00000000000E+00  0.00000000000E+00  0.45593999997E+02  0.45594000000E+02  0.51100000000E-03 0.  1.
         11   -1    0    0    0    0 -0.00000000000E+00 -0.00000000000E+00 -0.45593999997E+02  0.45594000000E+02  0.51100000000E-03 0. -1.
         23    2    1    2    0    0 -0.35527136788E-14  0.35527136788E-14  0.88817841970E-15  0.91188000000E+02  0.91188000000E+02 0.  0.
    9900012    2    3    3    0    0 -0.29940790529E+02  0.19919074175E+02  0.79094876828E+01  0.54367075937E+02  0.39999981213E+02 0.  0.
        -12    1    3    3    0    0  0.29940790529E+02 -0.19919074175E+02 -0.79094876828E+01  0.36820924063E+02  0.00000000000E+00 0.  1.
         11    1    4    4    0    0 -0.12737901597E+02 -0.48115677513E+01  0.44870156412E+01  0.14336618533E+02  0.51100000000E-03 0. -1.
        -11    1    4    4    0    0  0.23752230372E+01  0.17980626314E+02 -0.29234043525E+01  0.18370925409E+02  0.51100000000E-03 0.  1.
        -12    1    4    4    0    0 -0.19578111969E+02  0.67500156121E+01  0.63458763942E+01  0.21659531995E+02  0.00000000000E+00 0.  1.
</event>
<event>
 8    1  0.1210161E-006  0.9118800E+02  0.7816164E-02  0.1184000E+00
        -11   -1    0    0    0    0  0.00000000000E+00  0.00000000000E+00  0.45593999997E+02  0.45594000000E+02  0.51100000000E-03 0. -1.
         11   -1    0    0    0    0 -0.00000000000E+00 -0.00000000000E+00 -0.45593999997E+02  0.45594000000E+02  0.51100000000E-03 0.  1.
         23    2    1    2    0    0  0.00000000000E+00  0.00000000000E+00  0.00000000000E+00  0.91188000000E+02  0.91188000000E+02 0.  0.
    9900012    2    3    3    0    0 -0.22652689678E+02 -0.20032936481E+02  0.21007515981E+02  0.54367100752E+02  0.40000037785E+02 0.  0.
        -12    1    3    3    0    0  0.22652689678E+02  0.20032936481E+02 -0.21007515981E+02  0.36820899248E+02  0.00000000000E+00 0.  1.
         11    1    4    4    0    0 -0.49225814228E+00 -0.65437112868E+01  0.14746876654E+02  0.16141029917E+02  0.51100000000E-03 0. -1.
        -11    1    4    4    0    0 -0.31368582852E+01  0.41074448407E+01  0.10748282985E+02  0.11926297431E+02  0.51100000000E-03 0.  1.
         12    1    4    4    0    0 -0.19023573250E+02 -0.17596670035E+02 -0.44876436573E+01  0.26299773405E+02  0.00000000000E+00 0. -1.
</event>
<event>
 8    1  0.1210161E-006  0.9118800E+02  0.7816164E-02  0.1184000E+00
        -11   -1    0    0    0    0  0.00000000000E+00  0.00000000000E+00  0.45593999997E+02  0.45594000000E+02  0.51100000000E-03 0.  1.
         11   -1    0    0    0    0 -0.00000000000E+00 -0.00000000000E+00 -0.45593999997E+02  0.45594000000E+02  0.51100000000E-03 0. -1.
         23    2    1    2    0    0  0.00000000000E+00 -0.17763568394E-14  0.00000000000E+00  0.91188000000E+02  0.91188000000E+02 0.  0.
    9900012    2    3    3    0    0  0.24598118248E+02 -0.85072902738E+01  0.26044927613E+02  0.54367086601E+02  0.40000005525E+02 0.  0.
         12    1    3    3    0    0 -0.24598118248E+02  0.85072902738E+01 -0.26044927613E+02  0.36820913399E+02  0.00000000000E+00 0. -1.
         11    1    4    4    0    0  0.18808103798E+02 -0.53821801747E+01  0.17086779903E+02  0.25974423567E+02  0.51100000000E-03 0. -1.
        -11    1    4    4    0    0 -0.33464832775E+01 -0.10299478048E+02  0.12218659131E+02  0.16327088828E+02  0.51100000000E-03 0.  1.
         12    1    4    4    0    0  0.91364977275E+01  0.71743679485E+01 -0.32605114217E+01  0.12065574206E+02  0.00000000000E+00 0. -1.
</event>
<event>
 8    1  0.1210161E-006  0.9118800E+02  0.7816164E-02  0.1184000E+00
        -11   -1    0    0    0    0  0.00000000000E+00  0.00000000000E+00  0.45593999997E+02  0.45594000000E+02  0.51100000000E-03 0. -1.
         11   -1    0    0    0    0 -0.00000000000E+00 -0.00000000000E+00 -0.45593999997E+02  0.45594000000E+02  0.51100000000E-03 0.  1.
         23    2    1    2    0    0  0.00000000000E+00  0.00000000000E+00  0.17763568394E-14  0.91188000000E+02  0.91188000000E+02 0.  0.
    9900012    2    3    3    0    0  0.18357868526E+02  0.30573102502E+02  0.91681057279E+01  0.54367080728E+02  0.39999992135E+02 0.  0.
        -12    1    3    3    0    0 -0.18357868526E+02 -0.30573102502E+02 -0.91681057279E+01  0.36820919272E+02  0.00000000000E+00 0.  1.
         11    1    4    4    0    0  0.50856640598E+01  0.11008767597E+02  0.13054724491E+02  0.17818046322E+02  0.51100000000E-03 0. -1.
        -11    1    4    4    0    0  0.10377813946E+02  0.26687791699E+02 -0.25899052697E+01  0.28751432271E+02  0.51100000000E-03 0.  1.
        -12    1    4    4    0    0  0.28943905199E+01 -0.71234567934E+01 -0.12967134934E+01  0.77976021349E+01  0.00000000000E+00 0.  1.
</event>
<event>
 8    1  0.1210161E-006  0.9118800E+02  0.7816164E-02  0.1184000E+00
        -11   -1    0    0    0    0  0.00000000000E+00  0.00000000000E+00  0.45593999997E+02  0.45594000000E+02  0.51100000000E-03 0.  1.
         11   -1    0    0    0    0 -0.00000000000E+00 -0.00000000000E+00 -0.45593999997E+02  0.45594000000E+02  0.51100000000E-03 0. -1.
         23    2    1    2    0    0 -0.83266726847E-15 -0.71054273576E-14  0.17763568394E-14  0.91188000000E+02  0.91188000000E+02 0.  0.
    9900012    2    3    3    0    0 -0.37871604564E+00  0.34994931890E+02 -0.11445140347E+02  0.54367083100E+02  0.39999997542E+02 0.  0.
        -12    1    3    3    0    0  0.37871604564E+00 -0.34994931890E+02  0.11445140347E+02  0.36820916900E+02  0.00000000000E+00 0.  1.
         11    1    4    4    0    0 -0.12764927705E+02  0.18533391233E+02  0.80123730205E+01  0.23887823082E+02  0.51100000000E-03 0. -1.
        -11    1    4    4    0    0 -0.21040380993E+01  0.23331215173E+01 -0.35278159569E+01  0.47239726952E+01  0.51100000000E-03 0.  1.
         12    1    4    4    0    0  0.14490249759E+02  0.14128419139E+02 -0.15929697411E+02  0.25755287322E+02  0.00000000000E+00 0. -1.
</event>
<event>
 8    1  0.1210161E-006  0.9118800E+02  0.7816164E-02  0.1184000E+00
        -11   -1    0    0    0    0  0.00000000000E+00  0.00000000000E+00  0.45593999997E+02  0.45594000000E+02  0.51100000000E-03 0. -1.
         11   -1    0    0    0    0 -0.00000000000E+00 -0.00000000000E+00 -0.45593999997E+02  0.45594000000E+02  0.51100000000E-03 0.  1.
         23    2    1    2    0    0  0.00000000000E+00  0.00000000000E+00  0.00000000000E+00  0.91188000000E+02  0.91188000000E+02 0.  0.
    9900012    2    3    3    0    0 -0.20871810018E+01 -0.32477757240E+02 -0.17222578777E+02  0.54367105665E+02  0.40000048986E+02 0.  0.
         12    1    3    3    0    0  0.20871810018E+01  0.32477757240E+02  0.17222578777E+02  0.36820894335E+02  0.00000000000E+00 0. -1.
         11    1    4    4    0    0 -0.16438735830E+01 -0.12102036789E+02 -0.54218438080E+01  0.13362559834E+02  0.51100000000E-03 0.  1.
        -11    1    4    4    0    0  0.14666406042E+02 -0.19081640841E+02 -0.63593137342E+01  0.24892837419E+02  0.51100000000E-03 0. -1.
         12    1    4    4    0    0 -0.15109713460E+02 -0.12940796105E+01 -0.54414212350E+01  0.16111708412E+02  0.00000000000E+00 0. -1.
</event>
<event>
 8    1  0.1210161E-006  0.9118800E+02  0.7816164E-02  0.1184000E+00
        -11   -1    0    0    0    0  0.00000000000E+00  0.00000000000E+00  0.45593999997E+02  0.45594000000E+02  0.51100000000E-03 0.  1.
         11   -1    0    0    0    0 -0.00000000000E+00 -0.00000000000E+00 -0.45593999997E+02  0.45594000000E+02  0.51100000000E-03 0. -1.
         23    2    1    2    0    0  0.00000000000E+00 -0.17763568394E-14  0.31086244690E-14  0.91188000000E+02  0.91188000000E+02 0.  0.
    9900012    2    3    3    0    0 -0.36199760878E+02  0.56882595363E+01 -0.36053274300E+01  0.54367117745E+02  0.40000076523E+02 0.  0.
        -12    1    3    3    0    0  0.36199760878E+02 -0.56882595363E+01  0.36053274300E+01  0.36820882255E+02  0.00000000000E+00 0.  1.
         11    1    4    4    0    0 -0.30680153668E+01 -0.47209670830E+01 -0.15358227939E+02  0.16357732550E+02  0.51100000000E-03 0. -1.
        -11    1    4    4    0    0 -0.71052960411E+01 -0.10000677213E+01  0.51577441705E+01  0.88367240801E+01  0.51100000000E-03 0.  1.
         12    1    4    4    0    0 -0.26026449470E+02  0.11409294341E+02  0.65951563386E+01  0.29172661115E+02  0.00000000000E+00 0. -1.
</event>
<event>
 8    1  0.1210161E-006  0.9118800E+02  0.7816164E-02  0.1184000E+00
        -11   -1    0    0    0    0  0.00000000000E+00  0.00000000000E+00  0.45593999997E+02  0.45594000000E+02  0.51100000000E-03 0. -1.
         11   -1    0    0    0    0 -0.00000000000E+00 -0.00000000000E+00 -0.45593999997E+02  0.45594000000E+02  0.51100000000E-03 0.  1.
         23    2    1    2    0    0 -0.35527136788E-14 -0.17763568394E-14  0.00000000000E+00  0.91188000000E+02  0.91188000000E+02 0.  0.
    9900012    2    3    3    0    0 -0.27267988154E+02  0.13444607755E+02 -0.20772047832E+02  0.54367100679E+02  0.40000037618E+02 0.  0.
        -12    1    3    3    0    0  0.27267988154E+02 -0.13444607755E+02  0.20772047832E+02  0.36820899321E+02  0.00000000000E+00 0.  1.
         11    1    4    4    0    0 -0.10532039238E+02  0.17071696855E+02 -0.83457788280E+01  0.21725991543E+02  0.51100000000E-03 0. -1.
        -11    1    4    4    0    0 -0.99300374960E+01  0.61981429704E+01 -0.16308133668E+02  0.20074308081E+02  0.51100000000E-03 0.  1.
         12    1    4    4    0    0 -0.68059114200E+01 -0.98252320698E+01  0.38818646639E+01  0.12566801055E+02  0.00000000000E+00 0. -1.
</event>
<event>
 8    1  0.1210161E-006  0.9118800E+02  0.7816164E-02  0.1184000E+00
        -11   -1    0    0    0    0  0.00000000000E+00  0.00000000000E+00  0.45593999997E+02  0.45594000000E+02  0.51100000000E-03 0.  1.
         11   -1    0    0    0    0 -0.00000000000E+00 -0.00000000000E+00 -0.45593999997E+02  0.45594000000E+02  0.51100000000E-03 0. -1.
         23    2    1    2    0    0 -0.17763568394E-14  0.00000000000E+00  0.88817841970E-15  0.91188000000E+02  0.91188000000E+02 0.  0.
    9900012    2    3    3    0    0 -0.83199437406E+01 -0.34970713077E+02 -0.79754655117E+01  0.54367078134E+02  0.39999986222E+02 0.  0.
        -12    1    3    3    0    0  0.83199437406E+01  0.34970713077E+02  0.79754655117E+01  0.36820921866E+02  0.00000000000E+00 0.  1.
         11    1    4    4    0    0 -0.40479546296E+01 -0.13424273953E+02 -0.10458012628E+02  0.17491915168E+02  0.51100000000E-03 0. -1.
        -11    1    4    4    0    0 -0.13005883300E+02 -0.11067426182E+02 -0.87643150614E+01  0.19195159324E+02  0.51100000000E-03 0.  1.
        -12    1    4    4    0    0  0.87338941893E+01 -0.10479012941E+02  0.11246862178E+02  0.17680003642E+02  0.00000000000E+00 0.  1.
</event>
<event>
 8    1  0.1210161E-006  0.9118800E+02  0.7816164E-02  0.1184000E+00
        -11   -1    0    0    0    0  0.00000000000E+00  0.00000000000E+00  0.45593999997E+02  0.45594000000E+02  0.51100000000E-03 0.  1.
         11   -1    0    0    0    0 -0.00000000000E+00 -0.00000000000E+00 -0.45593999997E+02  0.45594000000E+02  0.51100000000E-03 0. -1.
         23    2    1    2    0    0 -0.71054273576E-14  0.35527136788E-14  0.88817841970E-15  0.91188000000E+02  0.91188000000E+02 0.  0.
    9900012    2    3    3    0    0  0.28349151548E+02 -0.23046987130E+02  0.45763221222E+01  0.54367072073E+02  0.39999972404E+02 0.  0.
        -12    1    3    3    0    0 -0.28349151548E+02  0.23046987130E+02 -0.45763221222E+01  0.36820927927E+02  0.00000000000E+00 0.  1.
         11    1    4    4    0    0  0.25405327817E+01 -0.16069915004E+02  0.11023636939E+02  0.19652405621E+02  0.51100000000E-03 0. -1.
        -11    1    4    4    0    0 -0.21603233119E+01 -0.46834143049E+01 -0.40347391214E+01  0.65483193571E+01  0.51100000000E-03 0.  1.
         12    1    4    4    0    0  0.27968942079E+02 -0.22936578206E+01 -0.24125756954E+01  0.28166347095E+02  0.00000000000E+00 0. -1.
</event>
<event>
 8    1  0.1210161E-006  0.9118800E+02  0.7816164E-02  0.1184000E+00
        -11   -1    0    0    0    0  0.00000000000E+00  0.00000000000E+00  0.45593999997E+02  0.45594000000E+02  0.51100000000E-03 0.  1.
         11   -1    0    0    0    0 -0.00000000000E+00 -0.00000000000E+00 -0.45593999997E+02  0.45594000000E+02  0.51100000000E-03 0. -1.
         23    2    1    2    0    0 -0.44408920985E-15  0.00000000000E+00  0.00000000000E+00  0.91188000000E+02  0.91188000000E+02 0.  0.
    9900012    2    3    3    0    0 -0.24781018113E+01  0.34623814310E+02 -0.12281286296E+02  0.54367088835E+02  0.40000010617E+02 0.  0.
        -12    1    3    3    0    0  0.24781018113E+01 -0.34623814310E+02  0.12281286296E+02  0.36820911165E+02  0.00000000000E+00 0.  1.
         11    1    4    4    0    0 -0.89684218271E+01  0.52469291541E+00 -0.51975826504E+01  0.10378957481E+02  0.51100000000E-03 0. -1.
        -11    1    4    4    0    0  0.15914180475E+02  0.23806823488E+02 -0.70581254899E+00  0.28644792833E+02  0.51100000000E-03 0.  1.
        -12    1    4    4    0    0 -0.94238604596E+01  0.10292297906E+02 -0.63778910963E+01  0.15343338521E+02  0.00000000000E+00 0.  1.
</event>
<event>
 8    1  0.1210161E-006  0.9118800E+02  0.7816164E-02  0.1184000E+00
        -11   -1    0    0    0    0  0.00000000000E+00  0.00000000000E+00  0.45593999997E+02  0.45594000000E+02  0.51100000000E-03 0.  1.
         11   -1    0    0    0    0 -0.00000000000E+00 -0.00000000000E+00 -0.45593999997E+02  0.45594000000E+02  0.51100000000E-03 0. -1.
         23    2    1    2    0    0  0.00000000000E+00  0.35527136788E-14  0.17763568394E-14  0.91188000000E+02  0.91188000000E+02 0.  0.
    9900012    2    3    3    0    0 -0.15944633398E+02  0.29785338395E+02 -0.14641836914E+02  0.54367067017E+02  0.39999960880E+02 0.  0.
         12    1    3    3    0    0  0.15944633398E+02 -0.29785338395E+02  0.14641836914E+02  0.36820932983E+02  0.00000000000E+00 0. -1.
         11    1    4    4    0    0 -0.51365960758E+01  0.56642920762E+01  0.54482371926E+01  0.93889356552E+01  0.51100000000E-03 0. -1.
        -11    1    4    4    0    0 -0.11887162144E+02  0.23084740338E+02 -0.11625460538E+01  0.25991563514E+02  0.51100000000E-03 0.  1.
         12    1    4    4    0    0  0.10791248220E+01  0.10363059804E+01 -0.18927528053E+02  0.18986567848E+02  0.00000000000E+00 0. -1.
</event>
<event>
 8    1  0.1210161E-006  0.9118800E+02  0.7816164E-02  0.1184000E+00
        -11   -1    0    0    0    0  0.00000000000E+00  0.00000000000E+00  0.45593999997E+02  0.45594000000E+02  0.51100000000E-03 0.  1.
         11   -1    0    0    0    0 -0.00000000000E+00 -0.00000000000E+00 -0.45593999997E+02  0.45594000000E+02  0.51100000000E-03 0. -1.
         23    2    1    2    0    0  0.00000000000E+00 -0.35527136788E-14  0.00000000000E+00  0.91188000000E+02  0.91188000000E+02 0.  0.
    9900012    2    3    3    0    0 -0.23742813813E+02  0.23872790198E+02 -0.14904630438E+02  0.54367091156E+02  0.40000015908E+02 0.  0.
        -12    1    3    3    0    0  0.23742813813E+02 -0.23872790198E+02  0.14904630438E+02  0.36820908844E+02  0.00000000000E+00 0.  1.
         11    1    4    4    0    0  0.16843370816E+01 -0.16360105529E+01  0.34794262533E+01  0.41976099446E+01  0.51100000000E-03 0. -1.
        -11    1    4    4    0    0 -0.15809663193E+00  0.60442555834E+01  0.71122503214E+01  0.93349946437E+01  0.51100000000E-03 0.  1.
         12    1    4    4    0    0 -0.25269054263E+02  0.19464545167E+02 -0.25496307013E+02  0.40834486567E+02  0.00000000000E+00 0. -1.
</event>
<event>
 8    1  0.1210161E-006  0.9118800E+02  0.7816164E-02  0.1184000E+00
        -11   -1    0    0    0    0  0.00000000000E+00  0.00000000000E+00  0.45593999997E+02  0.45594000000E+02  0.51100000000E-03 0. -1.
         11   -1    0    0    0    0 -0.00000000000E+00 -0.00000000000E+00 -0.45593999997E+02  0.45594000000E+02  0.51100000000E-03 0.  1.
         23    2    1    2    0    0  0.88817841970E-15  0.00000000000E+00  0.00000000000E+00  0.91188000000E+02  0.91188000000E+02 0.  0.
    9900012    2    3    3    0    0 -0.43722514606E+01  0.18096498047E+02  0.31767696227E+02  0.54366995831E+02  0.39999798596E+02 0.  0.
        -12    1    3    3    0    0  0.43722514606E+01 -0.18096498047E+02 -0.31767696227E+02  0.36821004169E+02  0.00000000000E+00 0.  1.
         11    1    4    4    0    0  0.80430274119E+00  0.31398699792E+01 -0.20283294687E+01  0.38235856314E+01  0.51100000000E-03 0.  1.
        -11    1    4    4    0    0 -0.66206842110E+01  0.58686018063E+01 -0.53441574860E+01  0.10336051765E+02  0.51100000000E-03 0. -1.
         12    1    4    4    0    0  0.14441300093E+01  0.90880262617E+01  0.39140183182E+02  0.40207358435E+02  0.00000000000E+00 0. -1.
</event>
<event>
 8    1  0.1210161E-006  0.9118800E+02  0.7816164E-02  0.1184000E+00
        -11   -1    0    0    0    0  0.00000000000E+00  0.00000000000E+00  0.45593999997E+02  0.45594000000E+02  0.51100000000E-03 0.  1.
         11   -1    0    0    0    0 -0.00000000000E+00 -0.00000000000E+00 -0.45593999997E+02  0.45594000000E+02  0.51100000000E-03 0. -1.
         23    2    1    2    0    0  0.71054273576E-14  0.17763568394E-14 -0.17763568394E-14  0.91188000000E+02  0.91188000000E+02 0.  0.
    9900012    2    3    3    0    0  0.32218045552E+02 -0.12369661156E+02 -0.12836198204E+02  0.54367096145E+02  0.40000027282E+02 0.  0.
         12    1    3    3    0    0 -0.32218045552E+02  0.12369661156E+02  0.12836198204E+02  0.36820903855E+02  0.00000000000E+00 0. -1.
         11    1    4    4    0    0  0.36703218115E+01  0.54897157573E+01  0.49638635591E+01  0.82612458497E+01  0.51100000000E-03 0. -1.
        -11    1    4    4    0    0 -0.97287800397E+00 -0.11969765795E+02 -0.22277903190E+01  0.12214124396E+02  0.51100000000E-03 0.  1.
         12    1    4    4    0    0  0.29520601745E+02 -0.58896111187E+01 -0.15572271444E+02  0.33891725899E+02  0.00000000000E+00 0. -1.
</event>
<event>
 8    1  0.1210161E-006  0.9118800E+02  0.7816164E-02  0.1184000E+00
        -11   -1    0    0    0    0  0.00000000000E+00  0.00000000000E+00  0.45593999997E+02  0.45594000000E+02  0.51100000000E-03 0.  1.
         11   -1    0    0    0    0 -0.00000000000E+00 -0.00000000000E+00 -0.45593999997E+02  0.45594000000E+02  0.51100000000E-03 0. -1.
         23    2    1    2    0    0 -0.35527136788E-14 -0.35527136788E-14  0.00000000000E+00  0.91188000000E+02  0.91188000000E+02 0.  0.
    9900012    2    3    3    0    0  0.19614410716E+02 -0.27092229597E+02  0.15396946178E+02  0.54367082523E+02  0.39999996227E+02 0.  0.
         12    1    3    3    0    0 -0.19614410716E+02  0.27092229597E+02 -0.15396946178E+02  0.36820917477E+02  0.00000000000E+00 0. -1.
         11    1    4    4    0    0 -0.23850146096E+01 -0.12095155683E+02 -0.22345939250E+01  0.12528946323E+02  0.51100000000E-03 0. -1.
        -11    1    4    4    0    0  0.18524852398E+02 -0.67029118414E+01  0.23828175289E+02  0.30917327203E+02  0.51100000000E-03 0.  1.
         12    1    4    4    0    0  0.34745729275E+01 -0.82941620722E+01 -0.61966351861E+01  0.10920808996E+02  0.00000000000E+00 0. -1.
</event>
<event>
 8    1  0.1210161E-006  0.9118800E+02  0.7816164E-02  0.1184000E+00
        -11   -1    0    0    0    0  0.00000000000E+00  0.00000000000E+00  0.45593999997E+02  0.45594000000E+02  0.51100000000E-03 0. -1.
         11   -1    0    0    0    0 -0.00000000000E+00 -0.00000000000E+00 -0.45593999997E+02  0.45594000000E+02  0.51100000000E-03 0.  1.
         23    2    1    2    0    0  0.00000000000E+00  0.00000000000E+00 -0.17763568394E-14  0.91188000000E+02  0.91188000000E+02 0.  0.
    9900012    2    3    3    0    0 -0.34180565701E+02 -0.63654814798E+01  0.12122279062E+02  0.54367081003E+02  0.39999992764E+02 0.  0.
         12    1    3    3    0    0  0.34180565701E+02  0.63654814798E+01 -0.12122279062E+02  0.36820918997E+02  0.00000000000E+00 0. -1.
         11    1    4    4    0    0 -0.23024751496E+02 -0.48443140472E+01  0.39042909509E+00  0.23532084378E+02  0.51100000000E-03 0. -1.
        -11    1    4    4    0    0 -0.14594726688E+02  0.28361176986E+01 -0.29334266196E+01  0.15154359198E+02  0.51100000000E-03 0.  1.
         12    1    4    4    0    0  0.34389124834E+01 -0.43572851312E+01  0.14665276586E+02  0.15680637427E+02  0.00000000000E+00 0. -1.
</event>
<event>
 8    1  0.1210161E-006  0.9118800E+02  0.7816164E-02  0.1184000E+00
        -11   -1    0    0    0    0  0.00000000000E+00  0.00000000000E+00  0.45593999997E+02  0.45594000000E+02  0.51100000000E-03 0. -1.
         11   -1    0    0    0    0 -0.00000000000E+00 -0.00000000000E+00 -0.45593999997E+02  0.45594000000E+02  0.51100000000E-03 0.  1.
         23    2    1    2    0    0 -0.17763568394E-14 -0.35527136788E-14  0.00000000000E+00  0.91188000000E+02  0.91188000000E+02 0.  0.
    9900012    2    3    3    0    0  0.14803220066E+02 -0.29195697233E+02  0.16859873916E+02  0.54367090048E+02  0.40000013382E+02 0.  0.
         12    1    3    3    0    0 -0.14803220066E+02  0.29195697233E+02 -0.16859873916E+02  0.36820909952E+02  0.00000000000E+00 0. -1.
         11    1    4    4    0    0  0.79752324012E+01  0.20085832657E+01  0.16609497486E+02  0.18534134606E+02  0.51100000000E-03 0. -1.
        -11    1    4    4    0    0 -0.38146147718E+01 -0.20070011376E+02  0.73305301219E-01  0.20429439944E+02  0.51100000000E-03 0.  1.
        -12    1    4    4    0    0  0.10642602437E+02 -0.11134269122E+02  0.17707112873E+00  0.15403515498E+02  0.00000000000E+00 0.  1.
</event>
<event>
 8    1  0.1210161E-006  0.9118800E+02  0.7816164E-02  0.1184000E+00
        -11   -1    0    0    0    0  0.00000000000E+00  0.00000000000E+00  0.45593999997E+02  0.45594000000E+02  0.51100000000E-03 0.  1.
         11   -1    0    0    0    0 -0.00000000000E+00 -0.00000000000E+00 -0.45593999997E+02  0.45594000000E+02  0.51100000000E-03 0. -1.
         23    2    1    2    0    0 -0.35527136788E-14  0.35527136788E-14 -0.88817841970E-15  0.91188000000E+02  0.91188000000E+02 0.  0.
    9900012    2    3    3    0    0 -0.24442550017E+02 -0.27037090836E+02 -0.52284652793E+01  0.54367090433E+02  0.40000014259E+02 0.  0.
        -12    1    3    3    0    0  0.24442550017E+02  0.27037090836E+02  0.52284652793E+01  0.36820909567E+02  0.00000000000E+00 0.  1.
         11    1    4    4    0    0  0.15177210425E+01 -0.18690808898E+01 -0.12408148413E+02  0.12639584164E+02  0.51100000000E-03 0. -1.
        -11    1    4    4    0    0 -0.15789544448E+02 -0.75162887177E+01 -0.47480085249E+01  0.18120372380E+02  0.51100000000E-03 0.  1.
         12    1    4    4    0    0 -0.10170726611E+02 -0.17651721228E+02  0.11927691659E+02  0.23607133888E+02  0.00000000000E+00 0. -1.
</event>
<event>
 8    1  0.1210161E-006  0.9118800E+02  0.7816164E-02  0.1184000E+00
        -11   -1    0    0    0    0  0.00000000000E+00  0.00000000000E+00  0.45593999997E+02  0.45594000000E+02  0.51100000000E-03 0. -1.
         11   -1    0    0    0    0 -0.00000000000E+00 -0.00000000000E+00 -0.45593999997E+02  0.45594000000E+02  0.51100000000E-03 0.  1.
         23    2    1    2    0    0  0.35527136788E-14  0.35527136788E-14  0.35527136788E-14  0.91188000000E+02  0.91188000000E+02 0.  0.
    9900012    2    3    3    0    0  0.22528397253E+02  0.27584063349E+02  0.93472588855E+01  0.54367075483E+02  0.39999980178E+02 0.  0.
        -12    1    3    3    0    0 -0.22528397253E+02 -0.27584063349E+02 -0.93472588855E+01  0.36820924517E+02  0.00000000000E+00 0.  1.
         11    1    4    4    0    0  0.10420340342E+02  0.17218987915E+02 -0.42132683267E+01  0.20562798154E+02  0.51100000000E-03 0. -1.
        -11    1    4    4    0    0  0.83186194567E+01  0.14583829347E+02  0.19405490985E+02  0.25660486915E+02  0.51100000000E-03 0.  1.
         12    1    4    4    0    0  0.37894374537E+01 -0.42187539126E+01 -0.58449637730E+01  0.81437904134E+01  0.00000000000E+00 0. -1.
</event>
<event>
 8    1  0.1210161E-006  0.9118800E+02  0.7816164E-02  0.1184000E+00
        -11   -1    0    0    0    0  0.00000000000E+00  0.00000000000E+00  0.45593999997E+02  0.45594000000E+02  0.51100000000E-03 0. -1.
         11   -1    0    0    0    0 -0.00000000000E+00 -0.00000000000E+00 -0.45593999997E+02  0.45594000000E+02  0.51100000000E-03 0.  1.
         23    2    1    2    0    0  0.17763568394E-14 -0.35527136788E-14  0.35527136788E-14  0.91188000000E+02  0.91188000000E+02 0.  0.
    9900012    2    3    3    0    0 -0.94865345731E+01  0.31427811736E+02 -0.16675694553E+02  0.54367075547E+02  0.39999980325E+02 0.  0.
         12    1    3    3    0    0  0.94865345731E+01 -0.31427811736E+02  0.16675694553E+02  0.36820924453E+02  0.00000000000E+00 0. -1.
         11    1    4    4    0    0 -0.57316602421E+01  0.51673744736E+01  0.52992966356E+01  0.93614226042E+01  0.51100000000E-03 0. -1.
        -11    1    4    4    0    0 -0.69129239241E+01  0.15366811789E+02  0.34192560231E+01  0.17193566638E+02  0.51100000000E-03 0.  1.
         12    1    4    4    0    0  0.31580495931E+01  0.10893625474E+02 -0.25394247211E+02  0.27812086305E+02  0.00000000000E+00 0. -1.
</event>
<event>
 8    1  0.1210161E-006  0.9118800E+02  0.7816164E-02  0.1184000E+00
        -11   -1    0    0    0    0  0.00000000000E+00  0.00000000000E+00  0.45593999997E+02  0.45594000000E+02  0.51100000000E-03 0. -1.
         11   -1    0    0    0    0 -0.00000000000E+00 -0.00000000000E+00 -0.45593999997E+02  0.45594000000E+02  0.51100000000E-03 0.  1.
         23    2    1    2    0    0  0.00000000000E+00  0.35527136788E-14  0.00000000000E+00  0.91188000000E+02  0.91188000000E+02 0.  0.
    9900012    2    3    3    0    0  0.12444259893E+02  0.18315737980E+02 -0.29418598199E+02  0.54367084992E+02  0.40000001857E+02 0.  0.
         12    1    3    3    0    0 -0.12444259893E+02 -0.18315737980E+02  0.29418598199E+02  0.36820915008E+02  0.00000000000E+00 0. -1.
         11    1    4    4    0    0  0.13576258314E+02  0.19040895151E+02 -0.31018774106E+01  0.23590085241E+02  0.51100000000E-03 0. -1.
        -11    1    4    4    0    0  0.13596791751E+01 -0.28051709262E+00 -0.27805786654E+02  0.27840423650E+02  0.51100000000E-03 0.  1.
        -12    1    4    4    0    0 -0.24916775956E+01 -0.44464007852E+00  0.14890658664E+01  0.29365761006E+01  0.00000000000E+00 0.  1.
</event>
<event>
 8    1  0.1210161E-006  0.9118800E+02  0.7816164E-02  0.1184000E+00
        -11   -1    0    0    0    0  0.00000000000E+00  0.00000000000E+00  0.45593999997E+02  0.45594000000E+02  0.51100000000E-03 0.  1.
         11   -1    0    0    0    0 -0.00000000000E+00 -0.00000000000E+00 -0.45593999997E+02  0.45594000000E+02  0.51100000000E-03 0. -1.
         23    2    1    2    0    0 -0.35527136788E-14  0.00000000000E+00  0.35527136788E-14  0.91188000000E+02  0.91188000000E+02 0.  0.
    9900012    2    3    3    0    0 -0.23443997337E+02  0.19287452879E+02  0.20836337094E+02  0.54367084841E+02  0.40000001511E+02 0.  0.
         12    1    3    3    0    0  0.23443997337E+02 -0.19287452879E+02 -0.20836337094E+02  0.36820915159E+02  0.00000000000E+00 0. -1.
         11    1    4    4    0    0  0.14008558700E+00  0.45980594475E+01  0.89962268962E+01  0.10104151290E+02  0.51100000000E-03 0. -1.
        -11    1    4    4    0    0 -0.17721870757E+02 -0.74122551133E+01  0.18122632731E+01  0.19294831624E+02  0.51100000000E-03 0.  1.
         12    1    4    4    0    0 -0.58622121668E+01  0.22101648544E+02  0.10027846925E+02  0.24968101927E+02  0.00000000000E+00 0. -1.
</event>
<event>
 8    1  0.1210161E-006  0.9118800E+02  0.7816164E-02  0.1184000E+00
        -11   -1    0    0    0    0  0.00000000000E+00  0.00000000000E+00  0.45593999997E+02  0.45594000000E+02  0.51100000000E-03 0.  1.
         11   -1    0    0    0    0 -0.00000000000E+00 -0.00000000000E+00 -0.45593999997E+02  0.45594000000E+02  0.51100000000E-03 0. -1.
         23    2    1    2    0    0  0.00000000000E+00  0.35527136788E-14  0.00000000000E+00  0.91188000000E+02  0.91188000000E+02 0.  0.
    9900012    2    3    3    0    0 -0.95568193186E+01  0.21733395153E+02  0.28144389739E+02  0.54367082927E+02  0.39999997148E+02 0.  0.
         12    1    3    3    0    0  0.95568193186E+01 -0.21733395153E+02 -0.28144389739E+02  0.36820917073E+02  0.00000000000E+00 0. -1.
         11    1    4    4    0    0  0.31312208369E+01 -0.50035455753E+01  0.57011062170E+01  0.82062552124E+01  0.51100000000E-03 0. -1.
        -11    1    4    4    0    0 -0.14129329578E+02  0.29634951651E+01  0.15868365531E+02  0.21452861879E+02  0.51100000000E-03 0.  1.
        -12    1    4    4    0    0  0.14412894227E+01  0.23773445563E+02  0.65749179909E+01  0.24707965835E+02  0.00000000000E+00 0.  1.
</event>
<event>
 8    1  0.1210161E-006  0.9118800E+02  0.7816164E-02  0.1184000E+00
        -11   -1    0    0    0    0  0.00000000000E+00  0.00000000000E+00  0.45593999997E+02  0.45594000000E+02  0.51100000000E-03 0.  1.
         11   -1    0    0    0    0 -0.00000000000E+00 -0.00000000000E+00 -0.45593999997E+02  0.45594000000E+02  0.51100000000E-03 0. -1.
         23    2    1    2    0    0  0.00000000000E+00 -0.35527136788E-14 -0.35527136788E-14  0.91188000000E+02  0.91188000000E+02 0.  0.
    9900012    2    3    3    0    0 -0.89469593575E+01 -0.24781500215E+02 -0.25721784232E+02  0.54367068199E+02  0.39999963572E+02 0.  0.
        -12    1    3    3    0    0  0.89469593575E+01  0.24781500215E+02  0.25721784232E+02  0.36820931801E+02  0.00000000000E+00 0.  1.
         11    1    4    4    0    0  0.52663935823E+01 -0.97210203407E-01 -0.23415663184E+02  0.24000784025E+02  0.51100000000E-03 0. -1.
        -11    1    4    4    0    0 -0.45845126649E+00 -0.10282115442E+02 -0.17723253415E+01  0.10443812183E+02  0.51100000000E-03 0.  1.
         12    1    4    4    0    0 -0.13754901673E+02 -0.14402174569E+02 -0.53379570608E+00  0.19922471991E+02  0.00000000000E+00 0. -1.
</event>
<event>
 8    1  0.1210161E-006  0.9118800E+02  0.7816164E-02  0.1184000E+00
        -11   -1    0    0    0    0  0.00000000000E+00  0.00000000000E+00  0.45593999997E+02  0.45594000000E+02  0.51100000000E-03 0.  1.
         11   -1    0    0    0    0 -0.00000000000E+00 -0.00000000000E+00 -0.45593999997E+02  0.45594000000E+02  0.51100000000E-03 0. -1.
         23    2    1    2    0    0  0.35527136788E-14  0.71054273576E-14  0.35527136788E-14  0.91188000000E+02  0.91188000000E+02 0.  0.
    9900012    2    3    3    0    0  0.21754152232E+02  0.18837321399E+02  0.22971529697E+02  0.54367095700E+02  0.40000026268E+02 0.  0.
         12    1    3    3    0    0 -0.21754152232E+02 -0.18837321399E+02 -0.22971529697E+02  0.36820904300E+02  0.00000000000E+00 0. -1.
         11    1    4    4    0    0 -0.21164647073E+01  0.74964921667E+01 -0.17387623164E+01  0.79812350120E+01  0.51100000000E-03 0. -1.
        -11    1    4    4    0    0  0.45106105482E+01 -0.28939361466E+01 -0.55698170200E+01  0.77293813359E+01  0.51100000000E-03 0.  1.
        -12    1    4    4    0    0  0.19360006391E+02  0.14234765379E+02  0.30280109034E+02  0.38656479353E+02  0.00000000000E+00 0.  1.
</event>
<event>
 8    1  0.1210161E-006  0.9118800E+02  0.7816164E-02  0.1184000E+00
        -11   -1    0    0    0    0  0.00000000000E+00  0.00000000000E+00  0.45593999997E+02  0.45594000000E+02  0.51100000000E-03 0.  1.
         11   -1    0    0    0    0 -0.00000000000E+00 -0.00000000000E+00 -0.45593999997E+02  0.45594000000E+02  0.51100000000E-03 0. -1.
         23    2    1    2    0    0  0.00000000000E+00  0.00000000000E+00  0.00000000000E+00  0.91188000000E+02  0.91188000000E+02 0.  0.
    9900012    2    3    3    0    0 -0.29892146226E+02  0.12361150599E+02 -0.17590946770E+02  0.54367083955E+02  0.39999999492E+02 0.  0.
        -12    1    3    3    0    0  0.29892146226E+02 -0.12361150599E+02  0.17590946770E+02  0.36820916045E+02  0.00000000000E+00 0.  1.
         11    1    4    4    0    0 -0.91661085510E+01 -0.52905876784E+01 -0.57005856356E+01  0.12021004151E+02  0.51100000000E-03 0. -1.
        -11    1    4    4    0    0 -0.26538317935E+02  0.12002005838E+02 -0.16028485603E+02  0.33245192344E+02  0.51100000000E-03 0.  1.
        -12    1    4    4    0    0  0.58122802603E+01  0.56497324386E+01  0.41381244682E+01  0.91008874604E+01  0.00000000000E+00 0.  1.
</event>
<event>
 8    1  0.1210161E-006  0.9118800E+02  0.7816164E-02  0.1184000E+00
        -11   -1    0    0    0    0  0.00000000000E+00  0.00000000000E+00  0.45593999997E+02  0.45594000000E+02  0.51100000000E-03 0. -1.
         11   -1    0    0    0    0 -0.00000000000E+00 -0.00000000000E+00 -0.45593999997E+02  0.45594000000E+02  0.51100000000E-03 0.  1.
         23    2    1    2    0    0  0.00000000000E+00 -0.35527136788E-14 -0.71054273576E-14  0.91188000000E+02  0.91188000000E+02 0.  0.
    9900012    2    3    3    0    0 -0.12745281197E+02 -0.15605819520E+02  0.30818757734E+02  0.54367087139E+02  0.40000006750E+02 0.  0.
        -12    1    3    3    0    0  0.12745281197E+02  0.15605819520E+02 -0.30818757734E+02  0.36820912861E+02  0.00000000000E+00 0.  1.
         11    1    4    4    0    0 -0.16376110304E+01  0.11948937612E+02  0.76177134342E+01  0.14264937370E+02  0.51100000000E-03 0. -1.
        -11    1    4    4    0    0  0.26503850553E+01 -0.12133026348E+01  0.13318799690E+01  0.32047696856E+01  0.51100000000E-03 0.  1.
        -12    1    4    4    0    0 -0.13758055222E+02 -0.26341454497E+02  0.21869164331E+02  0.36897380083E+02  0.00000000000E+00 0.  1.
</event>
<event>
 8    1  0.1210161E-006  0.9118800E+02  0.7816164E-02  0.1184000E+00
        -11   -1    0    0    0    0  0.00000000000E+00  0.00000000000E+00  0.45593999997E+02  0.45594000000E+02  0.51100000000E-03 0.  1.
         11   -1    0    0    0    0 -0.00000000000E+00 -0.00000000000E+00 -0.45593999997E+02  0.45594000000E+02  0.51100000000E-03 0. -1.
         23    2    1    2    0    0  0.00000000000E+00 -0.88817841970E-15  0.00000000000E+00  0.91188000000E+02  0.91188000000E+02 0.  0.
    9900012    2    3    3    0    0 -0.33819384742E+02  0.15403553242E+01  0.14479560978E+02  0.54367066213E+02  0.39999959046E+02 0.  0.
        -12    1    3    3    0    0  0.33819384742E+02 -0.15403553242E+01 -0.14479560978E+02  0.36820933787E+02  0.00000000000E+00 0.  1.
         11    1    4    4    0    0 -0.24550290662E+02  0.93019327459E+01  0.12251306538E+01  0.26282002773E+02  0.51100000000E-03 0. -1.
        -11    1    4    4    0    0 -0.77760226247E+01  0.39359324245E+01  0.13753145313E+02  0.16282109758E+02  0.51100000000E-03 0.  1.
         12    1    4    4    0    0 -0.14930714551E+01 -0.11697509846E+02 -0.49871498881E+00  0.11802953682E+02  0.00000000000E+00 0. -1.
</event>
<event>
 8    1  0.1210161E-006  0.9118800E+02  0.7816164E-02  0.1184000E+00
        -11   -1    0    0    0    0  0.00000000000E+00  0.00000000000E+00  0.45593999997E+02  0.45594000000E+02  0.51100000000E-03 0. -1.
         11   -1    0    0    0    0 -0.00000000000E+00 -0.00000000000E+00 -0.45593999997E+02  0.45594000000E+02  0.51100000000E-03 0.  1.
         23    2    1    2    0    0  0.00000000000E+00 -0.88817841970E-15  0.88817841970E-15  0.91188000000E+02  0.91188000000E+02 0.  0.
    9900012    2    3    3    0    0 -0.35940258193E+02 -0.21190263533E+01 -0.77193782098E+01  0.54367065308E+02  0.39999956982E+02 0.  0.
         12    1    3    3    0    0  0.35940258193E+02  0.21190263533E+01  0.77193782098E+01  0.36820934692E+02  0.00000000000E+00 0. -1.
         11    1    4    4    0    0  0.53871498243E+01 -0.84937797382E+00 -0.30975931795E+01  0.62719940959E+01  0.51100000000E-03 0. -1.
        -11    1    4    4    0    0 -0.39138355951E+01  0.47274299495E+01  0.61643455077E+01  0.86986124637E+01  0.51100000000E-03 0.  1.
        -12    1    4    4    0    0 -0.37413572422E+02 -0.59970783290E+01 -0.10786130538E+02  0.39396458748E+02  0.00000000000E+00 0.  1.
</event>
<event>
 8    1  0.1210161E-006  0.9118800E+02  0.7816164E-02  0.1184000E+00
        -11   -1    0    0    0    0  0.00000000000E+00  0.00000000000E+00  0.45593999997E+02  0.45594000000E+02  0.51100000000E-03 0. -1.
         11   -1    0    0    0    0 -0.00000000000E+00 -0.00000000000E+00 -0.45593999997E+02  0.45594000000E+02  0.51100000000E-03 0.  1.
         23    2    1    2    0    0  0.00000000000E+00  0.17763568394E-14  0.00000000000E+00  0.91188000000E+02  0.91188000000E+02 0.  0.
    9900012    2    3    3    0    0 -0.12867255012E+01 -0.15825063996E+02 -0.33221853843E+02  0.54367083583E+02  0.39999998645E+02 0.  0.
         12    1    3    3    0    0  0.12867255012E+01  0.15825063996E+02  0.33221853843E+02  0.36820916417E+02  0.00000000000E+00 0. -1.
         11    1    4    4    0    0 -0.12871004068E+00 -0.44870278593E+01  0.50569550790E+01  0.67618621856E+01  0.51100000000E-03 0. -1.
        -11    1    4    4    0    0  0.16675317665E+01 -0.12899310839E+02 -0.46364208062E+01  0.13808304764E+02  0.51100000000E-03 0.  1.
        -12    1    4    4    0    0 -0.28255472270E+01  0.15612747017E+01 -0.33642388116E+02  0.33796916634E+02  0.00000000000E+00 0.  1.
</event>
<event>
 8    1  0.1210161E-006  0.9118800E+02  0.7816164E-02  0.1184000E+00
        -11   -1    0    0    0    0  0.00000000000E+00  0.00000000000E+00  0.45593999997E+02  0.45594000000E+02  0.51100000000E-03 0.  1.
         11   -1    0    0    0    0 -0.00000000000E+00 -0.00000000000E+00 -0.45593999997E+02  0.45594000000E+02  0.51100000000E-03 0. -1.
         23    2    1    2    0    0  0.00000000000E+00 -0.35527136788E-14  0.35527136788E-14  0.91188000000E+02  0.91188000000E+02 0.  0.
    9900012    2    3    3    0    0  0.22000904162E+02  0.17931267431E+02 -0.23456538040E+02  0.54367091369E+02  0.40000016393E+02 0.  0.
        -12    1    3    3    0    0 -0.22000904162E+02 -0.17931267431E+02  0.23456538040E+02  0.36820908631E+02  0.00000000000E+00 0.  1.
         11    1    4    4    0    0  0.12134506801E+01  0.81353364627E+01 -0.12482744182E+02  0.14949082396E+02  0.51100000000E-03 0. -1.
        -11    1    4    4    0    0  0.26119511251E+02  0.41919891847E+01 -0.57797811353E+00  0.26460077480E+02  0.51100000000E-03 0.  1.
        -12    1    4    4    0    0 -0.53320577690E+01  0.56039417831E+01 -0.10395815745E+02  0.12957931492E+02  0.00000000000E+00 0.  1.
</event>
<event>
 8    1  0.1210161E-006  0.9118800E+02  0.7816164E-02  0.1184000E+00
        -11   -1    0    0    0    0  0.00000000000E+00  0.00000000000E+00  0.45593999997E+02  0.45594000000E+02  0.51100000000E-03 0.  1.
         11   -1    0    0    0    0 -0.00000000000E+00 -0.00000000000E+00 -0.45593999997E+02  0.45594000000E+02  0.51100000000E-03 0. -1.
         23    2    1    2    0    0  0.00000000000E+00 -0.17763568394E-14 -0.35527136788E-14  0.91188000000E+02  0.91188000000E+02 0.  0.
    9900012    2    3    3    0    0 -0.16181245067E+02 -0.13866190102E+02 -0.30027956766E+02  0.54367053415E+02  0.39999929871E+02 0.  0.
        -12    1    3    3    0    0  0.16181245067E+02  0.13866190102E+02  0.30027956766E+02  0.36820946585E+02  0.00000000000E+00 0.  1.
         11    1    4    4    0    0 -0.10970089711E+02 -0.13986769002E+02 -0.71568164031E+01  0.19162270134E+02  0.51100000000E-03 0. -1.
        -11    1    4    4    0    0 -0.12334623686E+02  0.18893954157E+01 -0.14516671649E+01  0.12562646788E+02  0.51100000000E-03 0.  1.
         12    1    4    4    0    0  0.71234683297E+01 -0.17688165160E+01 -0.21419473198E+02  0.22642136493E+02  0.00000000000E+00 0. -1.
</event>
<event>
 8    1  0.1210161E-006  0.9118800E+02  0.7816164E-02  0.1184000E+00
        -11   -1    0    0    0    0  0.00000000000E+00  0.00000000000E+00  0.45593999997E+02  0.45594000000E+02  0.51100000000E-03 0.  1.
         11   -1    0    0    0    0 -0.00000000000E+00 -0.00000000000E+00 -0.45593999997E+02  0.45594000000E+02  0.51100000000E-03 0. -1.
         23    2    1    2    0    0  0.35527136788E-14  0.00000000000E+00  0.00000000000E+00  0.91188000000E+02  0.91188000000E+02 0.  0.
    9900012    2    3    3    0    0 -0.19337947613E+02  0.81805876039E+01  0.30247328019E+02  0.54367094474E+02  0.40000023472E+02 0.  0.
         12    1    3    3    0    0  0.19337947613E+02 -0.81805876039E+01 -0.30247328019E+02  0.36820905526E+02  0.00000000000E+00 0. -1.
         11    1    4    4    0    0 -0.19690416492E+02 -0.15393632900E+00  0.19833316947E+01  0.19790649380E+02  0.51100000000E-03 0. -1.
        -11    1    4    4    0    0 -0.54220240112E+01  0.11922388426E+02  0.17843614256E+02  0.22134503838E+02  0.51100000000E-03 0.  1.
         12    1    4    4    0    0  0.57744928898E+01 -0.35878644935E+01  0.10420382069E+02  0.12441941256E+02  0.00000000000E+00 0. -1.
</event>
<event>
 8    1  0.1210161E-006  0.9118800E+02  0.7816164E-02  0.1184000E+00
        -11   -1    0    0    0    0  0.00000000000E+00  0.00000000000E+00  0.45593999997E+02  0.45594000000E+02  0.51100000000E-03 0.  1.
         11   -1    0    0    0    0 -0.00000000000E+00 -0.00000000000E+00 -0.45593999997E+02  0.45594000000E+02  0.51100000000E-03 0. -1.
         23    2    1    2    0    0 -0.71054273576E-14  0.00000000000E+00  0.00000000000E+00  0.91188000000E+02  0.91188000000E+02 0.  0.
    9900012    2    3    3    0    0  0.30761904825E+02 -0.18970002797E+02  0.70444066400E+01  0.54367089372E+02  0.40000011841E+02 0.  0.
         12    1    3    3    0    0 -0.30761904825E+02  0.18970002797E+02 -0.70444066400E+01  0.36820910628E+02  0.00000000000E+00 0. -1.
         11    1    4    4    0    0 -0.78104565519E+01 -0.28350318972E+01  0.86678124790E+01  0.12007148323E+02  0.51100000000E-03 0.  1.
        -11    1    4    4    0    0  0.23451680847E+02 -0.72335352628E+01  0.12792577444E+01  0.24575228739E+02  0.51100000000E-03 0. -1.
        -12    1    4    4    0    0  0.15120680530E+02 -0.89014356372E+01 -0.29026635834E+01  0.17784712311E+02  0.00000000000E+00 0.  1.
</event>
<event>
 8    1  0.1210161E-006  0.9118800E+02  0.7816164E-02  0.1184000E+00
        -11   -1    0    0    0    0  0.00000000000E+00  0.00000000000E+00  0.45593999997E+02  0.45594000000E+02  0.51100000000E-03 0. -1.
         11   -1    0    0    0    0 -0.00000000000E+00 -0.00000000000E+00 -0.45593999997E+02  0.45594000000E+02  0.51100000000E-03 0.  1.
         23    2    1    2    0    0  0.00000000000E+00 -0.17763568394E-14  0.00000000000E+00  0.91188000000E+02  0.91188000000E+02 0.  0.
    9900012    2    3    3    0    0 -0.89567168984E+01 -0.10006353185E+02  0.34284526346E+02  0.54367100657E+02  0.40000037568E+02 0.  0.
        -12    1    3    3    0    0  0.89567168984E+01  0.10006353185E+02 -0.34284526346E+02  0.36820899343E+02  0.00000000000E+00 0.  1.
         11    1    4    4    0    0 -0.21897814648E+02 -0.14814288592E+02  0.18781675696E+02  0.32430368100E+02  0.51100000000E-03 0. -1.
        -11    1    4    4    0    0  0.87418745868E+01  0.28261860990E+01  0.50150872799E+01  0.10467033956E+02  0.51100000000E-03 0.  1.
         12    1    4    4    0    0  0.41992231630E+01  0.19817493085E+01  0.10487763370E+02  0.11469698601E+02  0.00000000000E+00 0. -1.
</event>
<event>
 8    1  0.1210161E-006  0.9118800E+02  0.7816164E-02  0.1184000E+00
        -11   -1    0    0    0    0  0.00000000000E+00  0.00000000000E+00  0.45593999997E+02  0.45594000000E+02  0.51100000000E-03 0. -1.
         11   -1    0    0    0    0 -0.00000000000E+00 -0.00000000000E+00 -0.45593999997E+02  0.45594000000E+02  0.51100000000E-03 0.  1.
         23    2    1    2    0    0  0.00000000000E+00 -0.35527136788E-14  0.44408920985E-15  0.91188000000E+02  0.91188000000E+02 0.  0.
    9900012    2    3    3    0    0 -0.22202033856E+02 -0.29141184647E+02 -0.36934205683E+01  0.54367077884E+02  0.39999985651E+02 0.  0.
         12    1    3    3    0    0  0.22202033856E+02  0.29141184647E+02  0.36934205683E+01  0.36820922116E+02  0.00000000000E+00 0. -1.
         11    1    4    4    0    0 -0.29173556235E+02 -0.26748263343E+02 -0.57267331336E+01  0.39992017302E+02  0.51100000000E-03 0. -1.
        -11    1    4    4    0    0 -0.14406223362E+00  0.13974443995E+01 -0.40426083486E+01  0.42797531819E+01  0.51100000000E-03 0.  1.
         12    1    4    4    0    0  0.71155846122E+01 -0.37903657035E+01  0.60759209139E+01  0.10095307400E+02  0.00000000000E+00 0. -1.
</event>
<event>
 8    1  0.1210161E-006  0.9118800E+02  0.7816164E-02  0.1184000E+00
        -11   -1    0    0    0    0  0.00000000000E+00  0.00000000000E+00  0.45593999997E+02  0.45594000000E+02  0.51100000000E-03 0.  1.
         11   -1    0    0    0    0 -0.00000000000E+00 -0.00000000000E+00 -0.45593999997E+02  0.45594000000E+02  0.51100000000E-03 0. -1.
         23    2    1    2    0    0 -0.88817841970E-15  0.17763568394E-14  0.00000000000E+00  0.91188000000E+02  0.91188000000E+02 0.  0.
    9900012    2    3    3    0    0 -0.74261036580E+01  0.94595861784E+01 -0.34801598291E+02  0.54367054469E+02  0.39999932273E+02 0.  0.
        -12    1    3    3    0    0  0.74261036580E+01 -0.94595861784E+01  0.34801598291E+02  0.36820945531E+02  0.00000000000E+00 0.  1.
         11    1    4    4    0    0  0.30740663212E-01 -0.11995798956E+02 -0.26469012743E+02  0.29060433126E+02  0.51100000000E-03 0. -1.
        -11    1    4    4    0    0 -0.17307962862E+00  0.11283099214E+02 -0.51075700136E+01  0.12386507019E+02  0.51100000000E-03 0.  1.
         12    1    4    4    0    0 -0.72837646926E+01  0.10172285921E+02 -0.32250155343E+01  0.12920114325E+02  0.00000000000E+00 0. -1.
</event>
<event>
 8    1  0.1210161E-006  0.9118800E+02  0.7816164E-02  0.1184000E+00
        -11   -1    0    0    0    0  0.00000000000E+00  0.00000000000E+00  0.45593999997E+02  0.45594000000E+02  0.51100000000E-03 0. -1.
         11   -1    0    0    0    0 -0.00000000000E+00 -0.00000000000E+00 -0.45593999997E+02  0.45594000000E+02  0.51100000000E-03 0.  1.
         23    2    1    2    0    0 -0.71054273576E-14  0.17763568394E-14  0.00000000000E+00  0.91188000000E+02  0.91188000000E+02 0.  0.
    9900012    2    3    3    0    0  0.27914798145E+02 -0.13858912766E+02 -0.19607975027E+02  0.54367107790E+02  0.40000053828E+02 0.  0.
         12    1    3    3    0    0 -0.27914798145E+02  0.13858912766E+02  0.19607975027E+02  0.36820892210E+02  0.00000000000E+00 0. -1.
         11    1    4    4    0    0 -0.14702902463E+01 -0.24952539404E+01 -0.37234837623E+00  0.29200495218E+01  0.51100000000E-03 0. -1.
        -11    1    4    4    0    0  0.29588301188E+02 -0.96617558964E+01  0.99716656753E+00  0.31141795639E+02  0.51100000000E-03 0.  1.
         12    1    4    4    0    0 -0.20321279677E+00 -0.17019029293E+01 -0.20232793218E+02  0.20305262629E+02  0.00000000000E+00 0. -1.
</event>
<event>
 8    1  0.1210161E-006  0.9118800E+02  0.7816164E-02  0.1184000E+00
        -11   -1    0    0    0    0  0.00000000000E+00  0.00000000000E+00  0.45593999997E+02  0.45594000000E+02  0.51100000000E-03 0.  1.
         11   -1    0    0    0    0 -0.00000000000E+00 -0.00000000000E+00 -0.45593999997E+02  0.45594000000E+02  0.51100000000E-03 0. -1.
         23    2    1    2    0    0  0.00000000000E+00  0.00000000000E+00  0.00000000000E+00  0.91188000000E+02  0.91188000000E+02 0.  0.
    9900012    2    3    3    0    0 -0.89557018709E+01 -0.14186293393E+01 -0.35687005355E+02  0.54367089413E+02  0.40000011936E+02 0.  0.
        -12    1    3    3    0    0  0.89557018709E+01  0.14186293393E+01  0.35687005355E+02  0.36820910587E+02  0.00000000000E+00 0.  1.
         11    1    4    4    0    0 -0.75168407499E+01 -0.16508934370E+01 -0.16358710429E+02  0.18078599259E+02  0.51100000000E-03 0. -1.
        -11    1    4    4    0    0 -0.15135257374E+02  0.30673135049E+01 -0.49194708258E+01  0.16207579134E+02  0.51100000000E-03 0.  1.
         12    1    4    4    0    0  0.13696396253E+02 -0.28350494072E+01 -0.14408824100E+02  0.20080911021E+02  0.00000000000E+00 0. -1.
</event>
<event>
 8    1  0.1210161E-006  0.9118800E+02  0.7816164E-02  0.1184000E+00
        -11   -1    0    0    0    0  0.00000000000E+00  0.00000000000E+00  0.45593999997E+02  0.45594000000E+02  0.51100000000E-03 0.  1.
         11   -1    0    0    0    0 -0.00000000000E+00 -0.00000000000E+00 -0.45593999997E+02  0.45594000000E+02  0.51100000000E-03 0. -1.
         23    2    1    2    0    0  0.00000000000E+00  0.00000000000E+00  0.00000000000E+00  0.91188000000E+02  0.91188000000E+02 0.  0.
    9900012    2    3    3    0    0  0.33736093413E+02  0.94454727661E+01 -0.11333050341E+02  0.54367095821E+02  0.40000026542E+02 0.  0.
        -12    1    3    3    0    0 -0.33736093413E+02 -0.94454727661E+01  0.11333050341E+02  0.36820904179E+02  0.00000000000E+00 0.  1.
         11    1    4    4    0    0  0.17292409473E+02 -0.31903143447E+01  0.40367905393E+01  0.18041652062E+02  0.51100000000E-03 0. -1.
        -11    1    4    4    0    0  0.11636276543E+02  0.18569524587E+02 -0.34718680915E+01  0.22187474923E+02  0.51100000000E-03 0.  1.
         12    1    4    4    0    0  0.48074073971E+01 -0.59337374758E+01 -0.11897972789E+02  0.14137968836E+02  0.00000000000E+00 0. -1.
</event>
<event>
 8    1  0.1210161E-006  0.9118800E+02  0.7816164E-02  0.1184000E+00
        -11   -1    0    0    0    0  0.00000000000E+00  0.00000000000E+00  0.45593999997E+02  0.45594000000E+02  0.51100000000E-03 0.  1.
         11   -1    0    0    0    0 -0.00000000000E+00 -0.00000000000E+00 -0.45593999997E+02  0.45594000000E+02  0.51100000000E-03 0. -1.
         23    2    1    2    0    0  0.00000000000E+00 -0.17763568394E-14  0.00000000000E+00  0.91188000000E+02  0.91188000000E+02 0.  0.
    9900012    2    3    3    0    0  0.21951973624E+02  0.28952876602E+01  0.29419510202E+02  0.54367089947E+02  0.40000013151E+02 0.  0.
         12    1    3    3    0    0 -0.21951973624E+02 -0.28952876602E+01 -0.29419510202E+02  0.36820910053E+02  0.00000000000E+00 0. -1.
         11    1    4    4    0    0  0.25390984134E+02  0.10982915382E+02  0.11207232320E+02  0.29848426460E+02  0.51100000000E-03 0. -1.
        -11    1    4    4    0    0 -0.87831646368E+01 -0.47096557966E+01  0.12597917536E+02  0.16063385859E+02  0.51100000000E-03 0.  1.
        -12    1    4    4    0    0  0.53441541266E+01 -0.33779719256E+01  0.56143603473E+01  0.84552776281E+01  0.00000000000E+00 0.  1.
</event>
<event>
 8    1  0.1210161E-006  0.9118800E+02  0.7816164E-02  0.1184000E+00
        -11   -1    0    0    0    0  0.00000000000E+00  0.00000000000E+00  0.45593999997E+02  0.45594000000E+02  0.51100000000E-03 0. -1.
         11   -1    0    0    0    0 -0.00000000000E+00 -0.00000000000E+00 -0.45593999997E+02  0.45594000000E+02  0.51100000000E-03 0.  1.
         23    2    1    2    0    0 -0.35527136788E-14  0.35527136788E-14 -0.35527136788E-14  0.91188000000E+02  0.91188000000E+02 0.  0.
    9900012    2    3    3    0    0 -0.16494918761E+02  0.20525775899E+02  0.25736940629E+02  0.54367082927E+02  0.39999997148E+02 0.  0.
        -12    1    3    3    0    0  0.16494918761E+02 -0.20525775899E+02 -0.25736940629E+02  0.36820917073E+02  0.00000000000E+00 0.  1.
         11    1    4    4    0    0 -0.95747760129E+01  0.10831617489E+02 -0.45485188510E+01  0.15155503856E+02  0.51100000000E-03 0. -1.
        -11    1    4    4    0    0 -0.11337746284E+02 -0.15990564618E+01  0.84342751508E+01  0.14221057273E+02  0.51100000000E-03 0.  1.
        -12    1    4    4    0    0  0.44176035361E+01  0.11293214872E+02  0.21851184329E+02  0.24990521798E+02  0.00000000000E+00 0.  1.
</event>
<event>
 8    1  0.1210161E-006  0.9118800E+02  0.7816164E-02  0.1184000E+00
        -11   -1    0    0    0    0  0.00000000000E+00  0.00000000000E+00  0.45593999997E+02  0.45594000000E+02  0.51100000000E-03 0.  1.
         11   -1    0    0    0    0 -0.00000000000E+00 -0.00000000000E+00 -0.45593999997E+02  0.45594000000E+02  0.51100000000E-03 0. -1.
         23    2    1    2    0    0  0.00000000000E+00 -0.44408920985E-15  0.00000000000E+00  0.91188000000E+02  0.91188000000E+02 0.  0.
    9900012    2    3    3    0    0  0.14863319393E+02 -0.36420480765E+01  0.33490263271E+02  0.54367075086E+02  0.39999979273E+02 0.  0.
         12    1    3    3    0    0 -0.14863319393E+02  0.36420480765E+01 -0.33490263271E+02  0.36820924914E+02  0.00000000000E+00 0. -1.
         11    1    4    4    0    0  0.88562973133E+01 -0.39374823013E+01 -0.33024682110E+01  0.10239339115E+02  0.51100000000E-03 0. -1.
        -11    1    4    4    0    0  0.56952815442E+01 -0.10464063629E+02  0.27259038692E+02  0.29748748716E+02  0.51100000000E-03 0.  1.
        -12    1    4    4    0    0  0.31174053537E+00  0.10759497854E+02  0.95336927900E+01  0.14378987254E+02  0.00000000000E+00 0.  1.
</event>
<event>
 8    1  0.1210161E-006  0.9118800E+02  0.7816164E-02  0.1184000E+00
        -11   -1    0    0    0    0  0.00000000000E+00  0.00000000000E+00  0.45593999997E+02  0.45594000000E+02  0.51100000000E-03 0.  1.
         11   -1    0    0    0    0 -0.00000000000E+00 -0.00000000000E+00 -0.45593999997E+02  0.45594000000E+02  0.51100000000E-03 0. -1.
         23    2    1    2    0    0  0.00000000000E+00 -0.44408920985E-15  0.00000000000E+00  0.91188000000E+02  0.91188000000E+02 0.  0.
    9900012    2    3    3    0    0 -0.28621596620E+02  0.36463315393E+01 -0.22875482339E+02  0.54367092637E+02  0.40000019285E+02 0.  0.
        -12    1    3    3    0    0  0.28621596620E+02 -0.36463315393E+01  0.22875482339E+02  0.36820907363E+02  0.00000000000E+00 0.  1.
         11    1    4    4    0    0  0.10043554613E+01 -0.10751020136E+01 -0.90074657763E+00  0.17250851835E+01  0.51100000000E-03 0. -1.
        -11    1    4    4    0    0 -0.14914539862E+02 -0.12551102948E+02  0.20462307825E+01  0.19600019009E+02  0.51100000000E-03 0.  1.
        -12    1    4    4    0    0 -0.14711412220E+02  0.17272536501E+02 -0.24020966543E+02  0.33041988444E+02  0.00000000000E+00 0.  1.
</event>
<event>
 8    1  0.1210161E-006  0.9118800E+02  0.7816164E-02  0.1184000E+00
        -11   -1    0    0    0    0  0.00000000000E+00  0.00000000000E+00  0.45593999997E+02  0.45594000000E+02  0.51100000000E-03 0. -1.
         11   -1    0    0    0    0 -0.00000000000E+00 -0.00000000000E+00 -0.45593999997E+02  0.45594000000E+02  0.51100000000E-03 0.  1.
         23    2    1    2    0    0  0.17763568394E-14  0.00000000000E+00  0.00000000000E+00  0.91188000000E+02  0.91188000000E+02 0.  0.
    9900012    2    3    3    0    0 -0.15591984119E+02 -0.30282685066E+02  0.13986760546E+02  0.54367075865E+02  0.39999981050E+02 0.  0.
         12    1    3    3    0    0  0.15591984119E+02  0.30282685066E+02 -0.13986760546E+02  0.36820924135E+02  0.00000000000E+00 0. -1.
         11    1    4    4    0    0 -0.52645106623E+01 -0.57641872822E+01  0.99565003684E+01  0.12651989068E+02  0.51100000000E-03 0. -1.
        -11    1    4    4    0    0  0.43791262132E+01 -0.22397569106E+02  0.10963357524E+02  0.25318433141E+02  0.51100000000E-03 0.  1.
         12    1    4    4    0    0 -0.14706599670E+02 -0.21209286780E+01 -0.69330973466E+01  0.16396653656E+02  0.00000000000E+00 0. -1.
</event>
<event>
 8    1  0.1210161E-006  0.9118800E+02  0.7816164E-02  0.1184000E+00
        -11   -1    0    0    0    0  0.00000000000E+00  0.00000000000E+00  0.45593999997E+02  0.45594000000E+02  0.51100000000E-03 0. -1.
         11   -1    0    0    0    0 -0.00000000000E+00 -0.00000000000E+00 -0.45593999997E+02  0.45594000000E+02  0.51100000000E-03 0.  1.
         23    2    1    2    0    0 -0.71054273576E-14  0.22204460493E-14  0.00000000000E+00  0.91188000000E+02  0.91188000000E+02 0.  0.
    9900012    2    3    3    0    0 -0.36438261818E+02 -0.22801933276E+01 -0.47782012298E+01  0.54367117163E+02  0.40000075196E+02 0.  0.
        -12    1    3    3    0    0  0.36438261818E+02  0.22801933276E+01  0.47782012298E+01  0.36820882837E+02  0.00000000000E+00 0.  1.
         11    1    4    4    0    0 -0.12844467769E+02  0.10321476873E+02 -0.26567469271E+01  0.16690462594E+02  0.51100000000E-03 0. -1.
        -11    1    4    4    0    0 -0.38809728463E+00 -0.14257208454E+02 -0.20699904842E+01  0.14411921221E+02  0.51100000000E-03 0.  1.
         12    1    4    4    0    0 -0.23205696764E+02  0.16555382532E+01 -0.51463818499E-01  0.23264733348E+02  0.00000000000E+00 0. -1.
</event>
<event>
 8    1  0.1210161E-006  0.9118800E+02  0.7816164E-02  0.1184000E+00
        -11   -1    0    0    0    0  0.00000000000E+00  0.00000000000E+00  0.45593999997E+02  0.45594000000E+02  0.51100000000E-03 0. -1.
         11   -1    0    0    0    0 -0.00000000000E+00 -0.00000000000E+00 -0.45593999997E+02  0.45594000000E+02  0.51100000000E-03 0.  1.
         23    2    1    2    0    0 -0.44408920985E-15  0.00000000000E+00  0.00000000000E+00  0.91188000000E+02  0.91188000000E+02 0.  0.
    9900012    2    3    3    0    0  0.38924235677E+01 -0.28209587321E+02 -0.23342026205E+02  0.54367055344E+02  0.39999934267E+02 0.  0.
         12    1    3    3    0    0 -0.38924235677E+01  0.28209587321E+02  0.23342026205E+02  0.36820944656E+02  0.00000000000E+00 0. -1.
         11    1    4    4    0    0  0.39504154386E+01  0.62840414045E+01 -0.16438299005E+01  0.76024427334E+01  0.51100000000E-03 0. -1.
        -11    1    4    4    0    0 -0.42637123262E+01 -0.25093959341E+02 -0.32812367501E+01  0.25664227109E+02  0.51100000000E-03 0.  1.
        -12    1    4    4    0    0  0.42057204553E+01 -0.93996693838E+01 -0.18416959555E+02  0.21100385502E+02  0.00000000000E+00 0.  1.
</event>
<event>
 8    1  0.1210161E-006  0.9118800E+02  0.7816164E-02  0.1184000E+00
        -11   -1    0    0    0    0  0.00000000000E+00  0.00000000000E+00  0.45593999997E+02  0.45594000000E+02  0.51100000000E-03 0.  1.
         11   -1    0    0    0    0 -0.00000000000E+00 -0.00000000000E+00 -0.45593999997E+02  0.45594000000E+02  0.51100000000E-03 0. -1.
         23    2    1    2    0    0  0.71054273576E-14  0.00000000000E+00  0.00000000000E+00  0.91188000000E+02  0.91188000000E+02 0.  0.
    9900012    2    3    3    0    0 -0.32255721150E+02 -0.25850197224E+01  0.17568844947E+02  0.54367106656E+02  0.40000051244E+02 0.  0.
         12    1    3    3    0    0  0.32255721150E+02  0.25850197224E+01 -0.17568844947E+02  0.36820893344E+02  0.00000000000E+00 0. -1.
         11    1    4    4    0    0 -0.17296583697E+02 -0.89502460473E+01  0.87310992615E+01  0.21342699138E+02  0.51100000000E-03 0. -1.
        -11    1    4    4    0    0 -0.89888555087E+01  0.11208994196E+02  0.16698472527E+02  0.22029073046E+02  0.51100000000E-03 0.  1.
        -12    1    4    4    0    0 -0.59702819442E+01 -0.48437678710E+01 -0.78607268424E+01  0.10995334473E+02  0.00000000000E+00 0.  1.
</event>
<event>
 8    1  0.1210161E-006  0.9118800E+02  0.7816164E-02  0.1184000E+00
        -11   -1    0    0    0    0  0.00000000000E+00  0.00000000000E+00  0.45593999997E+02  0.45594000000E+02  0.51100000000E-03 0.  1.
         11   -1    0    0    0    0 -0.00000000000E+00 -0.00000000000E+00 -0.45593999997E+02  0.45594000000E+02  0.51100000000E-03 0. -1.
         23    2    1    2    0    0  0.44408920985E-15  0.00000000000E+00 -0.14210854715E-13  0.91188000000E+02  0.91188000000E+02 0.  0.
    9900012    2    3    3    0    0 -0.23882795930E+01 -0.12279963965E+02  0.34630593717E+02  0.54367089968E+02  0.40000013199E+02 0.  0.
         12    1    3    3    0    0  0.23882795930E+01  0.12279963965E+02 -0.34630593717E+02  0.36820910032E+02  0.00000000000E+00 0. -1.
         11    1    4    4    0    0 -0.33999527301E+01 -0.30557385638E+01 -0.34247126805E+01  0.57119063317E+01  0.51100000000E-03 0. -1.
        -11    1    4    4    0    0  0.87009908224E+01 -0.98590832314E+01  0.40111051146E+01  0.13747644451E+02  0.51100000000E-03 0.  1.
         12    1    4    4    0    0 -0.76893176852E+01  0.63485782991E+00  0.34044201283E+02  0.34907539185E+02  0.00000000000E+00 0. -1.
</event>
<event>
 8    1  0.1210161E-006  0.9118800E+02  0.7816164E-02  0.1184000E+00
        -11   -1    0    0    0    0  0.00000000000E+00  0.00000000000E+00  0.45593999997E+02  0.45594000000E+02  0.51100000000E-03 0.  1.
         11   -1    0    0    0    0 -0.00000000000E+00 -0.00000000000E+00 -0.45593999997E+02  0.45594000000E+02  0.51100000000E-03 0. -1.
         23    2    1    2    0    0  0.00000000000E+00  0.00000000000E+00 -0.88817841970E-15  0.91188000000E+02  0.91188000000E+02 0.  0.
    9900012    2    3    3    0    0 -0.19204484753E+02 -0.31386575360E+02 -0.13603230076E+01  0.54367084393E+02  0.40000000491E+02 0.  0.
        -12    1    3    3    0    0  0.19204484753E+02  0.31386575360E+02  0.13603230076E+01  0.36820915607E+02  0.00000000000E+00 0.  1.
         11    1    4    4    0    0 -0.18467379310E+02 -0.43408171176E+01 -0.10095930330E+02  0.21489872064E+02  0.51100000000E-03 0. -1.
        -11    1    4    4    0    0 -0.15732143795E+01  0.17727600639E+01  0.23707846640E+01  0.33523576647E+01  0.51100000000E-03 0.  1.
         12    1    4    4    0    0  0.83610893623E+00 -0.28818518306E+02  0.63648226587E+01  0.29524854665E+02  0.00000000000E+00 0. -1.
</event>
<event>
 8    1  0.1210161E-006  0.9118800E+02  0.7816164E-02  0.1184000E+00
        -11   -1    0    0    0    0  0.00000000000E+00  0.00000000000E+00  0.45593999997E+02  0.45594000000E+02  0.51100000000E-03 0.  1.
         11   -1    0    0    0    0 -0.00000000000E+00 -0.00000000000E+00 -0.45593999997E+02  0.45594000000E+02  0.51100000000E-03 0. -1.
         23    2    1    2    0    0  0.00000000000E+00  0.00000000000E+00  0.00000000000E+00  0.91188000000E+02  0.91188000000E+02 0.  0.
    9900012    2    3    3    0    0  0.12598187305E+02 -0.35349743340E+01  0.34417573666E+02  0.54367085509E+02  0.40000003035E+02 0.  0.
         12    1    3    3    0    0 -0.12598187305E+02  0.35349743340E+01 -0.34417573666E+02  0.36820914491E+02  0.00000000000E+00 0. -1.
         11    1    4    4    0    0 -0.14453110256E+02 -0.11129939829E+01  0.87868002458E+01  0.16951076972E+02  0.51100000000E-03 0. -1.
        -11    1    4    4    0    0  0.69164807513E+01  0.39242721812E-01  0.54885562671E+01  0.88296939999E+01  0.51100000000E-03 0.  1.
         12    1    4    4    0    0  0.20134816810E+02 -0.24612230729E+01  0.20142217153E+02  0.28586314537E+02  0.00000000000E+00 0. -1.
</event>
<event>
 8    1  0.1210161E-006  0.9118800E+02  0.7816164E-02  0.1184000E+00
        -11   -1    0    0    0    0  0.00000000000E+00  0.00000000000E+00  0.45593999997E+02  0.45594000000E+02  0.51100000000E-03 0. -1.
         11   -1    0    0    0    0 -0.00000000000E+00 -0.00000000000E+00 -0.45593999997E+02  0.45594000000E+02  0.51100000000E-03 0.  1.
         23    2    1    2    0    0  0.00000000000E+00  0.00000000000E+00  0.00000000000E+00  0.91188000000E+02  0.91188000000E+02 0.  0.
    9900012    2    3    3    0    0  0.10236521721E+02  0.18808789129E+02  0.29953689513E+02  0.54367076045E+02  0.39999981460E+02 0.  0.
        -12    1    3    3    0    0 -0.10236521721E+02 -0.18808789129E+02 -0.29953689513E+02  0.36820923955E+02  0.00000000000E+00 0.  1.
         11    1    4    4    0    0  0.62860695261E+01  0.53269941106E+01  0.10447028562E+02  0.13305335109E+02  0.51100000000E-03 0. -1.
        -11    1    4    4    0    0 -0.31355190752E+01  0.21591892738E+02  0.20886494557E+02  0.30204088581E+02  0.51100000000E-03 0.  1.
        -12    1    4    4    0    0  0.70859712703E+01 -0.81100977200E+01 -0.13798336059E+01  0.10857652355E+02  0.00000000000E+00 0.  1.
</event>
<event>
 8    1  0.1210161E-006  0.9118800E+02  0.7816164E-02  0.1184000E+00
        -11   -1    0    0    0    0  0.00000000000E+00  0.00000000000E+00  0.45593999997E+02  0.45594000000E+02  0.51100000000E-03 0.  1.
         11   -1    0    0    0    0 -0.00000000000E+00 -0.00000000000E+00 -0.45593999997E+02  0.45594000000E+02  0.51100000000E-03 0. -1.
         23    2    1    2    0    0  0.00000000000E+00 -0.88817841970E-15  0.00000000000E+00  0.91188000000E+02  0.91188000000E+02 0.  0.
    9900012    2    3    3    0    0 -0.18159863312E+02 -0.70889293737E+01 -0.31236928660E+02  0.54367091981E+02  0.40000017790E+02 0.  0.
        -12    1    3    3    0    0  0.18159863312E+02  0.70889293737E+01  0.31236928660E+02  0.36820908019E+02  0.00000000000E+00 0.  1.
         11    1    4    4    0    0 -0.70178787875E+00 -0.20086030620E+02 -0.19703172855E+02  0.28145268752E+02  0.51100000000E-03 0. -1.
        -11    1    4    4    0    0 -0.18112054527E+02  0.10709830415E+02 -0.11146498660E+02  0.23811581622E+02  0.51100000000E-03 0.  1.
         12    1    4    4    0    0  0.65397909327E+00  0.22872708315E+01 -0.38725714512E+00  0.24102416077E+01  0.00000000000E+00 0. -1.
</event>
<event>
 8    1  0.1210161E-006  0.9118800E+02  0.7816164E-02  0.1184000E+00
        -11   -1    0    0    0    0  0.00000000000E+00  0.00000000000E+00  0.45593999997E+02  0.45594000000E+02  0.51100000000E-03 0.  1.
         11   -1    0    0    0    0 -0.00000000000E+00 -0.00000000000E+00 -0.45593999997E+02  0.45594000000E+02  0.51100000000E-03 0. -1.
         23    2    1    2    0    0  0.00000000000E+00  0.00000000000E+00  0.00000000000E+00  0.91188000000E+02  0.91188000000E+02 0.  0.
    9900012    2    3    3    0    0  0.18766094125E+02 -0.24276694048E+02 -0.20353295962E+02  0.54367070909E+02  0.39999969751E+02 0.  0.
        -12    1    3    3    0    0 -0.18766094125E+02  0.24276694048E+02  0.20353295962E+02  0.36820929091E+02  0.00000000000E+00 0.  1.
         11    1    4    4    0    0  0.33913001785E+01 -0.12581538133E+02  0.79527165516E+01  0.15265704029E+02  0.51100000000E-03 0. -1.
        -11    1    4    4    0    0  0.54887765440E+00  0.29337271601E+01  0.10001436591E+01  0.31477467066E+01  0.51100000000E-03 0.  1.
         12    1    4    4    0    0  0.14825916292E+02 -0.14628883075E+02 -0.29306156173E+02  0.35953620173E+02  0.00000000000E+00 0. -1.
</event>
<event>
 8    1  0.1210161E-006  0.9118800E+02  0.7816164E-02  0.1184000E+00
        -11   -1    0    0    0    0  0.00000000000E+00  0.00000000000E+00  0.45593999997E+02  0.45594000000E+02  0.51100000000E-03 0. -1.
         11   -1    0    0    0    0 -0.00000000000E+00 -0.00000000000E+00 -0.45593999997E+02  0.45594000000E+02  0.51100000000E-03 0.  1.
         23    2    1    2    0    0  0.00000000000E+00  0.00000000000E+00 -0.17763568394E-14  0.91188000000E+02  0.91188000000E+02 0.  0.
    9900012    2    3    3    0    0  0.34684402534E+02 -0.32064409028E+01  0.11936904572E+02  0.54367099234E+02  0.40000034325E+02 0.  0.
        -12    1    3    3    0    0 -0.34684402534E+02  0.32064409028E+01 -0.11936904572E+02  0.36820900766E+02  0.00000000000E+00 0.  1.
         11    1    4    4    0    0  0.12453601935E+02  0.17263586092E+02  0.98290258806E+01  0.23446393239E+02  0.51100000000E-03 0. -1.
        -11    1    4    4    0    0  0.72543523104E+01 -0.36244633901E+01  0.21137940925E+01  0.83803632401E+01  0.51100000000E-03 0.  1.
        -12    1    4    4    0    0  0.14976448289E+02 -0.16845563605E+02 -0.59154010603E-02  0.22540342755E+02  0.00000000000E+00 0.  1.
</event>
<event>
 8    1  0.1210161E-006  0.9118800E+02  0.7816164E-02  0.1184000E+00
        -11   -1    0    0    0    0  0.00000000000E+00  0.00000000000E+00  0.45593999997E+02  0.45594000000E+02  0.51100000000E-03 0. -1.
         11   -1    0    0    0    0 -0.00000000000E+00 -0.00000000000E+00 -0.45593999997E+02  0.45594000000E+02  0.51100000000E-03 0.  1.
         23    2    1    2    0    0  0.00000000000E+00 -0.35527136788E-14  0.35527136788E-14  0.91188000000E+02  0.91188000000E+02 0.  0.
    9900012    2    3    3    0    0  0.83956826749E+01  0.28031581437E+02  0.22349991698E+02  0.54367093244E+02  0.40000020669E+02 0.  0.
        -12    1    3    3    0    0 -0.83956826749E+01 -0.28031581437E+02 -0.22349991698E+02  0.36820906756E+02  0.00000000000E+00 0.  1.
         11    1    4    4    0    0  0.34052268029E+01  0.30696777391E+00  0.16193633148E+02  0.16550636048E+02  0.51100000000E-03 0. -1.
        -11    1    4    4    0    0  0.28661687996E+00  0.29758015883E+02 -0.60907937692E-01  0.29759458473E+02  0.51100000000E-03 0.  1.
        -12    1    4    4    0    0  0.47038389920E+01 -0.20334022204E+01  0.62172664871E+01  0.80569987231E+01  0.00000000000E+00 0.  1.
</event>
<event>
 8    1  0.1210161E-006  0.9118800E+02  0.7816164E-02  0.1184000E+00
        -11   -1    0    0    0    0  0.00000000000E+00  0.00000000000E+00  0.45593999997E+02  0.45594000000E+02  0.51100000000E-03 0. -1.
         11   -1    0    0    0    0 -0.00000000000E+00 -0.00000000000E+00 -0.45593999997E+02  0.45594000000E+02  0.51100000000E-03 0.  1.
         23    2    1    2    0    0  0.00000000000E+00  0.00000000000E+00  0.00000000000E+00  0.91188000000E+02  0.91188000000E+02 0.  0.
    9900012    2    3    3    0    0 -0.12299920879E+02 -0.20235278124E+02  0.28196193896E+02  0.54367083599E+02  0.39999998681E+02 0.  0.
        -12    1    3    3    0    0  0.12299920879E+02  0.20235278124E+02 -0.28196193896E+02  0.36820916401E+02  0.00000000000E+00 0.  1.
         11    1    4    4    0    0 -0.76627465195E+01 -0.14455199361E+02  0.25854577087E+02  0.30596235543E+02  0.51100000000E-03 0. -1.
        -11    1    4    4    0    0 -0.12085555320E+02 -0.21158155523E+01 -0.44439981969E+01  0.13049384778E+02  0.51100000000E-03 0.  1.
        -12    1    4    4    0    0  0.74483809609E+01 -0.36642632111E+01  0.67856150058E+01  0.10721463278E+02  0.00000000000E+00 0.  1.
</event>
<event>
 8    1  0.1210161E-006  0.9118800E+02  0.7816164E-02  0.1184000E+00
        -11   -1    0    0    0    0  0.00000000000E+00  0.00000000000E+00  0.45593999997E+02  0.45594000000E+02  0.51100000000E-03 0. -1.
         11   -1    0    0    0    0 -0.00000000000E+00 -0.00000000000E+00 -0.45593999997E+02  0.45594000000E+02  0.51100000000E-03 0.  1.
         23    2    1    2    0    0  0.00000000000E+00  0.00000000000E+00 -0.35527136788E-14  0.91188000000E+02  0.91188000000E+02 0.  0.
    9900012    2    3    3    0    0 -0.24159202292E+02  0.22048567742E+02 -0.16910744218E+02  0.54367086583E+02  0.40000005484E+02 0.  0.
         12    1    3    3    0    0  0.24159202292E+02 -0.22048567742E+02  0.16910744218E+02  0.36820913417E+02  0.00000000000E+00 0. -1.
         11    1    4    4    0    0 -0.41738385554E+01  0.76558697792E+01 -0.22857759664E+02  0.24464473170E+02  0.51100000000E-03 0. -1.
        -11    1    4    4    0    0 -0.13606149083E+02  0.10773056069E+02 -0.37389991688E+01  0.17752919337E+02  0.51100000000E-03 0.  1.
         12    1    4    4    0    0 -0.63792146544E+01  0.36196418930E+01  0.96860146149E+01  0.12149694077E+02  0.00000000000E+00 0. -1.
</event>
<event>
 8    1  0.1210161E-006  0.9118800E+02  0.7816164E-02  0.1184000E+00
        -11   -1    0    0    0    0  0.00000000000E+00  0.00000000000E+00  0.45593999997E+02  0.45594000000E+02  0.51100000000E-03 0.  1.
         11   -1    0    0    0    0 -0.00000000000E+00 -0.00000000000E+00 -0.45593999997E+02  0.45594000000E+02  0.51100000000E-03 0. -1.
         23    2    1    2    0    0 -0.17763568394E-14  0.00000000000E+00  0.00000000000E+00  0.91188000000E+02  0.91188000000E+02 0.  0.
    9900012    2    3    3    0    0  0.11757477974E+02 -0.17435303797E+02  0.30225012353E+02  0.54367089113E+02  0.40000011251E+02 0.  0.
         12    1    3    3    0    0 -0.11757477974E+02  0.17435303797E+02 -0.30225012353E+02  0.36820910887E+02  0.00000000000E+00 0. -1.
         11    1    4    4    0    0  0.11532850646E+02 -0.91328679952E+01  0.80759876588E+01  0.16782058836E+02  0.51100000000E-03 0. -1.
        -11    1    4    4    0    0  0.13417155836E+02 -0.29346120913E+01  0.18207971329E+02  0.22807065551E+02  0.51100000000E-03 0.  1.
         12    1    4    4    0    0 -0.13192528509E+02 -0.53678237104E+01  0.39410533654E+01  0.14777964727E+02  0.00000000000E+00 0. -1.
</event>
<event>
 8    1  0.1210161E-006  0.9118800E+02  0.7816164E-02  0.1184000E+00
        -11   -1    0    0    0    0  0.00000000000E+00  0.00000000000E+00  0.45593999997E+02  0.45594000000E+02  0.51100000000E-03 0.  1.
         11   -1    0    0    0    0 -0.00000000000E+00 -0.00000000000E+00 -0.45593999997E+02  0.45594000000E+02  0.51100000000E-03 0. -1.
         23    2    1    2    0    0  0.00000000000E+00  0.35527136788E-14  0.00000000000E+00  0.91188000000E+02  0.91188000000E+02 0.  0.
    9900012    2    3    3    0    0  0.23697484964E+02 -0.18304561114E+02 -0.21427839003E+02  0.54367081550E+02  0.39999994009E+02 0.  0.
        -12    1    3    3    0    0 -0.23697484964E+02  0.18304561114E+02  0.21427839003E+02  0.36820918450E+02  0.00000000000E+00 0.  1.
         11    1    4    4    0    0  0.92337845304E+01  0.37695234878E+01 -0.24698972075E+02  0.26636653429E+02  0.51100000000E-03 0. -1.
        -11    1    4    4    0    0  0.55112334203E+00 -0.22569345675E+01  0.26293789690E+01  0.35087212206E+01  0.51100000000E-03 0.  1.
         12    1    4    4    0    0  0.13912577091E+02 -0.19817150034E+02  0.64175410358E+00  0.24221706900E+02  0.00000000000E+00 0. -1.
</event>
<event>
 8    1  0.1210161E-006  0.9118800E+02  0.7816164E-02  0.1184000E+00
        -11   -1    0    0    0    0  0.00000000000E+00  0.00000000000E+00  0.45593999997E+02  0.45594000000E+02  0.51100000000E-03 0. -1.
         11   -1    0    0    0    0 -0.00000000000E+00 -0.00000000000E+00 -0.45593999997E+02  0.45594000000E+02  0.51100000000E-03 0.  1.
         23    2    1    2    0    0  0.13322676296E-14  0.17763568394E-14  0.00000000000E+00  0.91188000000E+02  0.91188000000E+02 0.  0.
    9900012    2    3    3    0    0 -0.29604320720E+01  0.18628469578E+01 -0.36654415964E+02  0.54367074339E+02  0.39999977572E+02 0.  0.
         12    1    3    3    0    0  0.29604320720E+01 -0.18628469578E+01  0.36654415964E+02  0.36820925661E+02  0.00000000000E+00 0. -1.
         11    1    4    4    0    0 -0.11880255596E+02 -0.65617056795E+01 -0.14680188713E+02  0.19992608518E+02  0.51100000000E-03 0. -1.
        -11    1    4    4    0    0  0.13331689152E+02  0.20215158524E+01 -0.22868017474E+02  0.26547442163E+02  0.51100000000E-03 0.  1.
         12    1    4    4    0    0 -0.44118656271E+01  0.64030367848E+01  0.89379022259E+00  0.78270236579E+01  0.00000000000E+00 0. -1.
</event>
<event>
 8    1  0.1210161E-006  0.9118800E+02  0.7816164E-02  0.1184000E+00
        -11   -1    0    0    0    0  0.00000000000E+00  0.00000000000E+00  0.45593999997E+02  0.45594000000E+02  0.51100000000E-03 0. -1.
         11   -1    0    0    0    0 -0.00000000000E+00 -0.00000000000E+00 -0.45593999997E+02  0.45594000000E+02  0.51100000000E-03 0.  1.
         23    2    1    2    0    0 -0.35527136788E-14  0.26645352591E-14  0.00000000000E+00  0.91188000000E+02  0.91188000000E+02 0.  0.
    9900012    2    3    3    0    0  0.30718010275E+02  0.49131718887E+01 -0.19698851164E+02  0.54367079989E+02  0.39999990451E+02 0.  0.
         12    1    3    3    0    0 -0.30718010275E+02 -0.49131718887E+01  0.19698851164E+02  0.36820920011E+02  0.00000000000E+00 0. -1.
         11    1    4    4    0    0 -0.41422345502E+00 -0.73925967739E+01  0.34946574028E+01  0.81874720614E+01  0.51100000000E-03 0. -1.
        -11    1    4    4    0    0  0.23119354551E+02 -0.14933586701E+01 -0.18194454611E+02  0.29457984552E+02  0.51100000000E-03 0.  1.
         12    1    4    4    0    0  0.80128791789E+01  0.13799127333E+02 -0.49990539556E+01  0.16721623376E+02  0.00000000000E+00 0. -1.
</event>
<event>
 8    1  0.1210161E-006  0.9118800E+02  0.7816164E-02  0.1184000E+00
        -11   -1    0    0    0    0  0.00000000000E+00  0.00000000000E+00  0.45593999997E+02  0.45594000000E+02  0.51100000000E-03 0.  1.
         11   -1    0    0    0    0 -0.00000000000E+00 -0.00000000000E+00 -0.45593999997E+02  0.45594000000E+02  0.51100000000E-03 0. -1.
         23    2    1    2    0    0 -0.22204460493E-15 -0.35527136788E-14  0.35527136788E-14  0.91188000000E+02  0.91188000000E+02 0.  0.
    9900012    2    3    3    0    0 -0.11030439269E+01  0.30374870064E+02 -0.20782898701E+02  0.54367104903E+02  0.40000047247E+02 0.  0.
        -12    1    3    3    0    0  0.11030439269E+01 -0.30374870064E+02  0.20782898701E+02  0.36820895097E+02  0.00000000000E+00 0.  1.
         11    1    4    4    0    0 -0.12531116005E+02  0.46026537857E+01 -0.21006563705E+02  0.24889536138E+02  0.51100000000E-03 0. -1.
        -11    1    4    4    0    0  0.52795531196E+01  0.20324775278E+02  0.19295627117E+01  0.21087754356E+02  0.51100000000E-03 0.  1.
         12    1    4    4    0    0  0.61485189580E+01  0.54474410006E+01 -0.17058977076E+01  0.83898144092E+01  0.00000000000E+00 0. -1.
</event>
<event>
 8    1  0.1210161E-006  0.9118800E+02  0.7816164E-02  0.1184000E+00
        -11   -1    0    0    0    0  0.00000000000E+00  0.00000000000E+00  0.45593999997E+02  0.45594000000E+02  0.51100000000E-03 0. -1.
         11   -1    0    0    0    0 -0.00000000000E+00 -0.00000000000E+00 -0.45593999997E+02  0.45594000000E+02  0.51100000000E-03 0.  1.
         23    2    1    2    0    0  0.71054273576E-14  0.88817841970E-15 -0.27755575616E-15  0.91188000000E+02  0.91188000000E+02 0.  0.
    9900012    2    3    3    0    0  0.36722619127E+02 -0.26438175550E+01 -0.48872571478E+00  0.54367090456E+02  0.40000014313E+02 0.  0.
        -12    1    3    3    0    0 -0.36722619127E+02  0.26438175550E+01  0.48872571478E+00  0.36820909544E+02  0.00000000000E+00 0.  1.
         11    1    4    4    0    0  0.27287339481E+02  0.16445264087E+01  0.35696781523E+01  0.27568931163E+02  0.51100000000E-03 0. -1.
        -11    1    4    4    0    0  0.72780013553E+01  0.42357197133E+01 -0.12193933551E+02  0.14818995949E+02  0.51100000000E-03 0.  1.
         12    1    4    4    0    0  0.21572782905E+01 -0.85240636770E+01  0.81355296842E+01  0.11979163345E+02  0.00000000000E+00 0. -1.
</event>
<event>
 8    1  0.1210161E-006  0.9118800E+02  0.7816164E-02  0.1184000E+00
        -11   -1    0    0    0    0  0.00000000000E+00  0.00000000000E+00  0.45593999997E+02  0.45594000000E+02  0.51100000000E-03 0. -1.
         11   -1    0    0    0    0 -0.00000000000E+00 -0.00000000000E+00 -0.45593999997E+02  0.45594000000E+02  0.51100000000E-03 0.  1.
         23    2    1    2    0    0 -0.17763568394E-14 -0.35527136788E-14  0.00000000000E+00  0.91188000000E+02  0.91188000000E+02 0.  0.
    9900012    2    3    3    0    0 -0.10417991083E+02 -0.17127399242E+02 -0.30885223646E+02  0.54367090415E+02  0.40000014220E+02 0.  0.
         12    1    3    3    0    0  0.10417991083E+02  0.17127399242E+02  0.30885223646E+02  0.36820909585E+02  0.00000000000E+00 0. -1.
         11    1    4    4    0    0 -0.43869788084E+01 -0.11208709276E+02 -0.19511822622E+02  0.22925792658E+02  0.51100000000E-03 0. -1.
        -11    1    4    4    0    0  0.51476559803E+01 -0.12587472518E+02 -0.12373723293E+02  0.18386186523E+02  0.51100000000E-03 0.  1.
         12    1    4    4    0    0 -0.11178668255E+02  0.66687825524E+01  0.10003222693E+01  0.13055111234E+02  0.00000000000E+00 0. -1.
</event>
<event>
 8    1  0.1210161E-006  0.9118800E+02  0.7816164E-02  0.1184000E+00
        -11   -1    0    0    0    0  0.00000000000E+00  0.00000000000E+00  0.45593999997E+02  0.45594000000E+02  0.51100000000E-03 0.  1.
         11   -1    0    0    0    0 -0.00000000000E+00 -0.00000000000E+00 -0.45593999997E+02  0.45594000000E+02  0.51100000000E-03 0. -1.
         23    2    1    2    0    0  0.00000000000E+00  0.00000000000E+00  0.00000000000E+00  0.91188000000E+02  0.91188000000E+02 0.  0.
    9900012    2    3    3    0    0  0.30940817813E+02  0.12474522194E+02  0.15583116288E+02  0.54367062693E+02  0.39999951021E+02 0.  0.
         12    1    3    3    0    0 -0.30940817813E+02 -0.12474522194E+02 -0.15583116288E+02  0.36820937307E+02  0.00000000000E+00 0. -1.
         11    1    4    4    0    0  0.13257905728E+02  0.88790538388E+01 -0.48983721123E+01  0.16691426271E+02  0.51100000000E-03 0. -1.
        -11    1    4    4    0    0 -0.21854762269E+01  0.47111193446E+01  0.16609851864E+02  0.17402819629E+02  0.51100000000E-03 0.  1.
        -12    1    4    4    0    0  0.19868388313E+02 -0.11156509896E+01  0.38716365360E+01  0.20272816793E+02  0.00000000000E+00 0.  1.
</event>
<event>
 8    1  0.1210161E-006  0.9118800E+02  0.7816164E-02  0.1184000E+00
        -11   -1    0    0    0    0  0.00000000000E+00  0.00000000000E+00  0.45593999997E+02  0.45594000000E+02  0.51100000000E-03 0. -1.
         11   -1    0    0    0    0 -0.00000000000E+00 -0.00000000000E+00 -0.45593999997E+02  0.45594000000E+02  0.51100000000E-03 0.  1.
         23    2    1    2    0    0  0.35527136788E-14  0.00000000000E+00  0.00000000000E+00  0.91188000000E+02  0.91188000000E+02 0.  0.
    9900012    2    3    3    0    0 -0.11029412500E+02 -0.22482970280E+02 -0.26993473394E+02  0.54367088841E+02  0.40000010631E+02 0.  0.
         12    1    3    3    0    0  0.11029412500E+02  0.22482970280E+02  0.26993473394E+02  0.36820911159E+02  0.00000000000E+00 0. -1.
         11    1    4    4    0    0 -0.21365279987E+02 -0.12635065127E+01 -0.62589108302E+01  0.22299004522E+02  0.51100000000E-03 0. -1.
        -11    1    4    4    0    0  0.69904672544E+01 -0.19367988627E+02 -0.16723842610E+02  0.26526826569E+02  0.51100000000E-03 0.  1.
         12    1    4    4    0    0  0.33454002326E+01 -0.18514751409E+01 -0.40107199533E+01  0.55412577505E+01  0.00000000000E+00 0. -1.
</event>
<event>
 8    1  0.1210161E-006  0.9118800E+02  0.7816164E-02  0.1184000E+00
        -11   -1    0    0    0    0  0.00000000000E+00  0.00000000000E+00  0.45593999997E+02  0.45594000000E+02  0.51100000000E-03 0. -1.
         11   -1    0    0    0    0 -0.00000000000E+00 -0.00000000000E+00 -0.45593999997E+02  0.45594000000E+02  0.51100000000E-03 0.  1.
         23    2    1    2    0    0  0.00000000000E+00  0.00000000000E+00  0.17763568394E-14  0.91188000000E+02  0.91188000000E+02 0.  0.
    9900012    2    3    3    0    0 -0.13517113176E+02  0.33853754538E+02  0.51952698484E+01  0.54367083746E+02  0.39999999017E+02 0.  0.
        -12    1    3    3    0    0  0.13517113176E+02 -0.33853754538E+02 -0.51952698484E+01  0.36820916254E+02  0.00000000000E+00 0.  1.
         11    1    4    4    0    0 -0.58234359515E+01  0.10143930530E+00  0.86168438807E+01  0.10400610316E+02  0.51100000000E-03 0. -1.
        -11    1    4    4    0    0 -0.10461783098E+02  0.29423609581E+02 -0.12417646268E+02  0.33606482194E+02  0.51100000000E-03 0.  1.
        -12    1    4    4    0    0  0.27681058737E+01  0.43287056517E+01  0.89960722357E+01  0.10359991236E+02  0.00000000000E+00 0.  1.
</event>
<event>
 8    1  0.1210161E-006  0.9118800E+02  0.7816164E-02  0.1184000E+00
        -11   -1    0    0    0    0  0.00000000000E+00  0.00000000000E+00  0.45593999997E+02  0.45594000000E+02  0.51100000000E-03 0.  1.
         11   -1    0    0    0    0 -0.00000000000E+00 -0.00000000000E+00 -0.45593999997E+02  0.45594000000E+02  0.51100000000E-03 0. -1.
         23    2    1    2    0    0 -0.10547118734E-14  0.00000000000E+00  0.00000000000E+00  0.91188000000E+02  0.91188000000E+02 0.  0.
    9900012    2    3    3    0    0  0.40387960240E+00  0.23504608524E+02  0.28339877855E+02  0.54367103522E+02  0.40000044100E+02 0.  0.
         12    1    3    3    0    0 -0.40387960240E+00 -0.23504608524E+02 -0.28339877855E+02  0.36820896478E+02  0.00000000000E+00 0. -1.
         11    1    4    4    0    0  0.14385829601E+02  0.13550514351E+02  0.13155005307E+02  0.23740739192E+02  0.51100000000E-03 0. -1.
        -11    1    4    4    0    0 -0.14120844159E+02  0.15134855332E+02  0.14767079120E+02  0.25426928868E+02  0.51100000000E-03 0.  1.
         12    1    4    4    0    0  0.13889416042E+00 -0.51807611589E+01  0.41779342737E+00  0.51994354618E+01  0.00000000000E+00 0. -1.
</event>
<event>
 8    1  0.1210161E-006  0.9118800E+02  0.7816164E-02  0.1184000E+00
        -11   -1    0    0    0    0  0.00000000000E+00  0.00000000000E+00  0.45593999997E+02  0.45594000000E+02  0.51100000000E-03 0. -1.
         11   -1    0    0    0    0 -0.00000000000E+00 -0.00000000000E+00 -0.45593999997E+02  0.45594000000E+02  0.51100000000E-03 0.  1.
         23    2    1    2    0    0  0.00000000000E+00  0.00000000000E+00 -0.35527136788E-14  0.91188000000E+02  0.91188000000E+02 0.  0.
    9900012    2    3    3    0    0  0.10449728258E+02  0.29180441427E+02  0.19876741655E+02  0.54367084187E+02  0.40000000020E+02 0.  0.
        -12    1    3    3    0    0 -0.10449728258E+02 -0.29180441427E+02 -0.19876741655E+02  0.36820915813E+02  0.00000000000E+00 0.  1.
         11    1    4    4    0    0 -0.40588447943E+01 -0.50932932403E+01  0.57983591250E+00  0.65385064841E+01  0.51100000000E-03 0.  1.
        -11    1    4    4    0    0  0.18181141826E+02  0.19918385275E+02  0.53792911716E+01  0.27499686613E+02  0.51100000000E-03 0. -1.
        -12    1    4    4    0    0 -0.36725687740E+01  0.14355349393E+02  0.13917614570E+02  0.20328891089E+02  0.00000000000E+00 0.  1.
</event>
<event>
 8    1  0.1210161E-006  0.9118800E+02  0.7816164E-02  0.1184000E+00
        -11   -1    0    0    0    0  0.00000000000E+00  0.00000000000E+00  0.45593999997E+02  0.45594000000E+02  0.51100000000E-03 0. -1.
         11   -1    0    0    0    0 -0.00000000000E+00 -0.00000000000E+00 -0.45593999997E+02  0.45594000000E+02  0.51100000000E-03 0.  1.
         23    2    1    2    0    0  0.44408920985E-15  0.33306690739E-15 -0.71054273576E-14  0.91188000000E+02  0.91188000000E+02 0.  0.
    9900012    2    3    3    0    0  0.20320530376E+01  0.63624993246E+00  0.36759296248E+02  0.54367083197E+02  0.39999997765E+02 0.  0.
        -12    1    3    3    0    0 -0.20320530376E+01 -0.63624993246E+00 -0.36759296248E+02  0.36820916803E+02  0.00000000000E+00 0.  1.
         11    1    4    4    0    0  0.41506725991E+01 -0.43110141907E+01  0.12035770508E+02  0.13441454473E+02  0.51100000000E-03 0. -1.
        -11    1    4    4    0    0 -0.50286600572E+01  0.17819707856E+02  0.19034078625E+02  0.26554200410E+02  0.51100000000E-03 0.  1.
         12    1    4    4    0    0  0.29100404957E+01 -0.12872443732E+02  0.56894471152E+01  0.14371428315E+02  0.00000000000E+00 0. -1.
</event>
<event>
 8    1  0.1210161E-006  0.9118800E+02  0.7816164E-02  0.1184000E+00
        -11   -1    0    0    0    0  0.00000000000E+00  0.00000000000E+00  0.45593999997E+02  0.45594000000E+02  0.51100000000E-03 0.  1.
         11   -1    0    0    0    0 -0.00000000000E+00 -0.00000000000E+00 -0.45593999997E+02  0.45594000000E+02  0.51100000000E-03 0. -1.
         23    2    1    2    0    0  0.71054273576E-14  0.00000000000E+00  0.88817841970E-15  0.91188000000E+02  0.91188000000E+02 0.  0.
    9900012    2    3    3    0    0 -0.35793583314E+02  0.80685330261E+01 -0.30817216690E+01  0.54367097783E+02  0.40000031015E+02 0.  0.
         12    1    3    3    0    0  0.35793583314E+02 -0.80685330261E+01  0.30817216690E+01  0.36820902217E+02  0.00000000000E+00 0. -1.
         11    1    4    4    0    0 -0.41549657064E+01  0.52329447531E+01  0.36235828467E+01  0.76011712070E+01  0.51100000000E-03 0. -1.
        -11    1    4    4    0    0 -0.18854148345E+02 -0.14612768383E+02  0.80760582403E+00  0.23867637861E+02  0.51100000000E-03 0.  1.
        -12    1    4    4    0    0 -0.12784469262E+02  0.17448356656E+02 -0.75129103397E+01  0.22898288715E+02  0.00000000000E+00 0.  1.
</event>
<event>
 8    1  0.1210161E-006  0.9118800E+02  0.7816164E-02  0.1184000E+00
        -11   -1    0    0    0    0  0.00000000000E+00  0.00000000000E+00  0.45593999997E+02  0.45594000000E+02  0.51100000000E-03 0.  1.
         11   -1    0    0    0    0 -0.00000000000E+00 -0.00000000000E+00 -0.45593999997E+02  0.45594000000E+02  0.51100000000E-03 0. -1.
         23    2    1    2    0    0  0.00000000000E+00 -0.15543122345E-14 -0.44408920985E-15  0.91188000000E+02  0.91188000000E+02 0.  0.
    9900012    2    3    3    0    0 -0.36811708455E+02  0.54242314154E+00  0.61873911396E+00  0.54367096422E+02  0.40000027912E+02 0.  0.
         12    1    3    3    0    0  0.36811708455E+02 -0.54242314154E+00 -0.61873911396E+00  0.36820903578E+02  0.00000000000E+00 0. -1.
         11    1    4    4    0    0 -0.69571418866E+01  0.14193419334E+02  0.72087951818E+01  0.17373016544E+02  0.51100000000E-03 0. -1.
        -11    1    4    4    0    0 -0.26458182758E+02 -0.17145982119E+02 -0.56210810895E+01  0.32025250827E+02  0.51100000000E-03 0.  1.
        -12    1    4    4    0    0 -0.33963838109E+01  0.34949859272E+01 -0.96897497839E+00  0.49688290503E+01  0.00000000000E+00 0.  1.
</event>
<event>
 8    1  0.1210161E-006  0.9118800E+02  0.7816164E-02  0.1184000E+00
        -11   -1    0    0    0    0  0.00000000000E+00  0.00000000000E+00  0.45593999997E+02  0.45594000000E+02  0.51100000000E-03 0.  1.
         11   -1    0    0    0    0 -0.00000000000E+00 -0.00000000000E+00 -0.45593999997E+02  0.45594000000E+02  0.51100000000E-03 0. -1.
         23    2    1    2    0    0  0.66613381478E-15  0.00000000000E+00 -0.35527136788E-14  0.91188000000E+02  0.91188000000E+02 0.  0.
    9900012    2    3    3    0    0  0.18808161133E+01 -0.28957273894E+02 -0.22665376532E+02  0.54367075596E+02  0.39999980436E+02 0.  0.
        -12    1    3    3    0    0 -0.18808161133E+01  0.28957273894E+02  0.22665376532E+02  0.36820924404E+02  0.00000000000E+00 0.  1.
         11    1    4    4    0    0 -0.11128417568E+02 -0.26231394066E+02 -0.17765044802E+01  0.28549670413E+02  0.51100000000E-03 0. -1.
        -11    1    4    4    0    0  0.54892976566E+01 -0.17564835069E+01 -0.32469659082E+01  0.66151652241E+01  0.51100000000E-03 0.  1.
         12    1    4    4    0    0  0.75199360250E+01 -0.96939632092E+00 -0.17641906144E+02  0.19202239959E+02  0.00000000000E+00 0. -1.
</event>
<event>
 8    1  0.1210161E-006  0.9118800E+02  0.7816164E-02  0.1184000E+00
        -11   -1    0    0    0    0  0.00000000000E+00  0.00000000000E+00  0.45593999997E+02  0.45594000000E+02  0.51100000000E-03 0.  1.
         11   -1    0    0    0    0 -0.00000000000E+00 -0.00000000000E+00 -0.45593999997E+02  0.45594000000E+02  0.51100000000E-03 0. -1.
         23    2    1    2    0    0  0.88817841970E-15  0.17763568394E-14 -0.71054273576E-14  0.91188000000E+02  0.91188000000E+02 0.  0.
    9900012    2    3    3    0    0 -0.62926947237E+01 -0.11700254739E+02 -0.34340728804E+02  0.54367087157E+02  0.40000006791E+02 0.  0.
        -12    1    3    3    0    0  0.62926947237E+01  0.11700254739E+02  0.34340728804E+02  0.36820912843E+02  0.00000000000E+00 0.  1.
         11    1    4    4    0    0 -0.51340128288E+01  0.22643414198E+01 -0.34543507908E+01  0.65892237357E+01  0.51100000000E-03 0. -1.
        -11    1    4    4    0    0  0.15629651473E+01 -0.20066241769E+02 -0.34678127856E+02  0.40095753773E+02  0.51100000000E-03 0.  1.
        -12    1    4    4    0    0 -0.27216470423E+01  0.61016456101E+01  0.37917498432E+01  0.76821096482E+01  0.00000000000E+00 0.  1.
</event>
<event>
 8    1  0.1210161E-006  0.9118800E+02  0.7816164E-02  0.1184000E+00
        -11   -1    0    0    0    0  0.00000000000E+00  0.00000000000E+00  0.45593999997E+02  0.45594000000E+02  0.51100000000E-03 0. -1.
         11   -1    0    0    0    0 -0.00000000000E+00 -0.00000000000E+00 -0.45593999997E+02  0.45594000000E+02  0.51100000000E-03 0.  1.
         23    2    1    2    0    0  0.00000000000E+00 -0.88817841970E-15  0.00000000000E+00  0.91188000000E+02  0.91188000000E+02 0.  0.
    9900012    2    3    3    0    0 -0.16070739310E+02  0.41697005470E+01 -0.32865255077E+02  0.54367081272E+02  0.39999993377E+02 0.  0.
         12    1    3    3    0    0  0.16070739310E+02 -0.41697005470E+01  0.32865255077E+02  0.36820918728E+02  0.00000000000E+00 0. -1.
         11    1    4    4    0    0 -0.16883726063E+02 -0.19585739268E+01 -0.74892619909E+00  0.17013439050E+02  0.51100000000E-03 0. -1.
        -11    1    4    4    0    0  0.34419803939E+01  0.34112382114E+01 -0.33095313816E+02  0.33448222255E+02  0.51100000000E-03 0.  1.
        -12    1    4    4    0    0 -0.26289936416E+01  0.27170362625E+01  0.97898493737E+00  0.39054199681E+01  0.00000000000E+00 0.  1.
</event>
<event>
 8    1  0.1210161E-006  0.9118800E+02  0.7816164E-02  0.1184000E+00
        -11   -1    0    0    0    0  0.00000000000E+00  0.00000000000E+00  0.45593999997E+02  0.45594000000E+02  0.51100000000E-03 0.  1.
         11   -1    0    0    0    0 -0.00000000000E+00 -0.00000000000E+00 -0.45593999997E+02  0.45594000000E+02  0.51100000000E-03 0. -1.
         23    2    1    2    0    0  0.17763568394E-14  0.00000000000E+00  0.00000000000E+00  0.91188000000E+02  0.91188000000E+02 0.  0.
    9900012    2    3    3    0    0  0.80405857175E+01  0.18926141710E+02  0.30543977588E+02  0.54367021936E+02  0.39999858107E+02 0.  0.
         12    1    3    3    0    0 -0.80405857175E+01 -0.18926141710E+02 -0.30543977588E+02  0.36820978064E+02  0.00000000000E+00 0. -1.
         11    1    4    4    0    0  0.10512385784E+02  0.15617993233E+02 -0.28551380565E+00  0.18828528511E+02  0.51100000000E-03 0. -1.
        -11    1    4    4    0    0  0.10070719904E+01 -0.33929864696E+01 -0.25662916195E+00  0.35485785837E+01  0.51100000000E-03 0.  1.
        -12    1    4    4    0    0 -0.34788720566E+01  0.67011349466E+01  0.31086120555E+02  0.31989914841E+02  0.00000000000E+00 0.  1.
</event>
<event>
 8    1  0.1210161E-006  0.9118800E+02  0.7816164E-02  0.1184000E+00
        -11   -1    0    0    0    0  0.00000000000E+00  0.00000000000E+00  0.45593999997E+02  0.45594000000E+02  0.51100000000E-03 0.  1.
         11   -1    0    0    0    0 -0.00000000000E+00 -0.00000000000E+00 -0.45593999997E+02  0.45594000000E+02  0.51100000000E-03 0. -1.
         23    2    1    2    0    0  0.00000000000E+00 -0.16653345369E-14  0.00000000000E+00  0.91188000000E+02  0.91188000000E+02 0.  0.
    9900012    2    3    3    0    0 -0.27991433766E+02  0.55814197467E+00  0.23915431088E+02  0.54367085687E+02  0.40000003440E+02 0.  0.
         12    1    3    3    0    0  0.27991433766E+02 -0.55814197467E+00 -0.23915431088E+02  0.36820914313E+02  0.00000000000E+00 0. -1.
         11    1    4    4    0    0 -0.64228285553E+01 -0.12055098269E+02 -0.22439579678E+01  0.13842451681E+02  0.51100000000E-03 0. -1.
        -11    1    4    4    0    0 -0.21310134715E+02  0.15224619793E+02  0.27146854680E+02  0.37720851113E+02  0.51100000000E-03 0.  1.
        -12    1    4    4    0    0 -0.25847049562E+00 -0.26113795492E+01 -0.98746562436E+00  0.28037828922E+01  0.00000000000E+00 0.  1.
</event>
<event>
 8    1  0.1210161E-006  0.9118800E+02  0.7816164E-02  0.1184000E+00
        -11   -1    0    0    0    0  0.00000000000E+00  0.00000000000E+00  0.45593999997E+02  0.45594000000E+02  0.51100000000E-03 0.  1.
         11   -1    0    0    0    0 -0.00000000000E+00 -0.00000000000E+00 -0.45593999997E+02  0.45594000000E+02  0.51100000000E-03 0. -1.
         23    2    1    2    0    0  0.00000000000E+00 -0.35527136788E-14 -0.17763568394E-14  0.91188000000E+02  0.91188000000E+02 0.  0.
    9900012    2    3    3    0    0  0.20739548270E+02  0.30238827001E+02 -0.33562674570E+01  0.54367081325E+02  0.39999993497E+02 0.  0.
        -12    1    3    3    0    0 -0.20739548270E+02 -0.30238827001E+02  0.33562674570E+01  0.36820918675E+02  0.00000000000E+00 0.  1.
         11    1    4    4    0    0  0.13775052224E+02  0.84973808650E+01 -0.17905444980E+02  0.24136331650E+02  0.51100000000E-03 0. -1.
        -11    1    4    4    0    0  0.88870966309E+01  0.15335414357E+02  0.47205277961E+01  0.18342268206E+02  0.51100000000E-03 0.  1.
         12    1    4    4    0    0 -0.19226005846E+01  0.64060317789E+01  0.98286497272E+01  0.11888481468E+02  0.00000000000E+00 0. -1.
</event>
<event>
 8    1  0.1210161E-006  0.9118800E+02  0.7816164E-02  0.1184000E+00
        -11   -1    0    0    0    0  0.00000000000E+00  0.00000000000E+00  0.45593999997E+02  0.45594000000E+02  0.51100000000E-03 0. -1.
         11   -1    0    0    0    0 -0.00000000000E+00 -0.00000000000E+00 -0.45593999997E+02  0.45594000000E+02  0.51100000000E-03 0.  1.
         23    2    1    2    0    0  0.00000000000E+00  0.00000000000E+00  0.00000000000E+00  0.91188000000E+02  0.91188000000E+02 0.  0.
    9900012    2    3    3    0    0 -0.17796037694E+02  0.29637007172E+02 -0.12677910168E+02  0.54367074456E+02  0.39999977837E+02 0.  0.
         12    1    3    3    0    0  0.17796037694E+02 -0.29637007172E+02  0.12677910168E+02  0.36820925544E+02  0.00000000000E+00 0. -1.
         11    1    4    4    0    0  0.36435399347E+01  0.11640051868E+02 -0.12952299042E+02  0.17791240583E+02  0.51100000000E-03 0. -1.
        -11    1    4    4    0    0 -0.88949484496E+01  0.21668638322E+02  0.13397875582E+01  0.23461564858E+02  0.51100000000E-03 0.  1.
         12    1    4    4    0    0 -0.12544629180E+02 -0.36716830178E+01 -0.10653986844E+01  0.13114269015E+02  0.00000000000E+00 0. -1.
</event>
<event>
 8    1  0.1210161E-006  0.9118800E+02  0.7816164E-02  0.1184000E+00
        -11   -1    0    0    0    0  0.00000000000E+00  0.00000000000E+00  0.45593999997E+02  0.45594000000E+02  0.51100000000E-03 0.  1.
         11   -1    0    0    0    0 -0.00000000000E+00 -0.00000000000E+00 -0.45593999997E+02  0.45594000000E+02  0.51100000000E-03 0. -1.
         23    2    1    2    0    0  0.17763568394E-14  0.00000000000E+00  0.35527136788E-14  0.91188000000E+02  0.91188000000E+02 0.  0.
    9900012    2    3    3    0    0  0.12931691546E+02 -0.20085446660E+02  0.28020092856E+02  0.54367089943E+02  0.40000013143E+02 0.  0.
         12    1    3    3    0    0 -0.12931691546E+02  0.20085446660E+02 -0.28020092856E+02  0.36820910057E+02  0.00000000000E+00 0. -1.
         11    1    4    4    0    0 -0.18805757214E-01  0.37032326820E+01  0.18523013131E+02  0.18889581829E+02  0.51100000000E-03 0. -1.
        -11    1    4    4    0    0 -0.53236679835E+01 -0.48988697949E+01 -0.73846079656E+00  0.72722548550E+01  0.51100000000E-03 0.  1.
        -12    1    4    4    0    0  0.18274165287E+02 -0.18889809547E+02  0.10235540521E+02  0.28205253259E+02  0.00000000000E+00 0.  1.
</event>
<event>
 8    1  0.1210161E-006  0.9118800E+02  0.7816164E-02  0.1184000E+00
        -11   -1    0    0    0    0  0.00000000000E+00  0.00000000000E+00  0.45593999997E+02  0.45594000000E+02  0.51100000000E-03 0. -1.
         11   -1    0    0    0    0 -0.00000000000E+00 -0.00000000000E+00 -0.45593999997E+02  0.45594000000E+02  0.51100000000E-03 0.  1.
         23    2    1    2    0    0 -0.88817841970E-15  0.35527136788E-14  0.00000000000E+00  0.91188000000E+02  0.91188000000E+02 0.  0.
    9900012    2    3    3    0    0  0.49306878046E+01 -0.28209769944E+02  0.23144685990E+02  0.54367091645E+02  0.40000017023E+02 0.  0.
        -12    1    3    3    0    0 -0.49306878046E+01  0.28209769944E+02 -0.23144685990E+02  0.36820908355E+02  0.00000000000E+00 0.  1.
         11    1    4    4    0    0  0.41883998195E+01  0.30001165256E+00  0.19779933798E+01  0.46416762179E+01  0.51100000000E-03 0. -1.
        -11    1    4    4    0    0  0.13677154341E+01 -0.29408953832E+01  0.23794234177E+02  0.24014268498E+02  0.51100000000E-03 0.  1.
         12    1    4    4    0    0 -0.62542744907E+00 -0.25568886214E+02 -0.26275415673E+01  0.25711146929E+02  0.00000000000E+00 0. -1.
</event>
<event>
 8    1  0.1210161E-006  0.9118800E+02  0.7816164E-02  0.1184000E+00
        -11   -1    0    0    0    0  0.00000000000E+00  0.00000000000E+00  0.45593999997E+02  0.45594000000E+02  0.51100000000E-03 0.  1.
         11   -1    0    0    0    0 -0.00000000000E+00 -0.00000000000E+00 -0.45593999997E+02  0.45594000000E+02  0.51100000000E-03 0. -1.
         23    2    1    2    0    0 -0.35527136788E-14 -0.35527136788E-14  0.00000000000E+00  0.91188000000E+02  0.91188000000E+02 0.  0.
    9900012    2    3    3    0    0  0.27753299115E+02  0.23558580796E+02 -0.55251523697E+01  0.54367086790E+02  0.40000005955E+02 0.  0.
        -12    1    3    3    0    0 -0.27753299115E+02 -0.23558580796E+02  0.55251523697E+01  0.36820913210E+02  0.00000000000E+00 0.  1.
         11    1    4    4    0    0 -0.51199504432E+01  0.59214551428E+01  0.11012797944E+01  0.79050832377E+01  0.51100000000E-03 0. -1.
        -11    1    4    4    0    0 -0.38037003783E+01  0.64779985206E+01  0.23498481714E+00  0.75158379125E+01  0.51100000000E-03 0.  1.
         12    1    4    4    0    0  0.36676949937E+02  0.11159127133E+02 -0.68614169813E+01  0.38946165640E+02  0.00000000000E+00 0. -1.
</event>
<event>
 8    1  0.1210161E-006  0.9118800E+02  0.7816164E-02  0.1184000E+00
        -11   -1    0    0    0    0  0.00000000000E+00  0.00000000000E+00  0.45593999997E+02  0.45594000000E+02  0.51100000000E-03 0. -1.
         11   -1    0    0    0    0 -0.00000000000E+00 -0.00000000000E+00 -0.45593999997E+02  0.45594000000E+02  0.51100000000E-03 0.  1.
         23    2    1    2    0    0  0.00000000000E+00  0.35527136788E-14  0.17763568394E-14  0.91188000000E+02  0.91188000000E+02 0.  0.
    9900012    2    3    3    0    0  0.19841491565E+02 -0.29527008359E+02  0.95000198696E+01  0.54367090347E+02  0.40000014064E+02 0.  0.
         12    1    3    3    0    0 -0.19841491565E+02  0.29527008359E+02 -0.95000198696E+01  0.36820909653E+02  0.00000000000E+00 0. -1.
         11    1    4    4    0    0  0.61017879216E+01 -0.90471602758E+01 -0.11269249044E+02  0.15686902154E+02  0.51100000000E-03 0. -1.
        -11    1    4    4    0    0  0.18621069770E+01 -0.11773614317E+02  0.20777003485E+02  0.23953482222E+02  0.51100000000E-03 0.  1.
        -12    1    4    4    0    0  0.11877596666E+02 -0.87062337660E+01 -0.77345708260E-02  0.14726705972E+02  0.00000000000E+00 0.  1.
</event>
<event>
 8    1  0.1210161E-006  0.9118800E+02  0.7816164E-02  0.1184000E+00
        -11   -1    0    0    0    0  0.00000000000E+00  0.00000000000E+00  0.45593999997E+02  0.45594000000E+02  0.51100000000E-03 0. -1.
         11   -1    0    0    0    0 -0.00000000000E+00 -0.00000000000E+00 -0.45593999997E+02  0.45594000000E+02  0.51100000000E-03 0.  1.
         23    2    1    2    0    0 -0.88817841970E-15  0.17763568394E-14  0.00000000000E+00  0.91188000000E+02  0.91188000000E+02 0.  0.
    9900012    2    3    3    0    0  0.60135804928E+01 -0.10124472014E+02  0.34887178823E+02  0.54367036811E+02  0.39999892018E+02 0.  0.
        -12    1    3    3    0    0 -0.60135804928E+01  0.10124472014E+02 -0.34887178823E+02  0.36820963189E+02  0.00000000000E+00 0.  1.
         11    1    4    4    0    0  0.45843701619E+01 -0.16045957655E+00 -0.49840525594E+00  0.46141743701E+01  0.51100000000E-03 0. -1.
        -11    1    4    4    0    0  0.15216228628E+02 -0.16847444933E+01  0.63761008680E+01  0.16583927164E+02  0.51100000000E-03 0.  1.
         12    1    4    4    0    0 -0.13787018297E+02 -0.82792679445E+01  0.29009483211E+02  0.33168935277E+02  0.00000000000E+00 0. -1.
</event>
<event>
 8    1  0.1210161E-006  0.9118800E+02  0.7816164E-02  0.1184000E+00
        -11   -1    0    0    0    0  0.00000000000E+00  0.00000000000E+00  0.45593999997E+02  0.45594000000E+02  0.51100000000E-03 0.  1.
         11   -1    0    0    0    0 -0.00000000000E+00 -0.00000000000E+00 -0.45593999997E+02  0.45594000000E+02  0.51100000000E-03 0. -1.
         23    2    1    2    0    0  0.00000000000E+00  0.62450045135E-16  0.44408920985E-15  0.91188000000E+02  0.91188000000E+02 0.  0.
    9900012    2    3    3    0    0 -0.36706064596E+02  0.47806529239E-01 -0.29055714036E+01  0.54367084629E+02  0.40000001029E+02 0.  0.
        -12    1    3    3    0    0  0.36706064596E+02 -0.47806529239E-01  0.29055714036E+01  0.36820915371E+02  0.00000000000E+00 0.  1.
         11    1    4    4    0    0 -0.83553289746E+01  0.21458036664E+01  0.79692636746E+01  0.11744154266E+02  0.51100000000E-03 0. -1.
        -11    1    4    4    0    0 -0.18265032565E+02  0.11909326201E+02  0.74189487061E+00  0.21817283823E+02  0.51100000000E-03 0.  1.
         12    1    4    4    0    0 -0.10085703056E+02 -0.14007323338E+02 -0.11616729949E+02  0.20805646540E+02  0.00000000000E+00 0. -1.
</event>
<event>
 8    1  0.1210161E-006  0.9118800E+02  0.7816164E-02  0.1184000E+00
        -11   -1    0    0    0    0  0.00000000000E+00  0.00000000000E+00  0.45593999997E+02  0.45594000000E+02  0.51100000000E-03 0. -1.
         11   -1    0    0    0    0 -0.00000000000E+00 -0.00000000000E+00 -0.45593999997E+02  0.45594000000E+02  0.51100000000E-03 0.  1.
         23    2    1    2    0    0  0.00000000000E+00  0.00000000000E+00 -0.35527136788E-14  0.91188000000E+02  0.91188000000E+02 0.  0.
    9900012    2    3    3    0    0  0.23248605740E+02 -0.19615357248E+02 -0.20748943954E+02  0.54367101260E+02  0.40000038942E+02 0.  0.
         12    1    3    3    0    0 -0.23248605740E+02  0.19615357248E+02  0.20748943954E+02  0.36820898740E+02  0.00000000000E+00 0. -1.
         11    1    4    4    0    0  0.21958440551E+02  0.56676170144E+01 -0.11394993626E+02  0.25379930537E+02  0.51100000000E-03 0. -1.
        -11    1    4    4    0    0  0.23717974899E+01 -0.85629388922E+01  0.15178407958E+01  0.90140549558E+01  0.51100000000E-03 0.  1.
         12    1    4    4    0    0 -0.10816323009E+01 -0.16720035370E+02 -0.10871791124E+02  0.19973115767E+02  0.00000000000E+00 0. -1.
</event>
<event>
 8    1  0.1210161E-006  0.9118800E+02  0.7816164E-02  0.1184000E+00
        -11   -1    0    0    0    0  0.00000000000E+00  0.00000000000E+00  0.45593999997E+02  0.45594000000E+02  0.51100000000E-03 0. -1.
         11   -1    0    0    0    0 -0.00000000000E+00 -0.00000000000E+00 -0.45593999997E+02  0.45594000000E+02  0.51100000000E-03 0.  1.
         23    2    1    2    0    0  0.00000000000E+00 -0.88817841970E-15  0.00000000000E+00  0.91188000000E+02  0.91188000000E+02 0.  0.
    9900012    2    3    3    0    0  0.10528466270E+02 -0.70590854463E+01 -0.34570227847E+02  0.54367082810E+02  0.39999996882E+02 0.  0.
         12    1    3    3    0    0 -0.10528466270E+02  0.70590854463E+01  0.34570227847E+02  0.36820917190E+02  0.00000000000E+00 0. -1.
         11    1    4    4    0    0  0.13650938343E+01 -0.30594208455E+01  0.35285138821E+01  0.48655881005E+01  0.51100000000E-03 0. -1.
        -11    1    4    4    0    0  0.16318882547E+02  0.63669811788E+01 -0.29297874844E+02  0.34135170243E+02  0.51100000000E-03 0.  1.
        -12    1    4    4    0    0 -0.71555101113E+01 -0.10366645780E+02 -0.88008668854E+01  0.15366324466E+02  0.00000000000E+00 0.  1.
</event>
<event>
 8    1  0.1210161E-006  0.9118800E+02  0.7816164E-02  0.1184000E+00
        -11   -1    0    0    0    0  0.00000000000E+00  0.00000000000E+00  0.45593999997E+02  0.45594000000E+02  0.51100000000E-03 0.  1.
         11   -1    0    0    0    0 -0.00000000000E+00 -0.00000000000E+00 -0.45593999997E+02  0.45594000000E+02  0.51100000000E-03 0. -1.
         23    2    1    2    0    0 -0.88817841970E-15  0.00000000000E+00 -0.71054273576E-14  0.91188000000E+02  0.91188000000E+02 0.  0.
    9900012    2    3    3    0    0 -0.57343734915E+01 -0.48111780936E+01  0.36052037609E+02  0.54367083529E+02  0.39999998521E+02 0.  0.
         12    1    3    3    0    0  0.57343734915E+01  0.48111780936E+01 -0.36052037609E+02  0.36820916471E+02  0.00000000000E+00 0. -1.
         11    1    4    4    0    0 -0.46783976258E+01 -0.80355987976E+01  0.42626825952E+01  0.10228817896E+02  0.51100000000E-03 0. -1.
        -11    1    4    4    0    0 -0.14736454402E+02 -0.70297071449E+00  0.23262924216E+02  0.27546703968E+02  0.51100000000E-03 0.  1.
         12    1    4    4    0    0  0.13680478536E+02  0.39273914185E+01  0.85264307978E+01  0.16591561665E+02  0.00000000000E+00 0. -1.
</event>
<event>
 8    1  0.1210161E-006  0.9118800E+02  0.7816164E-02  0.1184000E+00
        -11   -1    0    0    0    0  0.00000000000E+00  0.00000000000E+00  0.45593999997E+02  0.45594000000E+02  0.51100000000E-03 0. -1.
         11   -1    0    0    0    0 -0.00000000000E+00 -0.00000000000E+00 -0.45593999997E+02  0.45594000000E+02  0.51100000000E-03 0.  1.
         23    2    1    2    0    0 -0.35527136788E-14  0.29420910153E-14 -0.35527136788E-14  0.91188000000E+02  0.91188000000E+02 0.  0.
    9900012    2    3    3    0    0 -0.19904282289E+02 -0.42184028772E+00 -0.30974513232E+02  0.54367097341E+02  0.40000030009E+02 0.  0.
         12    1    3    3    0    0  0.19904282289E+02  0.42184028772E+00  0.30974513232E+02  0.36820902659E+02  0.00000000000E+00 0. -1.
         11    1    4    4    0    0 -0.13762127441E+02 -0.71916307984E+01 -0.45856064780E+01  0.16190845941E+02  0.51100000000E-03 0. -1.
        -11    1    4    4    0    0 -0.27215718294E+01 -0.10055695203E+02 -0.99429730507E+01  0.14400926102E+02  0.51100000000E-03 0.  1.
         12    1    4    4    0    0 -0.34205830187E+01  0.16825485714E+02 -0.16445933703E+02  0.23775325299E+02  0.00000000000E+00 0. -1.
</event>
<event>
 8    1  0.1210161E-006  0.9118800E+02  0.7816164E-02  0.1184000E+00
        -11   -1    0    0    0    0  0.00000000000E+00  0.00000000000E+00  0.45593999997E+02  0.45594000000E+02  0.51100000000E-03 0. -1.
         11   -1    0    0    0    0 -0.00000000000E+00 -0.00000000000E+00 -0.45593999997E+02  0.45594000000E+02  0.51100000000E-03 0.  1.
         23    2    1    2    0    0  0.17763568394E-14  0.88817841970E-15 -0.71054273576E-14  0.91188000000E+02  0.91188000000E+02 0.  0.
    9900012    2    3    3    0    0  0.77387091704E+01 -0.22373921075E+01 -0.35928903300E+02  0.54367086983E+02  0.40000006394E+02 0.  0.
         12    1    3    3    0    0 -0.77387091704E+01  0.22373921075E+01  0.35928903300E+02  0.36820913017E+02  0.00000000000E+00 0. -1.
         11    1    4    4    0    0 -0.23595226867E+01 -0.86067361822E+01  0.47943222053E+01  0.10130586394E+02  0.51100000000E-03 0. -1.
        -11    1    4    4    0    0  0.10829225600E+02  0.12511060384E+00 -0.28563367799E+02  0.30547565533E+02  0.51100000000E-03 0.  1.
        -12    1    4    4    0    0 -0.73099374241E+00  0.62442334708E+01 -0.12159857707E+02  0.13688935055E+02  0.00000000000E+00 0.  1.
</event>
<event>
 8    1  0.1210161E-006  0.9118800E+02  0.7816164E-02  0.1184000E+00
        -11   -1    0    0    0    0  0.00000000000E+00  0.00000000000E+00  0.45593999997E+02  0.45594000000E+02  0.51100000000E-03 0.  1.
         11   -1    0    0    0    0 -0.00000000000E+00 -0.00000000000E+00 -0.45593999997E+02  0.45594000000E+02  0.51100000000E-03 0. -1.
         23    2    1    2    0    0  0.35527136788E-14  0.00000000000E+00  0.00000000000E+00  0.91188000000E+02  0.91188000000E+02 0.  0.
    9900012    2    3    3    0    0 -0.26301042641E+02  0.16242373212E+02 -0.20005520392E+02  0.54367076903E+02  0.39999983416E+02 0.  0.
        -12    1    3    3    0    0  0.26301042641E+02 -0.16242373212E+02  0.20005520392E+02  0.36820923097E+02  0.00000000000E+00 0.  1.
         11    1    4    4    0    0 -0.87024234538E+01  0.69974996284E+01  0.61180310770E+01  0.12732928946E+02  0.51100000000E-03 0. -1.
        -11    1    4    4    0    0 -0.33764818619E+01  0.28596659708E+01  0.50897506187E+01  0.67441738450E+01  0.51100000000E-03 0.  1.
        -12    1    4    4    0    0 -0.14222137325E+02  0.63852076123E+01 -0.31213302088E+02  0.34889974112E+02  0.00000000000E+00 0.  1.
</event>
<event>
 8    1  0.1210161E-006  0.9118800E+02  0.7816164E-02  0.1184000E+00
        -11   -1    0    0    0    0  0.00000000000E+00  0.00000000000E+00  0.45593999997E+02  0.45594000000E+02  0.51100000000E-03 0.  1.
         11   -1    0    0    0    0 -0.00000000000E+00 -0.00000000000E+00 -0.45593999997E+02  0.45594000000E+02  0.51100000000E-03 0. -1.
         23    2    1    2    0    0 -0.88817841970E-15 -0.88817841970E-15  0.00000000000E+00  0.91188000000E+02  0.91188000000E+02 0.  0.
    9900012    2    3    3    0    0 -0.13472600204E+01  0.68505593111E+01  0.36152950258E+02  0.54367067301E+02  0.39999961527E+02 0.  0.
         12    1    3    3    0    0  0.13472600204E+01 -0.68505593111E+01 -0.36152950258E+02  0.36820932699E+02  0.00000000000E+00 0. -1.
         11    1    4    4    0    0 -0.15245703468E+02  0.12273931364E+01  0.48553605832E+01  0.16047195855E+02  0.51100000000E-03 0. -1.
        -11    1    4    4    0    0  0.41670489502E+01  0.76714237632E+01  0.46804054662E+01  0.99056163411E+01  0.51100000000E-03 0.  1.
        -12    1    4    4    0    0  0.97313944974E+01 -0.20482575885E+01  0.26617184209E+02  0.28414255106E+02  0.00000000000E+00 0.  1.
</event>
<event>
 8    1  0.1210161E-006  0.9118800E+02  0.7816164E-02  0.1184000E+00
        -11   -1    0    0    0    0  0.00000000000E+00  0.00000000000E+00  0.45593999997E+02  0.45594000000E+02  0.51100000000E-03 0. -1.
         11   -1    0    0    0    0 -0.00000000000E+00 -0.00000000000E+00 -0.45593999997E+02  0.45594000000E+02  0.51100000000E-03 0.  1.
         23    2    1    2    0    0 -0.35527136788E-14  0.00000000000E+00  0.00000000000E+00  0.91188000000E+02  0.91188000000E+02 0.  0.
    9900012    2    3    3    0    0 -0.25205083831E+02 -0.23433274009E+02 -0.13090694119E+02  0.54367070432E+02  0.39999968664E+02 0.  0.
         12    1    3    3    0    0  0.25205083831E+02  0.23433274009E+02  0.13090694119E+02  0.36820929568E+02  0.00000000000E+00 0. -1.
         11    1    4    4    0    0 -0.79941537987E+01  0.55553935705E+01  0.26872075311E+01  0.10099008726E+02  0.51100000000E-03 0. -1.
        -11    1    4    4    0    0 -0.26524148588E+01  0.21798605885E+01  0.34424532372E+01  0.48618495782E+01  0.51100000000E-03 0.  1.
        -12    1    4    4    0    0 -0.14558515174E+02 -0.31168528168E+02 -0.19220354887E+02  0.39406212127E+02  0.00000000000E+00 0.  1.
</event>
<event>
 8    1  0.1210161E-006  0.9118800E+02  0.7816164E-02  0.1184000E+00
        -11   -1    0    0    0    0  0.00000000000E+00  0.00000000000E+00  0.45593999997E+02  0.45594000000E+02  0.51100000000E-03 0. -1.
         11   -1    0    0    0    0 -0.00000000000E+00 -0.00000000000E+00 -0.45593999997E+02  0.45594000000E+02  0.51100000000E-03 0.  1.
         23    2    1    2    0    0 -0.15543122345E-14  0.00000000000E+00  0.35527136788E-14  0.91188000000E+02  0.91188000000E+02 0.  0.
    9900012    2    3    3    0    0 -0.45648904128E+00 -0.19027885878E+02  0.31519946329E+02  0.54367138525E+02  0.40000123894E+02 0.  0.
        -12    1    3    3    0    0  0.45648904128E+00  0.19027885878E+02 -0.31519946329E+02  0.36820861475E+02  0.00000000000E+00 0.  1.
         11    1    4    4    0    0  0.11195532155E+02  0.48401747819E+01  0.19423637968E+02  0.22935669695E+02  0.51100000000E-03 0. -1.
        -11    1    4    4    0    0 -0.15928371096E-01 -0.13224411310E+02  0.49910154707E+01  0.14134905161E+02  0.51100000000E-03 0.  1.
        -12    1    4    4    0    0 -0.11636092825E+02 -0.10643649350E+02  0.71052928896E+01  0.17296563669E+02  0.00000000000E+00 0.  1.
</event>
<event>
 8    1  0.1210161E-006  0.9118800E+02  0.7816164E-02  0.1184000E+00
        -11   -1    0    0    0    0  0.00000000000E+00  0.00000000000E+00  0.45593999997E+02  0.45594000000E+02  0.51100000000E-03 0.  1.
         11   -1    0    0    0    0 -0.00000000000E+00 -0.00000000000E+00 -0.45593999997E+02  0.45594000000E+02  0.51100000000E-03 0. -1.
         23    2    1    2    0    0 -0.44408920985E-15  0.00000000000E+00 -0.35527136788E-14  0.91188000000E+02  0.91188000000E+02 0.  0.
    9900012    2    3    3    0    0  0.23589783420E+01 -0.27276290816E+02  0.24621493399E+02  0.54367098915E+02  0.40000033597E+02 0.  0.
         12    1    3    3    0    0 -0.23589783420E+01  0.27276290816E+02 -0.24621493399E+02  0.36820901085E+02  0.00000000000E+00 0. -1.
         11    1    4    4    0    0  0.16018754925E+01  0.37216843429E+01 -0.56135251884E+01  0.69230488041E+01  0.51100000000E-03 0. -1.
        -11    1    4    4    0    0  0.44641522149E+01 -0.25987345074E+02  0.31504831809E+02  0.41083149667E+02  0.51100000000E-03 0.  1.
         12    1    4    4    0    0 -0.37070493654E+01 -0.50106300843E+01 -0.12698132217E+01  0.63609004439E+01  0.00000000000E+00 0. -1.
</event>
<event>
 8    1  0.1210161E-006  0.9118800E+02  0.7816164E-02  0.1184000E+00
        -11   -1    0    0    0    0  0.00000000000E+00  0.00000000000E+00  0.45593999997E+02  0.45594000000E+02  0.51100000000E-03 0.  1.
         11   -1    0    0    0    0 -0.00000000000E+00 -0.00000000000E+00 -0.45593999997E+02  0.45594000000E+02  0.51100000000E-03 0. -1.
         23    2    1    2    0    0  0.00000000000E+00  0.71054273576E-14  0.00000000000E+00  0.91188000000E+02  0.91188000000E+02 0.  0.
    9900012    2    3    3    0    0 -0.60839050840E+01  0.35285272678E+02  0.85857839642E+01  0.54367081281E+02  0.39999993397E+02 0.  0.
         12    1    3    3    0    0  0.60839050840E+01 -0.35285272678E+02 -0.85857839642E+01  0.36820918719E+02  0.00000000000E+00 0. -1.
         11    1    4    4    0    0  0.48150640973E+01  0.21317428326E+02  0.74393114833E+01  0.23085946988E+02  0.51100000000E-03 0. -1.
        -11    1    4    4    0    0 -0.19143581493E+02  0.11384204206E+02 -0.12720034876E+01  0.22309074632E+02  0.51100000000E-03 0.  1.
         12    1    4    4    0    0  0.82446123117E+01  0.25836401457E+01  0.24184759684E+01  0.89720596622E+01  0.00000000000E+00 0. -1.
</event>
<event>
 8    1  0.1210161E-006  0.9118800E+02  0.7816164E-02  0.1184000E+00
        -11   -1    0    0    0    0  0.00000000000E+00  0.00000000000E+00  0.45593999997E+02  0.45594000000E+02  0.51100000000E-03 0.  1.
         11   -1    0    0    0    0 -0.00000000000E+00 -0.00000000000E+00 -0.45593999997E+02  0.45594000000E+02  0.51100000000E-03 0. -1.
         23    2    1    2    0    0 -0.35527136788E-14  0.00000000000E+00  0.00000000000E+00  0.91188000000E+02  0.91188000000E+02 0.  0.
    9900012    2    3    3    0    0 -0.21081173669E+02 -0.18410989865E+02 -0.23924853919E+02  0.54367094714E+02  0.40000024019E+02 0.  0.
        -12    1    3    3    0    0  0.21081173669E+02  0.18410989865E+02  0.23924853919E+02  0.36820905286E+02  0.00000000000E+00 0.  1.
         11    1    4    4    0    0  0.64358497062E+01  0.76943132475E+00 -0.23860519573E+01  0.69069117707E+01  0.51100000000E-03 0. -1.
        -11    1    4    4    0    0 -0.27915578808E+02 -0.18678880346E+02 -0.26297602086E+02  0.42658457391E+02  0.51100000000E-03 0.  1.
        -12    1    4    4    0    0  0.39855543307E+00 -0.50154084384E+00  0.47588001250E+01  0.48017255524E+01  0.00000000000E+00 0.  1.
</event>
<event>
 8    1  0.1210161E-006  0.9118800E+02  0.7816164E-02  0.1184000E+00
        -11   -1    0    0    0    0  0.00000000000E+00  0.00000000000E+00  0.45593999997E+02  0.45594000000E+02  0.51100000000E-03 0. -1.
         11   -1    0    0    0    0 -0.00000000000E+00 -0.00000000000E+00 -0.45593999997E+02  0.45594000000E+02  0.51100000000E-03 0.  1.
         23    2    1    2    0    0  0.00000000000E+00  0.00000000000E+00  0.35527136788E-14  0.91188000000E+02  0.91188000000E+02 0.  0.
    9900012    2    3    3    0    0  0.25471769394E+02 -0.97837385882E+01  0.24723423436E+02  0.54367078729E+02  0.39999987579E+02 0.  0.
        -12    1    3    3    0    0 -0.25471769394E+02  0.97837385882E+01 -0.24723423436E+02  0.36820921271E+02  0.00000000000E+00 0.  1.
         11    1    4    4    0    0 -0.20692513881E+01 -0.51686755548E+01 -0.37664700277E+01  0.67218527973E+01  0.51100000000E-03 0. -1.
        -11    1    4    4    0    0 -0.12952303613E+01 -0.89326302202E+01  0.64030339160E+01  0.11066541823E+02  0.51100000000E-03 0.  1.
         12    1    4    4    0    0  0.28836251143E+02  0.43175671868E+01  0.22086859548E+02  0.36578684108E+02  0.00000000000E+00 0. -1.
</event>
<event>
 8    1  0.1210161E-006  0.9118800E+02  0.7816164E-02  0.1184000E+00
        -11   -1    0    0    0    0  0.00000000000E+00  0.00000000000E+00  0.45593999997E+02  0.45594000000E+02  0.51100000000E-03 0.  1.
         11   -1    0    0    0    0 -0.00000000000E+00 -0.00000000000E+00 -0.45593999997E+02  0.45594000000E+02  0.51100000000E-03 0. -1.
         23    2    1    2    0    0  0.00000000000E+00  0.00000000000E+00  0.00000000000E+00  0.91188000000E+02  0.91188000000E+02 0.  0.
    9900012    2    3    3    0    0 -0.21439457123E+02  0.20112980307E+02 -0.22172001758E+02  0.54367082569E+02  0.39999996332E+02 0.  0.
        -12    1    3    3    0    0  0.21439457123E+02 -0.20112980307E+02  0.22172001758E+02  0.36820917431E+02  0.00000000000E+00 0.  1.
         11    1    4    4    0    0 -0.10920260553E+02 -0.56067444156E+01 -0.77940602827E+01  0.14540806355E+02  0.51100000000E-03 0.  1.
        -11    1    4    4    0    0  0.45958514450E+01  0.18597057535E+01 -0.10110919312E+02  0.11261041053E+02  0.51100000000E-03 0. -1.
         12    1    4    4    0    0 -0.15115048015E+02  0.23860018969E+02 -0.42670221626E+01  0.28565235161E+02  0.00000000000E+00 0. -1.
</event>
<event>
 8    1  0.1210161E-006  0.9118800E+02  0.7816164E-02  0.1184000E+00
        -11   -1    0    0    0    0  0.00000000000E+00  0.00000000000E+00  0.45593999997E+02  0.45594000000E+02  0.51100000000E-03 0.  1.
         11   -1    0    0    0    0 -0.00000000000E+00 -0.00000000000E+00 -0.45593999997E+02  0.45594000000E+02  0.51100000000E-03 0. -1.
         23    2    1    2    0    0 -0.20296264669E-15  0.00000000000E+00  0.00000000000E+00  0.91188000000E+02  0.91188000000E+02 0.  0.
    9900012    2    3    3    0    0  0.67856559148E-02 -0.24690497836E+02 -0.27315898832E+02  0.54367094818E+02  0.40000024256E+02 0.  0.
        -12    1    3    3    0    0 -0.67856559148E-02  0.24690497836E+02  0.27315898832E+02  0.36820905182E+02  0.00000000000E+00 0.  1.
         11    1    4    4    0    0 -0.30708209271E+00 -0.95434624706E+00 -0.10248189106E+02  0.10297109128E+02  0.51100000000E-03 0. -1.
        -11    1    4    4    0    0 -0.18114219852E+01 -0.59598215550E+01 -0.24057574172E+02  0.24850907385E+02  0.51100000000E-03 0.  1.
         12    1    4    4    0    0  0.21252897338E+01 -0.17776330034E+02  0.69898644459E+01  0.19219078305E+02  0.00000000000E+00 0. -1.
</event>
<event>
 8    1  0.1210161E-006  0.9118800E+02  0.7816164E-02  0.1184000E+00
        -11   -1    0    0    0    0  0.00000000000E+00  0.00000000000E+00  0.45593999997E+02  0.45594000000E+02  0.51100000000E-03 0.  1.
         11   -1    0    0    0    0 -0.00000000000E+00 -0.00000000000E+00 -0.45593999997E+02  0.45594000000E+02  0.51100000000E-03 0. -1.
         23    2    1    2    0    0  0.17763568394E-14 -0.27755575616E-15  0.71054273576E-14  0.91188000000E+02  0.91188000000E+02 0.  0.
    9900012    2    3    3    0    0 -0.43085247293E+01  0.41571147766E+00 -0.36565612834E+02  0.54367078729E+02  0.39999987577E+02 0.  0.
        -12    1    3    3    0    0  0.43085247293E+01 -0.41571147766E+00  0.36565612834E+02  0.36820921271E+02  0.00000000000E+00 0.  1.
         11    1    4    4    0    0 -0.89541307176E+01 -0.50104999677E+01 -0.10670264773E+02  0.14803246854E+02  0.51100000000E-03 0. -1.
        -11    1    4    4    0    0 -0.10623117884E+02  0.67450217964E+01 -0.47532836871E+01  0.13451381292E+02  0.51100000000E-03 0.  1.
         12    1    4    4    0    0  0.15268723872E+02 -0.13188103510E+01 -0.21142064373E+02  0.26112450582E+02  0.00000000000E+00 0. -1.
</event>
<event>
 8    1  0.1210161E-006  0.9118800E+02  0.7816164E-02  0.1184000E+00
        -11   -1    0    0    0    0  0.00000000000E+00  0.00000000000E+00  0.45593999997E+02  0.45594000000E+02  0.51100000000E-03 0.  1.
         11   -1    0    0    0    0 -0.00000000000E+00 -0.00000000000E+00 -0.45593999997E+02  0.45594000000E+02  0.51100000000E-03 0. -1.
         23    2    1    2    0    0  0.17763568394E-14  0.00000000000E+00  0.00000000000E+00  0.91188000000E+02  0.91188000000E+02 0.  0.
    9900012    2    3    3    0    0 -0.15475925252E+02 -0.26077291123E+02 -0.20886610425E+02  0.54367083801E+02  0.39999999141E+02 0.  0.
        -12    1    3    3    0    0  0.15475925252E+02  0.26077291123E+02  0.20886610425E+02  0.36820916199E+02  0.00000000000E+00 0.  1.
         11    1    4    4    0    0  0.54629906752E+01  0.36955618956E+01 -0.26453205174E+01  0.71062765034E+01  0.51100000000E-03 0. -1.
        -11    1    4    4    0    0 -0.15031508996E+02 -0.24084031658E+02 -0.24052847061E+02  0.37209223260E+02  0.51100000000E-03 0.  1.
        -12    1    4    4    0    0 -0.59074069312E+01 -0.56888213600E+01  0.58115571533E+01  0.10051584037E+02  0.00000000000E+00 0.  1.
</event>
<event>
 8    1  0.1210161E-006  0.9118800E+02  0.7816164E-02  0.1184000E+00
        -11   -1    0    0    0    0  0.00000000000E+00  0.00000000000E+00  0.45593999997E+02  0.45594000000E+02  0.51100000000E-03 0. -1.
         11   -1    0    0    0    0 -0.00000000000E+00 -0.00000000000E+00 -0.45593999997E+02  0.45594000000E+02  0.51100000000E-03 0.  1.
         23    2    1    2    0    0 -0.22204460493E-15  0.00000000000E+00 -0.35527136788E-14  0.91188000000E+02  0.91188000000E+02 0.  0.
    9900012    2    3    3    0    0 -0.10507557348E+01  0.26341126057E+02 -0.25706395448E+02  0.54367112226E+02  0.40000063941E+02 0.  0.
         12    1    3    3    0    0  0.10507557348E+01 -0.26341126057E+02  0.25706395448E+02  0.36820887774E+02  0.00000000000E+00 0. -1.
         11    1    4    4    0    0  0.90518202704E+01  0.49202561583E+01  0.14952543700E+01  0.10410579079E+02  0.51100000000E-03 0. -1.
        -11    1    4    4    0    0 -0.87062522458E+00  0.14716179959E+02 -0.28879097302E+02  0.32424160777E+02  0.51100000000E-03 0.  1.
         12    1    4    4    0    0 -0.92319507806E+01  0.67046899392E+01  0.16774474839E+01  0.11532372369E+02  0.00000000000E+00 0. -1.
</event>
<event>
 8    1  0.1210161E-006  0.9118800E+02  0.7816164E-02  0.1184000E+00
        -11   -1    0    0    0    0  0.00000000000E+00  0.00000000000E+00  0.45593999997E+02  0.45594000000E+02  0.51100000000E-03 0.  1.
         11   -1    0    0    0    0 -0.00000000000E+00 -0.00000000000E+00 -0.45593999997E+02  0.45594000000E+02  0.51100000000E-03 0. -1.
         23    2    1    2    0    0  0.15543122345E-14  0.00000000000E+00  0.00000000000E+00  0.91188000000E+02  0.91188000000E+02 0.  0.
    9900012    2    3    3    0    0 -0.19028661860E+01  0.32191464543E+02 -0.17772718194E+02  0.54367071153E+02  0.39999970308E+02 0.  0.
        -12    1    3    3    0    0  0.19028661860E+01 -0.32191464543E+02  0.17772718194E+02  0.36820928847E+02  0.00000000000E+00 0.  1.
         11    1    4    4    0    0 -0.15702196257E+02  0.24497967876E+02 -0.17749717549E+01  0.29152357063E+02  0.51100000000E-03 0.  1.
        -11    1    4    4    0    0  0.42517185011E+00 -0.25821302251E+01 -0.19209154155E+01  0.32462415031E+01  0.51100000000E-03 0. -1.
         12    1    4    4    0    0  0.13374158221E+02  0.10275626892E+02 -0.14076831024E+02  0.21968472587E+02  0.00000000000E+00 0. -1.
</event>
<event>
 8    1  0.1210161E-006  0.9118800E+02  0.7816164E-02  0.1184000E+00
        -11   -1    0    0    0    0  0.00000000000E+00  0.00000000000E+00  0.45593999997E+02  0.45594000000E+02  0.51100000000E-03 0. -1.
         11   -1    0    0    0    0 -0.00000000000E+00 -0.00000000000E+00 -0.45593999997E+02  0.45594000000E+02  0.51100000000E-03 0.  1.
         23    2    1    2    0    0  0.00000000000E+00  0.00000000000E+00 -0.17763568394E-14  0.91188000000E+02  0.91188000000E+02 0.  0.
    9900012    2    3    3    0    0  0.12166602231E+02  0.33789436787E+02  0.81257482187E+01  0.54367081593E+02  0.39999994108E+02 0.  0.
        -12    1    3    3    0    0 -0.12166602231E+02 -0.33789436787E+02 -0.81257482187E+01  0.36820918407E+02  0.00000000000E+00 0.  1.
         11    1    4    4    0    0  0.16296460614E+02  0.53137991076E+01 -0.64746401778E+01  0.18322992528E+02  0.51100000000E-03 0. -1.
        -11    1    4    4    0    0 -0.18696056541E+01  0.19735424935E+02  0.11657938548E+01  0.19858033594E+02  0.51100000000E-03 0.  1.
        -12    1    4    4    0    0 -0.22602527281E+01  0.87402127443E+01  0.13434594542E+02  0.16186055471E+02  0.00000000000E+00 0.  1.
</event>
<event>
 8    1  0.1210161E-006  0.9118800E+02  0.7816164E-02  0.1184000E+00
        -11   -1    0    0    0    0  0.00000000000E+00  0.00000000000E+00  0.45593999997E+02  0.45594000000E+02  0.51100000000E-03 0. -1.
         11   -1    0    0    0    0 -0.00000000000E+00 -0.00000000000E+00 -0.45593999997E+02  0.45594000000E+02  0.51100000000E-03 0.  1.
         23    2    1    2    0    0  0.00000000000E+00 -0.35527136788E-14  0.88817841970E-15  0.91188000000E+02  0.91188000000E+02 0.  0.
    9900012    2    3    3    0    0 -0.27879480732E+02  0.23689591107E+02  0.41614938152E+01  0.54367079268E+02  0.39999988808E+02 0.  0.
         12    1    3    3    0    0  0.27879480732E+02 -0.23689591107E+02 -0.41614938152E+01  0.36820920732E+02  0.00000000000E+00 0. -1.
         11    1    4    4    0    0  0.75934864276E+01  0.44789248531E+01  0.27056532253E+01  0.92218416600E+01  0.51100000000E-03 0. -1.
        -11    1    4    4    0    0 -0.12477479531E+02  0.11511925885E+02 -0.84336364005E+01  0.18956216823E+02  0.51100000000E-03 0.  1.
        -12    1    4    4    0    0 -0.22995487629E+02  0.76987403691E+01  0.98894769904E+01  0.26189020786E+02  0.00000000000E+00 0.  1.
</event>
<event>
 8    1  0.1210161E-006  0.9118800E+02  0.7816164E-02  0.1184000E+00
        -11   -1    0    0    0    0  0.00000000000E+00  0.00000000000E+00  0.45593999997E+02  0.45594000000E+02  0.51100000000E-03 0.  1.
         11   -1    0    0    0    0 -0.00000000000E+00 -0.00000000000E+00 -0.45593999997E+02  0.45594000000E+02  0.51100000000E-03 0. -1.
         23    2    1    2    0    0  0.00000000000E+00  0.00000000000E+00  0.00000000000E+00  0.91188000000E+02  0.91188000000E+02 0.  0.
    9900012    2    3    3    0    0 -0.19988393652E+02  0.28316804800E+02  0.12426188430E+02  0.54366980544E+02  0.39999763746E+02 0.  0.
         12    1    3    3    0    0  0.19988393652E+02 -0.28316804800E+02 -0.12426188430E+02  0.36821019456E+02  0.00000000000E+00 0. -1.
         11    1    4    4    0    0 -0.10083763571E+02  0.15522767420E+02  0.19030440953E+01  0.18608067423E+02  0.51100000000E-03 0. -1.
        -11    1    4    4    0    0 -0.20309322429E+02  0.98297742560E+01  0.34301490680E+01  0.22822334726E+02  0.51100000000E-03 0.  1.
        -12    1    4    4    0    0  0.10404692348E+02  0.29642631241E+01  0.70929952667E+01  0.12936578396E+02  0.00000000000E+00 0.  1.
</event>
<event>
 8    1  0.1210161E-006  0.9118800E+02  0.7816164E-02  0.1184000E+00
        -11   -1    0    0    0    0  0.00000000000E+00  0.00000000000E+00  0.45593999997E+02  0.45594000000E+02  0.51100000000E-03 0.  1.
         11   -1    0    0    0    0 -0.00000000000E+00 -0.00000000000E+00 -0.45593999997E+02  0.45594000000E+02  0.51100000000E-03 0. -1.
         23    2    1    2    0    0  0.35527136788E-14  0.00000000000E+00  0.17763568394E-14  0.91188000000E+02  0.91188000000E+02 0.  0.
    9900012    2    3    3    0    0 -0.17327722301E+02  0.31067746850E+02  0.95040160419E+01  0.54367066071E+02  0.39999958722E+02 0.  0.
        -12    1    3    3    0    0  0.17327722301E+02 -0.31067746850E+02 -0.95040160419E+01  0.36820933929E+02  0.00000000000E+00 0.  1.
         11    1    4    4    0    0 -0.69676999249E+01  0.88000179990E+01 -0.10650079042E+02  0.15472987523E+02  0.51100000000E-03 0. -1.
        -11    1    4    4    0    0 -0.18089568292E+01  0.71153650574E+01 -0.45802817805E+01  0.86533072383E+01  0.51100000000E-03 0.  1.
        -12    1    4    4    0    0 -0.85510655472E+01  0.15152363793E+02  0.24734376865E+02  0.30240771310E+02  0.00000000000E+00 0.  1.
</event>
<event>
 8    1  0.1210161E-006  0.9118800E+02  0.7816164E-02  0.1184000E+00
        -11   -1    0    0    0    0  0.00000000000E+00  0.00000000000E+00  0.45593999997E+02  0.45594000000E+02  0.51100000000E-03 0. -1.
         11   -1    0    0    0    0 -0.00000000000E+00 -0.00000000000E+00 -0.45593999997E+02  0.45594000000E+02  0.51100000000E-03 0.  1.
         23    2    1    2    0    0  0.00000000000E+00  0.00000000000E+00 -0.44408920985E-15  0.91188000000E+02  0.91188000000E+02 0.  0.
    9900012    2    3    3    0    0 -0.34611286135E+02  0.12338098365E+02  0.23688478994E+01  0.54367065200E+02  0.39999956737E+02 0.  0.
         12    1    3    3    0    0  0.34611286135E+02 -0.12338098365E+02 -0.23688478994E+01  0.36820934800E+02  0.00000000000E+00 0. -1.
         11    1    4    4    0    0  0.78349748571E-01 -0.27741809641E+01  0.59136631391E+01  0.65325056976E+01  0.51100000000E-03 0. -1.
        -11    1    4    4    0    0 -0.15287086077E+02 -0.71294701633E+01  0.40717381017E+01  0.17352331168E+02  0.51100000000E-03 0.  1.
        -12    1    4    4    0    0 -0.19402549806E+02  0.22241749492E+02 -0.76165533414E+01  0.30482228335E+02  0.00000000000E+00 0.  1.
</event>
<event>
 8    1  0.1210161E-006  0.9118800E+02  0.7816164E-02  0.1184000E+00
        -11   -1    0    0    0    0  0.00000000000E+00  0.00000000000E+00  0.45593999997E+02  0.45594000000E+02  0.51100000000E-03 0.  1.
         11   -1    0    0    0    0 -0.00000000000E+00 -0.00000000000E+00 -0.45593999997E+02  0.45594000000E+02  0.51100000000E-03 0. -1.
         23    2    1    2    0    0  0.17763568394E-14  0.00000000000E+00  0.00000000000E+00  0.91188000000E+02  0.91188000000E+02 0.  0.
    9900012    2    3    3    0    0  0.15060570499E+02  0.28223387591E+02  0.18231834487E+02  0.54367079592E+02  0.39999989547E+02 0.  0.
        -12    1    3    3    0    0 -0.15060570499E+02 -0.28223387591E+02 -0.18231834487E+02  0.36820920408E+02  0.00000000000E+00 0.  1.
         11    1    4    4    0    0  0.12030904485E+01  0.83589502640E+01 -0.35461587128E+01  0.91594059863E+01  0.51100000000E-03 0. -1.
        -11    1    4    4    0    0  0.14237461800E+02 -0.43806274353E+01  0.11730131743E+02  0.18960253327E+02  0.51100000000E-03 0.  1.
        -12    1    4    4    0    0 -0.37998174945E+00  0.24245064763E+02  0.10047861456E+02  0.26247420279E+02  0.00000000000E+00 0.  1.
</event>
<event>
 8    1  0.1210161E-006  0.9118800E+02  0.7816164E-02  0.1184000E+00
        -11   -1    0    0    0    0  0.00000000000E+00  0.00000000000E+00  0.45593999997E+02  0.45594000000E+02  0.51100000000E-03 0.  1.
         11   -1    0    0    0    0 -0.00000000000E+00 -0.00000000000E+00 -0.45593999997E+02  0.45594000000E+02  0.51100000000E-03 0. -1.
         23    2    1    2    0    0  0.00000000000E+00  0.88817841970E-15  0.00000000000E+00  0.91188000000E+02  0.91188000000E+02 0.  0.
    9900012    2    3    3    0    0  0.34719540201E+02 -0.73975317433E+01  0.97780774532E+01  0.54367071897E+02  0.39999972004E+02 0.  0.
        -12    1    3    3    0    0 -0.34719540201E+02  0.73975317433E+01 -0.97780774532E+01  0.36820928103E+02  0.00000000000E+00 0.  1.
         11    1    4    4    0    0  0.14227541630E+02 -0.64524214474E+01 -0.29767464841E+00  0.15625149401E+02  0.51100000000E-03 0. -1.
        -11    1    4    4    0    0 -0.35371028561E+01  0.10029863875E+02  0.53522980595E+01  0.11906148023E+02  0.51100000000E-03 0.  1.
        -12    1    4    4    0    0  0.24029101428E+02 -0.10974974171E+02  0.47234540421E+01  0.26835774473E+02  0.00000000000E+00 0.  1.
</event>
<event>
 8    1  0.1210161E-006  0.9118800E+02  0.7816164E-02  0.1184000E+00
        -11   -1    0    0    0    0  0.00000000000E+00  0.00000000000E+00  0.45593999997E+02  0.45594000000E+02  0.51100000000E-03 0.  1.
         11   -1    0    0    0    0 -0.00000000000E+00 -0.00000000000E+00 -0.45593999997E+02  0.45594000000E+02  0.51100000000E-03 0. -1.
         23    2    1    2    0    0 -0.88817841970E-15  0.00000000000E+00  0.00000000000E+00  0.91188000000E+02  0.91188000000E+02 0.  0.
    9900012    2    3    3    0    0  0.47234723403E+01 -0.34461172387E+02  0.12078718592E+02  0.54367095121E+02  0.40000024948E+02 0.  0.
         12    1    3    3    0    0 -0.47234723403E+01  0.34461172387E+02 -0.12078718592E+02  0.36820904879E+02  0.00000000000E+00 0. -1.
         11    1    4    4    0    0 -0.15291456174E+02 -0.44580287142E+01  0.17342726118E+01  0.16022183175E+02  0.51100000000E-03 0. -1.
        -11    1    4    4    0    0  0.18199157100E+02 -0.23028331693E+02  0.60935402154E+01  0.29977401695E+02  0.51100000000E-03 0.  1.
         12    1    4    4    0    0  0.18157714140E+01 -0.69748119798E+01  0.42509057652E+01  0.83675102513E+01  0.00000000000E+00 0. -1.
</event>
<event>
 8    1  0.1210161E-006  0.9118800E+02  0.7816164E-02  0.1184000E+00
        -11   -1    0    0    0    0  0.00000000000E+00  0.00000000000E+00  0.45593999997E+02  0.45594000000E+02  0.51100000000E-03 0. -1.
         11   -1    0    0    0    0 -0.00000000000E+00 -0.00000000000E+00 -0.45593999997E+02  0.45594000000E+02  0.51100000000E-03 0.  1.
         23    2    1    2    0    0  0.35527136788E-14  0.00000000000E+00 -0.35527136788E-14  0.91188000000E+02  0.91188000000E+02 0.  0.
    9900012    2    3    3    0    0 -0.27914431315E+02  0.41467577703E+01  0.23650974972E+02  0.54367086204E+02  0.40000004620E+02 0.  0.
        -12    1    3    3    0    0  0.27914431315E+02 -0.41467577703E+01 -0.23650974972E+02  0.36820913796E+02  0.00000000000E+00 0.  1.
         11    1    4    4    0    0 -0.57804669504E+01  0.38799578223E+01  0.13901392789E+02  0.15547237459E+02  0.51100000000E-03 0. -1.
        -11    1    4    4    0    0  0.23186786895E+01  0.32929852982E+00 -0.81732359844E+01  0.85021464998E+01  0.51100000000E-03 0.  1.
        -12    1    4    4    0    0 -0.24452643054E+02 -0.62498581830E-01  0.17922818168E+02  0.30317702246E+02  0.00000000000E+00 0.  1.
</event>
<event>
 8    1  0.1210161E-006  0.9118800E+02  0.7816164E-02  0.1184000E+00
        -11   -1    0    0    0    0  0.00000000000E+00  0.00000000000E+00  0.45593999997E+02  0.45594000000E+02  0.51100000000E-03 0.  1.
         11   -1    0    0    0    0 -0.00000000000E+00 -0.00000000000E+00 -0.45593999997E+02  0.45594000000E+02  0.51100000000E-03 0. -1.
         23    2    1    2    0    0  0.00000000000E+00  0.00000000000E+00  0.00000000000E+00  0.91188000000E+02  0.91188000000E+02 0.  0.
    9900012    2    3    3    0    0 -0.32320781097E+02  0.28152338046E+01  0.17413153362E+02  0.54367131704E+02  0.40000108345E+02 0.  0.
         12    1    3    3    0    0  0.32320781097E+02 -0.28152338046E+01 -0.17413153362E+02  0.36820868296E+02  0.00000000000E+00 0. -1.
         11    1    4    4    0    0 -0.52825623194E+00 -0.22849086644E+01  0.40614398187E+01  0.46898993500E+01  0.51100000000E-03 0. -1.
        -11    1    4    4    0    0  0.67742100650E+01  0.53230680312E+01 -0.66674189766E+00  0.86411527176E+01  0.51100000000E-03 0.  1.
        -12    1    4    4    0    0 -0.38566734930E+02 -0.22292556218E+00  0.14018455441E+02  0.41036079636E+02  0.00000000000E+00 0.  1.
</event>
<event>
 8    1  0.1210161E-006  0.9118800E+02  0.7816164E-02  0.1184000E+00
        -11   -1    0    0    0    0  0.00000000000E+00  0.00000000000E+00  0.45593999997E+02  0.45594000000E+02  0.51100000000E-03 0. -1.
         11   -1    0    0    0    0 -0.00000000000E+00 -0.00000000000E+00 -0.45593999997E+02  0.45594000000E+02  0.51100000000E-03 0.  1.
         23    2    1    2    0    0 -0.22204460493E-14  0.00000000000E+00  0.00000000000E+00  0.91188000000E+02  0.91188000000E+02 0.  0.
    9900012    2    3    3    0    0  0.32190133611E+01  0.35415695107E+02  0.95470794099E+01  0.54367078879E+02  0.39999987920E+02 0.  0.
        -12    1    3    3    0    0 -0.32190133611E+01 -0.35415695107E+02 -0.95470794099E+01  0.36820921121E+02  0.00000000000E+00 0.  1.
         11    1    4    4    0    0 -0.58691125340E+01  0.12025844279E+01  0.99303430839E+01  0.11597603428E+02  0.51100000000E-03 0.  1.
        -11    1    4    4    0    0  0.12804968062E+02  0.10302682530E+02  0.64029159071E+01  0.17638305099E+02  0.51100000000E-03 0. -1.
         12    1    4    4    0    0 -0.37168421666E+01  0.23910428149E+02 -0.67861795811E+01  0.25131170352E+02  0.00000000000E+00 0. -1.
</event>
<event>
 8    1  0.1210161E-006  0.9118800E+02  0.7816164E-02  0.1184000E+00
        -11   -1    0    0    0    0  0.00000000000E+00  0.00000000000E+00  0.45593999997E+02  0.45594000000E+02  0.51100000000E-03 0.  1.
         11   -1    0    0    0    0 -0.00000000000E+00 -0.00000000000E+00 -0.45593999997E+02  0.45594000000E+02  0.51100000000E-03 0. -1.
         23    2    1    2    0    0 -0.35527136788E-14  0.44408920985E-15  0.35527136788E-14  0.91188000000E+02  0.91188000000E+02 0.  0.
    9900012    2    3    3    0    0  0.26698414146E+02 -0.85189484115E+00  0.25342631136E+02  0.54367082092E+02  0.39999995245E+02 0.  0.
         12    1    3    3    0    0 -0.26698414146E+02  0.85189484115E+00 -0.25342631136E+02  0.36820917908E+02  0.00000000000E+00 0. -1.
         11    1    4    4    0    0 -0.95956216773E+00  0.39476640561E+01 -0.84865677726E+00  0.41503047647E+01  0.51100000000E-03 0. -1.
        -11    1    4    4    0    0 -0.37198978657E+01 -0.10281629132E+02  0.78552480066E+01  0.13463077629E+02  0.51100000000E-03 0.  1.
        -12    1    4    4    0    0  0.31377874179E+02  0.54820702343E+01  0.18336039906E+02  0.36753699698E+02  0.00000000000E+00 0.  1.
</event>
<event>
 8    1  0.1210161E-006  0.9118800E+02  0.7816164E-02  0.1184000E+00
        -11   -1    0    0    0    0  0.00000000000E+00  0.00000000000E+00  0.45593999997E+02  0.45594000000E+02  0.51100000000E-03 0. -1.
         11   -1    0    0    0    0 -0.00000000000E+00 -0.00000000000E+00 -0.45593999997E+02  0.45594000000E+02  0.51100000000E-03 0.  1.
         23    2    1    2    0    0  0.00000000000E+00 -0.53290705182E-14  0.00000000000E+00  0.91188000000E+02  0.91188000000E+02 0.  0.
    9900012    2    3    3    0    0  0.48646068867E+00 -0.15938200611E+02  0.33189135738E+02  0.54367060119E+02  0.39999945152E+02 0.  0.
        -12    1    3    3    0    0 -0.48646068867E+00  0.15938200611E+02 -0.33189135738E+02  0.36820939881E+02  0.00000000000E+00 0.  1.
         11    1    4    4    0    0 -0.32013265167E+01 -0.18848678239E+02  0.30535047146E+02  0.36026521720E+02  0.51100000000E-03 0. -1.
        -11    1    4    4    0    0 -0.15315911363E+01  0.92802358086E+01  0.35575900869E+01  0.10056092460E+02  0.51100000000E-03 0.  1.
        -12    1    4    4    0    0  0.52193783417E+01 -0.63697581807E+01 -0.90350149458E+00  0.82844459383E+01  0.00000000000E+00 0.  1.
</event>
<event>
 8    1  0.1210161E-006  0.9118800E+02  0.7816164E-02  0.1184000E+00
        -11   -1    0    0    0    0  0.00000000000E+00  0.00000000000E+00  0.45593999997E+02  0.45594000000E+02  0.51100000000E-03 0.  1.
         11   -1    0    0    0    0 -0.00000000000E+00 -0.00000000000E+00 -0.45593999997E+02  0.45594000000E+02  0.51100000000E-03 0. -1.
         23    2    1    2    0    0  0.00000000000E+00 -0.35527136788E-14  0.17763568394E-14  0.91188000000E+02  0.91188000000E+02 0.  0.
    9900012    2    3    3    0    0 -0.30533238390E+02 -0.20476074712E+02 -0.20574338892E+01  0.54367064157E+02  0.39999954358E+02 0.  0.
         12    1    3    3    0    0  0.30533238390E+02  0.20476074712E+02  0.20574338892E+01  0.36820935843E+02  0.00000000000E+00 0. -1.
         11    1    4    4    0    0 -0.53403619029E+01 -0.21020854883E+01 -0.89505826072E+01  0.10632551807E+02  0.51100000000E-03 0. -1.
        -11    1    4    4    0    0 -0.29278582218E+02 -0.73714070259E+01  0.96151002356E+01  0.31686324669E+02  0.51100000000E-03 0.  1.
        -12    1    4    4    0    0  0.40857057311E+01 -0.11002582198E+02 -0.27219515176E+01  0.12048187681E+02  0.00000000000E+00 0.  1.
</event>
<event>
 8    1  0.1210161E-006  0.9118800E+02  0.7816164E-02  0.1184000E+00
        -11   -1    0    0    0    0  0.00000000000E+00  0.00000000000E+00  0.45593999997E+02  0.45594000000E+02  0.51100000000E-03 0.  1.
         11   -1    0    0    0    0 -0.00000000000E+00 -0.00000000000E+00 -0.45593999997E+02  0.45594000000E+02  0.51100000000E-03 0. -1.
         23    2    1    2    0    0  0.00000000000E+00 -0.17763568394E-14  0.00000000000E+00  0.91188000000E+02  0.91188000000E+02 0.  0.
    9900012    2    3    3    0    0  0.31443748507E+02  0.12598701877E+02 -0.14434066974E+02  0.54367096989E+02  0.40000029207E+02 0.  0.
        -12    1    3    3    0    0 -0.31443748507E+02 -0.12598701877E+02  0.14434066974E+02  0.36820903011E+02  0.00000000000E+00 0.  1.
         11    1    4    4    0    0  0.34312621758E+02  0.54930868430E+01 -0.23071744029E+02  0.41711334045E+02  0.51100000000E-03 0. -1.
        -11    1    4    4    0    0 -0.93112201557E+00  0.16826035750E+01  0.60389480680E+01  0.63377469993E+01  0.51100000000E-03 0.  1.
         12    1    4    4    0    0 -0.19377512360E+01  0.54230114588E+01  0.25987289876E+01  0.63180159454E+01  0.00000000000E+00 0. -1.
</event>
<event>
 8    1  0.1210161E-006  0.9118800E+02  0.7816164E-02  0.1184000E+00
        -11   -1    0    0    0    0  0.00000000000E+00  0.00000000000E+00  0.45593999997E+02  0.45594000000E+02  0.51100000000E-03 0.  1.
         11   -1    0    0    0    0 -0.00000000000E+00 -0.00000000000E+00 -0.45593999997E+02  0.45594000000E+02  0.51100000000E-03 0. -1.
         23    2    1    2    0    0 -0.88817841970E-15  0.35527136788E-14  0.00000000000E+00  0.91188000000E+02  0.91188000000E+02 0.  0.
    9900012    2    3    3    0    0  0.63497005328E+01 -0.79483544116E+01 -0.35387691037E+02  0.54367031631E+02  0.39999880208E+02 0.  0.
        -12    1    3    3    0    0 -0.63497005328E+01  0.79483544116E+01  0.35387691037E+02  0.36820968369E+02  0.00000000000E+00 0.  1.
         11    1    4    4    0    0 -0.81241476030E+01  0.42354379908E+01 -0.87393653507E+01  0.12661643505E+02  0.51100000000E-03 0. -1.
        -11    1    4    4    0    0  0.31682098128E+01  0.63837711057E+01  0.23734752153E+00  0.71306676444E+01  0.51100000000E-03 0.  1.
         12    1    4    4    0    0  0.11305638323E+02 -0.18567563508E+02 -0.26885673208E+02  0.34574720481E+02  0.00000000000E+00 0. -1.
</event>
<event>
 8    1  0.1210161E-006  0.9118800E+02  0.7816164E-02  0.1184000E+00
        -11   -1    0    0    0    0  0.00000000000E+00  0.00000000000E+00  0.45593999997E+02  0.45594000000E+02  0.51100000000E-03 0.  1.
         11   -1    0    0    0    0 -0.00000000000E+00 -0.00000000000E+00 -0.45593999997E+02  0.45594000000E+02  0.51100000000E-03 0. -1.
         23    2    1    2    0    0  0.00000000000E+00 -0.17763568394E-14  0.71054273576E-14  0.91188000000E+02  0.91188000000E+02 0.  0.
    9900012    2    3    3    0    0  0.51755889687E+01 -0.12620578048E+02  0.34201105975E+02  0.54367063546E+02  0.39999952966E+02 0.  0.
         12    1    3    3    0    0 -0.51755889687E+01  0.12620578048E+02 -0.34201105975E+02  0.36820936454E+02  0.00000000000E+00 0. -1.
         11    1    4    4    0    0  0.37034119128E+01 -0.15987311623E+01 -0.84638309529E+01  0.93759071980E+01  0.51100000000E-03 0. -1.
        -11    1    4    4    0    0 -0.13013845564E+01 -0.76682024737E-01  0.59617733068E+00  0.14334955763E+01  0.51100000000E-03 0.  1.
        -12    1    4    4    0    0  0.27735616123E+01 -0.10945164861E+02  0.42068759597E+02  0.43557660772E+02  0.00000000000E+00 0.  1.
</event>
<event>
 8    1  0.1210161E-006  0.9118800E+02  0.7816164E-02  0.1184000E+00
        -11   -1    0    0    0    0  0.00000000000E+00  0.00000000000E+00  0.45593999997E+02  0.45594000000E+02  0.51100000000E-03 0. -1.
         11   -1    0    0    0    0 -0.00000000000E+00 -0.00000000000E+00 -0.45593999997E+02  0.45594000000E+02  0.51100000000E-03 0.  1.
         23    2    1    2    0    0  0.88817841970E-15  0.00000000000E+00 -0.71054273576E-14  0.91188000000E+02  0.91188000000E+02 0.  0.
    9900012    2    3    3    0    0 -0.66112700449E+01  0.16478629958E+02  0.32257179103E+02  0.54367085554E+02  0.40000003138E+02 0.  0.
        -12    1    3    3    0    0  0.66112700449E+01 -0.16478629958E+02 -0.32257179103E+02  0.36820914446E+02  0.00000000000E+00 0.  1.
         11    1    4    4    0    0  0.36038116036E+01 -0.30918260800E+01  0.22140769833E+02  0.22644216384E+02  0.51100000000E-03 0.  1.
        -11    1    4    4    0    0 -0.55370720176E+01  0.75096059905E+01  0.15190464314E+02  0.17827045605E+02  0.51100000000E-03 0. -1.
        -12    1    4    4    0    0 -0.46780096308E+01  0.12060850048E+02 -0.50740550435E+01  0.13895823566E+02  0.00000000000E+00 0.  1.
</event>
<event>
 8    1  0.1210161E-006  0.9118800E+02  0.7816164E-02  0.1184000E+00
        -11   -1    0    0    0    0  0.00000000000E+00  0.00000000000E+00  0.45593999997E+02  0.45594000000E+02  0.51100000000E-03 0.  1.
         11   -1    0    0    0    0 -0.00000000000E+00 -0.00000000000E+00 -0.45593999997E+02  0.45594000000E+02  0.51100000000E-03 0. -1.
         23    2    1    2    0    0  0.00000000000E+00  0.26645352591E-14  0.00000000000E+00  0.91188000000E+02  0.91188000000E+02 0.  0.
    9900012    2    3    3    0    0  0.19533246048E+02 -0.23409763636E+01  0.31124944370E+02  0.54366945784E+02  0.39999684503E+02 0.  0.
         12    1    3    3    0    0 -0.19533246048E+02  0.23409763636E+01 -0.31124944370E+02  0.36821054216E+02  0.00000000000E+00 0. -1.
         11    1    4    4    0    0  0.94650817151E+01 -0.14072142295E+02  0.15145202058E+02  0.22737416439E+02  0.51100000000E-03 0.  1.
        -11    1    4    4    0    0 -0.13614495202E+01  0.13115770226E+02  0.17135489083E+01  0.13297113353E+02  0.51100000000E-03 0. -1.
         12    1    4    4    0    0  0.11429613853E+02 -0.13846042942E+01  0.14266193403E+02  0.18332415992E+02  0.00000000000E+00 0. -1.
</event>
<event>
 8    1  0.1210161E-006  0.9118800E+02  0.7816164E-02  0.1184000E+00
        -11   -1    0    0    0    0  0.00000000000E+00  0.00000000000E+00  0.45593999997E+02  0.45594000000E+02  0.51100000000E-03 0. -1.
         11   -1    0    0    0    0 -0.00000000000E+00 -0.00000000000E+00 -0.45593999997E+02  0.45594000000E+02  0.51100000000E-03 0.  1.
         23    2    1    2    0    0 -0.88817841970E-15  0.00000000000E+00  0.00000000000E+00  0.91188000000E+02  0.91188000000E+02 0.  0.
    9900012    2    3    3    0    0  0.36243140827E+01  0.34366474935E+02 -0.12711787263E+02  0.54367084919E+02  0.40000001689E+02 0.  0.
         12    1    3    3    0    0 -0.36243140827E+01 -0.34366474935E+02  0.12711787263E+02  0.36820915081E+02  0.00000000000E+00 0. -1.
         11    1    4    4    0    0 -0.66119749422E+01 -0.56599781850E+01 -0.68361064601E+01  0.11067335609E+02  0.51100000000E-03 0. -1.
        -11    1    4    4    0    0  0.10125619191E+02  0.19772420204E+02 -0.61271835663E+01  0.23043852617E+02  0.51100000000E-03 0.  1.
        -12    1    4    4    0    0  0.11066983361E+00  0.20254032916E+02  0.25150276333E+00  0.20255896693E+02  0.00000000000E+00 0.  1.
</event>
<event>
 8    1  0.1210161E-006  0.9118800E+02  0.7816164E-02  0.1184000E+00
        -11   -1    0    0    0    0  0.00000000000E+00  0.00000000000E+00  0.45593999997E+02  0.45594000000E+02  0.51100000000E-03 0. -1.
         11   -1    0    0    0    0 -0.00000000000E+00 -0.00000000000E+00 -0.45593999997E+02  0.45594000000E+02  0.51100000000E-03 0.  1.
         23    2    1    2    0    0  0.00000000000E+00 -0.17763568394E-14  0.00000000000E+00  0.91188000000E+02  0.91188000000E+02 0.  0.
    9900012    2    3    3    0    0 -0.53422561628E+01 -0.85388482155E+01  0.35416505016E+02  0.54367075823E+02  0.39999980953E+02 0.  0.
        -12    1    3    3    0    0  0.53422561628E+01  0.85388482155E+01 -0.35416505016E+02  0.36820924177E+02  0.00000000000E+00 0.  1.
         11    1    4    4    0    0  0.67183379796E+01  0.47673795316E+01  0.99802029657E+01  0.12940959173E+02  0.51100000000E-03 0. -1.
        -11    1    4    4    0    0 -0.12711881536E+02 -0.21227798828E+02  0.18904487963E+02  0.31138256867E+02  0.51100000000E-03 0.  1.
        -12    1    4    4    0    0  0.65128739367E+00  0.79215710810E+01  0.65318140868E+01  0.10287859784E+02  0.00000000000E+00 0.  1.
</event>
<event>
 8    1  0.1210161E-006  0.9118800E+02  0.7816164E-02  0.1184000E+00
        -11   -1    0    0    0    0  0.00000000000E+00  0.00000000000E+00  0.45593999997E+02  0.45594000000E+02  0.51100000000E-03 0.  1.
         11   -1    0    0    0    0 -0.00000000000E+00 -0.00000000000E+00 -0.45593999997E+02  0.45594000000E+02  0.51100000000E-03 0. -1.
         23    2    1    2    0    0 -0.88817841970E-15  0.00000000000E+00  0.00000000000E+00  0.91188000000E+02  0.91188000000E+02 0.  0.
    9900012    2    3    3    0    0  0.62376252109E+01 -0.55738299125E+01  0.35858105677E+02  0.54367091661E+02  0.40000017060E+02 0.  0.
         12    1    3    3    0    0 -0.62376252109E+01  0.55738299125E+01 -0.35858105677E+02  0.36820908339E+02  0.00000000000E+00 0. -1.
         11    1    4    4    0    0  0.74891969960E+01 -0.38722217598E+01  0.29970455809E+02  0.31133750090E+02  0.51100000000E-03 0. -1.
        -11    1    4    4    0    0 -0.83910953189E+01  0.48672563656E+01  0.88068731435E+01  0.13101972371E+02  0.51100000000E-03 0.  1.
         12    1    4    4    0    0  0.71395235338E+01 -0.65688645184E+01 -0.29192232753E+01  0.10131369201E+02  0.00000000000E+00 0. -1.
</event>
<event>
 8    1  0.1210161E-006  0.9118800E+02  0.7816164E-02  0.1184000E+00
        -11   -1    0    0    0    0  0.00000000000E+00  0.00000000000E+00  0.45593999997E+02  0.45594000000E+02  0.51100000000E-03 0.  1.
         11   -1    0    0    0    0 -0.00000000000E+00 -0.00000000000E+00 -0.45593999997E+02  0.45594000000E+02  0.51100000000E-03 0. -1.
         23    2    1    2    0    0  0.00000000000E+00  0.00000000000E+00  0.00000000000E+00  0.91188000000E+02  0.91188000000E+02 0.  0.
    9900012    2    3    3    0    0  0.34725183025E+02 -0.41139928324E+01  0.11533212415E+02  0.54367105636E+02  0.40000048917E+02 0.  0.
         12    1    3    3    0    0 -0.34725183025E+02  0.41139928324E+01 -0.11533212415E+02  0.36820894364E+02  0.00000000000E+00 0. -1.
         11    1    4    4    0    0 -0.12810323701E+00  0.33085822190E+01 -0.35207105159E+01  0.48330662665E+01  0.51100000000E-03 0. -1.
        -11    1    4    4    0    0  0.31280816935E+02  0.72145834284E+01  0.95333043909E+01  0.33487663625E+02  0.51100000000E-03 0.  1.
         12    1    4    4    0    0  0.35724693273E+01 -0.14637158480E+02  0.55206185404E+01  0.16046375744E+02  0.00000000000E+00 0. -1.
</event>
<event>
 8    1  0.1210161E-006  0.9118800E+02  0.7816164E-02  0.1184000E+00
        -11   -1    0    0    0    0  0.00000000000E+00  0.00000000000E+00  0.45593999997E+02  0.45594000000E+02  0.51100000000E-03 0. -1.
         11   -1    0    0    0    0 -0.00000000000E+00 -0.00000000000E+00 -0.45593999997E+02  0.45594000000E+02  0.51100000000E-03 0.  1.
         23    2    1    2    0    0  0.22204460493E-15 -0.71054273576E-14  0.17763568394E-14  0.91188000000E+02  0.91188000000E+02 0.  0.
    9900012    2    3    3    0    0 -0.16696467187E+01 -0.35709013210E+02  0.88237220274E+01  0.54367089976E+02  0.40000013218E+02 0.  0.
        -12    1    3    3    0    0  0.16696467187E+01  0.35709013210E+02 -0.88237220274E+01  0.36820910024E+02  0.00000000000E+00 0.  1.
         11    1    4    4    0    0  0.64722459913E+01 -0.24481613531E+02  0.10758494947E+02  0.27513352814E+02  0.51100000000E-03 0. -1.
        -11    1    4    4    0    0 -0.70809148525E+01 -0.77779883236E+01 -0.12120163687E+02  0.16047891624E+02  0.51100000000E-03 0.  1.
        -12    1    4    4    0    0 -0.10609778576E+01 -0.34494113547E+01  0.10185390767E+02  0.10805845538E+02  0.00000000000E+00 0.  1.
</event>
<event>
 8    1  0.1210161E-006  0.9118800E+02  0.7816164E-02  0.1184000E+00
        -11   -1    0    0    0    0  0.00000000000E+00  0.00000000000E+00  0.45593999997E+02  0.45594000000E+02  0.51100000000E-03 0.  1.
         11   -1    0    0    0    0 -0.00000000000E+00 -0.00000000000E+00 -0.45593999997E+02  0.45594000000E+02  0.51100000000E-03 0. -1.
         23    2    1    2    0    0  0.35527136788E-14  0.00000000000E+00  0.00000000000E+00  0.91188000000E+02  0.91188000000E+02 0.  0.
    9900012    2    3    3    0    0 -0.18935303813E+02 -0.24429053956E+02  0.20011386891E+02  0.54367081856E+02  0.39999994707E+02 0.  0.
         12    1    3    3    0    0  0.18935303813E+02  0.24429053956E+02 -0.20011386891E+02  0.36820918144E+02  0.00000000000E+00 0. -1.
         11    1    4    4    0    0  0.45150999902E+01 -0.11195598393E+02  0.62426836841E+01  0.13590388189E+02  0.51100000000E-03 0. -1.
        -11    1    4    4    0    0 -0.79308081618E+01 -0.15549954671E+01  0.19012146882E+02  0.20658592845E+02  0.51100000000E-03 0.  1.
         12    1    4    4    0    0 -0.15519595642E+02 -0.11678460096E+02 -0.52434436751E+01  0.20118100822E+02  0.00000000000E+00 0. -1.
</event>
<event>
 8    1  0.1210161E-006  0.9118800E+02  0.7816164E-02  0.1184000E+00
        -11   -1    0    0    0    0  0.00000000000E+00  0.00000000000E+00  0.45593999997E+02  0.45594000000E+02  0.51100000000E-03 0.  1.
         11   -1    0    0    0    0 -0.00000000000E+00 -0.00000000000E+00 -0.45593999997E+02  0.45594000000E+02  0.51100000000E-03 0. -1.
         23    2    1    2    0    0  0.00000000000E+00  0.35527136788E-14  0.00000000000E+00  0.91188000000E+02  0.91188000000E+02 0.  0.
    9900012    2    3    3    0    0 -0.24745378757E+02 -0.25838827558E+02 -0.87063771985E+01  0.54367084975E+02  0.40000001817E+02 0.  0.
        -12    1    3    3    0    0  0.24745378757E+02  0.25838827558E+02  0.87063771985E+01  0.36820915025E+02  0.00000000000E+00 0.  1.
         11    1    4    4    0    0  0.75954949978E+01  0.31284052490E+01 -0.69228096105E+01  0.10742614059E+02  0.51100000000E-03 0. -1.
        -11    1    4    4    0    0 -0.17924573380E+02 -0.13956174287E+02 -0.20582974735E+01  0.22810123199E+02  0.51100000000E-03 0.  1.
         12    1    4    4    0    0 -0.14416300374E+02 -0.15011058519E+02  0.27472988551E+00  0.20814347717E+02  0.00000000000E+00 0. -1.
</event>
<event>
 8    1  0.1210161E-006  0.9118800E+02  0.7816164E-02  0.1184000E+00
        -11   -1    0    0    0    0  0.00000000000E+00  0.00000000000E+00  0.45593999997E+02  0.45594000000E+02  0.51100000000E-03 0. -1.
         11   -1    0    0    0    0 -0.00000000000E+00 -0.00000000000E+00 -0.45593999997E+02  0.45594000000E+02  0.51100000000E-03 0.  1.
         23    2    1    2    0    0  0.00000000000E+00  0.00000000000E+00  0.17763568394E-14  0.91188000000E+02  0.91188000000E+02 0.  0.
    9900012    2    3    3    0    0 -0.26620923048E+02  0.23556547548E+02  0.96018262925E+01  0.54367088218E+02  0.40000009210E+02 0.  0.
        -12    1    3    3    0    0  0.26620923048E+02 -0.23556547548E+02 -0.96018262925E+01  0.36820911782E+02  0.00000000000E+00 0.  1.
         11    1    4    4    0    0 -0.12192269292E+02  0.17942539295E+02 -0.79757721919E+01  0.23112747330E+02  0.51100000000E-03 0. -1.
        -11    1    4    4    0    0  0.25014418465E+00 -0.64951068611E+01  0.67046498715E+01  0.93381644562E+01  0.51100000000E-03 0.  1.
         12    1    4    4    0    0 -0.14678797941E+02  0.12109115114E+02  0.10872948613E+02  0.21916176431E+02  0.00000000000E+00 0. -1.
</event>
<event>
 8    1  0.1210161E-006  0.9118800E+02  0.7816164E-02  0.1184000E+00
        -11   -1    0    0    0    0  0.00000000000E+00  0.00000000000E+00  0.45593999997E+02  0.45594000000E+02  0.51100000000E-03 0. -1.
         11   -1    0    0    0    0 -0.00000000000E+00 -0.00000000000E+00 -0.45593999997E+02  0.45594000000E+02  0.51100000000E-03 0.  1.
         23    2    1    2    0    0  0.35527136788E-14  0.00000000000E+00  0.00000000000E+00  0.91188000000E+02  0.91188000000E+02 0.  0.
    9900012    2    3    3    0    0 -0.16047151014E+02 -0.24359381467E+02 -0.22469744461E+02  0.54367082884E+02  0.39999997052E+02 0.  0.
         12    1    3    3    0    0  0.16047151014E+02  0.24359381467E+02  0.22469744461E+02  0.36820917116E+02  0.00000000000E+00 0. -1.
         11    1    4    4    0    0 -0.31486673949E+01 -0.28833027692E+02 -0.61281034850E+01  0.29644750713E+02  0.51100000000E-03 0. -1.
        -11    1    4    4    0    0 -0.13791828895E+02  0.28799932287E+00 -0.98647283340E+01  0.16959078785E+02  0.51100000000E-03 0.  1.
        -12    1    4    4    0    0  0.89334527540E+00  0.41856469026E+01 -0.64769126416E+01  0.77632533864E+01  0.00000000000E+00 0.  1.
</event>
<event>
 8    1  0.1210161E-006  0.9118800E+02  0.7816164E-02  0.1184000E+00
        -11   -1    0    0    0    0  0.00000000000E+00  0.00000000000E+00  0.45593999997E+02  0.45594000000E+02  0.51100000000E-03 0.  1.
         11   -1    0    0    0    0 -0.00000000000E+00 -0.00000000000E+00 -0.45593999997E+02  0.45594000000E+02  0.51100000000E-03 0. -1.
         23    2    1    2    0    0  0.17763568394E-14 -0.35527136788E-14 -0.35527136788E-14  0.91188000000E+02  0.91188000000E+02 0.  0.
    9900012    2    3    3    0    0 -0.68393880727E+01  0.23623579206E+02  0.27403087072E+02  0.54367083325E+02  0.39999998056E+02 0.  0.
         12    1    3    3    0    0  0.68393880727E+01 -0.23623579206E+02 -0.27403087072E+02  0.36820916675E+02  0.00000000000E+00 0. -1.
         11    1    4    4    0    0 -0.10527139612E+02  0.18643389234E+01  0.11649719652E+02  0.15811780300E+02  0.51100000000E-03 0. -1.
        -11    1    4    4    0    0 -0.74449704788E+01 -0.27175430210E+01  0.60416788828E+01  0.99656665349E+01  0.51100000000E-03 0.  1.
         12    1    4    4    0    0  0.11132722018E+02  0.24476783304E+02  0.97116885375E+01  0.28589636491E+02  0.00000000000E+00 0. -1.
</event>
<event>
 8    1  0.1210161E-006  0.9118800E+02  0.7816164E-02  0.1184000E+00
        -11   -1    0    0    0    0  0.00000000000E+00  0.00000000000E+00  0.45593999997E+02  0.45594000000E+02  0.51100000000E-03 0.  1.
         11   -1    0    0    0    0 -0.00000000000E+00 -0.00000000000E+00 -0.45593999997E+02  0.45594000000E+02  0.51100000000E-03 0. -1.
         23    2    1    2    0    0 -0.88817841970E-15  0.35527136788E-14  0.00000000000E+00  0.91188000000E+02  0.91188000000E+02 0.  0.
    9900012    2    3    3    0    0 -0.74857604764E+01  0.20858741331E+02  0.29404934498E+02  0.54367165237E+02  0.40000184790E+02 0.  0.
         12    1    3    3    0    0  0.74857604764E+01 -0.20858741331E+02 -0.29404934498E+02  0.36820834763E+02  0.00000000000E+00 0. -1.
         11    1    4    4    0    0  0.58561585415E+01  0.11620750524E+01  0.81507459264E+01  0.10103448456E+02  0.51100000000E-03 0. -1.
        -11    1    4    4    0    0 -0.14842404792E+02  0.25090902286E+02  0.85495407903E+01  0.30380009966E+02  0.51100000000E-03 0.  1.
        -12    1    4    4    0    0  0.15004857743E+01 -0.53942360080E+01  0.12704647781E+02  0.13883706815E+02  0.00000000000E+00 0.  1.
</event>
<event>
 8    1  0.1210161E-006  0.9118800E+02  0.7816164E-02  0.1184000E+00
        -11   -1    0    0    0    0  0.00000000000E+00  0.00000000000E+00  0.45593999997E+02  0.45594000000E+02  0.51100000000E-03 0.  1.
         11   -1    0    0    0    0 -0.00000000000E+00 -0.00000000000E+00 -0.45593999997E+02  0.45594000000E+02  0.51100000000E-03 0. -1.
         23    2    1    2    0    0 -0.35527136788E-14  0.00000000000E+00  0.00000000000E+00  0.91188000000E+02  0.91188000000E+02 0.  0.
    9900012    2    3    3    0    0  0.26200931252E+02  0.11792535776E+02  0.23026776014E+02  0.54367012614E+02  0.39999836856E+02 0.  0.
         12    1    3    3    0    0 -0.26200931252E+02 -0.11792535776E+02 -0.23026776014E+02  0.36820987386E+02  0.00000000000E+00 0. -1.
         11    1    4    4    0    0  0.16983810659E+02 -0.25081706836E+01  0.80769091611E+01  0.18973065291E+02  0.51100000000E-03 0. -1.
        -11    1    4    4    0    0  0.16462130641E+02  0.68040682332E+01  0.17163305305E+02  0.24736130236E+02  0.51100000000E-03 0.  1.
         12    1    4    4    0    0 -0.72450100484E+01  0.74966382260E+01 -0.22134384525E+01  0.10657817088E+02  0.00000000000E+00 0. -1.
</event>
<event>
 8    1  0.1210161E-006  0.9118800E+02  0.7816164E-02  0.1184000E+00
        -11   -1    0    0    0    0  0.00000000000E+00  0.00000000000E+00  0.45593999997E+02  0.45594000000E+02  0.51100000000E-03 0.  1.
         11   -1    0    0    0    0 -0.00000000000E+00 -0.00000000000E+00 -0.45593999997E+02  0.45594000000E+02  0.51100000000E-03 0. -1.
         23    2    1    2    0    0  0.00000000000E+00  0.44408920985E-15  0.00000000000E+00  0.91188000000E+02  0.91188000000E+02 0.  0.
    9900012    2    3    3    0    0  0.81722602300E+01  0.29870334777E+01  0.35778085826E+02  0.54367087034E+02  0.40000006511E+02 0.  0.
         12    1    3    3    0    0 -0.81722602300E+01 -0.29870334777E+01 -0.35778085826E+02  0.36820912966E+02  0.00000000000E+00 0. -1.
         11    1    4    4    0    0 -0.13425422424E+02 -0.21963527260E+01  0.18226338855E+02  0.22743468532E+02  0.51100000000E-03 0. -1.
        -11    1    4    4    0    0  0.12013690553E+02 -0.28782413206E+01  0.35829600783E+01  0.12862761639E+02  0.51100000000E-03 0.  1.
        -12    1    4    4    0    0  0.95839921012E+01  0.80616275243E+01  0.13968786893E+02  0.18760856862E+02  0.00000000000E+00 0.  1.
</event>
<event>
 8    1  0.1210161E-006  0.9118800E+02  0.7816164E-02  0.1184000E+00
        -11   -1    0    0    0    0  0.00000000000E+00  0.00000000000E+00  0.45593999997E+02  0.45594000000E+02  0.51100000000E-03 0.  1.
         11   -1    0    0    0    0 -0.00000000000E+00 -0.00000000000E+00 -0.45593999997E+02  0.45594000000E+02  0.51100000000E-03 0. -1.
         23    2    1    2    0    0  0.35527136788E-14  0.00000000000E+00  0.35527136788E-14  0.91188000000E+02  0.91188000000E+02 0.  0.
    9900012    2    3    3    0    0  0.19340683202E+02  0.80139899559E+01 -0.30290067991E+02  0.54367159697E+02  0.40000172160E+02 0.  0.
        -12    1    3    3    0    0 -0.19340683202E+02 -0.80139899559E+01  0.30290067991E+02  0.36820840303E+02  0.00000000000E+00 0.  1.
         11    1    4    4    0    0  0.20447071264E+02  0.12420182033E+02 -0.65706010029E+01  0.24809603842E+02  0.51100000000E-03 0. -1.
        -11    1    4    4    0    0 -0.18299162321E+01  0.56389453847E+01 -0.32889905280E+01  0.67796576184E+01  0.51100000000E-03 0.  1.
         12    1    4    4    0    0  0.72352817001E+00 -0.10045137462E+02 -0.20430476461E+02  0.22777898236E+02  0.00000000000E+00 0. -1.
</event>
<event>
 8    1  0.1210161E-006  0.9118800E+02  0.7816164E-02  0.1184000E+00
        -11   -1    0    0    0    0  0.00000000000E+00  0.00000000000E+00  0.45593999997E+02  0.45594000000E+02  0.51100000000E-03 0. -1.
         11   -1    0    0    0    0 -0.00000000000E+00 -0.00000000000E+00 -0.45593999997E+02  0.45594000000E+02  0.51100000000E-03 0.  1.
         23    2    1    2    0    0  0.00000000000E+00  0.00000000000E+00 -0.71054273576E-14  0.91188000000E+02  0.91188000000E+02 0.  0.
    9900012    2    3    3    0    0  0.49704488540E+01  0.11879185536E+02 -0.34495679884E+02  0.54367186029E+02  0.40000232190E+02 0.  0.
         12    1    3    3    0    0 -0.49704488540E+01 -0.11879185536E+02  0.34495679884E+02  0.36820813971E+02  0.00000000000E+00 0. -1.
         11    1    4    4    0    0 -0.10633643179E+01  0.11253821990E+02 -0.24907950192E+01  0.11575116118E+02  0.51100000000E-03 0. -1.
        -11    1    4    4    0    0  0.98981298424E+01  0.11582540724E+02 -0.11012986080E+02  0.18799310802E+02  0.51100000000E-03 0.  1.
         12    1    4    4    0    0 -0.38643166704E+01 -0.10957177178E+02 -0.20991898785E+02  0.23992759109E+02  0.00000000000E+00 0. -1.
</event>
<event>
 8    1  0.1210161E-006  0.9118800E+02  0.7816164E-02  0.1184000E+00
        -11   -1    0    0    0    0  0.00000000000E+00  0.00000000000E+00  0.45593999997E+02  0.45594000000E+02  0.51100000000E-03 0. -1.
         11   -1    0    0    0    0 -0.00000000000E+00 -0.00000000000E+00 -0.45593999997E+02  0.45594000000E+02  0.51100000000E-03 0.  1.
         23    2    1    2    0    0  0.00000000000E+00  0.88817841970E-15  0.00000000000E+00  0.91188000000E+02  0.91188000000E+02 0.  0.
    9900012    2    3    3    0    0 -0.16165993253E+02  0.60872014549E+01 -0.32517484824E+02  0.54367079606E+02  0.39999989577E+02 0.  0.
         12    1    3    3    0    0  0.16165993253E+02 -0.60872014549E+01  0.32517484824E+02  0.36820920394E+02  0.00000000000E+00 0. -1.
         11    1    4    4    0    0 -0.71482450358E+01  0.15917383095E+02 -0.87622399726E+01  0.19525300031E+02  0.51100000000E-03 0. -1.
        -11    1    4    4    0    0 -0.35317090890E+01  0.69682116094E+01 -0.69862600768E+01  0.10480304015E+02  0.51100000000E-03 0.  1.
         12    1    4    4    0    0 -0.54860391278E+01 -0.16798393250E+02 -0.16768984775E+02  0.24361475560E+02  0.00000000000E+00 0. -1.
</event>
<event>
 8    1  0.1210161E-006  0.9118800E+02  0.7816164E-02  0.1184000E+00
        -11   -1    0    0    0    0  0.00000000000E+00  0.00000000000E+00  0.45593999997E+02  0.45594000000E+02  0.51100000000E-03 0.  1.
         11   -1    0    0    0    0 -0.00000000000E+00 -0.00000000000E+00 -0.45593999997E+02  0.45594000000E+02  0.51100000000E-03 0. -1.
         23    2    1    2    0    0 -0.17763568394E-14  0.00000000000E+00 -0.17763568394E-14  0.91188000000E+02  0.91188000000E+02 0.  0.
    9900012    2    3    3    0    0 -0.15850128906E+02  0.31861442449E+02 -0.94552482300E+01  0.54367084472E+02  0.40000000670E+02 0.  0.
        -12    1    3    3    0    0  0.15850128906E+02 -0.31861442449E+02  0.94552482300E+01  0.36820915528E+02  0.00000000000E+00 0.  1.
         11    1    4    4    0    0 -0.22425632073E+00  0.23109260474E+02 -0.33910727607E+01  0.23357816364E+02  0.51100000000E-03 0. -1.
        -11    1    4    4    0    0  0.59610705389E-01  0.61386441908E+01  0.77904962375E+01  0.99185854750E+01  0.51100000000E-03 0.  1.
        -12    1    4    4    0    0 -0.15685483291E+02  0.26135377840E+01 -0.13854671707E+02  0.21090682633E+02  0.00000000000E+00 0.  1.
</event>
<event>
 8    1  0.1210161E-006  0.9118800E+02  0.7816164E-02  0.1184000E+00
        -11   -1    0    0    0    0  0.00000000000E+00  0.00000000000E+00  0.45593999997E+02  0.45594000000E+02  0.51100000000E-03 0.  1.
         11   -1    0    0    0    0 -0.00000000000E+00 -0.00000000000E+00 -0.45593999997E+02  0.45594000000E+02  0.51100000000E-03 0. -1.
         23    2    1    2    0    0 -0.88817841970E-15  0.88817841970E-15  0.71054273576E-14  0.91188000000E+02  0.91188000000E+02 0.  0.
    9900012    2    3    3    0    0 -0.19222423353E+01  0.24309919956E+01  0.36690246969E+02  0.54367096150E+02  0.40000027294E+02 0.  0.
         12    1    3    3    0    0  0.19222423353E+01 -0.24309919956E+01 -0.36690246969E+02  0.36820903850E+02  0.00000000000E+00 0. -1.
         11    1    4    4    0    0  0.94638225660E+01  0.12963974799E+01  0.15891514499E+02  0.18541435147E+02  0.51100000000E-03 0. -1.
        -11    1    4    4    0    0 -0.14007896821E+02  0.10795193844E+02  0.18423079892E+02  0.25537565593E+02  0.51100000000E-03 0.  1.
         12    1    4    4    0    0  0.26218319193E+01 -0.96605993279E+01  0.23756525777E+01  0.10288095410E+02  0.00000000000E+00 0. -1.
</event>
<event>
 8    1  0.1210161E-006  0.9118800E+02  0.7816164E-02  0.1184000E+00
        -11   -1    0    0    0    0  0.00000000000E+00  0.00000000000E+00  0.45593999997E+02  0.45594000000E+02  0.51100000000E-03 0. -1.
         11   -1    0    0    0    0 -0.00000000000E+00 -0.00000000000E+00 -0.45593999997E+02  0.45594000000E+02  0.51100000000E-03 0.  1.
         23    2    1    2    0    0  0.00000000000E+00  0.00000000000E+00 -0.71054273576E-14  0.91188000000E+02  0.91188000000E+02 0.  0.
    9900012    2    3    3    0    0 -0.12345472066E+02 -0.40470664266E+01  0.34452745465E+02  0.54367067132E+02  0.39999961142E+02 0.  0.
        -12    1    3    3    0    0  0.12345472066E+02  0.40470664266E+01 -0.34452745465E+02  0.36820932868E+02  0.00000000000E+00 0.  1.
         11    1    4    4    0    0 -0.79511840901E+00  0.39919574961E+01  0.12184773909E+02  0.12846659231E+02  0.51100000000E-03 0. -1.
        -11    1    4    4    0    0  0.10973739105E+02 -0.56900445842E+01  0.87757251181E+01  0.15159581423E+02  0.51100000000E-03 0.  1.
         12    1    4    4    0    0 -0.22524092762E+02 -0.23489793386E+01  0.13492246438E+02  0.26360826478E+02  0.00000000000E+00 0. -1.
</event>
<event>
 8    1  0.1210161E-006  0.9118800E+02  0.7816164E-02  0.1184000E+00
        -11   -1    0    0    0    0  0.00000000000E+00  0.00000000000E+00  0.45593999997E+02  0.45594000000E+02  0.51100000000E-03 0.  1.
         11   -1    0    0    0    0 -0.00000000000E+00 -0.00000000000E+00 -0.45593999997E+02  0.45594000000E+02  0.51100000000E-03 0. -1.
         23    2    1    2    0    0  0.00000000000E+00  0.00000000000E+00 -0.35527136788E-14  0.91188000000E+02  0.91188000000E+02 0.  0.
    9900012    2    3    3    0    0 -0.28987474886E+01 -0.32722182843E+02  0.16632381395E+02  0.54367080703E+02  0.39999992078E+02 0.  0.
        -12    1    3    3    0    0  0.28987474886E+01  0.32722182843E+02 -0.16632381395E+02  0.36820919297E+02  0.00000000000E+00 0.  1.
         11    1    4    4    0    0 -0.17786147654E+02 -0.14164082080E+02  0.25834453722E+01  0.22883235344E+02  0.51100000000E-03 0. -1.
        -11    1    4    4    0    0  0.32665909157E+01 -0.16535971890E+01  0.98994709031E+01  0.10554834167E+02  0.51100000000E-03 0.  1.
        -12    1    4    4    0    0  0.11620809250E+02 -0.16904503574E+02  0.41494651194E+01  0.20929011192E+02  0.00000000000E+00 0.  1.
</event>
<event>
 8    1  0.1210161E-006  0.9118800E+02  0.7816164E-02  0.1184000E+00
        -11   -1    0    0    0    0  0.00000000000E+00  0.00000000000E+00  0.45593999997E+02  0.45594000000E+02  0.51100000000E-03 0.  1.
         11   -1    0    0    0    0 -0.00000000000E+00 -0.00000000000E+00 -0.45593999997E+02  0.45594000000E+02  0.51100000000E-03 0. -1.
         23    2    1    2    0    0  0.00000000000E+00  0.35527136788E-14  0.00000000000E+00  0.91188000000E+02  0.91188000000E+02 0.  0.
    9900012    2    3    3    0    0 -0.14506456257E+02  0.17677073659E+02  0.28859513307E+02  0.54366977274E+02  0.39999756291E+02 0.  0.
         12    1    3    3    0    0  0.14506456257E+02 -0.17677073659E+02 -0.28859513307E+02  0.36821022726E+02  0.00000000000E+00 0. -1.
         11    1    4    4    0    0  0.10289667594E+02  0.70080418889E+01  0.41772164385E+01  0.13131604919E+02  0.51100000000E-03 0. -1.
        -11    1    4    4    0    0 -0.10634080265E+02  0.14845182321E+02  0.13240650199E+02  0.22556106029E+02  0.51100000000E-03 0.  1.
         12    1    4    4    0    0 -0.14162043586E+02 -0.41761505510E+01  0.11441646669E+02  0.18679266326E+02  0.00000000000E+00 0. -1.
</event>
<event>
 8    1  0.1210161E-006  0.9118800E+02  0.7816164E-02  0.1184000E+00
        -11   -1    0    0    0    0  0.00000000000E+00  0.00000000000E+00  0.45593999997E+02  0.45594000000E+02  0.51100000000E-03 0.  1.
         11   -1    0    0    0    0 -0.00000000000E+00 -0.00000000000E+00 -0.45593999997E+02  0.45594000000E+02  0.51100000000E-03 0. -1.
         23    2    1    2    0    0  0.00000000000E+00 -0.35527136788E-14  0.00000000000E+00  0.91188000000E+02  0.91188000000E+02 0.  0.
    9900012    2    3    3    0    0  0.19571717870E+02  0.16311328091E+02 -0.26583242743E+02  0.54367077155E+02  0.39999983989E+02 0.  0.
        -12    1    3    3    0    0 -0.19571717870E+02 -0.16311328091E+02  0.26583242743E+02  0.36820922845E+02  0.00000000000E+00 0.  1.
         11    1    4    4    0    0  0.12305355504E+02  0.16752527578E+02 -0.76466179280E+01  0.22148131306E+02  0.51100000000E-03 0. -1.
        -11    1    4    4    0    0  0.84312430732E+01 -0.11862812276E+02 -0.11374492802E+02  0.18471363285E+02  0.51100000000E-03 0.  1.
         12    1    4    4    0    0 -0.11648807078E+01  0.11421612789E+02 -0.75621320131E+01  0.13747582564E+02  0.00000000000E+00 0. -1.
</event>
<event>
 8    1  0.1210161E-006  0.9118800E+02  0.7816164E-02  0.1184000E+00
        -11   -1    0    0    0    0  0.00000000000E+00  0.00000000000E+00  0.45593999997E+02  0.45594000000E+02  0.51100000000E-03 0.  1.
         11   -1    0    0    0    0 -0.00000000000E+00 -0.00000000000E+00 -0.45593999997E+02  0.45594000000E+02  0.51100000000E-03 0. -1.
         23    2    1    2    0    0  0.35527136788E-14 -0.37747582837E-14 -0.35527136788E-14  0.91188000000E+02  0.91188000000E+02 0.  0.
    9900012    2    3    3    0    0 -0.24356854186E+02  0.14603544346E+01  0.27575202073E+02  0.54367071844E+02  0.39999971882E+02 0.  0.
         12    1    3    3    0    0  0.24356854186E+02 -0.14603544346E+01 -0.27575202073E+02  0.36820928156E+02  0.00000000000E+00 0. -1.
         11    1    4    4    0    0 -0.25280961082E+00 -0.84575804321E+00 -0.65852928194E+00  0.11013085141E+01  0.51100000000E-03 0. -1.
        -11    1    4    4    0    0 -0.70164281719E+00 -0.15383954611E+02  0.63100687809E+01  0.16642575834E+02  0.51100000000E-03 0.  1.
        -12    1    4    4    0    0 -0.23402401758E+02  0.17690067089E+02  0.21923662574E+02  0.36623187495E+02  0.00000000000E+00 0.  1.
</event>
<event>
 8    1  0.1210161E-006  0.9118800E+02  0.7816164E-02  0.1184000E+00
        -11   -1    0    0    0    0  0.00000000000E+00  0.00000000000E+00  0.45593999997E+02  0.45594000000E+02  0.51100000000E-03 0.  1.
         11   -1    0    0    0    0 -0.00000000000E+00 -0.00000000000E+00 -0.45593999997E+02  0.45594000000E+02  0.51100000000E-03 0. -1.
         23    2    1    2    0    0  0.00000000000E+00  0.00000000000E+00  0.00000000000E+00  0.91188000000E+02  0.91188000000E+02 0.  0.
    9900012    2    3    3    0    0  0.10411893929E+02 -0.13378488729E+02  0.32686207926E+02  0.54367086317E+02  0.40000004877E+02 0.  0.
         12    1    3    3    0    0 -0.10411893929E+02  0.13378488729E+02 -0.32686207926E+02  0.36820913683E+02  0.00000000000E+00 0. -1.
         11    1    4    4    0    0 -0.12432999404E+02 -0.25660665904E+01  0.88220961780E+01  0.15459416327E+02  0.51100000000E-03 0. -1.
        -11    1    4    4    0    0  0.19451661305E+02 -0.11961795920E+02  0.26104048353E+02  0.34682459973E+02  0.51100000000E-03 0.  1.
         12    1    4    4    0    0  0.33932320288E+01  0.11493737807E+01 -0.22399366048E+01  0.42252100164E+01  0.00000000000E+00 0. -1.
</event>
<event>
 8    1  0.1210161E-006  0.9118800E+02  0.7816164E-02  0.1184000E+00
        -11   -1    0    0    0    0  0.00000000000E+00  0.00000000000E+00  0.45593999997E+02  0.45594000000E+02  0.51100000000E-03 0. -1.
         11   -1    0    0    0    0 -0.00000000000E+00 -0.00000000000E+00 -0.45593999997E+02  0.45594000000E+02  0.51100000000E-03 0.  1.
         23    2    1    2    0    0 -0.35527136788E-14  0.00000000000E+00  0.44408920985E-15  0.91188000000E+02  0.91188000000E+02 0.  0.
    9900012    2    3    3    0    0 -0.29163182762E+02 -0.22183875577E+02 -0.36280910045E+01  0.54367100924E+02  0.40000038177E+02 0.  0.
        -12    1    3    3    0    0  0.29163182762E+02  0.22183875577E+02  0.36280910045E+01  0.36820899076E+02  0.00000000000E+00 0.  1.
         11    1    4    4    0    0  0.69852508834E+01 -0.49417049866E+01 -0.75371601614E+01  0.11402761141E+02  0.51100000000E-03 0.  1.
        -11    1    4    4    0    0 -0.23003774031E+01 -0.50850694364E+01  0.42215116528E+01  0.69979159945E+01  0.51100000000E-03 0. -1.
        -12    1    4    4    0    0 -0.33848056242E+02 -0.12157101154E+02 -0.31244249583E+00  0.35966423789E+02  0.00000000000E+00 0.  1.
</event>
<event>
 8    1  0.1210161E-006  0.9118800E+02  0.7816164E-02  0.1184000E+00
        -11   -1    0    0    0    0  0.00000000000E+00  0.00000000000E+00  0.45593999997E+02  0.45594000000E+02  0.51100000000E-03 0. -1.
         11   -1    0    0    0    0 -0.00000000000E+00 -0.00000000000E+00 -0.45593999997E+02  0.45594000000E+02  0.51100000000E-03 0.  1.
         23    2    1    2    0    0  0.00000000000E+00  0.33306690739E-15 -0.71054273576E-14  0.91188000000E+02  0.91188000000E+02 0.  0.
    9900012    2    3    3    0    0  0.53825907579E+01 -0.86656981823E+00  0.36415058826E+02  0.54367085620E+02  0.40000003287E+02 0.  0.
        -12    1    3    3    0    0 -0.53825907579E+01  0.86656981823E+00 -0.36415058826E+02  0.36820914380E+02  0.00000000000E+00 0.  1.
         11    1    4    4    0    0  0.16002532168E+02 -0.10984001704E+02  0.18629271173E+02  0.26903142455E+02  0.51100000000E-03 0. -1.
        -11    1    4    4    0    0 -0.60128024521E+01  0.12804971373E+02  0.78284366985E+01  0.16168039665E+02  0.51100000000E-03 0.  1.
        -12    1    4    4    0    0 -0.46071389579E+01 -0.26875394874E+01  0.99573509539E+01  0.11295903501E+02  0.00000000000E+00 0.  1.
</event>
<event>
 8    1  0.1210161E-006  0.9118800E+02  0.7816164E-02  0.1184000E+00
        -11   -1    0    0    0    0  0.00000000000E+00  0.00000000000E+00  0.45593999997E+02  0.45594000000E+02  0.51100000000E-03 0.  1.
         11   -1    0    0    0    0 -0.00000000000E+00 -0.00000000000E+00 -0.45593999997E+02  0.45594000000E+02  0.51100000000E-03 0. -1.
         23    2    1    2    0    0  0.00000000000E+00 -0.35527136788E-14  0.00000000000E+00  0.91188000000E+02  0.91188000000E+02 0.  0.
    9900012    2    3    3    0    0  0.30913100887E+02 -0.17971277899E+02 -0.87858981366E+01  0.54367100475E+02  0.40000037154E+02 0.  0.
        -12    1    3    3    0    0 -0.30913100887E+02  0.17971277899E+02  0.87858981366E+01  0.36820899525E+02  0.00000000000E+00 0.  1.
         11    1    4    4    0    0 -0.88020766782E+00 -0.50817282960E+01 -0.27662267811E+01  0.58524130816E+01  0.51100000000E-03 0. -1.
        -11    1    4    4    0    0  0.35920091503E+02 -0.32073029061E+01  0.62367767111E+00  0.36068389756E+02  0.51100000000E-03 0.  1.
        -12    1    4    4    0    0 -0.41267829483E+01 -0.96822466967E+01 -0.66433490266E+01  0.12446297638E+02  0.00000000000E+00 0.  1.
</event>
<event>
 8    1  0.1210161E-006  0.9118800E+02  0.7816164E-02  0.1184000E+00
        -11   -1    0    0    0    0  0.00000000000E+00  0.00000000000E+00  0.45593999997E+02  0.45594000000E+02  0.51100000000E-03 0.  1.
         11   -1    0    0    0    0 -0.00000000000E+00 -0.00000000000E+00 -0.45593999997E+02  0.45594000000E+02  0.51100000000E-03 0. -1.
         23    2    1    2    0    0  0.00000000000E+00  0.88817841970E-15  0.17763568394E-14  0.91188000000E+02  0.91188000000E+02 0.  0.
    9900012    2    3    3    0    0  0.33477091941E+02  0.47606068716E+01  0.14574008727E+02  0.54367071263E+02  0.39999970559E+02 0.  0.
        -12    1    3    3    0    0 -0.33477091941E+02 -0.47606068716E+01 -0.14574008727E+02  0.36820928737E+02  0.00000000000E+00 0.  1.
         11    1    4    4    0    0 -0.21203059954E+01  0.43088439394E+01 -0.77194862482E+01  0.90913311349E+01  0.51100000000E-03 0. -1.
        -11    1    4    4    0    0  0.15032760911E+02 -0.22029252530E+01  0.51083548709E+00  0.15201899008E+02  0.51100000000E-03 0.  1.
        -12    1    4    4    0    0  0.20564637026E+02  0.26546881852E+01  0.21782659489E+02  0.30073841121E+02  0.00000000000E+00 0.  1.
</event>
<event>
 8    1  0.1210161E-006  0.9118800E+02  0.7816164E-02  0.1184000E+00
        -11   -1    0    0    0    0  0.00000000000E+00  0.00000000000E+00  0.45593999997E+02  0.45594000000E+02  0.51100000000E-03 0. -1.
         11   -1    0    0    0    0 -0.00000000000E+00 -0.00000000000E+00 -0.45593999997E+02  0.45594000000E+02  0.51100000000E-03 0.  1.
         23    2    1    2    0    0 -0.35527136788E-14 -0.35527136788E-14 -0.35527136788E-14  0.91188000000E+02  0.91188000000E+02 0.  0.
    9900012    2    3    3    0    0 -0.21486526830E+02  0.21036809970E+02  0.21249980312E+02  0.54367083767E+02  0.39999999064E+02 0.  0.
        -12    1    3    3    0    0  0.21486526830E+02 -0.21036809970E+02 -0.21249980312E+02  0.36820916233E+02  0.00000000000E+00 0.  1.
         11    1    4    4    0    0 -0.16542918540E+02  0.73858408994E+01  0.19008312592E+02  0.26258993649E+02  0.51100000000E-03 0. -1.
        -11    1    4    4    0    0 -0.13717772814E+02  0.13495026541E+02  0.15502269521E+01  0.19305342167E+02  0.51100000000E-03 0.  1.
        -12    1    4    4    0    0  0.87741645234E+01  0.15594252964E+00  0.69144076774E+00  0.88027479512E+01  0.00000000000E+00 0.  1.
</event>
<event>
 8    1  0.1210161E-006  0.9118800E+02  0.7816164E-02  0.1184000E+00
        -11   -1    0    0    0    0  0.00000000000E+00  0.00000000000E+00  0.45593999997E+02  0.45594000000E+02  0.51100000000E-03 0.  1.
         11   -1    0    0    0    0 -0.00000000000E+00 -0.00000000000E+00 -0.45593999997E+02  0.45594000000E+02  0.51100000000E-03 0. -1.
         23    2    1    2    0    0  0.00000000000E+00  0.35527136788E-14  0.00000000000E+00  0.91188000000E+02  0.91188000000E+02 0.  0.
    9900012    2    3    3    0    0  0.27701545936E+02  0.23028563988E+02  0.76215809851E+01  0.54367096924E+02  0.40000029058E+02 0.  0.
         12    1    3    3    0    0 -0.27701545936E+02 -0.23028563988E+02 -0.76215809851E+01  0.36820903076E+02  0.00000000000E+00 0. -1.
         11    1    4    4    0    0  0.24154297924E+02  0.77610538677E-01  0.21169958722E+01  0.24247016381E+02  0.51100000000E-03 0. -1.
        -11    1    4    4    0    0  0.18821422204E+01  0.62007728131E+01  0.10695233673E+02  0.12505201573E+02  0.51100000000E-03 0.  1.
        -12    1    4    4    0    0  0.16651057922E+01  0.16750180637E+02 -0.51906485598E+01  0.17614878970E+02  0.00000000000E+00 0.  1.
</event>
<event>
 8    1  0.1210161E-006  0.9118800E+02  0.7816164E-02  0.1184000E+00
        -11   -1    0    0    0    0  0.00000000000E+00  0.00000000000E+00  0.45593999997E+02  0.45594000000E+02  0.51100000000E-03 0.  1.
         11   -1    0    0    0    0 -0.00000000000E+00 -0.00000000000E+00 -0.45593999997E+02  0.45594000000E+02  0.51100000000E-03 0. -1.
         23    2    1    2    0    0 -0.17763568394E-14  0.00000000000E+00 -0.17763568394E-14  0.91188000000E+02  0.91188000000E+02 0.  0.
    9900012    2    3    3    0    0  0.14608537938E+02 -0.32565714006E+02  0.90468342513E+01  0.54367077695E+02  0.39999985222E+02 0.  0.
         12    1    3    3    0    0 -0.14608537938E+02  0.32565714006E+02 -0.90468342513E+01  0.36820922305E+02  0.00000000000E+00 0. -1.
         11    1    4    4    0    0  0.59147905741E+01 -0.70355930954E+00  0.31147176640E+01  0.67216969305E+01  0.51100000000E-03 0. -1.
        -11    1    4    4    0    0 -0.33051868751E+01 -0.25832292447E+02 -0.90082667819E+01  0.27556858747E+02  0.51100000000E-03 0.  1.
        -12    1    4    4    0    0  0.11998934239E+02 -0.60298622494E+01  0.14940383369E+02  0.20088522017E+02  0.00000000000E+00 0.  1.
</event>
<event>
 8    1  0.1210161E-006  0.9118800E+02  0.7816164E-02  0.1184000E+00
        -11   -1    0    0    0    0  0.00000000000E+00  0.00000000000E+00  0.45593999997E+02  0.45594000000E+02  0.51100000000E-03 0. -1.
         11   -1    0    0    0    0 -0.00000000000E+00 -0.00000000000E+00 -0.45593999997E+02  0.45594000000E+02  0.51100000000E-03 0.  1.
         23    2    1    2    0    0  0.00000000000E+00 -0.35527136788E-14  0.00000000000E+00  0.91188000000E+02  0.91188000000E+02 0.  0.
    9900012    2    3    3    0    0 -0.10903379603E+02  0.17076320094E+02  0.30745405260E+02  0.54367294693E+02  0.40000479908E+02 0.  0.
        -12    1    3    3    0    0  0.10903379603E+02 -0.17076320094E+02 -0.30745405260E+02  0.36820705307E+02  0.00000000000E+00 0.  1.
         11    1    4    4    0    0 -0.31456632426E+01  0.19138248558E+02  0.60899619552E+01  0.20328683971E+02  0.51100000000E-03 0. -1.
        -11    1    4    4    0    0 -0.59774541811E+01  0.25245042477E+01  0.27567977569E+02  0.28321307662E+02  0.51100000000E-03 0.  1.
        -12    1    4    4    0    0 -0.17802621790E+01 -0.45864327116E+01 -0.29125342637E+01  0.57173030601E+01  0.00000000000E+00 0.  1.
</event>
<event>
 8    1  0.1210161E-006  0.9118800E+02  0.7816164E-02  0.1184000E+00
        -11   -1    0    0    0    0  0.00000000000E+00  0.00000000000E+00  0.45593999997E+02  0.45594000000E+02  0.51100000000E-03 0.  1.
         11   -1    0    0    0    0 -0.00000000000E+00 -0.00000000000E+00 -0.45593999997E+02  0.45594000000E+02  0.51100000000E-03 0. -1.
         23    2    1    2    0    0  0.00000000000E+00  0.00000000000E+00  0.35527136788E-14  0.91188000000E+02  0.91188000000E+02 0.  0.
    9900012    2    3    3    0    0 -0.22663924171E+02 -0.23776417047E+02 -0.16637546312E+02  0.54367089993E+02  0.40000013257E+02 0.  0.
        -12    1    3    3    0    0  0.22663924171E+02  0.23776417047E+02  0.16637546312E+02  0.36820910007E+02  0.00000000000E+00 0.  1.
         11    1    4    4    0    0 -0.10797084609E+01 -0.49658456626E+01 -0.15801025382E+02  0.16598126306E+02  0.51100000000E-03 0. -1.
        -11    1    4    4    0    0 -0.48416755414E+01 -0.15262197199E+02 -0.94675051530E+01  0.18601347786E+02  0.51100000000E-03 0.  1.
        -12    1    4    4    0    0 -0.16742540169E+02 -0.35483741859E+01  0.86309842224E+01  0.19167615901E+02  0.00000000000E+00 0.  1.
</event>
<event>
 8    1  0.1210161E-006  0.9118800E+02  0.7816164E-02  0.1184000E+00
        -11   -1    0    0    0    0  0.00000000000E+00  0.00000000000E+00  0.45593999997E+02  0.45594000000E+02  0.51100000000E-03 0. -1.
         11   -1    0    0    0    0 -0.00000000000E+00 -0.00000000000E+00 -0.45593999997E+02  0.45594000000E+02  0.51100000000E-03 0.  1.
         23    2    1    2    0    0  0.00000000000E+00  0.00000000000E+00  0.00000000000E+00  0.91188000000E+02  0.91188000000E+02 0.  0.
    9900012    2    3    3    0    0 -0.17908405569E+02 -0.25742987592E+02 -0.19296810768E+02  0.54367091456E+02  0.40000016592E+02 0.  0.
        -12    1    3    3    0    0  0.17908405569E+02  0.25742987592E+02  0.19296810768E+02  0.36820908544E+02  0.00000000000E+00 0.  1.
         11    1    4    4    0    0 -0.28339618652E+02 -0.21910387740E+02 -0.18758383348E+02  0.40436073280E+02  0.51100000000E-03 0. -1.
        -11    1    4    4    0    0  0.67358761399E+01 -0.29659043013E+01 -0.43521187353E+01  0.85504124721E+01  0.51100000000E-03 0.  1.
         12    1    4    4    0    0  0.36953369426E+01 -0.86669555121E+00  0.38136913145E+01  0.53806057038E+01  0.00000000000E+00 0. -1.
</event>
<event>
 8    1  0.1210161E-006  0.9118800E+02  0.7816164E-02  0.1184000E+00
        -11   -1    0    0    0    0  0.00000000000E+00  0.00000000000E+00  0.45593999997E+02  0.45594000000E+02  0.51100000000E-03 0. -1.
         11   -1    0    0    0    0 -0.00000000000E+00 -0.00000000000E+00 -0.45593999997E+02  0.45594000000E+02  0.51100000000E-03 0.  1.
         23    2    1    2    0    0  0.00000000000E+00  0.13322676296E-14 -0.17763568394E-14  0.91188000000E+02  0.91188000000E+02 0.  0.
    9900012    2    3    3    0    0  0.36107448509E+02  0.28760782106E+01 -0.66151244941E+01  0.54367088336E+02  0.40000009478E+02 0.  0.
        -12    1    3    3    0    0 -0.36107448509E+02 -0.28760782106E+01  0.66151244941E+01  0.36820911664E+02  0.00000000000E+00 0.  1.
         11    1    4    4    0    0  0.33505768903E+02  0.17307970700E+02 -0.10718496341E+01  0.37727327780E+02  0.51100000000E-03 0. -1.
        -11    1    4    4    0    0  0.11208009742E+01 -0.65671229004E+01 -0.54962153971E+01  0.86366476116E+01  0.51100000000E-03 0.  1.
         12    1    4    4    0    0  0.14808786324E+01 -0.78647695885E+01 -0.47059462876E-01  0.80031129442E+01  0.00000000000E+00 0. -1.
</event>
<event>
 8    1  0.1210161E-006  0.9118800E+02  0.7816164E-02  0.1184000E+00
        -11   -1    0    0    0    0  0.00000000000E+00  0.00000000000E+00  0.45593999997E+02  0.45594000000E+02  0.51100000000E-03 0. -1.
         11   -1    0    0    0    0 -0.00000000000E+00 -0.00000000000E+00 -0.45593999997E+02  0.45594000000E+02  0.51100000000E-03 0.  1.
         23    2    1    2    0    0  0.00000000000E+00  0.00000000000E+00  0.00000000000E+00  0.91188000000E+02  0.91188000000E+02 0.  0.
    9900012    2    3    3    0    0 -0.91991617858E+01 -0.10736091425E+02 -0.33998431154E+02  0.54367060881E+02  0.39999946891E+02 0.  0.
         12    1    3    3    0    0  0.91991617858E+01  0.10736091425E+02  0.33998431154E+02  0.36820939119E+02  0.00000000000E+00 0. -1.
         11    1    4    4    0    0  0.85314635725E+01  0.70946518662E+01 -0.22563194458E+02  0.25143939631E+02  0.51100000000E-03 0. -1.
        -11    1    4    4    0    0 -0.64822214551E+01 -0.84259331954E+01 -0.98200123469E+01  0.14472324898E+02  0.51100000000E-03 0.  1.
         12    1    4    4    0    0 -0.11248403903E+02 -0.94048100955E+01 -0.16152243498E+01  0.14750796351E+02  0.00000000000E+00 0. -1.
</event>
<event>
 8    1  0.1210161E-006  0.9118800E+02  0.7816164E-02  0.1184000E+00
        -11   -1    0    0    0    0  0.00000000000E+00  0.00000000000E+00  0.45593999997E+02  0.45594000000E+02  0.51100000000E-03 0.  1.
         11   -1    0    0    0    0 -0.00000000000E+00 -0.00000000000E+00 -0.45593999997E+02  0.45594000000E+02  0.51100000000E-03 0. -1.
         23    2    1    2    0    0  0.00000000000E+00  0.00000000000E+00 -0.71054273576E-14  0.91188000000E+02  0.91188000000E+02 0.  0.
    9900012    2    3    3    0    0  0.24919278325E+02  0.63997784857E+01 -0.26341090248E+02  0.54367073445E+02  0.39999975531E+02 0.  0.
        -12    1    3    3    0    0 -0.24919278325E+02 -0.63997784857E+01  0.26341090248E+02  0.36820926555E+02  0.00000000000E+00 0.  1.
         11    1    4    4    0    0  0.13995509154E+02  0.20643612495E+02 -0.39864260492E+01  0.25257169403E+02  0.51100000000E-03 0. -1.
        -11    1    4    4    0    0 -0.48105805383E+00 -0.66669519849E+00 -0.48274820776E+00  0.95338629740E+00  0.51100000000E-03 0.  1.
         12    1    4    4    0    0  0.11404827225E+02 -0.13577138811E+02 -0.21871915992E+02  0.28156517744E+02  0.00000000000E+00 0. -1.
</event>
<event>
 8    1  0.1210161E-006  0.9118800E+02  0.7816164E-02  0.1184000E+00
        -11   -1    0    0    0    0  0.00000000000E+00  0.00000000000E+00  0.45593999997E+02  0.45594000000E+02  0.51100000000E-03 0.  1.
         11   -1    0    0    0    0 -0.00000000000E+00 -0.00000000000E+00 -0.45593999997E+02  0.45594000000E+02  0.51100000000E-03 0. -1.
         23    2    1    2    0    0 -0.35527136788E-14  0.00000000000E+00  0.00000000000E+00  0.91188000000E+02  0.91188000000E+02 0.  0.
    9900012    2    3    3    0    0 -0.20293845390E+02  0.22926915703E+02  0.20452300852E+02  0.54367078848E+02  0.39999987849E+02 0.  0.
         12    1    3    3    0    0  0.20293845390E+02 -0.22926915703E+02 -0.20452300852E+02  0.36820921152E+02  0.00000000000E+00 0. -1.
         11    1    4    4    0    0  0.50625933228E+01  0.40420610807E+01  0.69160492415E+01  0.94762780829E+01  0.51100000000E-03 0. -1.
        -11    1    4    4    0    0 -0.45557421697E+01 -0.15577947894E+00 -0.81355882996E+01  0.93256019219E+01  0.51100000000E-03 0.  1.
        -12    1    4    4    0    0 -0.20800696543E+02  0.19040634101E+02  0.21671839911E+02  0.35565198843E+02  0.00000000000E+00 0.  1.
</event>
<event>
 8    1  0.1210161E-006  0.9118800E+02  0.7816164E-02  0.1184000E+00
        -11   -1    0    0    0    0  0.00000000000E+00  0.00000000000E+00  0.45593999997E+02  0.45594000000E+02  0.51100000000E-03 0. -1.
         11   -1    0    0    0    0 -0.00000000000E+00 -0.00000000000E+00 -0.45593999997E+02  0.45594000000E+02  0.51100000000E-03 0.  1.
         23    2    1    2    0    0  0.00000000000E+00  0.00000000000E+00  0.35527136788E-14  0.91188000000E+02  0.91188000000E+02 0.  0.
    9900012    2    3    3    0    0 -0.64810815786E+01 -0.29806826550E+02 -0.20623511807E+02  0.54367074337E+02  0.39999977567E+02 0.  0.
         12    1    3    3    0    0  0.64810815786E+01  0.29806826550E+02  0.20623511807E+02  0.36820925663E+02  0.00000000000E+00 0. -1.
         11    1    4    4    0    0 -0.13623093953E+01 -0.11577997361E+02  0.36149975602E+01  0.12205495377E+02  0.51100000000E-03 0.  1.
        -11    1    4    4    0    0 -0.38141092021E+01 -0.18526345462E+02 -0.10600954006E+01  0.18944569346E+02  0.51100000000E-03 0. -1.
        -12    1    4    4    0    0 -0.13046629811E+01  0.29751627291E+00 -0.23178413967E+02  0.23217009615E+02  0.00000000000E+00 0.  1.
</event>
<event>
 8    1  0.1210161E-006  0.9118800E+02  0.7816164E-02  0.1184000E+00
        -11   -1    0    0    0    0  0.00000000000E+00  0.00000000000E+00  0.45593999997E+02  0.45594000000E+02  0.51100000000E-03 0.  1.
         11   -1    0    0    0    0 -0.00000000000E+00 -0.00000000000E+00 -0.45593999997E+02  0.45594000000E+02  0.51100000000E-03 0. -1.
         23    2    1    2    0    0 -0.17763568394E-14  0.00000000000E+00  0.00000000000E+00  0.91188000000E+02  0.91188000000E+02 0.  0.
    9900012    2    3    3    0    0  0.65950843749E+01  0.10471799583E+02  0.34678905650E+02  0.54367079024E+02  0.39999988252E+02 0.  0.
         12    1    3    3    0    0 -0.65950843749E+01 -0.10471799583E+02 -0.34678905650E+02  0.36820920976E+02  0.00000000000E+00 0. -1.
         11    1    4    4    0    0 -0.48435115680E+01 -0.11794239151E+02  0.41374552345E+01  0.13404559580E+02  0.51100000000E-03 0. -1.
        -11    1    4    4    0    0  0.87473300263E+00  0.13333227816E+02  0.16768356737E+02  0.21441033318E+02  0.51100000000E-03 0.  1.
         12    1    4    4    0    0  0.10563862940E+02  0.89328109174E+01  0.13773093678E+02  0.19521486126E+02  0.00000000000E+00 0. -1.
</event>
<event>
 8    1  0.1210161E-006  0.9118800E+02  0.7816164E-02  0.1184000E+00
        -11   -1    0    0    0    0  0.00000000000E+00  0.00000000000E+00  0.45593999997E+02  0.45594000000E+02  0.51100000000E-03 0. -1.
         11   -1    0    0    0    0 -0.00000000000E+00 -0.00000000000E+00 -0.45593999997E+02  0.45594000000E+02  0.51100000000E-03 0.  1.
         23    2    1    2    0    0  0.71054273576E-14  0.00000000000E+00  0.00000000000E+00  0.91188000000E+02  0.91188000000E+02 0.  0.
    9900012    2    3    3    0    0  0.35091859264E+02 -0.25282157836E+01  0.10860618280E+02  0.54367034625E+02  0.39999887036E+02 0.  0.
        -12    1    3    3    0    0 -0.35091859264E+02  0.25282157836E+01 -0.10860618280E+02  0.36820965375E+02  0.00000000000E+00 0.  1.
         11    1    4    4    0    0  0.19215792219E+02  0.54442261846E+01  0.12989574885E+02  0.23824678913E+02  0.51100000000E-03 0. -1.
        -11    1    4    4    0    0  0.57905875534E+01  0.64256870767E+01 -0.82251905524E+01  0.11936252281E+02  0.51100000000E-03 0.  1.
        -12    1    4    4    0    0  0.10085479492E+02 -0.14398129045E+02  0.60962339475E+01  0.18606103432E+02  0.00000000000E+00 0.  1.
</event>
<event>
 8    1  0.1210161E-006  0.9118800E+02  0.7816164E-02  0.1184000E+00
        -11   -1    0    0    0    0  0.00000000000E+00  0.00000000000E+00  0.45593999997E+02  0.45594000000E+02  0.51100000000E-03 0.  1.
         11   -1    0    0    0    0 -0.00000000000E+00 -0.00000000000E+00 -0.45593999997E+02  0.45594000000E+02  0.51100000000E-03 0. -1.
         23    2    1    2    0    0  0.00000000000E+00 -0.88817841970E-15  0.00000000000E+00  0.91188000000E+02  0.91188000000E+02 0.  0.
    9900012    2    3    3    0    0  0.17176975241E+02 -0.40376043184E+01  0.32317637759E+02  0.54367076093E+02  0.39999981569E+02 0.  0.
         12    1    3    3    0    0 -0.17176975241E+02  0.40376043184E+01 -0.32317637759E+02  0.36820923907E+02  0.00000000000E+00 0. -1.
         11    1    4    4    0    0  0.11619862521E+02  0.12739762777E+01  0.67417511068E+01  0.13494273927E+02  0.51100000000E-03 0. -1.
        -11    1    4    4    0    0  0.13523724368E+02  0.76174301719E+01  0.18412062456E+02  0.24081536649E+02  0.51100000000E-03 0.  1.
        -12    1    4    4    0    0 -0.79666116477E+01 -0.12929010768E+02  0.71638241957E+01  0.16791265518E+02  0.00000000000E+00 0.  1.
</event>
<event>
 8    1  0.1210161E-006  0.9118800E+02  0.7816164E-02  0.1184000E+00
        -11   -1    0    0    0    0  0.00000000000E+00  0.00000000000E+00  0.45593999997E+02  0.45594000000E+02  0.51100000000E-03 0. -1.
         11   -1    0    0    0    0 -0.00000000000E+00 -0.00000000000E+00 -0.45593999997E+02  0.45594000000E+02  0.51100000000E-03 0.  1.
         23    2    1    2    0    0  0.00000000000E+00  0.00000000000E+00  0.00000000000E+00  0.91188000000E+02  0.91188000000E+02 0.  0.
    9900012    2    3    3    0    0  0.16378334511E+02  0.24623806489E+02 -0.21936264612E+02  0.54367063123E+02  0.39999952003E+02 0.  0.
         12    1    3    3    0    0 -0.16378334511E+02 -0.24623806489E+02  0.21936264612E+02  0.36820936877E+02  0.00000000000E+00 0. -1.
         11    1    4    4    0    0 -0.97047241143E+01  0.69226746762E+01 -0.66385623140E+01  0.13644618158E+02  0.51100000000E-03 0. -1.
        -11    1    4    4    0    0  0.19026138190E+02  0.26154475262E+01 -0.14472012497E+02  0.24047320976E+02  0.51100000000E-03 0.  1.
         12    1    4    4    0    0  0.70569204356E+01  0.15085684286E+02 -0.82568980109E+00  0.16675123989E+02  0.00000000000E+00 0. -1.
</event>
<event>
 8    1  0.1210161E-006  0.9118800E+02  0.7816164E-02  0.1184000E+00
        -11   -1    0    0    0    0  0.00000000000E+00  0.00000000000E+00  0.45593999997E+02  0.45594000000E+02  0.51100000000E-03 0.  1.
         11   -1    0    0    0    0 -0.00000000000E+00 -0.00000000000E+00 -0.45593999997E+02  0.45594000000E+02  0.51100000000E-03 0. -1.
         23    2    1    2    0    0 -0.35527136788E-14  0.35527136788E-14 -0.71054273576E-14  0.91188000000E+02  0.91188000000E+02 0.  0.
    9900012    2    3    3    0    0  0.21535032040E+02 -0.11310526534E+02  0.27642247779E+02  0.54367089124E+02  0.40000011276E+02 0.  0.
         12    1    3    3    0    0 -0.21535032040E+02  0.11310526534E+02 -0.27642247779E+02  0.36820910876E+02  0.00000000000E+00 0. -1.
         11    1    4    4    0    0  0.41462469316E+01 -0.88227855104E+01 -0.29584133118E+01  0.10187498092E+02  0.51100000000E-03 0. -1.
        -11    1    4    4    0    0 -0.21199502758E+01  0.24959437729E+01 -0.33642309563E+01  0.46948881433E+01  0.51100000000E-03 0.  1.
        -12    1    4    4    0    0  0.19508735384E+02 -0.49836847970E+01  0.33964892047E+02  0.39484702889E+02  0.00000000000E+00 0.  1.
</event>
<event>
 8    1  0.1210161E-006  0.9118800E+02  0.7816164E-02  0.1184000E+00
        -11   -1    0    0    0    0  0.00000000000E+00  0.00000000000E+00  0.45593999997E+02  0.45594000000E+02  0.51100000000E-03 0.  1.
         11   -1    0    0    0    0 -0.00000000000E+00 -0.00000000000E+00 -0.45593999997E+02  0.45594000000E+02  0.51100000000E-03 0. -1.
         23    2    1    2    0    0  0.35527136788E-14  0.00000000000E+00 -0.35527136788E-14  0.91188000000E+02  0.91188000000E+02 0.  0.
    9900012    2    3    3    0    0  0.27850049662E+02  0.44885804522E+01 -0.23664469396E+02  0.54367085665E+02  0.40000003391E+02 0.  0.
        -12    1    3    3    0    0 -0.27850049662E+02 -0.44885804522E+01  0.23664469396E+02  0.36820914335E+02  0.00000000000E+00 0.  1.
         11    1    4    4    0    0  0.76653194509E+01  0.86312286627E+01 -0.31062187711E+01  0.11954238823E+02  0.51100000000E-03 0. -1.
        -11    1    4    4    0    0 -0.85498314658E-01 -0.37369120148E+01  0.71565981009E+01  0.80739530596E+01  0.51100000000E-03 0.  1.
        -12    1    4    4    0    0  0.20270228526E+02 -0.40573619571E+00 -0.27714848726E+02  0.34338893783E+02  0.00000000000E+00 0.  1.
</event>
<event>
 8    1  0.1210161E-006  0.9118800E+02  0.7816164E-02  0.1184000E+00
        -11   -1    0    0    0    0  0.00000000000E+00  0.00000000000E+00  0.45593999997E+02  0.45594000000E+02  0.51100000000E-03 0.  1.
         11   -1    0    0    0    0 -0.00000000000E+00 -0.00000000000E+00 -0.45593999997E+02  0.45594000000E+02  0.51100000000E-03 0. -1.
         23    2    1    2    0    0  0.00000000000E+00  0.00000000000E+00 -0.35527136788E-14  0.91188000000E+02  0.91188000000E+02 0.  0.
    9900012    2    3    3    0    0  0.29312531125E+02  0.16269855811E+02  0.15226493914E+02  0.54367098246E+02  0.40000032071E+02 0.  0.
         12    1    3    3    0    0 -0.29312531125E+02 -0.16269855811E+02 -0.15226493914E+02  0.36820901754E+02  0.00000000000E+00 0. -1.
         11    1    4    4    0    0  0.58953867925E+01 -0.40242976526E+01 -0.27796101049E+01  0.76600776514E+01  0.51100000000E-03 0. -1.
        -11    1    4    4    0    0  0.14307301735E+02  0.18482273347E+02 -0.31667072016E+01  0.23586465309E+02  0.51100000000E-03 0.  1.
        -12    1    4    4    0    0  0.91098425983E+01  0.18118801166E+01  0.21172811220E+02  0.23120555285E+02  0.00000000000E+00 0.  1.
</event>
<event>
 8    1  0.1210161E-006  0.9118800E+02  0.7816164E-02  0.1184000E+00
        -11   -1    0    0    0    0  0.00000000000E+00  0.00000000000E+00  0.45593999997E+02  0.45594000000E+02  0.51100000000E-03 0. -1.
         11   -1    0    0    0    0 -0.00000000000E+00 -0.00000000000E+00 -0.45593999997E+02  0.45594000000E+02  0.51100000000E-03 0.  1.
         23    2    1    2    0    0 -0.35527136788E-14 -0.35527136788E-14  0.00000000000E+00  0.91188000000E+02  0.91188000000E+02 0.  0.
    9900012    2    3    3    0    0  0.20426592028E+02  0.29386799158E+02 -0.86573940858E+01  0.54367080688E+02  0.39999992044E+02 0.  0.
        -12    1    3    3    0    0 -0.20426592028E+02 -0.29386799158E+02  0.86573940858E+01  0.36820919312E+02  0.00000000000E+00 0.  1.
         11    1    4    4    0    0  0.21998535143E+02  0.36337791786E+02 -0.86001433942E+01  0.43339740736E+02  0.51100000000E-03 0. -1.
        -11    1    4    4    0    0 -0.24671477553E+01 -0.54941260033E+01 -0.36542769386E+01  0.70445708735E+01  0.51100000000E-03 0.  1.
         12    1    4    4    0    0  0.89520464039E+00 -0.14568666252E+01  0.35970262470E+01  0.39827690786E+01  0.00000000000E+00 0. -1.
</event>
<event>
 8    1  0.1210161E-006  0.9118800E+02  0.7816164E-02  0.1184000E+00
        -11   -1    0    0    0    0  0.00000000000E+00  0.00000000000E+00  0.45593999997E+02  0.45594000000E+02  0.51100000000E-03 0.  1.
         11   -1    0    0    0    0 -0.00000000000E+00 -0.00000000000E+00 -0.45593999997E+02  0.45594000000E+02  0.51100000000E-03 0. -1.
         23    2    1    2    0    0  0.00000000000E+00  0.00000000000E+00  0.00000000000E+00  0.91188000000E+02  0.91188000000E+02 0.  0.
    9900012    2    3    3    0    0 -0.23876380059E+02 -0.82397299608E+01 -0.26791980099E+02  0.54367015872E+02  0.39999844283E+02 0.  0.
        -12    1    3    3    0    0  0.23876380059E+02  0.82397299608E+01  0.26791980099E+02  0.36820984128E+02  0.00000000000E+00 0.  1.
         11    1    4    4    0    0 -0.24231686452E+02  0.45456647957E+01 -0.15098460755E+02  0.28910226809E+02  0.51100000000E-03 0. -1.
        -11    1    4    4    0    0  0.52498357371E+01  0.28621816047E+01 -0.48152408756E+01  0.76772002551E+01  0.51100000000E-03 0.  1.
         12    1    4    4    0    0 -0.48945293446E+01 -0.15647576361E+02 -0.68782784682E+01  0.17779588808E+02  0.00000000000E+00 0. -1.
</event>
<event>
 8    1  0.1210161E-006  0.9118800E+02  0.7816164E-02  0.1184000E+00
        -11   -1    0    0    0    0  0.00000000000E+00  0.00000000000E+00  0.45593999997E+02  0.45594000000E+02  0.51100000000E-03 0.  1.
         11   -1    0    0    0    0 -0.00000000000E+00 -0.00000000000E+00 -0.45593999997E+02  0.45594000000E+02  0.51100000000E-03 0. -1.
         23    2    1    2    0    0  0.35527136788E-14 -0.35527136788E-14  0.00000000000E+00  0.91188000000E+02  0.91188000000E+02 0.  0.
    9900012    2    3    3    0    0 -0.22394353776E+02  0.27221410213E+02 -0.10642688065E+02  0.54367094739E+02  0.40000024076E+02 0.  0.
         12    1    3    3    0    0  0.22394353776E+02 -0.27221410213E+02  0.10642688065E+02  0.36820905261E+02  0.00000000000E+00 0. -1.
         11    1    4    4    0    0 -0.16358118107E+02  0.13978430512E+02 -0.53393314419E+01  0.22169641587E+02  0.51100000000E-03 0. -1.
        -11    1    4    4    0    0  0.40562732269E+01  0.19297357405E+02 -0.12839395187E+01  0.19760816184E+02  0.51100000000E-03 0.  1.
         12    1    4    4    0    0 -0.10092508896E+02 -0.60543777045E+01 -0.40194171046E+01  0.12436636968E+02  0.00000000000E+00 0. -1.
</event>
<event>
 8    1  0.1210161E-006  0.9118800E+02  0.7816164E-02  0.1184000E+00
        -11   -1    0    0    0    0  0.00000000000E+00  0.00000000000E+00  0.45593999997E+02  0.45594000000E+02  0.51100000000E-03 0.  1.
         11   -1    0    0    0    0 -0.00000000000E+00 -0.00000000000E+00 -0.45593999997E+02  0.45594000000E+02  0.51100000000E-03 0. -1.
         23    2    1    2    0    0  0.00000000000E+00 -0.35527136788E-14  0.35527136788E-14  0.91188000000E+02  0.91188000000E+02 0.  0.
    9900012    2    3    3    0    0  0.19605649572E+01  0.28810276878E+02  0.22845237165E+02  0.54367072121E+02  0.39999972515E+02 0.  0.
         12    1    3    3    0    0 -0.19605649572E+01 -0.28810276878E+02 -0.22845237165E+02  0.36820927879E+02  0.00000000000E+00 0. -1.
         11    1    4    4    0    0  0.97746071679E+00  0.87995177152E+01  0.25860965131E+02  0.27334528700E+02  0.51100000000E-03 0. -1.
        -11    1    4    4    0    0 -0.19969691963E+01 -0.26726513382E+01 -0.24640057088E+01  0.41475626024E+01  0.51100000000E-03 0.  1.
         12    1    4    4    0    0  0.29800734367E+01  0.22683410501E+02 -0.55172225704E+00  0.22884980819E+02  0.00000000000E+00 0. -1.
</event>
<event>
 8    1  0.1210161E-006  0.9118800E+02  0.7816164E-02  0.1184000E+00
        -11   -1    0    0    0    0  0.00000000000E+00  0.00000000000E+00  0.45593999997E+02  0.45594000000E+02  0.51100000000E-03 0.  1.
         11   -1    0    0    0    0 -0.00000000000E+00 -0.00000000000E+00 -0.45593999997E+02  0.45594000000E+02  0.51100000000E-03 0. -1.
         23    2    1    2    0    0 -0.35527136788E-14 -0.35527136788E-14 -0.17763568394E-14  0.91188000000E+02  0.91188000000E+02 0.  0.
    9900012    2    3    3    0    0  0.24399516100E+02 -0.22701713040E+02  0.15654893817E+02  0.54367083915E+02  0.39999999401E+02 0.  0.
         12    1    3    3    0    0 -0.24399516100E+02  0.22701713040E+02 -0.15654893817E+02  0.36820916085E+02  0.00000000000E+00 0. -1.
         11    1    4    4    0    0  0.12371895314E+02  0.37393469498E-01 -0.44113046722E+01  0.13134869664E+02  0.51100000000E-03 0. -1.
        -11    1    4    4    0    0 -0.78009721099E+00 -0.45305020134E+01 -0.56073870367E+01  0.72509854359E+01  0.51100000000E-03 0.  1.
        -12    1    4    4    0    0  0.12807717997E+02 -0.18208604497E+02  0.25673585526E+02  0.33981228815E+02  0.00000000000E+00 0.  1.
</event>
<event>
 8    1  0.1210161E-006  0.9118800E+02  0.7816164E-02  0.1184000E+00
        -11   -1    0    0    0    0  0.00000000000E+00  0.00000000000E+00  0.45593999997E+02  0.45594000000E+02  0.51100000000E-03 0.  1.
         11   -1    0    0    0    0 -0.00000000000E+00 -0.00000000000E+00 -0.45593999997E+02  0.45594000000E+02  0.51100000000E-03 0. -1.
         23    2    1    2    0    0  0.00000000000E+00 -0.22204460493E-14  0.00000000000E+00  0.91188000000E+02  0.91188000000E+02 0.  0.
    9900012    2    3    3    0    0  0.34840006324E+02 -0.31785636912E+01  0.11482594531E+02  0.54367091741E+02  0.40000017243E+02 0.  0.
         12    1    3    3    0    0 -0.34840006324E+02  0.31785636912E+01 -0.11482594531E+02  0.36820908259E+02  0.00000000000E+00 0. -1.
         11    1    4    4    0    0  0.21524742499E+02  0.11940356058E+02 -0.15089600621E+01  0.24660973281E+02  0.51100000000E-03 0. -1.
        -11    1    4    4    0    0  0.56069153784E+01  0.18289324241E+01  0.88458890018E+01  0.10631662446E+02  0.51100000000E-03 0.  1.
        -12    1    4    4    0    0  0.77083484467E+01 -0.16947852173E+02  0.41456655915E+01  0.19074456014E+02  0.00000000000E+00 0.  1.
</event>
<event>
 8    1  0.1210161E-006  0.9118800E+02  0.7816164E-02  0.1184000E+00
        -11   -1    0    0    0    0  0.00000000000E+00  0.00000000000E+00  0.45593999997E+02  0.45594000000E+02  0.51100000000E-03 0.  1.
         11   -1    0    0    0    0 -0.00000000000E+00 -0.00000000000E+00 -0.45593999997E+02  0.45594000000E+02  0.51100000000E-03 0. -1.
         23    2    1    2    0    0 -0.26645352591E-14  0.00000000000E+00 -0.71054273576E-14  0.91188000000E+02  0.91188000000E+02 0.  0.
    9900012    2    3    3    0    0 -0.69610990430E+01  0.18055679457E+01 -0.36111823804E+02  0.54367071251E+02  0.39999970532E+02 0.  0.
        -12    1    3    3    0    0  0.69610990430E+01 -0.18055679457E+01  0.36111823804E+02  0.36820928749E+02  0.00000000000E+00 0.  1.
         11    1    4    4    0    0 -0.48789718063E+01  0.94773650808E+01 -0.96841727854E+01  0.14401667180E+02  0.51100000000E-03 0. -1.
        -11    1    4    4    0    0  0.87328540559E+01  0.10386442362E+01  0.13620908110E+01  0.88992591517E+01  0.51100000000E-03 0.  1.
        -12    1    4    4    0    0 -0.10814981293E+02 -0.87104413713E+01 -0.27789741829E+02  0.31066144920E+02  0.00000000000E+00 0.  1.
</event>
<event>
 8    1  0.1210161E-006  0.9118800E+02  0.7816164E-02  0.1184000E+00
        -11   -1    0    0    0    0  0.00000000000E+00  0.00000000000E+00  0.45593999997E+02  0.45594000000E+02  0.51100000000E-03 0.  1.
         11   -1    0    0    0    0 -0.00000000000E+00 -0.00000000000E+00 -0.45593999997E+02  0.45594000000E+02  0.51100000000E-03 0. -1.
         23    2    1    2    0    0  0.00000000000E+00  0.00000000000E+00  0.00000000000E+00  0.91188000000E+02  0.91188000000E+02 0.  0.
    9900012    2    3    3    0    0  0.17152459958E+02 -0.20024544980E+02 -0.25701989965E+02  0.54367060680E+02  0.39999946432E+02 0.  0.
        -12    1    3    3    0    0 -0.17152459958E+02  0.20024544980E+02  0.25701989965E+02  0.36820939320E+02  0.00000000000E+00 0.  1.
         11    1    4    4    0    0 -0.47021371687E+01 -0.42774583551E+01 -0.63300771942E+01  0.89708762938E+01  0.51100000000E-03 0. -1.
        -11    1    4    4    0    0  0.97608502281E+01 -0.10584862413E+02  0.69383761128E+01  0.15982946313E+02  0.51100000000E-03 0.  1.
         12    1    4    4    0    0  0.12093746898E+02 -0.51622242116E+01 -0.26310288883E+02  0.29413238074E+02  0.00000000000E+00 0. -1.
</event>
<event>
 8    1  0.1210161E-006  0.9118800E+02  0.7816164E-02  0.1184000E+00
        -11   -1    0    0    0    0  0.00000000000E+00  0.00000000000E+00  0.45593999997E+02  0.45594000000E+02  0.51100000000E-03 0.  1.
         11   -1    0    0    0    0 -0.00000000000E+00 -0.00000000000E+00 -0.45593999997E+02  0.45594000000E+02  0.51100000000E-03 0. -1.
         23    2    1    2    0    0  0.00000000000E+00  0.00000000000E+00  0.00000000000E+00  0.91188000000E+02  0.91188000000E+02 0.  0.
    9900012    2    3    3    0    0 -0.10553819134E+02  0.86173264387E+01 -0.34207325555E+02  0.54367047610E+02  0.39999916638E+02 0.  0.
        -12    1    3    3    0    0  0.10553819134E+02 -0.86173264387E+01  0.34207325555E+02  0.36820952390E+02  0.00000000000E+00 0.  1.
         11    1    4    4    0    0 -0.15695470765E+02  0.29488265608E+01  0.81041952090E+00  0.15990627276E+02  0.51100000000E-03 0. -1.
        -11    1    4    4    0    0  0.50374598323E+01  0.75790959947E+01 -0.10973237459E+02  0.14255898367E+02  0.51100000000E-03 0.  1.
         12    1    4    4    0    0  0.10419179918E+00 -0.19105961168E+01 -0.24044507616E+02  0.24120521967E+02  0.00000000000E+00 0. -1.
</event>
<event>
 8    1  0.1210161E-006  0.9118800E+02  0.7816164E-02  0.1184000E+00
        -11   -1    0    0    0    0  0.00000000000E+00  0.00000000000E+00  0.45593999997E+02  0.45594000000E+02  0.51100000000E-03 0.  1.
         11   -1    0    0    0    0 -0.00000000000E+00 -0.00000000000E+00 -0.45593999997E+02  0.45594000000E+02  0.51100000000E-03 0. -1.
         23    2    1    2    0    0  0.00000000000E+00  0.00000000000E+00 -0.17763568394E-14  0.91188000000E+02  0.91188000000E+02 0.  0.
    9900012    2    3    3    0    0  0.11241139737E+02  0.33698401172E+02 -0.96868148357E+01  0.54367084126E+02  0.39999999882E+02 0.  0.
         12    1    3    3    0    0 -0.11241139737E+02 -0.33698401172E+02  0.96868148357E+01  0.36820915874E+02  0.00000000000E+00 0. -1.
         11    1    4    4    0    0  0.58847557974E+01  0.25895517681E+02 -0.22684911456E+02  0.34925827045E+02  0.51100000000E-03 0. -1.
        -11    1    4    4    0    0  0.76076491069E+01  0.89139734013E+01  0.92486061757E+01  0.14928896918E+02  0.51100000000E-03 0.  1.
         12    1    4    4    0    0 -0.22512651671E+01 -0.11110899106E+01  0.37494904448E+01  0.45123601627E+01  0.00000000000E+00 0. -1.
</event>
<event>
 8    1  0.1210161E-006  0.9118800E+02  0.7816164E-02  0.1184000E+00
        -11   -1    0    0    0    0  0.00000000000E+00  0.00000000000E+00  0.45593999997E+02  0.45594000000E+02  0.51100000000E-03 0.  1.
         11   -1    0    0    0    0 -0.00000000000E+00 -0.00000000000E+00 -0.45593999997E+02  0.45594000000E+02  0.51100000000E-03 0. -1.
         23    2    1    2    0    0 -0.44408920985E-15  0.00000000000E+00  0.00000000000E+00  0.91188000000E+02  0.91188000000E+02 0.  0.
    9900012    2    3    3    0    0  0.32329847092E+01  0.34503794774E+02 -0.12442530475E+02  0.54367073768E+02  0.39999976270E+02 0.  0.
         12    1    3    3    0    0 -0.32329847092E+01 -0.34503794774E+02  0.12442530475E+02  0.36820926232E+02  0.00000000000E+00 0. -1.
         11    1    4    4    0    0 -0.12339476200E+02  0.30834841968E+01 -0.53904082831E+01  0.13814016411E+02  0.51100000000E-03 0. -1.
        -11    1    4    4    0    0  0.91688765021E+01  0.32063768459E+02 -0.71921867339E+01  0.34115701581E+02  0.51100000000E-03 0.  1.
         12    1    4    4    0    0  0.64035844075E+01 -0.64345788209E+00  0.14006454153E+00  0.64373557759E+01  0.00000000000E+00 0. -1.
</event>
<event>
 8    1  0.1210161E-006  0.9118800E+02  0.7816164E-02  0.1184000E+00
        -11   -1    0    0    0    0  0.00000000000E+00  0.00000000000E+00  0.45593999997E+02  0.45594000000E+02  0.51100000000E-03 0.  1.
         11   -1    0    0    0    0 -0.00000000000E+00 -0.00000000000E+00 -0.45593999997E+02  0.45594000000E+02  0.51100000000E-03 0. -1.
         23    2    1    2    0    0 -0.17763568394E-14  0.88817841970E-15  0.00000000000E+00  0.91188000000E+02  0.91188000000E+02 0.  0.
    9900012    2    3    3    0    0 -0.14940817605E+02 -0.71627692077E+01  0.32882316915E+02  0.54367081229E+02  0.39999993277E+02 0.  0.
         12    1    3    3    0    0  0.14940817605E+02  0.71627692077E+01 -0.32882316915E+02  0.36820918771E+02  0.00000000000E+00 0. -1.
         11    1    4    4    0    0 -0.79902690015E+01  0.62681729063E+01  0.22618933042E+01  0.10404352545E+02  0.51100000000E-03 0. -1.
        -11    1    4    4    0    0 -0.27866055104E+01 -0.21355655320E+02  0.26386568295E+02  0.34059949664E+02  0.51100000000E-03 0.  1.
        -12    1    4    4    0    0 -0.41639430934E+01  0.79247132061E+01  0.42338553159E+01  0.99027790201E+01  0.00000000000E+00 0.  1.
</event>
<event>
 8    1  0.1210161E-006  0.9118800E+02  0.7816164E-02  0.1184000E+00
        -11   -1    0    0    0    0  0.00000000000E+00  0.00000000000E+00  0.45593999997E+02  0.45594000000E+02  0.51100000000E-03 0.  1.
         11   -1    0    0    0    0 -0.00000000000E+00 -0.00000000000E+00 -0.45593999997E+02  0.45594000000E+02  0.51100000000E-03 0. -1.
         23    2    1    2    0    0 -0.44408920985E-15  0.00000000000E+00  0.00000000000E+00  0.91188000000E+02  0.91188000000E+02 0.  0.
    9900012    2    3    3    0    0  0.33715359563E+01 -0.72595248063E+01 -0.35940369238E+02  0.54367107886E+02  0.40000054048E+02 0.  0.
        -12    1    3    3    0    0 -0.33715359563E+01  0.72595248063E+01  0.35940369238E+02  0.36820892114E+02  0.00000000000E+00 0.  1.
         11    1    4    4    0    0  0.18460004669E+00  0.29098167484E+01 -0.21920200196E+01  0.36477476220E+01  0.51100000000E-03 0. -1.
        -11    1    4    4    0    0 -0.44212216769E+01 -0.63755338642E+01  0.61655903578E+01  0.99100523657E+01  0.51100000000E-03 0.  1.
         12    1    4    4    0    0  0.76081575865E+01 -0.37938076904E+01 -0.39913939576E+02  0.40809307898E+02  0.00000000000E+00 0. -1.
</event>
<event>
 8    1  0.1210161E-006  0.9118800E+02  0.7816164E-02  0.1184000E+00
        -11   -1    0    0    0    0  0.00000000000E+00  0.00000000000E+00  0.45593999997E+02  0.45594000000E+02  0.51100000000E-03 0.  1.
         11   -1    0    0    0    0 -0.00000000000E+00 -0.00000000000E+00 -0.45593999997E+02  0.45594000000E+02  0.51100000000E-03 0. -1.
         23    2    1    2    0    0  0.00000000000E+00  0.00000000000E+00  0.35527136788E-14  0.91188000000E+02  0.91188000000E+02 0.  0.
    9900012    2    3    3    0    0 -0.20947026768E+02 -0.16492269989E+02  0.25397032767E+02  0.54367052522E+02  0.39999927834E+02 0.  0.
         12    1    3    3    0    0  0.20947026768E+02  0.16492269989E+02 -0.25397032767E+02  0.36820947478E+02  0.00000000000E+00 0. -1.
         11    1    4    4    0    0 -0.67237814169E+01 -0.10067639614E+01 -0.89274000578E+01  0.11221465246E+02  0.51100000000E-03 0. -1.
        -11    1    4    4    0    0 -0.85210734025E+01 -0.17056915287E+02  0.19922098974E+02  0.27576023622E+02  0.51100000000E-03 0.  1.
        -12    1    4    4    0    0 -0.57021719482E+01  0.15714092597E+01  0.14402333851E+02  0.15569563653E+02  0.00000000000E+00 0.  1.
</event>
<event>
 8    1  0.1210161E-006  0.9118800E+02  0.7816164E-02  0.1184000E+00
        -11   -1    0    0    0    0  0.00000000000E+00  0.00000000000E+00  0.45593999997E+02  0.45594000000E+02  0.51100000000E-03 0.  1.
         11   -1    0    0    0    0 -0.00000000000E+00 -0.00000000000E+00 -0.45593999997E+02  0.45594000000E+02  0.51100000000E-03 0. -1.
         23    2    1    2    0    0  0.71054273576E-14  0.00000000000E+00  0.00000000000E+00  0.91188000000E+02  0.91188000000E+02 0.  0.
    9900012    2    3    3    0    0 -0.33052150181E+02 -0.13415438935E+02 -0.91301624329E+01  0.54367102409E+02  0.40000041561E+02 0.  0.
        -12    1    3    3    0    0  0.33052150181E+02  0.13415438935E+02  0.91301624329E+01  0.36820897591E+02  0.00000000000E+00 0.  1.
         11    1    4    4    0    0 -0.60006081960E+01  0.54852728505E+00 -0.10065095529E+02  0.11730913399E+02  0.51100000000E-03 0. -1.
        -11    1    4    4    0    0  0.12741013800E+00 -0.10600459415E+02 -0.85860657362E+01  0.13642085553E+02  0.51100000000E-03 0.  1.
        -12    1    4    4    0    0 -0.27178952123E+02 -0.33635068052E+01  0.95209988322E+01  0.28994103457E+02  0.00000000000E+00 0.  1.
</event>
<event>
 8    1  0.1210161E-006  0.9118800E+02  0.7816164E-02  0.1184000E+00
        -11   -1    0    0    0    0  0.00000000000E+00  0.00000000000E+00  0.45593999997E+02  0.45594000000E+02  0.51100000000E-03 0.  1.
         11   -1    0    0    0    0 -0.00000000000E+00 -0.00000000000E+00 -0.45593999997E+02  0.45594000000E+02  0.51100000000E-03 0. -1.
         23    2    1    2    0    0  0.00000000000E+00  0.00000000000E+00  0.00000000000E+00  0.91188000000E+02  0.91188000000E+02 0.  0.
    9900012    2    3    3    0    0 -0.21093017371E+02  0.96185934175E+01 -0.28606754783E+02  0.54367093706E+02  0.40000021721E+02 0.  0.
        -12    1    3    3    0    0  0.21093017371E+02 -0.96185934175E+01  0.28606754783E+02  0.36820906294E+02  0.00000000000E+00 0.  1.
         11    1    4    4    0    0 -0.14774530471E+02  0.44132553241E+01 -0.35857707227E+02  0.39032534391E+02  0.51100000000E-03 0. -1.
        -11    1    4    4    0    0  0.11231308106E+01  0.39578327143E+01  0.65787199089E+01  0.77592150707E+01  0.51100000000E-03 0.  1.
         12    1    4    4    0    0 -0.74416177110E+01  0.12475053790E+01  0.67223253523E+00  0.75753442436E+01  0.00000000000E+00 0. -1.
</event>
<event>
 8    1  0.1210161E-006  0.9118800E+02  0.7816164E-02  0.1184000E+00
        -11   -1    0    0    0    0  0.00000000000E+00  0.00000000000E+00  0.45593999997E+02  0.45594000000E+02  0.51100000000E-03 0.  1.
         11   -1    0    0    0    0 -0.00000000000E+00 -0.00000000000E+00 -0.45593999997E+02  0.45594000000E+02  0.51100000000E-03 0. -1.
         23    2    1    2    0    0  0.35527136788E-14  0.00000000000E+00  0.00000000000E+00  0.91188000000E+02  0.91188000000E+02 0.  0.
    9900012    2    3    3    0    0  0.14287274128E+02  0.33637870432E+02 -0.44885585991E+01  0.54367086275E+02  0.40000004782E+02 0.  0.
        -12    1    3    3    0    0 -0.14287274128E+02 -0.33637870432E+02  0.44885585991E+01  0.36820913725E+02  0.00000000000E+00 0.  1.
         11    1    4    4    0    0 -0.85304086531E+01  0.72600115290E+01 -0.38296930040E+01  0.11838166579E+02  0.51100000000E-03 0. -1.
        -11    1    4    4    0    0  0.18912523225E+02  0.27700272087E+02 -0.76595767527E+01  0.34404327122E+02  0.51100000000E-03 0.  1.
        -12    1    4    4    0    0  0.39051595564E+01 -0.13224131836E+01  0.70007111575E+01  0.81245925744E+01  0.00000000000E+00 0.  1.
</event>
<event>
 8    1  0.1210161E-006  0.9118800E+02  0.7816164E-02  0.1184000E+00
        -11   -1    0    0    0    0  0.00000000000E+00  0.00000000000E+00  0.45593999997E+02  0.45594000000E+02  0.51100000000E-03 0.  1.
         11   -1    0    0    0    0 -0.00000000000E+00 -0.00000000000E+00 -0.45593999997E+02  0.45594000000E+02  0.51100000000E-03 0. -1.
         23    2    1    2    0    0 -0.17763568394E-14  0.00000000000E+00  0.00000000000E+00  0.91188000000E+02  0.91188000000E+02 0.  0.
    9900012    2    3    3    0    0  0.86631353275E+01  0.31949945075E+02 -0.16122309613E+02  0.54367112297E+02  0.40000064103E+02 0.  0.
        -12    1    3    3    0    0 -0.86631353275E+01 -0.31949945075E+02  0.16122309613E+02  0.36820887703E+02  0.00000000000E+00 0.  1.
         11    1    4    4    0    0  0.18716839277E+02  0.28026534093E+02 -0.29645481053E+01  0.33831867100E+02  0.51100000000E-03 0. -1.
        -11    1    4    4    0    0 -0.19062503678E+01 -0.28735783395E+01  0.22611968368E+00  0.34557739090E+01  0.51100000000E-03 0.  1.
         12    1    4    4    0    0 -0.81474535816E+01  0.67969893218E+01 -0.13383881192E+02  0.17079471287E+02  0.00000000000E+00 0. -1.
</event>
<event>
 8    1  0.1210161E-006  0.9118800E+02  0.7816164E-02  0.1184000E+00
        -11   -1    0    0    0    0  0.00000000000E+00  0.00000000000E+00  0.45593999997E+02  0.45594000000E+02  0.51100000000E-03 0.  1.
         11   -1    0    0    0    0 -0.00000000000E+00 -0.00000000000E+00 -0.45593999997E+02  0.45594000000E+02  0.51100000000E-03 0. -1.
         23    2    1    2    0    0  0.71054273576E-14 -0.17763568394E-14 -0.17763568394E-14  0.91188000000E+02  0.91188000000E+02 0.  0.
    9900012    2    3    3    0    0 -0.36099192511E+02  0.44157364534E+01  0.57558388297E+01  0.54367080552E+02  0.39999991734E+02 0.  0.
         12    1    3    3    0    0  0.36099192511E+02 -0.44157364534E+01 -0.57558388297E+01  0.36820919448E+02  0.00000000000E+00 0. -1.
         11    1    4    4    0    0  0.69583300147E+01 -0.44990524253E+01 -0.39313369729E+01  0.91714360912E+01  0.51100000000E-03 0.  1.
        -11    1    4    4    0    0 -0.35457759317E+01  0.32487446718E+00 -0.21164213482E+00  0.35669122546E+01  0.51100000000E-03 0. -1.
        -12    1    4    4    0    0 -0.39511746594E+02  0.85899144115E+01  0.98988179374E+01  0.41628732206E+02  0.00000000000E+00 0.  1.
</event>
<event>
 8    1  0.1210161E-006  0.9118800E+02  0.7816164E-02  0.1184000E+00
        -11   -1    0    0    0    0  0.00000000000E+00  0.00000000000E+00  0.45593999997E+02  0.45594000000E+02  0.51100000000E-03 0. -1.
         11   -1    0    0    0    0 -0.00000000000E+00 -0.00000000000E+00 -0.45593999997E+02  0.45594000000E+02  0.51100000000E-03 0.  1.
         23    2    1    2    0    0  0.00000000000E+00 -0.77715611724E-15  0.71054273576E-14  0.91188000000E+02  0.91188000000E+02 0.  0.
    9900012    2    3    3    0    0 -0.11132443462E+02  0.65477912661E+00 -0.35091593965E+02  0.54367082030E+02  0.39999995103E+02 0.  0.
         12    1    3    3    0    0  0.11132443462E+02 -0.65477912661E+00  0.35091593965E+02  0.36820917970E+02  0.00000000000E+00 0. -1.
         11    1    4    4    0    0 -0.76657054702E+01 -0.81678490225E+00 -0.11658752716E+02  0.13977005870E+02  0.51100000000E-03 0. -1.
        -11    1    4    4    0    0 -0.98081142819E+01  0.77793790288E+01 -0.27761338501E+02  0.30453403085E+02  0.51100000000E-03 0.  1.
         12    1    4    4    0    0  0.63413762897E+01 -0.63078149999E+01  0.43284972523E+01  0.99366730742E+01  0.00000000000E+00 0. -1.
</event>
<event>
 8    1  0.1210161E-006  0.9118800E+02  0.7816164E-02  0.1184000E+00
        -11   -1    0    0    0    0  0.00000000000E+00  0.00000000000E+00  0.45593999997E+02  0.45594000000E+02  0.51100000000E-03 0.  1.
         11   -1    0    0    0    0 -0.00000000000E+00 -0.00000000000E+00 -0.45593999997E+02  0.45594000000E+02  0.51100000000E-03 0. -1.
         23    2    1    2    0    0 -0.71054273576E-14  0.35527136788E-14  0.13322676296E-14  0.91188000000E+02  0.91188000000E+02 0.  0.
    9900012    2    3    3    0    0  0.32792253824E+02 -0.16586577494E+02 -0.23098464043E+01  0.54367056853E+02  0.39999937709E+02 0.  0.
        -12    1    3    3    0    0 -0.32792253824E+02  0.16586577494E+02  0.23098464043E+01  0.36820943147E+02  0.00000000000E+00 0.  1.
         11    1    4    4    0    0  0.15939832836E+02 -0.97165743274E+01 -0.87796274146E+01  0.20629395175E+02  0.51100000000E-03 0. -1.
        -11    1    4    4    0    0  0.11630079179E+01 -0.15177872631E+02  0.14664750787E+01  0.15292839973E+02  0.51100000000E-03 0.  1.
         12    1    4    4    0    0  0.15689413070E+02  0.83078694641E+01  0.50033059315E+01  0.18444821706E+02  0.00000000000E+00 0. -1.
</event>
<event>
 8    1  0.1210161E-006  0.9118800E+02  0.7816164E-02  0.1184000E+00
        -11   -1    0    0    0    0  0.00000000000E+00  0.00000000000E+00  0.45593999997E+02  0.45594000000E+02  0.51100000000E-03 0.  1.
         11   -1    0    0    0    0 -0.00000000000E+00 -0.00000000000E+00 -0.45593999997E+02  0.45594000000E+02  0.51100000000E-03 0. -1.
         23    2    1    2    0    0  0.00000000000E+00  0.00000000000E+00  0.00000000000E+00  0.91188000000E+02  0.91188000000E+02 0.  0.
    9900012    2    3    3    0    0  0.20279135226E+02 -0.24034462120E+02  0.19154163449E+02  0.54367072902E+02  0.39999974295E+02 0.  0.
         12    1    3    3    0    0 -0.20279135226E+02  0.24034462120E+02 -0.19154163449E+02  0.36820927098E+02  0.00000000000E+00 0. -1.
         11    1    4    4    0    0  0.16941850872E+02  0.45407892088E+01  0.80481516502E+01  0.19298130036E+02  0.51100000000E-03 0. -1.
        -11    1    4    4    0    0 -0.66021686338E+01 -0.92812691278E+01  0.55246274617E+01  0.12659071694E+02  0.51100000000E-03 0.  1.
         12    1    4    4    0    0  0.99394529873E+01 -0.19293982201E+02  0.55813843368E+01  0.22409871173E+02  0.00000000000E+00 0. -1.
</event>
<event>
 8    1  0.1210161E-006  0.9118800E+02  0.7816164E-02  0.1184000E+00
        -11   -1    0    0    0    0  0.00000000000E+00  0.00000000000E+00  0.45593999997E+02  0.45594000000E+02  0.51100000000E-03 0.  1.
         11   -1    0    0    0    0 -0.00000000000E+00 -0.00000000000E+00 -0.45593999997E+02  0.45594000000E+02  0.51100000000E-03 0. -1.
         23    2    1    2    0    0  0.00000000000E+00 -0.27755575616E-16  0.71054273576E-14  0.91188000000E+02  0.91188000000E+02 0.  0.
    9900012    2    3    3    0    0  0.55559240507E+01  0.14602257182E+00 -0.36399050316E+02  0.54367075534E+02  0.39999980295E+02 0.  0.
        -12    1    3    3    0    0 -0.55559240507E+01 -0.14602257182E+00  0.36399050316E+02  0.36820924466E+02  0.00000000000E+00 0.  1.
         11    1    4    4    0    0 -0.51865549601E+01  0.23260175456E+01 -0.29226358523E+01  0.63915968711E+01  0.51100000000E-03 0. -1.
        -11    1    4    4    0    0 -0.78209374509E+01 -0.48606277325E+01  0.43958568585E+00  0.92187851912E+01  0.51100000000E-03 0.  1.
         12    1    4    4    0    0  0.18563416462E+02  0.26806327587E+01 -0.33916000149E+02  0.38756693472E+02  0.00000000000E+00 0. -1.
</event>
<event>
 8    1  0.1210161E-006  0.9118800E+02  0.7816164E-02  0.1184000E+00
        -11   -1    0    0    0    0  0.00000000000E+00  0.00000000000E+00  0.45593999997E+02  0.45594000000E+02  0.51100000000E-03 0. -1.
         11   -1    0    0    0    0 -0.00000000000E+00 -0.00000000000E+00 -0.45593999997E+02  0.45594000000E+02  0.51100000000E-03 0.  1.
         23    2    1    2    0    0  0.00000000000E+00 -0.71054273576E-14  0.44408920985E-15  0.91188000000E+02  0.91188000000E+02 0.  0.
    9900012    2    3    3    0    0  0.10300594653E+02 -0.35288684172E+02 -0.20945308504E+01  0.54367074695E+02  0.39999978383E+02 0.  0.
         12    1    3    3    0    0 -0.10300594653E+02  0.35288684172E+02  0.20945308504E+01  0.36820925305E+02  0.00000000000E+00 0. -1.
         11    1    4    4    0    0  0.97204715939E+01 -0.66386325255E+01  0.86306373461E+01  0.14596126578E+02  0.51100000000E-03 0. -1.
        -11    1    4    4    0    0  0.87761984849E+01 -0.40559853239E+00 -0.12583215595E+01  0.88752207536E+01  0.51100000000E-03 0.  1.
        -12    1    4    4    0    0 -0.81960754257E+01 -0.28244453114E+02 -0.94668466370E+01  0.30895727364E+02  0.00000000000E+00 0.  1.
</event>
<event>
 8    1  0.1210161E-006  0.9118800E+02  0.7816164E-02  0.1184000E+00
        -11   -1    0    0    0    0  0.00000000000E+00  0.00000000000E+00  0.45593999997E+02  0.45594000000E+02  0.51100000000E-03 0. -1.
         11   -1    0    0    0    0 -0.00000000000E+00 -0.00000000000E+00 -0.45593999997E+02  0.45594000000E+02  0.51100000000E-03 0.  1.
         23    2    1    2    0    0  0.35527136788E-14  0.00000000000E+00 -0.35527136788E-14  0.91188000000E+02  0.91188000000E+02 0.  0.
    9900012    2    3    3    0    0  0.23906602250E+02  0.16048100669E+02  0.22950198270E+02  0.54367098777E+02  0.40000033283E+02 0.  0.
        -12    1    3    3    0    0 -0.23906602250E+02 -0.16048100669E+02 -0.22950198270E+02  0.36820901223E+02  0.00000000000E+00 0.  1.
         11    1    4    4    0    0  0.15459962640E+02  0.12443260196E+02 -0.65496919231E+01  0.20898412229E+02  0.51100000000E-03 0.  1.
        -11    1    4    4    0    0  0.10181546253E+02  0.67280014501E+01  0.21892742420E+02  0.25064358331E+02  0.51100000000E-03 0. -1.
         12    1    4    4    0    0 -0.17349066427E+01 -0.31231609770E+01  0.76071477729E+01  0.84043282174E+01  0.00000000000E+00 0. -1.
</event>
<event>
 8    1  0.1210161E-006  0.9118800E+02  0.7816164E-02  0.1184000E+00
        -11   -1    0    0    0    0  0.00000000000E+00  0.00000000000E+00  0.45593999997E+02  0.45594000000E+02  0.51100000000E-03 0.  1.
         11   -1    0    0    0    0 -0.00000000000E+00 -0.00000000000E+00 -0.45593999997E+02  0.45594000000E+02  0.51100000000E-03 0. -1.
         23    2    1    2    0    0  0.00000000000E+00 -0.88817841970E-15  0.00000000000E+00  0.91188000000E+02  0.91188000000E+02 0.  0.
    9900012    2    3    3    0    0 -0.32703067231E+02 -0.78289730836E+01 -0.14999959790E+02  0.54367051892E+02  0.39999926398E+02 0.  0.
         12    1    3    3    0    0  0.32703067231E+02  0.78289730836E+01  0.14999959790E+02  0.36820948108E+02  0.00000000000E+00 0. -1.
         11    1    4    4    0    0 -0.45707072331E+01 -0.15533418163E+02 -0.14167787558E+02  0.21515219009E+02  0.51100000000E-03 0. -1.
        -11    1    4    4    0    0 -0.14745131805E+02  0.17400924671E+01 -0.76334819670E+01  0.16694815990E+02  0.51100000000E-03 0.  1.
        -12    1    4    4    0    0 -0.13387228193E+02  0.59643526119E+01  0.68013097354E+01  0.16157016893E+02  0.00000000000E+00 0.  1.
</event>
<event>
 8    1  0.1210161E-006  0.9118800E+02  0.7816164E-02  0.1184000E+00
        -11   -1    0    0    0    0  0.00000000000E+00  0.00000000000E+00  0.45593999997E+02  0.45594000000E+02  0.51100000000E-03 0. -1.
         11   -1    0    0    0    0 -0.00000000000E+00 -0.00000000000E+00 -0.45593999997E+02  0.45594000000E+02  0.51100000000E-03 0.  1.
         23    2    1    2    0    0  0.00000000000E+00  0.00000000000E+00  0.00000000000E+00  0.91188000000E+02  0.91188000000E+02 0.  0.
    9900012    2    3    3    0    0 -0.30431877707E+02 -0.11042677341E+02 -0.17542275514E+02  0.54367199712E+02  0.40000263382E+02 0.  0.
         12    1    3    3    0    0  0.30431877707E+02  0.11042677341E+02  0.17542275514E+02  0.36820800288E+02  0.00000000000E+00 0. -1.
         11    1    4    4    0    0 -0.90888429082E+01 -0.74080763756E+01  0.90780879580E+01  0.14828969696E+02  0.51100000000E-03 0. -1.
        -11    1    4    4    0    0 -0.60353520242E+01 -0.75929273465E+01 -0.20323340991E+02  0.22519240863E+02  0.51100000000E-03 0.  1.
         12    1    4    4    0    0 -0.15307682775E+02  0.39583263810E+01 -0.62970224807E+01  0.17018989153E+02  0.00000000000E+00 0. -1.
</event>
<event>
 8    1  0.1210161E-006  0.9118800E+02  0.7816164E-02  0.1184000E+00
        -11   -1    0    0    0    0  0.00000000000E+00  0.00000000000E+00  0.45593999997E+02  0.45594000000E+02  0.51100000000E-03 0.  1.
         11   -1    0    0    0    0 -0.00000000000E+00 -0.00000000000E+00 -0.45593999997E+02  0.45594000000E+02  0.51100000000E-03 0. -1.
         23    2    1    2    0    0  0.00000000000E+00 -0.13322676296E-14 -0.71054273576E-14  0.91188000000E+02  0.91188000000E+02 0.  0.
    9900012    2    3    3    0    0  0.95223073800E+01 -0.29867151206E+01 -0.35442692189E+02  0.54367092425E+02  0.40000018802E+02 0.  0.
        -12    1    3    3    0    0 -0.95223073800E+01  0.29867151206E+01  0.35442692189E+02  0.36820907575E+02  0.00000000000E+00 0.  1.
         11    1    4    4    0    0 -0.52871159082E+01 -0.72483397027E+01 -0.25915022190E+02  0.27424084277E+02  0.51100000000E-03 0. -1.
        -11    1    4    4    0    0  0.10992390225E+02  0.11416833543E+02 -0.21763395766E+01  0.15997286808E+02  0.51100000000E-03 0.  1.
        -12    1    4    4    0    0  0.38170330628E+01 -0.71552089607E+01 -0.73513304224E+01  0.10945721340E+02  0.00000000000E+00 0.  1.
</event>
<event>
 8    1  0.1210161E-006  0.9118800E+02  0.7816164E-02  0.1184000E+00
        -11   -1    0    0    0    0  0.00000000000E+00  0.00000000000E+00  0.45593999997E+02  0.45594000000E+02  0.51100000000E-03 0. -1.
         11   -1    0    0    0    0 -0.00000000000E+00 -0.00000000000E+00 -0.45593999997E+02  0.45594000000E+02  0.51100000000E-03 0.  1.
         23    2    1    2    0    0 -0.71054273576E-14 -0.88817841970E-15 -0.22204460493E-15  0.91188000000E+02  0.91188000000E+02 0.  0.
    9900012    2    3    3    0    0  0.36432494362E+02  0.51374568118E+01 -0.14353300053E+01  0.54367078228E+02  0.39999986436E+02 0.  0.
         12    1    3    3    0    0 -0.36432494362E+02 -0.51374568118E+01  0.14353300053E+01  0.36820921772E+02  0.00000000000E+00 0. -1.
         11    1    4    4    0    0  0.27966358986E+02 -0.14798677442E+02 -0.31894117357E+01  0.31800793016E+02  0.51100000000E-03 0. -1.
        -11    1    4    4    0    0  0.39343267548E+01  0.86618873167E+01  0.37998304448E+01  0.10244312108E+02  0.51100000000E-03 0.  1.
         12    1    4    4    0    0  0.45318086206E+01  0.11274246937E+02 -0.20457487144E+01  0.12321973104E+02  0.00000000000E+00 0. -1.
</event>
<event>
 8    1  0.1210161E-006  0.9118800E+02  0.7816164E-02  0.1184000E+00
        -11   -1    0    0    0    0  0.00000000000E+00  0.00000000000E+00  0.45593999997E+02  0.45594000000E+02  0.51100000000E-03 0. -1.
         11   -1    0    0    0    0 -0.00000000000E+00 -0.00000000000E+00 -0.45593999997E+02  0.45594000000E+02  0.51100000000E-03 0.  1.
         23    2    1    2    0    0  0.17763568394E-14  0.00000000000E+00  0.00000000000E+00  0.91188000000E+02  0.91188000000E+02 0.  0.
    9900012    2    3    3    0    0  0.15331102042E+02 -0.17932428067E+02 -0.28269487403E+02  0.54367101258E+02  0.40000038937E+02 0.  0.
         12    1    3    3    0    0 -0.15331102042E+02  0.17932428067E+02  0.28269487403E+02  0.36820898742E+02  0.00000000000E+00 0. -1.
         11    1    4    4    0    0  0.66461269602E+01 -0.10111893917E+02 -0.32245884040E+02  0.34441522033E+02  0.51100000000E-03 0. -1.
        -11    1    4    4    0    0 -0.14548017324E+01 -0.89988250727E+01  0.45409476422E+00  0.91269657107E+01  0.51100000000E-03 0.  1.
         12    1    4    4    0    0  0.10139776814E+02  0.11782909227E+01  0.35223018735E+01  0.10798613514E+02  0.00000000000E+00 0. -1.
</event>
<event>
 8    1  0.1210161E-006  0.9118800E+02  0.7816164E-02  0.1184000E+00
        -11   -1    0    0    0    0  0.00000000000E+00  0.00000000000E+00  0.45593999997E+02  0.45594000000E+02  0.51100000000E-03 0.  1.
         11   -1    0    0    0    0 -0.00000000000E+00 -0.00000000000E+00 -0.45593999997E+02  0.45594000000E+02  0.51100000000E-03 0. -1.
         23    2    1    2    0    0 -0.71054273576E-14  0.17763568394E-14 -0.17763568394E-14  0.91188000000E+02  0.91188000000E+02 0.  0.
    9900012    2    3    3    0    0  0.31647563093E+02 -0.10152210382E+02  0.15847546893E+02  0.54367077036E+02  0.39999983720E+02 0.  0.
         12    1    3    3    0    0 -0.31647563093E+02  0.10152210382E+02 -0.15847546893E+02  0.36820922964E+02  0.00000000000E+00 0. -1.
         11    1    4    4    0    0  0.26685947625E+01 -0.40276549565E+01 -0.65384008460E+01  0.81298270793E+01  0.51100000000E-03 0. -1.
        -11    1    4    4    0    0  0.21919009157E+02 -0.16250267834E+02  0.10920440928E+02  0.29389967632E+02  0.51100000000E-03 0.  1.
         12    1    4    4    0    0  0.70599591739E+01  0.10125712408E+02  0.11465506811E+02  0.16847282325E+02  0.00000000000E+00 0. -1.
</event>
<event>
 8    1  0.1210161E-006  0.9118800E+02  0.7816164E-02  0.1184000E+00
        -11   -1    0    0    0    0  0.00000000000E+00  0.00000000000E+00  0.45593999997E+02  0.45594000000E+02  0.51100000000E-03 0.  1.
         11   -1    0    0    0    0 -0.00000000000E+00 -0.00000000000E+00 -0.45593999997E+02  0.45594000000E+02  0.51100000000E-03 0. -1.
         23    2    1    2    0    0 -0.17763568394E-14 -0.71054273576E-14 -0.17763568394E-14  0.91188000000E+02  0.91188000000E+02 0.  0.
    9900012    2    3    3    0    0  0.13604051115E+02 -0.32681732554E+02 -0.10129826743E+02  0.54367092362E+02  0.40000018658E+02 0.  0.
        -12    1    3    3    0    0 -0.13604051115E+02  0.32681732554E+02  0.10129826743E+02  0.36820907638E+02  0.00000000000E+00 0.  1.
         11    1    4    4    0    0  0.10480523694E+02 -0.87426334350E+01 -0.18106259842E+02  0.22674030564E+02  0.51100000000E-03 0. -1.
        -11    1    4    4    0    0 -0.71694832306E+01 -0.16251495674E+02  0.56298635617E+01  0.18633517258E+02  0.51100000000E-03 0.  1.
        -12    1    4    4    0    0  0.10293010652E+02 -0.76876034450E+01  0.23465695373E+01  0.13059544540E+02  0.00000000000E+00 0.  1.
</event>
<event>
 8    1  0.1210161E-006  0.9118800E+02  0.7816164E-02  0.1184000E+00
        -11   -1    0    0    0    0  0.00000000000E+00  0.00000000000E+00  0.45593999997E+02  0.45594000000E+02  0.51100000000E-03 0. -1.
         11   -1    0    0    0    0 -0.00000000000E+00 -0.00000000000E+00 -0.45593999997E+02  0.45594000000E+02  0.51100000000E-03 0.  1.
         23    2    1    2    0    0  0.00000000000E+00 -0.71054273576E-14 -0.35527136788E-14  0.91188000000E+02  0.91188000000E+02 0.  0.
    9900012    2    3    3    0    0  0.85858375160E+01 -0.30447135151E+02 -0.18842394472E+02  0.54367075593E+02  0.39999980428E+02 0.  0.
         12    1    3    3    0    0 -0.85858375160E+01  0.30447135151E+02  0.18842394472E+02  0.36820924407E+02  0.00000000000E+00 0. -1.
         11    1    4    4    0    0 -0.70550794300E+01  0.24987802126E+01  0.25768243374E+00  0.74889551216E+01  0.51100000000E-03 0. -1.
        -11    1    4    4    0    0  0.11500950141E+02 -0.21373744388E+02 -0.12675407146E+00  0.24271894655E+02  0.51100000000E-03 0.  1.
        -12    1    4    4    0    0  0.41399668055E+01 -0.11572170976E+02 -0.18973322835E+02  0.22606225816E+02  0.00000000000E+00 0.  1.
</event>
<event>
 8    1  0.1210161E-006  0.9118800E+02  0.7816164E-02  0.1184000E+00
        -11   -1    0    0    0    0  0.00000000000E+00  0.00000000000E+00  0.45593999997E+02  0.45594000000E+02  0.51100000000E-03 0.  1.
         11   -1    0    0    0    0 -0.00000000000E+00 -0.00000000000E+00 -0.45593999997E+02  0.45594000000E+02  0.51100000000E-03 0. -1.
         23    2    1    2    0    0  0.00000000000E+00 -0.35527136788E-14  0.00000000000E+00  0.91188000000E+02  0.91188000000E+02 0.  0.
    9900012    2    3    3    0    0 -0.22041681519E+02 -0.19294248760E+02  0.22308500271E+02  0.54367177851E+02  0.40000213546E+02 0.  0.
         12    1    3    3    0    0  0.22041681519E+02  0.19294248760E+02 -0.22308500271E+02  0.36820822149E+02  0.00000000000E+00 0. -1.
         11    1    4    4    0    0 -0.16335578277E+01 -0.12206978828E+02 -0.70385306475E+01  0.14185195001E+02  0.51100000000E-03 0. -1.
        -11    1    4    4    0    0 -0.20662247826E+02 -0.35411818269E+01  0.29968457426E+02  0.36572898364E+02  0.51100000000E-03 0.  1.
        -12    1    4    4    0    0  0.25412413533E+00 -0.35460881048E+01 -0.62142650740E+00  0.36090844860E+01  0.00000000000E+00 0.  1.
</event>
<event>
 8    1  0.1210161E-006  0.9118800E+02  0.7816164E-02  0.1184000E+00
        -11   -1    0    0    0    0  0.00000000000E+00  0.00000000000E+00  0.45593999997E+02  0.45594000000E+02  0.51100000000E-03 0.  1.
         11   -1    0    0    0    0 -0.00000000000E+00 -0.00000000000E+00 -0.45593999997E+02  0.45594000000E+02  0.51100000000E-03 0. -1.
         23    2    1    2    0    0 -0.88817841970E-15  0.00000000000E+00 -0.71054273576E-14  0.91188000000E+02  0.91188000000E+02 0.  0.
    9900012    2    3    3    0    0 -0.73442276647E+01 -0.11855574153E+02 -0.34077682610E+02  0.54367071568E+02  0.39999971254E+02 0.  0.
        -12    1    3    3    0    0  0.73442276647E+01  0.11855574153E+02  0.34077682610E+02  0.36820928432E+02  0.00000000000E+00 0.  1.
         11    1    4    4    0    0 -0.62391107545E+01 -0.16897656319E+02 -0.86208249965E+01  0.19969374451E+02  0.51100000000E-03 0. -1.
        -11    1    4    4    0    0  0.93280714476E+00 -0.16987058095E+01  0.38212542931E+01  0.42845904390E+01  0.51100000000E-03 0.  1.
        -12    1    4    4    0    0 -0.20379240550E+01  0.67407879755E+01 -0.29278111907E+02  0.30113106678E+02  0.00000000000E+00 0.  1.
</event>
<event>
 8    1  0.1210161E-006  0.9118800E+02  0.7816164E-02  0.1184000E+00
        -11   -1    0    0    0    0  0.00000000000E+00  0.00000000000E+00  0.45593999997E+02  0.45594000000E+02  0.51100000000E-03 0. -1.
         11   -1    0    0    0    0 -0.00000000000E+00 -0.00000000000E+00 -0.45593999997E+02  0.45594000000E+02  0.51100000000E-03 0.  1.
         23    2    1    2    0    0  0.00000000000E+00  0.17763568394E-14  0.00000000000E+00  0.91188000000E+02  0.91188000000E+02 0.  0.
    9900012    2    3    3    0    0  0.10177236218E+02  0.88190941307E+01 -0.34270010020E+02  0.54366998586E+02  0.39999804877E+02 0.  0.
         12    1    3    3    0    0 -0.10177236218E+02 -0.88190941307E+01  0.34270010020E+02  0.36821001414E+02  0.00000000000E+00 0. -1.
         11    1    4    4    0    0  0.47054929378E+01  0.12590452227E+02 -0.22404606241E+01  0.13626474787E+02  0.51100000000E-03 0.  1.
        -11    1    4    4    0    0  0.10416031413E+02  0.18859642420E+01 -0.33645990378E+01  0.11107254317E+02  0.51100000000E-03 0. -1.
         12    1    4    4    0    0 -0.49442881321E+01 -0.56573223380E+01 -0.28664950358E+02  0.29633269482E+02  0.00000000000E+00 0. -1.
</event>
<event>
 8    1  0.1210161E-006  0.9118800E+02  0.7816164E-02  0.1184000E+00
        -11   -1    0    0    0    0  0.00000000000E+00  0.00000000000E+00  0.45593999997E+02  0.45594000000E+02  0.51100000000E-03 0. -1.
         11   -1    0    0    0    0 -0.00000000000E+00 -0.00000000000E+00 -0.45593999997E+02  0.45594000000E+02  0.51100000000E-03 0.  1.
         23    2    1    2    0    0  0.00000000000E+00  0.00000000000E+00  0.35527136788E-14  0.91188000000E+02  0.91188000000E+02 0.  0.
    9900012    2    3    3    0    0  0.21702120242E+02  0.82537900466E+01  0.28577489974E+02  0.54367081946E+02  0.39999994912E+02 0.  0.
        -12    1    3    3    0    0 -0.21702120242E+02 -0.82537900466E+01 -0.28577489974E+02  0.36820918054E+02  0.00000000000E+00 0.  1.
         11    1    4    4    0    0 -0.19393449584E+01  0.69198318729E+01  0.22203625685E+01  0.75216449141E+01  0.51100000000E-03 0. -1.
        -11    1    4    4    0    0  0.10904898500E+02  0.14958489223E+02  0.65416788297E+01  0.19633307753E+02  0.51100000000E-03 0.  1.
         12    1    4    4    0    0  0.12736566700E+02 -0.13624531050E+02  0.19815448576E+02  0.27212129279E+02  0.00000000000E+00 0. -1.
</event>
<event>
 8    1  0.1210161E-006  0.9118800E+02  0.7816164E-02  0.1184000E+00
        -11   -1    0    0    0    0  0.00000000000E+00  0.00000000000E+00  0.45593999997E+02  0.45594000000E+02  0.51100000000E-03 0.  1.
         11   -1    0    0    0    0 -0.00000000000E+00 -0.00000000000E+00 -0.45593999997E+02  0.45594000000E+02  0.51100000000E-03 0. -1.
         23    2    1    2    0    0 -0.44408920985E-15  0.17763568394E-14  0.00000000000E+00  0.91188000000E+02  0.91188000000E+02 0.  0.
    9900012    2    3    3    0    0  0.18913755590E+01  0.14141398036E+02 -0.33944433861E+02  0.54367068045E+02  0.39999963222E+02 0.  0.
        -12    1    3    3    0    0 -0.18913755590E+01 -0.14141398036E+02  0.33944433861E+02  0.36820931955E+02  0.00000000000E+00 0.  1.
         11    1    4    4    0    0  0.62845764707E+01  0.10469342241E+02 -0.81673638939E+01  0.14690434358E+02  0.51100000000E-03 0. -1.
        -11    1    4    4    0    0 -0.11743982576E+02 -0.73952826429E-01  0.87505575634E+00  0.11776770296E+02  0.51100000000E-03 0.  1.
         12    1    4    4    0    0  0.73507816643E+01  0.37460086207E+01 -0.26652125723E+02  0.27899863391E+02  0.00000000000E+00 0. -1.
</event>
<event>
 8    1  0.1210161E-006  0.9118800E+02  0.7816164E-02  0.1184000E+00
        -11   -1    0    0    0    0  0.00000000000E+00  0.00000000000E+00  0.45593999997E+02  0.45594000000E+02  0.51100000000E-03 0.  1.
         11   -1    0    0    0    0 -0.00000000000E+00 -0.00000000000E+00 -0.45593999997E+02  0.45594000000E+02  0.51100000000E-03 0. -1.
         23    2    1    2    0    0 -0.35527136788E-14 -0.35527136788E-14  0.00000000000E+00  0.91188000000E+02  0.91188000000E+02 0.  0.
    9900012    2    3    3    0    0  0.15119445396E+02  0.30977907073E+02  0.12944186879E+02  0.54367077556E+02  0.39999984904E+02 0.  0.
         12    1    3    3    0    0 -0.15119445396E+02 -0.30977907073E+02 -0.12944186879E+02  0.36820922444E+02  0.00000000000E+00 0. -1.
         11    1    4    4    0    0  0.42291253226E+01  0.20024378695E+02 -0.10174227889E+02  0.22855549797E+02  0.51100000000E-03 0. -1.
        -11    1    4    4    0    0  0.13111849201E+02  0.71369103078E+01  0.10799878921E+02  0.18425348387E+02  0.51100000000E-03 0.  1.
         12    1    4    4    0    0 -0.22215291279E+01  0.38166180703E+01  0.12318535847E+02  0.13086179372E+02  0.00000000000E+00 0. -1.
</event>
<event>
 8    1  0.1210161E-006  0.9118800E+02  0.7816164E-02  0.1184000E+00
        -11   -1    0    0    0    0  0.00000000000E+00  0.00000000000E+00  0.45593999997E+02  0.45594000000E+02  0.51100000000E-03 0.  1.
         11   -1    0    0    0    0 -0.00000000000E+00 -0.00000000000E+00 -0.45593999997E+02  0.45594000000E+02  0.51100000000E-03 0. -1.
         23    2    1    2    0    0  0.88817841970E-15 -0.35527136788E-14  0.00000000000E+00  0.91188000000E+02  0.91188000000E+02 0.  0.
    9900012    2    3    3    0    0  0.72983674662E+01  0.81850321537E+01 -0.35150043269E+02  0.54366994299E+02  0.39999795103E+02 0.  0.
        -12    1    3    3    0    0 -0.72983674662E+01 -0.81850321537E+01  0.35150043269E+02  0.36821005701E+02  0.00000000000E+00 0.  1.
         11    1    4    4    0    0  0.15625704121E+01  0.19759606308E+02 -0.16919420960E+02  0.26060515605E+02  0.51100000000E-03 0. -1.
        -11    1    4    4    0    0 -0.39215623428E+01 -0.10449589308E+02 -0.59663078723E+01  0.12655804905E+02  0.51100000000E-03 0.  1.
        -12    1    4    4    0    0  0.96573593970E+01 -0.11249848459E+01 -0.12264314437E+02  0.15650673788E+02  0.00000000000E+00 0.  1.
</event>
<event>
 8    1  0.1210161E-006  0.9118800E+02  0.7816164E-02  0.1184000E+00
        -11   -1    0    0    0    0  0.00000000000E+00  0.00000000000E+00  0.45593999997E+02  0.45594000000E+02  0.51100000000E-03 0.  1.
         11   -1    0    0    0    0 -0.00000000000E+00 -0.00000000000E+00 -0.45593999997E+02  0.45594000000E+02  0.51100000000E-03 0. -1.
         23    2    1    2    0    0  0.00000000000E+00  0.00000000000E+00  0.00000000000E+00  0.91188000000E+02  0.91188000000E+02 0.  0.
    9900012    2    3    3    0    0 -0.34117596393E+02 -0.12603651882E+02  0.57372884178E+01  0.54367096931E+02  0.40000029075E+02 0.  0.
        -12    1    3    3    0    0  0.34117596393E+02  0.12603651882E+02 -0.57372884178E+01  0.36820903069E+02  0.00000000000E+00 0.  1.
         11    1    4    4    0    0 -0.29628817236E+02 -0.29971360013E+01  0.49568740323E+01  0.30189737253E+02  0.51100000000E-03 0. -1.
        -11    1    4    4    0    0 -0.43164219342E+01 -0.15517021821E+01 -0.98342887610E+01  0.10851383030E+02  0.51100000000E-03 0.  1.
        -12    1    4    4    0    0 -0.17235722322E+00 -0.80548136981E+01  0.10614703147E+02  0.13325976648E+02  0.00000000000E+00 0.  1.
</event>
<event>
 8    1  0.1210161E-006  0.9118800E+02  0.7816164E-02  0.1184000E+00
        -11   -1    0    0    0    0  0.00000000000E+00  0.00000000000E+00  0.45593999997E+02  0.45594000000E+02  0.51100000000E-03 0.  1.
         11   -1    0    0    0    0 -0.00000000000E+00 -0.00000000000E+00 -0.45593999997E+02  0.45594000000E+02  0.51100000000E-03 0. -1.
         23    2    1    2    0    0 -0.35527136788E-14 -0.71054273576E-14  0.88817841970E-15  0.91188000000E+02  0.91188000000E+02 0.  0.
    9900012    2    3    3    0    0 -0.10370246543E+02 -0.35270299383E+02 -0.20600830444E+01  0.54367082384E+02  0.39999995912E+02 0.  0.
         12    1    3    3    0    0  0.10370246543E+02  0.35270299383E+02  0.20600830444E+01  0.36820917616E+02  0.00000000000E+00 0. -1.
         11    1    4    4    0    0  0.84842657777E+01 -0.23374029870E+02 -0.90267204773E+01  0.26453916931E+02  0.51100000000E-03 0. -1.
        -11    1    4    4    0    0  0.22012976171E+01 -0.39514086788E+01  0.12854144881E+01  0.47023007574E+01  0.51100000000E-03 0.  1.
        -12    1    4    4    0    0 -0.21055809937E+02 -0.79448608343E+01  0.56812229447E+01  0.23210864696E+02  0.00000000000E+00 0.  1.
</event>
<event>
 8    1  0.1210161E-006  0.9118800E+02  0.7816164E-02  0.1184000E+00
        -11   -1    0    0    0    0  0.00000000000E+00  0.00000000000E+00  0.45593999997E+02  0.45594000000E+02  0.51100000000E-03 0. -1.
         11   -1    0    0    0    0 -0.00000000000E+00 -0.00000000000E+00 -0.45593999997E+02  0.45594000000E+02  0.51100000000E-03 0.  1.
         23    2    1    2    0    0  0.00000000000E+00  0.00000000000E+00  0.00000000000E+00  0.91188000000E+02  0.91188000000E+02 0.  0.
    9900012    2    3    3    0    0  0.12969840104E+02 -0.28584659982E+02  0.19247882261E+02  0.54367075105E+02  0.39999979317E+02 0.  0.
        -12    1    3    3    0    0 -0.12969840104E+02  0.28584659982E+02 -0.19247882261E+02  0.36820924895E+02  0.00000000000E+00 0.  1.
         11    1    4    4    0    0 -0.79539504056E+01 -0.21953632105E+02  0.18395441734E+02  0.29725739125E+02  0.51100000000E-03 0. -1.
        -11    1    4    4    0    0  0.26980380386E+01 -0.35075356791E+00 -0.39296553044E+01  0.47796054644E+01  0.51100000000E-03 0.  1.
         12    1    4    4    0    0  0.18225752471E+02 -0.62802743088E+01  0.47820958312E+01  0.19861730516E+02  0.00000000000E+00 0. -1.
</event>
<event>
 8    1  0.1210161E-006  0.9118800E+02  0.7816164E-02  0.1184000E+00
        -11   -1    0    0    0    0  0.00000000000E+00  0.00000000000E+00  0.45593999997E+02  0.45594000000E+02  0.51100000000E-03 0.  1.
         11   -1    0    0    0    0 -0.00000000000E+00 -0.00000000000E+00 -0.45593999997E+02  0.45594000000E+02  0.51100000000E-03 0. -1.
         23    2    1    2    0    0  0.00000000000E+00  0.00000000000E+00  0.00000000000E+00  0.91188000000E+02  0.91188000000E+02 0.  0.
    9900012    2    3    3    0    0 -0.29612989490E+02 -0.21793814273E+02  0.19699741271E+01  0.54367078160E+02  0.39999986280E+02 0.  0.
        -12    1    3    3    0    0  0.29612989490E+02  0.21793814273E+02 -0.19699741271E+01  0.36820921840E+02  0.00000000000E+00 0.  1.
         11    1    4    4    0    0  0.52001406426E+01 -0.34550026229E+01 -0.40368052801E+01  0.74346689878E+01  0.51100000000E-03 0. -1.
        -11    1    4    4    0    0 -0.15948908946E+02 -0.22125536213E+02  0.43680277133E+01  0.27622214170E+02  0.51100000000E-03 0.  1.
        -12    1    4    4    0    0 -0.18864221186E+02  0.37867245629E+01  0.16387516939E+01  0.19310195002E+02  0.00000000000E+00 0.  1.
</event>
<event>
 8    1  0.1210161E-006  0.9118800E+02  0.7816164E-02  0.1184000E+00
        -11   -1    0    0    0    0  0.00000000000E+00  0.00000000000E+00  0.45593999997E+02  0.45594000000E+02  0.51100000000E-03 0.  1.
         11   -1    0    0    0    0 -0.00000000000E+00 -0.00000000000E+00 -0.45593999997E+02  0.45594000000E+02  0.51100000000E-03 0. -1.
         23    2    1    2    0    0  0.00000000000E+00  0.00000000000E+00  0.00000000000E+00  0.91188000000E+02  0.91188000000E+02 0.  0.
    9900012    2    3    3    0    0  0.18302284433E+02 -0.25290161043E+02  0.19524715872E+02  0.54367076724E+02  0.39999983007E+02 0.  0.
         12    1    3    3    0    0 -0.18302284433E+02  0.25290161043E+02 -0.19524715872E+02  0.36820923276E+02  0.00000000000E+00 0. -1.
         11    1    4    4    0    0  0.92083855080E+01 -0.12300465220E+02  0.13829724967E+02  0.20672617183E+02  0.51100000000E-03 0. -1.
        -11    1    4    4    0    0  0.19261142801E+02 -0.69049452339E+01  0.73268825644E+01  0.21733685814E+02  0.51100000000E-03 0.  1.
         12    1    4    4    0    0 -0.10167243876E+02 -0.60847505889E+01 -0.16318916585E+01  0.11960773727E+02  0.00000000000E+00 0. -1.
</event>
<event>
 8    1  0.1210161E-006  0.9118800E+02  0.7816164E-02  0.1184000E+00
        -11   -1    0    0    0    0  0.00000000000E+00  0.00000000000E+00  0.45593999997E+02  0.45594000000E+02  0.51100000000E-03 0.  1.
         11   -1    0    0    0    0 -0.00000000000E+00 -0.00000000000E+00 -0.45593999997E+02  0.45594000000E+02  0.51100000000E-03 0. -1.
         23    2    1    2    0    0  0.17763568394E-14  0.00000000000E+00  0.00000000000E+00  0.91188000000E+02  0.91188000000E+02 0.  0.
    9900012    2    3    3    0    0  0.12387782805E+02 -0.28314913643E+02  0.20014705736E+02  0.54367082804E+02  0.39999996869E+02 0.  0.
         12    1    3    3    0    0 -0.12387782805E+02  0.28314913643E+02 -0.20014705736E+02  0.36820917196E+02  0.00000000000E+00 0. -1.
         11    1    4    4    0    0  0.44619685600E+01 -0.18583961254E+01 -0.52421108723E+01  0.71303945367E+01  0.51100000000E-03 0. -1.
        -11    1    4    4    0    0  0.15363344840E+02 -0.20756674184E+02  0.70641815833E+01  0.26772645546E+02  0.51100000000E-03 0.  1.
        -12    1    4    4    0    0 -0.74375305946E+01 -0.56998433339E+01  0.18192635025E+02  0.20464042722E+02  0.00000000000E+00 0.  1.
</event>
<event>
 8    1  0.1210161E-006  0.9118800E+02  0.7816164E-02  0.1184000E+00
        -11   -1    0    0    0    0  0.00000000000E+00  0.00000000000E+00  0.45593999997E+02  0.45594000000E+02  0.51100000000E-03 0.  1.
         11   -1    0    0    0    0 -0.00000000000E+00 -0.00000000000E+00 -0.45593999997E+02  0.45594000000E+02  0.51100000000E-03 0. -1.
         23    2    1    2    0    0  0.00000000000E+00  0.00000000000E+00  0.00000000000E+00  0.91188000000E+02  0.91188000000E+02 0.  0.
    9900012    2    3    3    0    0  0.32869020689E+02 -0.78617035721E+01 -0.14615027717E+02  0.54367110015E+02  0.40000058901E+02 0.  0.
        -12    1    3    3    0    0 -0.32869020689E+02  0.78617035721E+01  0.14615027717E+02  0.36820889985E+02  0.00000000000E+00 0.  1.
         11    1    4    4    0    0  0.10480558038E+02 -0.20665772754E+02 -0.10140430642E+02  0.25293172877E+02  0.51100000000E-03 0. -1.
        -11    1    4    4    0    0  0.30594132062E+01  0.67061780595E+01 -0.48124942675E+01  0.88030071378E+01  0.51100000000E-03 0.  1.
         12    1    4    4    0    0  0.19329049445E+02  0.60978911219E+01  0.33789719289E+00  0.20270930001E+02  0.00000000000E+00 0. -1.
</event>
<event>
 8    1  0.1210161E-006  0.9118800E+02  0.7816164E-02  0.1184000E+00
        -11   -1    0    0    0    0  0.00000000000E+00  0.00000000000E+00  0.45593999997E+02  0.45594000000E+02  0.51100000000E-03 0.  1.
         11   -1    0    0    0    0 -0.00000000000E+00 -0.00000000000E+00 -0.45593999997E+02  0.45594000000E+02  0.51100000000E-03 0. -1.
         23    2    1    2    0    0  0.00000000000E+00  0.00000000000E+00  0.00000000000E+00  0.91188000000E+02  0.91188000000E+02 0.  0.
    9900012    2    3    3    0    0  0.16270870690E+02  0.18780594560E+02  0.27172162738E+02  0.54367103855E+02  0.40000044858E+02 0.  0.
         12    1    3    3    0    0 -0.16270870690E+02 -0.18780594560E+02 -0.27172162738E+02  0.36820896145E+02  0.00000000000E+00 0. -1.
         11    1    4    4    0    0 -0.97071951508E+00  0.12667689434E+02  0.11005308230E+02  0.16808612717E+02  0.51100000000E-03 0. -1.
        -11    1    4    4    0    0  0.86590880018E+01  0.10165104223E+02  0.22488970181E+02  0.26154596708E+02  0.51100000000E-03 0.  1.
         12    1    4    4    0    0  0.85825022030E+01 -0.40521990968E+01 -0.63221156730E+01  0.11403894430E+02  0.00000000000E+00 0. -1.
</event>
<event>
 8    1  0.1210161E-006  0.9118800E+02  0.7816164E-02  0.1184000E+00
        -11   -1    0    0    0    0  0.00000000000E+00  0.00000000000E+00  0.45593999997E+02  0.45594000000E+02  0.51100000000E-03 0.  1.
         11   -1    0    0    0    0 -0.00000000000E+00 -0.00000000000E+00 -0.45593999997E+02  0.45594000000E+02  0.51100000000E-03 0. -1.
         23    2    1    2    0    0  0.17763568394E-14  0.17763568394E-14  0.00000000000E+00  0.91188000000E+02  0.91188000000E+02 0.  0.
    9900012    2    3    3    0    0 -0.97763705062E+01  0.14736302471E+02 -0.32296192960E+02  0.54367080532E+02  0.39999991689E+02 0.  0.
        -12    1    3    3    0    0  0.97763705062E+01 -0.14736302471E+02  0.32296192960E+02  0.36820919468E+02  0.00000000000E+00 0.  1.
         11    1    4    4    0    0  0.87004427005E+01  0.19349846586E+02 -0.10819731015E+02  0.23815558897E+02  0.51100000000E-03 0. -1.
        -11    1    4    4    0    0 -0.95937808417E+01  0.26786181506E+00 -0.16889667451E+02  0.19426097078E+02  0.51100000000E-03 0.  1.
         12    1    4    4    0    0 -0.88830323650E+01 -0.48814059302E+01 -0.45867944936E+01  0.11125424557E+02  0.00000000000E+00 0. -1.
</event>
<event>
 8    1  0.1210161E-006  0.9118800E+02  0.7816164E-02  0.1184000E+00
        -11   -1    0    0    0    0  0.00000000000E+00  0.00000000000E+00  0.45593999997E+02  0.45594000000E+02  0.51100000000E-03 0.  1.
         11   -1    0    0    0    0 -0.00000000000E+00 -0.00000000000E+00 -0.45593999997E+02  0.45594000000E+02  0.51100000000E-03 0. -1.
         23    2    1    2    0    0  0.00000000000E+00  0.17763568394E-14  0.88817841970E-15  0.91188000000E+02  0.91188000000E+02 0.  0.
    9900012    2    3    3    0    0 -0.34513156388E+02 -0.10328602486E+02 -0.76122827844E+01  0.54367016276E+02  0.39999845204E+02 0.  0.
         12    1    3    3    0    0  0.34513156388E+02  0.10328602486E+02  0.76122827844E+01  0.36820983724E+02  0.00000000000E+00 0. -1.
         11    1    4    4    0    0  0.23172593749E+01  0.52446189320E+01 -0.15442008269E+01  0.59380363090E+01  0.51100000000E-03 0. -1.
        -11    1    4    4    0    0 -0.36141707944E+02 -0.21084472900E+02 -0.26909695648E+01  0.41928741551E+02  0.51100000000E-03 0.  1.
        -12    1    4    4    0    0 -0.68870781961E+00  0.55112514818E+01 -0.33771123927E+01  0.65002384164E+01  0.00000000000E+00 0.  1.
</event>
<event>
 8    1  0.1210161E-006  0.9118800E+02  0.7816164E-02  0.1184000E+00
        -11   -1    0    0    0    0  0.00000000000E+00  0.00000000000E+00  0.45593999997E+02  0.45594000000E+02  0.51100000000E-03 0.  1.
         11   -1    0    0    0    0 -0.00000000000E+00 -0.00000000000E+00 -0.45593999997E+02  0.45594000000E+02  0.51100000000E-03 0. -1.
         23    2    1    2    0    0  0.00000000000E+00  0.00000000000E+00  0.35527136788E-14  0.91188000000E+02  0.91188000000E+02 0.  0.
    9900012    2    3    3    0    0  0.18169210616E+02  0.42433874004E+01 -0.31743552090E+02  0.54367086780E+02  0.40000005932E+02 0.  0.
        -12    1    3    3    0    0 -0.18169210616E+02 -0.42433874004E+01  0.31743552090E+02  0.36820913220E+02  0.00000000000E+00 0.  1.
         11    1    4    4    0    0  0.23026269969E+01 -0.11287019387E+02 -0.57643552899E+01  0.12881253429E+02  0.51100000000E-03 0. -1.
        -11    1    4    4    0    0  0.21772153480E+02  0.10990061711E+02 -0.16571247216E+02  0.29485833177E+02  0.51100000000E-03 0.  1.
         12    1    4    4    0    0 -0.59055698608E+01  0.45403450767E+01 -0.94079495841E+01  0.12000000174E+02  0.00000000000E+00 0. -1.
</event>
<event>
 8    1  0.1210161E-006  0.9118800E+02  0.7816164E-02  0.1184000E+00
        -11   -1    0    0    0    0  0.00000000000E+00  0.00000000000E+00  0.45593999997E+02  0.45594000000E+02  0.51100000000E-03 0. -1.
         11   -1    0    0    0    0 -0.00000000000E+00 -0.00000000000E+00 -0.45593999997E+02  0.45594000000E+02  0.51100000000E-03 0.  1.
         23    2    1    2    0    0  0.00000000000E+00 -0.13322676296E-14 -0.17763568394E-14  0.91188000000E+02  0.91188000000E+02 0.  0.
    9900012    2    3    3    0    0 -0.35830261227E+02 -0.26865275781E+01  0.80471149462E+01  0.54367066973E+02  0.39999960778E+02 0.  0.
         12    1    3    3    0    0  0.35830261227E+02  0.26865275781E+01 -0.80471149462E+01  0.36820933027E+02  0.00000000000E+00 0. -1.
         11    1    4    4    0    0 -0.36180713472E+02 -0.12679858212E+02 -0.87966834348E+00  0.38348359134E+02  0.51100000000E-03 0.  1.
        -11    1    4    4    0    0 -0.38463930513E+01  0.67643115624E+01  0.67218439045E+01  0.10282695958E+02  0.51100000000E-03 0. -1.
         12    1    4    4    0    0  0.41968452965E+01  0.32290190710E+01  0.22049393852E+01  0.57360118808E+01  0.00000000000E+00 0. -1.
</event>
<event>
 8    1  0.1210161E-006  0.9118800E+02  0.7816164E-02  0.1184000E+00
        -11   -1    0    0    0    0  0.00000000000E+00  0.00000000000E+00  0.45593999997E+02  0.45594000000E+02  0.51100000000E-03 0.  1.
         11   -1    0    0    0    0 -0.00000000000E+00 -0.00000000000E+00 -0.45593999997E+02  0.45594000000E+02  0.51100000000E-03 0. -1.
         23    2    1    2    0    0  0.00000000000E+00  0.35527136788E-14  0.88817841970E-15  0.91188000000E+02  0.91188000000E+02 0.  0.
    9900012    2    3    3    0    0  0.35556536488E+02  0.91480641716E+01 -0.27975114684E+01  0.54367076118E+02  0.39999981627E+02 0.  0.
        -12    1    3    3    0    0 -0.35556536488E+02 -0.91480641716E+01  0.27975114684E+01  0.36820923882E+02  0.00000000000E+00 0.  1.
         11    1    4    4    0    0  0.49031665628E+01 -0.11579103280E+02 -0.59975497521E+01  0.13931521037E+02  0.51100000000E-03 0. -1.
        -11    1    4    4    0    0  0.34167387016E+00 -0.78730072458E-01 -0.31126018223E+01  0.31322882727E+01  0.51100000000E-03 0.  1.
         12    1    4    4    0    0  0.30311696055E+02  0.20805897524E+02  0.63126401060E+01  0.37303266809E+02  0.00000000000E+00 0. -1.
</event>
<event>
 8    1  0.1210161E-006  0.9118800E+02  0.7816164E-02  0.1184000E+00
        -11   -1    0    0    0    0  0.00000000000E+00  0.00000000000E+00  0.45593999997E+02  0.45594000000E+02  0.51100000000E-03 0.  1.
         11   -1    0    0    0    0 -0.00000000000E+00 -0.00000000000E+00 -0.45593999997E+02  0.45594000000E+02  0.51100000000E-03 0. -1.
         23    2    1    2    0    0  0.00000000000E+00  0.00000000000E+00  0.35527136788E-14  0.91188000000E+02  0.91188000000E+02 0.  0.
    9900012    2    3    3    0    0  0.24738858424E+02  0.99092257516E+01  0.25408307620E+02  0.54367001002E+02  0.39999810383E+02 0.  0.
         12    1    3    3    0    0 -0.24738858424E+02 -0.99092257516E+01 -0.25408307620E+02  0.36820998998E+02  0.00000000000E+00 0. -1.
         11    1    4    4    0    0 -0.59475678743E+01 -0.26528742329E+01  0.27391265754E+01  0.70649925670E+01  0.51100000000E-03 0. -1.
        -11    1    4    4    0    0  0.16237333209E+02  0.16188479093E+02  0.22896305493E+02  0.32403065450E+02  0.51100000000E-03 0.  1.
         12    1    4    4    0    0  0.14449093090E+02 -0.36263791083E+01 -0.22712444832E+00  0.14898942985E+02  0.00000000000E+00 0. -1.
</event>
<event>
 8    1  0.1210161E-006  0.9118800E+02  0.7816164E-02  0.1184000E+00
        -11   -1    0    0    0    0  0.00000000000E+00  0.00000000000E+00  0.45593999997E+02  0.45594000000E+02  0.51100000000E-03 0. -1.
         11   -1    0    0    0    0 -0.00000000000E+00 -0.00000000000E+00 -0.45593999997E+02  0.45594000000E+02  0.51100000000E-03 0.  1.
         23    2    1    2    0    0  0.00000000000E+00 -0.17763568394E-14  0.00000000000E+00  0.91188000000E+02  0.91188000000E+02 0.  0.
    9900012    2    3    3    0    0  0.69687040291E+01  0.91250648916E+01  0.34985003239E+02  0.54367080718E+02  0.39999992113E+02 0.  0.
        -12    1    3    3    0    0 -0.69687040291E+01 -0.91250648916E+01 -0.34985003239E+02  0.36820919282E+02  0.00000000000E+00 0.  1.
         11    1    4    4    0    0  0.10589155946E+02  0.70064522103E+01  0.46289286928E+01  0.13514717065E+02  0.51100000000E-03 0. -1.
        -11    1    4    4    0    0 -0.51218354931E+00  0.87927651535E+01  0.32099819926E+02  0.33286235752E+02  0.51100000000E-03 0.  1.
        -12    1    4    4    0    0 -0.31082683679E+01 -0.66741524722E+01 -0.17437453793E+01  0.75661279012E+01  0.00000000000E+00 0.  1.
</event>
<event>
 8    1  0.1210161E-006  0.9118800E+02  0.7816164E-02  0.1184000E+00
        -11   -1    0    0    0    0  0.00000000000E+00  0.00000000000E+00  0.45593999997E+02  0.45594000000E+02  0.51100000000E-03 0. -1.
         11   -1    0    0    0    0 -0.00000000000E+00 -0.00000000000E+00 -0.45593999997E+02  0.45594000000E+02  0.51100000000E-03 0.  1.
         23    2    1    2    0    0  0.17763568394E-14 -0.35527136788E-14  0.35527136788E-14  0.91188000000E+02  0.91188000000E+02 0.  0.
    9900012    2    3    3    0    0 -0.12287850650E+02  0.28636250389E+02 -0.19615223351E+02  0.54367039976E+02  0.39999899233E+02 0.  0.
        -12    1    3    3    0    0  0.12287850650E+02 -0.28636250389E+02  0.19615223351E+02  0.36820960024E+02  0.00000000000E+00 0.  1.
         11    1    4    4    0    0 -0.12688322569E+02  0.13077163944E+02  0.25700355953E+01  0.18401381189E+02  0.51100000000E-03 0. -1.
        -11    1    4    4    0    0 -0.10587861970E+02  0.11174246012E+02 -0.17323465153E+02  0.23174750057E+02  0.51100000000E-03 0.  1.
         12    1    4    4    0    0  0.10988333888E+02  0.43848404334E+01 -0.48617937936E+01  0.12790908731E+02  0.00000000000E+00 0. -1.
</event>
<event>
 8    1  0.1210161E-006  0.9118800E+02  0.7816164E-02  0.1184000E+00
        -11   -1    0    0    0    0  0.00000000000E+00  0.00000000000E+00  0.45593999997E+02  0.45594000000E+02  0.51100000000E-03 0. -1.
         11   -1    0    0    0    0 -0.00000000000E+00 -0.00000000000E+00 -0.45593999997E+02  0.45594000000E+02  0.51100000000E-03 0.  1.
         23    2    1    2    0    0  0.00000000000E+00  0.35527136788E-14 -0.35527136788E-14  0.91188000000E+02  0.91188000000E+02 0.  0.
    9900012    2    3    3    0    0  0.56881634228E+01 -0.27458349119E+02  0.23863495402E+02  0.54367047374E+02  0.39999916098E+02 0.  0.
        -12    1    3    3    0    0 -0.56881634228E+01  0.27458349119E+02 -0.23863495402E+02  0.36820952626E+02  0.00000000000E+00 0.  1.
         11    1    4    4    0    0 -0.79373681385E+01  0.20108807095E+01 -0.14880344414E+01  0.83222413420E+01  0.51100000000E-03 0. -1.
        -11    1    4    4    0    0  0.11109773268E+02 -0.26932462306E+01  0.59850079597E+01  0.12903525017E+02  0.51100000000E-03 0.  1.
         12    1    4    4    0    0  0.25157582932E+01 -0.26775983598E+02  0.19366521884E+02  0.33141281015E+02  0.00000000000E+00 0. -1.
</event>
<event>
 8    1  0.1210161E-006  0.9118800E+02  0.7816164E-02  0.1184000E+00
        -11   -1    0    0    0    0  0.00000000000E+00  0.00000000000E+00  0.45593999997E+02  0.45594000000E+02  0.51100000000E-03 0.  1.
         11   -1    0    0    0    0 -0.00000000000E+00 -0.00000000000E+00 -0.45593999997E+02  0.45594000000E+02  0.51100000000E-03 0. -1.
         23    2    1    2    0    0 -0.17763568394E-14  0.88817841970E-15  0.00000000000E+00  0.91188000000E+02  0.91188000000E+02 0.  0.
    9900012    2    3    3    0    0 -0.40894746552E+01  0.16092030892E+01  0.36557711501E+02  0.54367087358E+02  0.40000007251E+02 0.  0.
         12    1    3    3    0    0  0.40894746552E+01 -0.16092030892E+01 -0.36557711501E+02  0.36820912642E+02  0.00000000000E+00 0. -1.
         11    1    4    4    0    0 -0.79300201507E+01 -0.46478148299E+01 -0.20657975661E+00  0.91940240233E+01  0.51100000000E-03 0. -1.
        -11    1    4    4    0    0 -0.99957951785E+01 -0.19127669070E+01  0.14602021266E+02  0.17798697250E+02  0.51100000000E-03 0.  1.
        -12    1    4    4    0    0  0.13836340674E+02  0.81697848261E+01  0.22162269992E+02  0.27374366085E+02  0.00000000000E+00 0.  1.
</event>
<event>
 8    1  0.1210161E-006  0.9118800E+02  0.7816164E-02  0.1184000E+00
        -11   -1    0    0    0    0  0.00000000000E+00  0.00000000000E+00  0.45593999997E+02  0.45594000000E+02  0.51100000000E-03 0.  1.
         11   -1    0    0    0    0 -0.00000000000E+00 -0.00000000000E+00 -0.45593999997E+02  0.45594000000E+02  0.51100000000E-03 0. -1.
         23    2    1    2    0    0  0.17763568394E-14 -0.71054273576E-14 -0.35527136788E-14  0.91188000000E+02  0.91188000000E+02 0.  0.
    9900012    2    3    3    0    0  0.46282126598E+01 -0.34902939859E+02 -0.10776984840E+02  0.54367096081E+02  0.40000027135E+02 0.  0.
        -12    1    3    3    0    0 -0.46282126598E+01  0.34902939859E+02  0.10776984840E+02  0.36820903919E+02  0.00000000000E+00 0.  1.
         11    1    4    4    0    0  0.63670542025E+01 -0.14899937354E+02 -0.18543120844E+02  0.24625085650E+02  0.51100000000E-03 0. -1.
        -11    1    4    4    0    0 -0.11160999514E+02 -0.10451166372E+02  0.39264157551E+01  0.15786434988E+02  0.51100000000E-03 0.  1.
        -12    1    4    4    0    0  0.94221579717E+01 -0.95518361324E+01  0.38397202487E+01  0.13955575443E+02  0.00000000000E+00 0.  1.
</event>
<event>
 8    1  0.1210161E-006  0.9118800E+02  0.7816164E-02  0.1184000E+00
        -11   -1    0    0    0    0  0.00000000000E+00  0.00000000000E+00  0.45593999997E+02  0.45594000000E+02  0.51100000000E-03 0.  1.
         11   -1    0    0    0    0 -0.00000000000E+00 -0.00000000000E+00 -0.45593999997E+02  0.45594000000E+02  0.51100000000E-03 0. -1.
         23    2    1    2    0    0 -0.35527136788E-14  0.17763568394E-14 -0.35527136788E-14  0.91188000000E+02  0.91188000000E+02 0.  0.
    9900012    2    3    3    0    0 -0.29944022026E+02  0.81498442661E+01  0.19817049681E+02  0.54367083733E+02  0.39999998987E+02 0.  0.
         12    1    3    3    0    0  0.29944022026E+02 -0.81498442661E+01 -0.19817049681E+02  0.36820916267E+02  0.00000000000E+00 0. -1.
         11    1    4    4    0    0 -0.17943251752E+02  0.97182120480E+01 -0.31254365570E+01  0.20643940583E+02  0.51100000000E-03 0. -1.
        -11    1    4    4    0    0 -0.14890668687E+01 -0.64953826023E+01  0.20898797739E+02  0.21935520566E+02  0.51100000000E-03 0.  1.
        -12    1    4    4    0    0 -0.10511703405E+02  0.49270148204E+01  0.20436884984E+01  0.11787622584E+02  0.00000000000E+00 0.  1.
</event>
<event>
 8    1  0.1210161E-006  0.9118800E+02  0.7816164E-02  0.1184000E+00
        -11   -1    0    0    0    0  0.00000000000E+00  0.00000000000E+00  0.45593999997E+02  0.45594000000E+02  0.51100000000E-03 0.  1.
         11   -1    0    0    0    0 -0.00000000000E+00 -0.00000000000E+00 -0.45593999997E+02  0.45594000000E+02  0.51100000000E-03 0. -1.
         23    2    1    2    0    0  0.00000000000E+00  0.00000000000E+00  0.17763568394E-14  0.91188000000E+02  0.91188000000E+02 0.  0.
    9900012    2    3    3    0    0  0.97470060353E+01  0.33428785028E+02 -0.11970504195E+02  0.54367071633E+02  0.39999971402E+02 0.  0.
        -12    1    3    3    0    0 -0.97470060353E+01 -0.33428785028E+02  0.11970504195E+02  0.36820928367E+02  0.00000000000E+00 0.  1.
         11    1    4    4    0    0  0.11230118511E+01  0.17954419927E+02 -0.90539262886E+00  0.18012275998E+02  0.51100000000E-03 0. -1.
        -11    1    4    4    0    0  0.57942572926E+01  0.24349467733E+02 -0.59474973611E+01  0.25726304079E+02  0.51100000000E-03 0.  1.
        -12    1    4    4    0    0  0.28297368916E+01 -0.88751026320E+01 -0.51176142054E+01  0.10628491556E+02  0.00000000000E+00 0.  1.
</event>
<event>
 8    1  0.1210161E-006  0.9118800E+02  0.7816164E-02  0.1184000E+00
        -11   -1    0    0    0    0  0.00000000000E+00  0.00000000000E+00  0.45593999997E+02  0.45594000000E+02  0.51100000000E-03 0. -1.
         11   -1    0    0    0    0 -0.00000000000E+00 -0.00000000000E+00 -0.45593999997E+02  0.45594000000E+02  0.51100000000E-03 0.  1.
         23    2    1    2    0    0  0.17763568394E-14 -0.71054273576E-14  0.88817841970E-15  0.91188000000E+02  0.91188000000E+02 0.  0.
    9900012    2    3    3    0    0 -0.14532219400E+02  0.33433844575E+02 -0.51741813053E+01  0.54367088605E+02  0.40000010093E+02 0.  0.
        -12    1    3    3    0    0  0.14532219400E+02 -0.33433844575E+02  0.51741813053E+01  0.36820911395E+02  0.00000000000E+00 0.  1.
         11    1    4    4    0    0 -0.44120528298E+01 -0.31179971653E+01  0.53188240502E+01  0.75814250662E+01  0.51100000000E-03 0. -1.
        -11    1    4    4    0    0 -0.94510611213E+01  0.52454244607E+01  0.49295762031E+01  0.11880141241E+02  0.51100000000E-03 0.  1.
        -12    1    4    4    0    0 -0.66910544857E+00  0.31306417280E+02 -0.15422581559E+02  0.34905522299E+02  0.00000000000E+00 0.  1.
</event>
<event>
 8    1  0.1210161E-006  0.9118800E+02  0.7816164E-02  0.1184000E+00
        -11   -1    0    0    0    0  0.00000000000E+00  0.00000000000E+00  0.45593999997E+02  0.45594000000E+02  0.51100000000E-03 0.  1.
         11   -1    0    0    0    0 -0.00000000000E+00 -0.00000000000E+00 -0.45593999997E+02  0.45594000000E+02  0.51100000000E-03 0. -1.
         23    2    1    2    0    0  0.35527136788E-14 -0.53290705182E-14  0.35527136788E-14  0.91188000000E+02  0.91188000000E+02 0.  0.
    9900012    2    3    3    0    0 -0.27430171643E+02  0.15753614769E+02 -0.18846479488E+02  0.54367075463E+02  0.39999980133E+02 0.  0.
         12    1    3    3    0    0  0.27430171643E+02 -0.15753614769E+02  0.18846479488E+02  0.36820924537E+02  0.00000000000E+00 0. -1.
         11    1    4    4    0    0 -0.96037900904E+01 -0.14136442034E+01  0.62674974108E+01  0.11554769495E+02  0.51100000000E-03 0. -1.
        -11    1    4    4    0    0 -0.18501562946E+01 -0.20558449044E+00  0.45431793611E+01  0.49097680460E+01  0.51100000000E-03 0.  1.
         12    1    4    4    0    0 -0.15976225258E+02  0.17372843462E+02 -0.29657156260E+02  0.37902537922E+02  0.00000000000E+00 0. -1.
</event>
<event>
 8    1  0.1210161E-006  0.9118800E+02  0.7816164E-02  0.1184000E+00
        -11   -1    0    0    0    0  0.00000000000E+00  0.00000000000E+00  0.45593999997E+02  0.45594000000E+02  0.51100000000E-03 0.  1.
         11   -1    0    0    0    0 -0.00000000000E+00 -0.00000000000E+00 -0.45593999997E+02  0.45594000000E+02  0.51100000000E-03 0. -1.
         23    2    1    2    0    0  0.00000000000E+00 -0.35527136788E-14  0.00000000000E+00  0.91188000000E+02  0.91188000000E+02 0.  0.
    9900012    2    3    3    0    0  0.21379134816E+02 -0.11090877975E+02  0.27851442647E+02  0.54367111401E+02  0.40000062060E+02 0.  0.
         12    1    3    3    0    0 -0.21379134816E+02  0.11090877975E+02 -0.27851442647E+02  0.36820888599E+02  0.00000000000E+00 0. -1.
         11    1    4    4    0    0  0.25498777523E+01 -0.33005064855E+00 -0.66824865707E+01  0.71600584503E+01  0.51100000000E-03 0. -1.
        -11    1    4    4    0    0  0.22212181048E+02 -0.16912141669E+01  0.26563953484E+02  0.34668210470E+02  0.51100000000E-03 0.  1.
        -12    1    4    4    0    0 -0.33829239837E+01 -0.90696131599E+01  0.79699757335E+01  0.12538842480E+02  0.00000000000E+00 0.  1.
</event>
<event>
 8    1  0.1210161E-006  0.9118800E+02  0.7816164E-02  0.1184000E+00
        -11   -1    0    0    0    0  0.00000000000E+00  0.00000000000E+00  0.45593999997E+02  0.45594000000E+02  0.51100000000E-03 0.  1.
         11   -1    0    0    0    0 -0.00000000000E+00 -0.00000000000E+00 -0.45593999997E+02  0.45594000000E+02  0.51100000000E-03 0. -1.
         23    2    1    2    0    0  0.17763568394E-14  0.22204460493E-15  0.00000000000E+00  0.91188000000E+02  0.91188000000E+02 0.  0.
    9900012    2    3    3    0    0 -0.10818415841E+02  0.15541518115E+01 -0.35161429724E+02  0.54367086793E+02  0.40000005962E+02 0.  0.
        -12    1    3    3    0    0  0.10818415841E+02 -0.15541518115E+01  0.35161429724E+02  0.36820913207E+02  0.00000000000E+00 0.  1.
         11    1    4    4    0    0 -0.12683419997E+02 -0.10570447729E+02 -0.14781200364E+02  0.22160491702E+02  0.51100000000E-03 0. -1.
        -11    1    4    4    0    0  0.33616922075E+01 -0.32828839193E+01  0.19068428902E+01  0.50709320045E+01  0.51100000000E-03 0.  1.
         12    1    4    4    0    0 -0.14966880507E+01  0.15407483459E+02 -0.22287072250E+02  0.27135663086E+02  0.00000000000E+00 0. -1.
</event>
<event>
 8    1  0.1210161E-006  0.9118800E+02  0.7816164E-02  0.1184000E+00
        -11   -1    0    0    0    0  0.00000000000E+00  0.00000000000E+00  0.45593999997E+02  0.45594000000E+02  0.51100000000E-03 0. -1.
         11   -1    0    0    0    0 -0.00000000000E+00 -0.00000000000E+00 -0.45593999997E+02  0.45594000000E+02  0.51100000000E-03 0.  1.
         23    2    1    2    0    0  0.71054273576E-14 -0.88817841970E-15  0.00000000000E+00  0.91188000000E+02  0.91188000000E+02 0.  0.
    9900012    2    3    3    0    0  0.35814668371E+02 -0.27596979462E+01 -0.80915688039E+01  0.54367083540E+02  0.39999998545E+02 0.  0.
         12    1    3    3    0    0 -0.35814668371E+02  0.27596979462E+01  0.80915688039E+01  0.36820916460E+02  0.00000000000E+00 0. -1.
         11    1    4    4    0    0  0.95557902494E+01  0.62393531906E+01  0.14055723486E+02  0.18105414066E+02  0.51100000000E-03 0. -1.
        -11    1    4    4    0    0  0.10223205489E+02 -0.48277263738E+01 -0.48297773981E+01  0.12294210930E+02  0.51100000000E-03 0.  1.
         12    1    4    4    0    0  0.16035672632E+02 -0.41713247630E+01 -0.17317514891E+02  0.23967458544E+02  0.00000000000E+00 0. -1.
</event>
<event>
 8    1  0.1210161E-006  0.9118800E+02  0.7816164E-02  0.1184000E+00
        -11   -1    0    0    0    0  0.00000000000E+00  0.00000000000E+00  0.45593999997E+02  0.45594000000E+02  0.51100000000E-03 0. -1.
         11   -1    0    0    0    0 -0.00000000000E+00 -0.00000000000E+00 -0.45593999997E+02  0.45594000000E+02  0.51100000000E-03 0.  1.
         23    2    1    2    0    0  0.35527136788E-14  0.00000000000E+00  0.00000000000E+00  0.91188000000E+02  0.91188000000E+02 0.  0.
    9900012    2    3    3    0    0 -0.27882836937E+02  0.81050270708E+01  0.22641461075E+02  0.54367084489E+02  0.40000000709E+02 0.  0.
        -12    1    3    3    0    0  0.27882836937E+02 -0.81050270708E+01 -0.22641461075E+02  0.36820915511E+02  0.00000000000E+00 0.  1.
         11    1    4    4    0    0  0.37408111016E+01 -0.51653760397E+00  0.84270717570E+01  0.92345014729E+01  0.51100000000E-03 0. -1.
        -11    1    4    4    0    0 -0.46295214809E+01 -0.86791143230E+01  0.75124223145E+01  0.12377236520E+02  0.51100000000E-03 0.  1.
         12    1    4    4    0    0 -0.26994126557E+02  0.17300678998E+02  0.67019670037E+01  0.32755346496E+02  0.00000000000E+00 0. -1.
</event>
<event>
 8    1  0.1210161E-006  0.9118800E+02  0.7816164E-02  0.1184000E+00
        -11   -1    0    0    0    0  0.00000000000E+00  0.00000000000E+00  0.45593999997E+02  0.45594000000E+02  0.51100000000E-03 0. -1.
         11   -1    0    0    0    0 -0.00000000000E+00 -0.00000000000E+00 -0.45593999997E+02  0.45594000000E+02  0.51100000000E-03 0.  1.
         23    2    1    2    0    0 -0.35527136788E-14 -0.17763568394E-14 -0.35527136788E-14  0.91188000000E+02  0.91188000000E+02 0.  0.
    9900012    2    3    3    0    0 -0.16108747625E+02 -0.15493282074E+02 -0.29261697014E+02  0.54367075900E+02  0.39999981128E+02 0.  0.
         12    1    3    3    0    0  0.16108747625E+02  0.15493282074E+02  0.29261697014E+02  0.36820924100E+02  0.00000000000E+00 0. -1.
         11    1    4    4    0    0  0.69251432659E+01 -0.85272245351E+01 -0.20786460542E+02  0.23510595689E+02  0.51100000000E-03 0. -1.
        -11    1    4    4    0    0  0.23136948692E+01  0.16312663554E+01 -0.14660955870E+01  0.31880480551E+01  0.51100000000E-03 0.  1.
        -12    1    4    4    0    0 -0.25347585760E+02 -0.85973238946E+01 -0.70091408850E+01  0.27668432155E+02  0.00000000000E+00 0.  1.
</event>
<event>
 8    1  0.1210161E-006  0.9118800E+02  0.7816164E-02  0.1184000E+00
        -11   -1    0    0    0    0  0.00000000000E+00  0.00000000000E+00  0.45593999997E+02  0.45594000000E+02  0.51100000000E-03 0. -1.
         11   -1    0    0    0    0 -0.00000000000E+00 -0.00000000000E+00 -0.45593999997E+02  0.45594000000E+02  0.51100000000E-03 0.  1.
         23    2    1    2    0    0  0.35527136788E-14  0.88817841970E-15  0.35527136788E-14  0.91188000000E+02  0.91188000000E+02 0.  0.
    9900012    2    3    3    0    0 -0.24323056454E+02 -0.33945920386E+01 -0.27434348879E+02  0.54367111516E+02  0.40000062322E+02 0.  0.
         12    1    3    3    0    0  0.24323056454E+02  0.33945920386E+01  0.27434348879E+02  0.36820888484E+02  0.00000000000E+00 0. -1.
         11    1    4    4    0    0 -0.73858019919E+01  0.93759545360E+01 -0.43155054759E+01  0.12691815564E+02  0.51100000000E-03 0. -1.
        -11    1    4    4    0    0 -0.14996564503E+02 -0.59192068945E+01  0.13619369874E+01  0.16179889671E+02  0.51100000000E-03 0.  1.
        -12    1    4    4    0    0 -0.19406899593E+01 -0.68513396802E+01 -0.24480780390E+02  0.25495406281E+02  0.00000000000E+00 0.  1.
</event>
<event>
 8    1  0.1210161E-006  0.9118800E+02  0.7816164E-02  0.1184000E+00
        -11   -1    0    0    0    0  0.00000000000E+00  0.00000000000E+00  0.45593999997E+02  0.45594000000E+02  0.51100000000E-03 0.  1.
         11   -1    0    0    0    0 -0.00000000000E+00 -0.00000000000E+00 -0.45593999997E+02  0.45594000000E+02  0.51100000000E-03 0. -1.
         23    2    1    2    0    0  0.00000000000E+00  0.00000000000E+00 -0.17763568394E-14  0.91188000000E+02  0.91188000000E+02 0.  0.
    9900012    2    3    3    0    0 -0.18926883396E+02 -0.29642569629E+02 -0.10902808089E+02  0.54367081033E+02  0.39999992832E+02 0.  0.
        -12    1    3    3    0    0  0.18926883396E+02  0.29642569629E+02  0.10902808089E+02  0.36820918967E+02  0.00000000000E+00 0.  1.
         11    1    4    4    0    0 -0.12800726069E+02 -0.78138515810E+00 -0.58520248653E+01  0.14096643073E+02  0.51100000000E-03 0. -1.
        -11    1    4    4    0    0 -0.14050704868E+02 -0.93917908960E+01  0.40269866458E+01  0.17373677366E+02  0.51100000000E-03 0.  1.
         12    1    4    4    0    0  0.79245475401E+01 -0.19469393575E+02 -0.90777698698E+01  0.22896760594E+02  0.00000000000E+00 0. -1.
</event>
<event>
 8    1  0.1210161E-006  0.9118800E+02  0.7816164E-02  0.1184000E+00
        -11   -1    0    0    0    0  0.00000000000E+00  0.00000000000E+00  0.45593999997E+02  0.45594000000E+02  0.51100000000E-03 0.  1.
         11   -1    0    0    0    0 -0.00000000000E+00 -0.00000000000E+00 -0.45593999997E+02  0.45594000000E+02  0.51100000000E-03 0. -1.
         23    2    1    2    0    0  0.00000000000E+00 -0.35527136788E-14 -0.17763568394E-14  0.91188000000E+02  0.91188000000E+02 0.  0.
    9900012    2    3    3    0    0  0.18221791204E+02 -0.28696818912E+02  0.14150547307E+02  0.54367094533E+02  0.40000023606E+02 0.  0.
         12    1    3    3    0    0 -0.18221791204E+02  0.28696818912E+02 -0.14150547307E+02  0.36820905467E+02  0.00000000000E+00 0. -1.
         11    1    4    4    0    0  0.14910044624E+02  0.31669978312E+01  0.40835719898E+01  0.15780204892E+02  0.51100000000E-03 0. -1.
        -11    1    4    4    0    0  0.14091299980E+01 -0.27058941135E+02 -0.19589527667E+00  0.27096315578E+02  0.51100000000E-03 0.  1.
        -12    1    4    4    0    0  0.19026165811E+01 -0.48048756083E+01  0.10262870594E+02  0.11490574063E+02  0.00000000000E+00 0.  1.
</event>
<event>
 8    1  0.1210161E-006  0.9118800E+02  0.7816164E-02  0.1184000E+00
        -11   -1    0    0    0    0  0.00000000000E+00  0.00000000000E+00  0.45593999997E+02  0.45594000000E+02  0.51100000000E-03 0. -1.
         11   -1    0    0    0    0 -0.00000000000E+00 -0.00000000000E+00 -0.45593999997E+02  0.45594000000E+02  0.51100000000E-03 0.  1.
         23    2    1    2    0    0  0.35527136788E-14  0.00000000000E+00  0.71054273576E-14  0.91188000000E+02  0.91188000000E+02 0.  0.
    9900012    2    3    3    0    0 -0.20831547252E+02  0.23609973749E+01 -0.30269651056E+02  0.54367089574E+02  0.40000012302E+02 0.  0.
         12    1    3    3    0    0  0.20831547252E+02 -0.23609973749E+01  0.30269651056E+02  0.36820910426E+02  0.00000000000E+00 0. -1.
         11    1    4    4    0    0  0.67780473696E+01  0.82541799521E+01 -0.74625536596E+01  0.13029317719E+02  0.51100000000E-03 0. -1.
        -11    1    4    4    0    0 -0.17936081209E+02 -0.11751610472E+02 -0.20757749164E+02  0.29844388223E+02  0.51100000000E-03 0.  1.
         12    1    4    4    0    0 -0.96735134123E+01  0.58584278947E+01 -0.20493482330E+01  0.11493383632E+02  0.00000000000E+00 0. -1.
</event>
<event>
 8    1  0.1210161E-006  0.9118800E+02  0.7816164E-02  0.1184000E+00
        -11   -1    0    0    0    0  0.00000000000E+00  0.00000000000E+00  0.45593999997E+02  0.45594000000E+02  0.51100000000E-03 0. -1.
         11   -1    0    0    0    0 -0.00000000000E+00 -0.00000000000E+00 -0.45593999997E+02  0.45594000000E+02  0.51100000000E-03 0.  1.
         23    2    1    2    0    0 -0.35527136788E-14  0.88817841970E-15  0.35527136788E-14  0.91188000000E+02  0.91188000000E+02 0.  0.
    9900012    2    3    3    0    0  0.22221504406E+02 -0.60207527488E+01 -0.28735648421E+02  0.54367051996E+02  0.39999926635E+02 0.  0.
         12    1    3    3    0    0 -0.22221504406E+02  0.60207527488E+01  0.28735648421E+02  0.36820948004E+02  0.00000000000E+00 0. -1.
         11    1    4    4    0    0 -0.39788938984E+01  0.16143645607E+01 -0.15193163572E+01  0.45547878155E+01  0.51100000000E-03 0. -1.
        -11    1    4    4    0    0  0.58688074200E+01 -0.89968708207E+01  0.48763966896E+01  0.11796856786E+02  0.51100000000E-03 0.  1.
        -12    1    4    4    0    0  0.20331590884E+02  0.13617535112E+01 -0.32092728754E+02  0.38015407394E+02  0.00000000000E+00 0.  1.
</event>
<event>
 8    1  0.1210161E-006  0.9118800E+02  0.7816164E-02  0.1184000E+00
        -11   -1    0    0    0    0  0.00000000000E+00  0.00000000000E+00  0.45593999997E+02  0.45594000000E+02  0.51100000000E-03 0. -1.
         11   -1    0    0    0    0 -0.00000000000E+00 -0.00000000000E+00 -0.45593999997E+02  0.45594000000E+02  0.51100000000E-03 0.  1.
         23    2    1    2    0    0  0.33306690739E-15  0.35527136788E-14  0.71054273576E-14  0.91188000000E+02  0.91188000000E+02 0.  0.
    9900012    2    3    3    0    0 -0.74962155319E+00 -0.20192071028E+02 -0.30781346962E+02  0.54367177281E+02  0.40000212247E+02 0.  0.
         12    1    3    3    0    0  0.74962155319E+00  0.20192071028E+02  0.30781346962E+02  0.36820822719E+02  0.00000000000E+00 0. -1.
         11    1    4    4    0    0  0.80222881239E+00  0.74476115374E+01 -0.27834924828E+01  0.79911400527E+01  0.51100000000E-03 0. -1.
        -11    1    4    4    0    0  0.94649961275E+00 -0.27766924711E+02 -0.31544992638E+02  0.42035515106E+02  0.51100000000E-03 0.  1.
        -12    1    4    4    0    0 -0.24983499783E+01  0.12724214559E+00  0.35471381586E+01  0.43405221223E+01  0.00000000000E+00 0.  1.
</event>
<event>
 8    1  0.1210161E-006  0.9118800E+02  0.7816164E-02  0.1184000E+00
        -11   -1    0    0    0    0  0.00000000000E+00  0.00000000000E+00  0.45593999997E+02  0.45594000000E+02  0.51100000000E-03 0.  1.
         11   -1    0    0    0    0 -0.00000000000E+00 -0.00000000000E+00 -0.45593999997E+02  0.45594000000E+02  0.51100000000E-03 0. -1.
         23    2    1    2    0    0  0.38857805862E-15 -0.35527136788E-14 -0.35527136788E-14  0.91188000000E+02  0.91188000000E+02 0.  0.
    9900012    2    3    3    0    0  0.36827033088E+00  0.30411480237E+02  0.20755295063E+02  0.54367135990E+02  0.40000118117E+02 0.  0.
         12    1    3    3    0    0 -0.36827033088E+00 -0.30411480237E+02 -0.20755295063E+02  0.36820864010E+02  0.00000000000E+00 0. -1.
         11    1    4    4    0    0 -0.12180376388E+02  0.15442357247E+02  0.63809140694E+01  0.20677137880E+02  0.51100000000E-03 0.  1.
        -11    1    4    4    0    0 -0.10112015456E+01 -0.77212629044E+00 -0.50741504665E+01  0.52312245977E+01  0.51100000000E-03 0. -1.
         12    1    4    4    0    0  0.13559848264E+02  0.15741249281E+02  0.19448531460E+02  0.28458773512E+02  0.00000000000E+00 0. -1.
</event>
<event>
 8    1  0.1210161E-006  0.9118800E+02  0.7816164E-02  0.1184000E+00
        -11   -1    0    0    0    0  0.00000000000E+00  0.00000000000E+00  0.45593999997E+02  0.45594000000E+02  0.51100000000E-03 0.  1.
         11   -1    0    0    0    0 -0.00000000000E+00 -0.00000000000E+00 -0.45593999997E+02  0.45594000000E+02  0.51100000000E-03 0. -1.
         23    2    1    2    0    0  0.35527136788E-14  0.35527136788E-14 -0.44408920985E-15  0.91188000000E+02  0.91188000000E+02 0.  0.
    9900012    2    3    3    0    0  0.25069345186E+02  0.26821189763E+02 -0.28163803582E+01  0.54367078139E+02  0.39999986234E+02 0.  0.
         12    1    3    3    0    0 -0.25069345186E+02 -0.26821189763E+02  0.28163803582E+01  0.36820921861E+02  0.00000000000E+00 0. -1.
         11    1    4    4    0    0  0.33594248035E+01  0.24416355240E+01  0.14899971261E+02  0.15467917212E+02  0.51100000000E-03 0.  1.
        -11    1    4    4    0    0  0.12289444014E+02  0.15478297964E+02 -0.42628619788E+01  0.20218311862E+02  0.51100000000E-03 0. -1.
        -12    1    4    4    0    0  0.94204763689E+01  0.89012562749E+01 -0.13453489641E+02  0.18680849065E+02  0.00000000000E+00 0.  1.
</event>
<event>
 8    1  0.1210161E-006  0.9118800E+02  0.7816164E-02  0.1184000E+00
        -11   -1    0    0    0    0  0.00000000000E+00  0.00000000000E+00  0.45593999997E+02  0.45594000000E+02  0.51100000000E-03 0. -1.
         11   -1    0    0    0    0 -0.00000000000E+00 -0.00000000000E+00 -0.45593999997E+02  0.45594000000E+02  0.51100000000E-03 0.  1.
         23    2    1    2    0    0  0.00000000000E+00 -0.17763568394E-14  0.00000000000E+00  0.91188000000E+02  0.91188000000E+02 0.  0.
    9900012    2    3    3    0    0 -0.14038147956E+02 -0.11475209485E+02 -0.32047293356E+02  0.54367095038E+02  0.40000024759E+02 0.  0.
         12    1    3    3    0    0  0.14038147956E+02  0.11475209485E+02  0.32047293356E+02  0.36820904962E+02  0.00000000000E+00 0. -1.
         11    1    4    4    0    0  0.65374442770E+01 -0.16952419547E+02 -0.10034652475E+02  0.20756130582E+02  0.51100000000E-03 0. -1.
        -11    1    4    4    0    0 -0.12902465598E+02 -0.23359829067E+01 -0.65336026279E+01  0.14649860006E+02  0.51100000000E-03 0.  1.
        -12    1    4    4    0    0 -0.76731266352E+01  0.78131929687E+01 -0.15479038253E+02  0.18961104450E+02  0.00000000000E+00 0.  1.
</event>
<event>
 8    1  0.1210161E-006  0.9118800E+02  0.7816164E-02  0.1184000E+00
        -11   -1    0    0    0    0  0.00000000000E+00  0.00000000000E+00  0.45593999997E+02  0.45594000000E+02  0.51100000000E-03 0.  1.
         11   -1    0    0    0    0 -0.00000000000E+00 -0.00000000000E+00 -0.45593999997E+02  0.45594000000E+02  0.51100000000E-03 0. -1.
         23    2    1    2    0    0 -0.35527136788E-14 -0.88817841970E-15  0.00000000000E+00  0.91188000000E+02  0.91188000000E+02 0.  0.
    9900012    2    3    3    0    0  0.26577649710E+02 -0.78319806254E+01 -0.24250183300E+02  0.54367044354E+02  0.39999909214E+02 0.  0.
        -12    1    3    3    0    0 -0.26577649710E+02  0.78319806254E+01  0.24250183300E+02  0.36820955646E+02  0.00000000000E+00 0.  1.
         11    1    4    4    0    0  0.21313655607E+00 -0.14047537617E+02 -0.13738299711E+02  0.19649926704E+02  0.51100000000E-03 0. -1.
        -11    1    4    4    0    0  0.28685602307E+01 -0.32038052051E+01 -0.82487812010E+01  0.93024403869E+01  0.51100000000E-03 0.  1.
        -12    1    4    4    0    0  0.23495952923E+02  0.94193621967E+01 -0.22631023883E+01  0.25414677263E+02  0.00000000000E+00 0.  1.
</event>
<event>
 8    1  0.1210161E-006  0.9118800E+02  0.7816164E-02  0.1184000E+00
        -11   -1    0    0    0    0  0.00000000000E+00  0.00000000000E+00  0.45593999997E+02  0.45594000000E+02  0.51100000000E-03 0. -1.
         11   -1    0    0    0    0 -0.00000000000E+00 -0.00000000000E+00 -0.45593999997E+02  0.45594000000E+02  0.51100000000E-03 0.  1.
         23    2    1    2    0    0 -0.71054273576E-14 -0.35527136788E-14 -0.17763568394E-14  0.91188000000E+02  0.91188000000E+02 0.  0.
    9900012    2    3    3    0    0 -0.31355961806E+02 -0.18107192906E+02 -0.66867335323E+01  0.54367093153E+02  0.40000020460E+02 0.  0.
        -12    1    3    3    0    0  0.31355961806E+02  0.18107192906E+02  0.66867335323E+01  0.36820906847E+02  0.00000000000E+00 0.  1.
         11    1    4    4    0    0 -0.36739304155E+02 -0.84159856609E+01  0.26913241155E+00  0.37691878660E+02  0.51100000000E-03 0. -1.
        -11    1    4    4    0    0  0.43661727675E+01 -0.63681179871E+01  0.11962112410E+01  0.78132779886E+01  0.51100000000E-03 0.  1.
         12    1    4    4    0    0  0.10171695811E+01 -0.33230892583E+01 -0.81520771849E+01  0.88619365041E+01  0.00000000000E+00 0. -1.
</event>
<event>
 8    1  0.1210161E-006  0.9118800E+02  0.7816164E-02  0.1184000E+00
        -11   -1    0    0    0    0  0.00000000000E+00  0.00000000000E+00  0.45593999997E+02  0.45594000000E+02  0.51100000000E-03 0.  1.
         11   -1    0    0    0    0 -0.00000000000E+00 -0.00000000000E+00 -0.45593999997E+02  0.45594000000E+02  0.51100000000E-03 0. -1.
         23    2    1    2    0    0 -0.17763568394E-14  0.00000000000E+00  0.00000000000E+00  0.91188000000E+02  0.91188000000E+02 0.  0.
    9900012    2    3    3    0    0  0.45607345535E+01 -0.18379793943E+02  0.31577858229E+02  0.54367105722E+02  0.40000049115E+02 0.  0.
         12    1    3    3    0    0 -0.45607345535E+01  0.18379793943E+02 -0.31577858229E+02  0.36820894278E+02  0.00000000000E+00 0. -1.
         11    1    4    4    0    0  0.13313469853E+02 -0.43229193745E+01  0.24628436861E+02  0.28328360594E+02  0.51100000000E-03 0. -1.
        -11    1    4    4    0    0  0.23591062737E+01 -0.86389496445E+01  0.98792055060E+01  0.13333999215E+02  0.51100000000E-03 0.  1.
         12    1    4    4    0    0 -0.11111841574E+02 -0.54179249244E+01 -0.29297841377E+01  0.12704745914E+02  0.00000000000E+00 0. -1.
</event>
<event>
 8    1  0.1210161E-006  0.9118800E+02  0.7816164E-02  0.1184000E+00
        -11   -1    0    0    0    0  0.00000000000E+00  0.00000000000E+00  0.45593999997E+02  0.45594000000E+02  0.51100000000E-03 0.  1.
         11   -1    0    0    0    0 -0.00000000000E+00 -0.00000000000E+00 -0.45593999997E+02  0.45594000000E+02  0.51100000000E-03 0. -1.
         23    2    1    2    0    0  0.00000000000E+00 -0.17763568394E-14  0.00000000000E+00  0.91188000000E+02  0.91188000000E+02 0.  0.
    9900012    2    3    3    0    0  0.25123742432E+02  0.14137674640E+02 -0.22906395899E+02  0.54367092202E+02  0.40000018292E+02 0.  0.
        -12    1    3    3    0    0 -0.25123742432E+02 -0.14137674640E+02  0.22906395899E+02  0.36820907798E+02  0.00000000000E+00 0.  1.
         11    1    4    4    0    0  0.24386467988E+02  0.88726174103E+01 -0.82828857116E+01  0.27240215796E+02  0.51100000000E-03 0. -1.
        -11    1    4    4    0    0  0.62929335656E+00 -0.79915581537E+01 -0.10566016639E+02  0.13262794567E+02  0.51100000000E-03 0.  1.
         12    1    4    4    0    0  0.10798108752E+00  0.13256615384E+02 -0.40574935490E+01  0.13864081839E+02  0.00000000000E+00 0. -1.
</event>
<event>
 8    1  0.1210161E-006  0.9118800E+02  0.7816164E-02  0.1184000E+00
        -11   -1    0    0    0    0  0.00000000000E+00  0.00000000000E+00  0.45593999997E+02  0.45594000000E+02  0.51100000000E-03 0.  1.
         11   -1    0    0    0    0 -0.00000000000E+00 -0.00000000000E+00 -0.45593999997E+02  0.45594000000E+02  0.51100000000E-03 0. -1.
         23    2    1    2    0    0  0.00000000000E+00  0.88817841970E-15  0.17763568394E-14  0.91188000000E+02  0.91188000000E+02 0.  0.
    9900012    2    3    3    0    0 -0.33556962358E+02  0.90656093900E+00 -0.15129113768E+02  0.54367059506E+02  0.39999943757E+02 0.  0.
        -12    1    3    3    0    0  0.33556962358E+02 -0.90656093900E+00  0.15129113768E+02  0.36820940494E+02  0.00000000000E+00 0.  1.
         11    1    4    4    0    0 -0.17949891067E+02 -0.44466038483E+01 -0.13947873326E+02  0.23162772841E+02  0.51100000000E-03 0. -1.
        -11    1    4    4    0    0 -0.16452137949E+02  0.92732705271E+01 -0.10106300625E+02  0.21419703592E+02  0.51100000000E-03 0.  1.
         12    1    4    4    0    0  0.84506665819E+00 -0.39201057398E+01  0.89250601827E+01  0.97845830740E+01  0.00000000000E+00 0. -1.
</event>
<event>
 8    1  0.1210161E-006  0.9118800E+02  0.7816164E-02  0.1184000E+00
        -11   -1    0    0    0    0  0.00000000000E+00  0.00000000000E+00  0.45593999997E+02  0.45594000000E+02  0.51100000000E-03 0. -1.
         11   -1    0    0    0    0 -0.00000000000E+00 -0.00000000000E+00 -0.45593999997E+02  0.45594000000E+02  0.51100000000E-03 0.  1.
         23    2    1    2    0    0  0.17763568394E-14  0.00000000000E+00  0.13322676296E-14  0.91188000000E+02  0.91188000000E+02 0.  0.
    9900012    2    3    3    0    0 -0.11077804250E+02  0.34920663054E+02 -0.36891178432E+01  0.54367081413E+02  0.39999993696E+02 0.  0.
        -12    1    3    3    0    0  0.11077804250E+02 -0.34920663054E+02  0.36891178432E+01  0.36820918587E+02  0.00000000000E+00 0.  1.
         11    1    4    4    0    0  0.25063679259E+01  0.21627019765E+02  0.10514502082E+01  0.21797142288E+02  0.51100000000E-03 0. -1.
        -11    1    4    4    0    0 -0.11492663992E+02  0.55797871762E+01  0.97164936104E+01  0.16050719576E+02  0.51100000000E-03 0.  1.
        -12    1    4    4    0    0 -0.20915081842E+01  0.77138561126E+01 -0.14457061662E+02  0.16519219549E+02  0.00000000000E+00 0.  1.
</event>
<event>
 8    1  0.1210161E-006  0.9118800E+02  0.7816164E-02  0.1184000E+00
        -11   -1    0    0    0    0  0.00000000000E+00  0.00000000000E+00  0.45593999997E+02  0.45594000000E+02  0.51100000000E-03 0.  1.
         11   -1    0    0    0    0 -0.00000000000E+00 -0.00000000000E+00 -0.45593999997E+02  0.45594000000E+02  0.51100000000E-03 0. -1.
         23    2    1    2    0    0  0.00000000000E+00  0.00000000000E+00 -0.35527136788E-14  0.91188000000E+02  0.91188000000E+02 0.  0.
    9900012    2    3    3    0    0  0.39566280047E+01  0.19825688295E+02  0.30774447737E+02  0.54367089432E+02  0.40000011978E+02 0.  0.
         12    1    3    3    0    0 -0.39566280047E+01 -0.19825688295E+02 -0.30774447737E+02  0.36820910568E+02  0.00000000000E+00 0. -1.
         11    1    4    4    0    0  0.16072200422E+02  0.63981088089E+00  0.24975310591E+02  0.29706752158E+02  0.51100000000E-03 0. -1.
        -11    1    4    4    0    0 -0.16255691919E+01  0.95384210722E+01  0.30549120072E+01  0.10146745261E+02  0.51100000000E-03 0.  1.
         12    1    4    4    0    0 -0.10490003225E+02  0.96474563419E+01  0.27442251385E+01  0.14513592014E+02  0.00000000000E+00 0. -1.
</event>
<event>
 8    1  0.1210161E-006  0.9118800E+02  0.7816164E-02  0.1184000E+00
        -11   -1    0    0    0    0  0.00000000000E+00  0.00000000000E+00  0.45593999997E+02  0.45594000000E+02  0.51100000000E-03 0. -1.
         11   -1    0    0    0    0 -0.00000000000E+00 -0.00000000000E+00 -0.45593999997E+02  0.45594000000E+02  0.51100000000E-03 0.  1.
         23    2    1    2    0    0  0.00000000000E+00  0.17763568394E-14  0.00000000000E+00  0.91188000000E+02  0.91188000000E+02 0.  0.
    9900012    2    3    3    0    0 -0.82229881830E+01 -0.11284329280E+02 -0.34070915550E+02  0.54367069697E+02  0.39999966988E+02 0.  0.
         12    1    3    3    0    0  0.82229881830E+01  0.11284329280E+02  0.34070915550E+02  0.36820930303E+02  0.00000000000E+00 0. -1.
         11    1    4    4    0    0  0.19610686226E+01  0.23979682701E+01 -0.23815293814E+02  0.24015916840E+02  0.51100000000E-03 0.  1.
        -11    1    4    4    0    0 -0.45387520277E+01  0.57121729627E+01  0.77378018230E+00  0.73367517306E+01  0.51100000000E-03 0. -1.
        -12    1    4    4    0    0 -0.56453047778E+01 -0.19394470513E+02 -0.11029401919E+02  0.23014401126E+02  0.00000000000E+00 0.  1.
</event>
<event>
 8    1  0.1210161E-006  0.9118800E+02  0.7816164E-02  0.1184000E+00
        -11   -1    0    0    0    0  0.00000000000E+00  0.00000000000E+00  0.45593999997E+02  0.45594000000E+02  0.51100000000E-03 0. -1.
         11   -1    0    0    0    0 -0.00000000000E+00 -0.00000000000E+00 -0.45593999997E+02  0.45594000000E+02  0.51100000000E-03 0.  1.
         23    2    1    2    0    0  0.35527136788E-14  0.00000000000E+00  0.00000000000E+00  0.91188000000E+02  0.91188000000E+02 0.  0.
    9900012    2    3    3    0    0  0.23080027787E+02  0.21503773166E+02 -0.18991578796E+02  0.54367081921E+02  0.39999994856E+02 0.  0.
         12    1    3    3    0    0 -0.23080027787E+02 -0.21503773166E+02  0.18991578796E+02  0.36820918079E+02  0.00000000000E+00 0. -1.
         11    1    4    4    0    0  0.13203092450E+02 -0.30816980217E+01 -0.12854013902E+02  0.18682724282E+02  0.51100000000E-03 0. -1.
        -11    1    4    4    0    0  0.99113297028E+01  0.21532604792E+02 -0.13805229801E+02  0.27431221185E+02  0.51100000000E-03 0.  1.
         12    1    4    4    0    0 -0.34394366080E-01  0.30528663957E+01  0.76676649069E+01  0.82531364539E+01  0.00000000000E+00 0. -1.
</event>
<event>
 8    1  0.1210161E-006  0.9118800E+02  0.7816164E-02  0.1184000E+00
        -11   -1    0    0    0    0  0.00000000000E+00  0.00000000000E+00  0.45593999997E+02  0.45594000000E+02  0.51100000000E-03 0.  1.
         11   -1    0    0    0    0 -0.00000000000E+00 -0.00000000000E+00 -0.45593999997E+02  0.45594000000E+02  0.51100000000E-03 0. -1.
         23    2    1    2    0    0 -0.35527136788E-14 -0.14210854715E-13 -0.44408920985E-15  0.91188000000E+02  0.91188000000E+02 0.  0.
    9900012    2    3    3    0    0 -0.17394243925E+02 -0.32375842836E+02 -0.22415461661E+01  0.54367089497E+02  0.40000012126E+02 0.  0.
         12    1    3    3    0    0  0.17394243925E+02  0.32375842836E+02  0.22415461661E+01  0.36820910503E+02  0.00000000000E+00 0. -1.
         11    1    4    4    0    0 -0.64516182037E+01  0.51477747998E+01 -0.61110038236E+01  0.10269728859E+02  0.51100000000E-03 0. -1.
        -11    1    4    4    0    0 -0.15735442260E+02 -0.34813666489E+02  0.48284692268E+01  0.38508565707E+02  0.51100000000E-03 0.  1.
         12    1    4    4    0    0  0.47928165385E+01 -0.27099511470E+01 -0.95901156934E+00  0.55887949310E+01  0.00000000000E+00 0. -1.
</event>
<event>
 8    1  0.1210161E-006  0.9118800E+02  0.7816164E-02  0.1184000E+00
        -11   -1    0    0    0    0  0.00000000000E+00  0.00000000000E+00  0.45593999997E+02  0.45594000000E+02  0.51100000000E-03 0.  1.
         11   -1    0    0    0    0 -0.00000000000E+00 -0.00000000000E+00 -0.45593999997E+02  0.45594000000E+02  0.51100000000E-03 0. -1.
         23    2    1    2    0    0  0.00000000000E+00  0.00000000000E+00  0.00000000000E+00  0.91188000000E+02  0.91188000000E+02 0.  0.
    9900012    2    3    3    0    0 -0.22102725714E+02  0.28556980112E+02  0.71935103278E+01  0.54367106638E+02  0.40000051204E+02 0.  0.
        -12    1    3    3    0    0  0.22102725714E+02 -0.28556980112E+02 -0.71935103278E+01  0.36820893362E+02  0.00000000000E+00 0.  1.
         11    1    4    4    0    0 -0.14771579844E+02  0.14099083702E+02  0.42440779633E+01  0.20856556052E+02  0.51100000000E-03 0. -1.
        -11    1    4    4    0    0 -0.82269332964E+01 -0.58437872715E+01  0.76372410326E+01  0.12655423027E+02  0.51100000000E-03 0.  1.
         12    1    4    4    0    0  0.89578742666E+00  0.20301683681E+02 -0.46878086681E+01  0.20855127559E+02  0.00000000000E+00 0. -1.
</event>
<event>
 8    1  0.1210161E-006  0.9118800E+02  0.7816164E-02  0.1184000E+00
        -11   -1    0    0    0    0  0.00000000000E+00  0.00000000000E+00  0.45593999997E+02  0.45594000000E+02  0.51100000000E-03 0. -1.
         11   -1    0    0    0    0 -0.00000000000E+00 -0.00000000000E+00 -0.45593999997E+02  0.45594000000E+02  0.51100000000E-03 0.  1.
         23    2    1    2    0    0  0.00000000000E+00  0.00000000000E+00  0.00000000000E+00  0.91188000000E+02  0.91188000000E+02 0.  0.
    9900012    2    3    3    0    0 -0.67899018132E+01 -0.31742381799E+02 -0.17381021203E+02  0.54367062111E+02  0.39999949695E+02 0.  0.
         12    1    3    3    0    0  0.67899018132E+01  0.31742381799E+02  0.17381021203E+02  0.36820937889E+02  0.00000000000E+00 0. -1.
         11    1    4    4    0    0 -0.85990816996E+01  0.16521197488E+01  0.80034269867E+01  0.11862906454E+02  0.51100000000E-03 0. -1.
        -11    1    4    4    0    0  0.23431769609E+01 -0.27188327536E+02 -0.17348943524E+02  0.32336998533E+02  0.51100000000E-03 0.  1.
         12    1    4    4    0    0 -0.53399707450E+00 -0.62061740119E+01 -0.80355046664E+01  0.10167157124E+02  0.00000000000E+00 0. -1.
</event>
<event>
 8    1  0.1210161E-006  0.9118800E+02  0.7816164E-02  0.1184000E+00
        -11   -1    0    0    0    0  0.00000000000E+00  0.00000000000E+00  0.45593999997E+02  0.45594000000E+02  0.51100000000E-03 0. -1.
         11   -1    0    0    0    0 -0.00000000000E+00 -0.00000000000E+00 -0.45593999997E+02  0.45594000000E+02  0.51100000000E-03 0.  1.
         23    2    1    2    0    0 -0.71054273576E-14  0.00000000000E+00  0.17763568394E-14  0.91188000000E+02  0.91188000000E+02 0.  0.
    9900012    2    3    3    0    0  0.28610509080E+02 -0.17806497716E+02 -0.14837364627E+02  0.54367082306E+02  0.39999995733E+02 0.  0.
         12    1    3    3    0    0 -0.28610509080E+02  0.17806497716E+02  0.14837364627E+02  0.36820917694E+02  0.00000000000E+00 0. -1.
         11    1    4    4    0    0  0.27722294824E+01 -0.39734954906E+01 -0.14363960437E+02  0.15159066014E+02  0.51100000000E-03 0. -1.
        -11    1    4    4    0    0  0.75156374057E+01 -0.10425766822E+02 -0.11759493123E+02  0.17420307065E+02  0.51100000000E-03 0.  1.
         12    1    4    4    0    0  0.18322642192E+02 -0.34072354026E+01  0.11286088933E+02  0.21787709228E+02  0.00000000000E+00 0. -1.
</event>
<event>
 8    1  0.1210161E-006  0.9118800E+02  0.7816164E-02  0.1184000E+00
        -11   -1    0    0    0    0  0.00000000000E+00  0.00000000000E+00  0.45593999997E+02  0.45594000000E+02  0.51100000000E-03 0.  1.
         11   -1    0    0    0    0 -0.00000000000E+00 -0.00000000000E+00 -0.45593999997E+02  0.45594000000E+02  0.51100000000E-03 0. -1.
         23    2    1    2    0    0  0.71054273576E-14  0.00000000000E+00  0.16653345369E-15  0.91188000000E+02  0.91188000000E+02 0.  0.
    9900012    2    3    3    0    0  0.33558330037E+02 -0.15152097011E+02 -0.17964612329E+00  0.54367084321E+02  0.40000000328E+02 0.  0.
         12    1    3    3    0    0 -0.33558330037E+02  0.15152097011E+02  0.17964612329E+00  0.36820915679E+02  0.00000000000E+00 0. -1.
         11    1    4    4    0    0  0.44127740379E-01 -0.12514426836E+02  0.55377059966E+01  0.13684992300E+02  0.51100000000E-03 0.  1.
        -11    1    4    4    0    0  0.16285197183E+02  0.28946037645E+01  0.76113707666E+01  0.18207672653E+02  0.51100000000E-03 0. -1.
         12    1    4    4    0    0  0.17229005113E+02 -0.55322739392E+01 -0.13328722886E+02  0.22474419368E+02  0.00000000000E+00 0. -1.
</event>
<event>
 8    1  0.1210161E-006  0.9118800E+02  0.7816164E-02  0.1184000E+00
        -11   -1    0    0    0    0  0.00000000000E+00  0.00000000000E+00  0.45593999997E+02  0.45594000000E+02  0.51100000000E-03 0. -1.
         11   -1    0    0    0    0 -0.00000000000E+00 -0.00000000000E+00 -0.45593999997E+02  0.45594000000E+02  0.51100000000E-03 0.  1.
         23    2    1    2    0    0  0.35527136788E-14  0.83266726847E-15  0.00000000000E+00  0.91188000000E+02  0.91188000000E+02 0.  0.
    9900012    2    3    3    0    0 -0.24551699300E+02 -0.88790844535E-01  0.27440581731E+02  0.54367090885E+02  0.40000015290E+02 0.  0.
        -12    1    3    3    0    0  0.24551699300E+02  0.88790844535E-01 -0.27440581731E+02  0.36820909115E+02  0.00000000000E+00 0.  1.
         11    1    4    4    0    0  0.77908058980E+00 -0.11444586617E+02 -0.10363836344E+01  0.11517795826E+02  0.51100000000E-03 0. -1.
        -11    1    4    4    0    0 -0.41052230720E+01 -0.16643499967E+01 -0.70703319622E+00  0.44858459162E+01  0.51100000000E-03 0.  1.
        -12    1    4    4    0    0 -0.21225556818E+02  0.13020145769E+02  0.29183998562E+02  0.38363449143E+02  0.00000000000E+00 0.  1.
</event>
<event>
 8    1  0.1210161E-006  0.9118800E+02  0.7816164E-02  0.1184000E+00
        -11   -1    0    0    0    0  0.00000000000E+00  0.00000000000E+00  0.45593999997E+02  0.45594000000E+02  0.51100000000E-03 0.  1.
         11   -1    0    0    0    0 -0.00000000000E+00 -0.00000000000E+00 -0.45593999997E+02  0.45594000000E+02  0.51100000000E-03 0. -1.
         23    2    1    2    0    0  0.35527136788E-14  0.00000000000E+00 -0.17763568394E-14  0.91188000000E+02  0.91188000000E+02 0.  0.
    9900012    2    3    3    0    0 -0.24142473718E+02  0.25021209316E+02  0.12118584828E+02  0.54367081338E+02  0.39999993527E+02 0.  0.
        -12    1    3    3    0    0  0.24142473718E+02 -0.25021209316E+02 -0.12118584828E+02  0.36820918662E+02  0.00000000000E+00 0.  1.
         11    1    4    4    0    0 -0.15496308536E+02  0.20972611429E+02 -0.65793870232E+01  0.26893760285E+02  0.51100000000E-03 0. -1.
        -11    1    4    4    0    0 -0.60684541704E+01 -0.20872993789E+01 -0.11674248285E+01  0.65227168961E+01  0.51100000000E-03 0.  1.
         12    1    4    4    0    0 -0.25777110112E+01  0.61358972660E+01  0.19865396680E+02  0.20950604158E+02  0.00000000000E+00 0. -1.
</event>
<event>
 8    1  0.1210161E-006  0.9118800E+02  0.7816164E-02  0.1184000E+00
        -11   -1    0    0    0    0  0.00000000000E+00  0.00000000000E+00  0.45593999997E+02  0.45594000000E+02  0.51100000000E-03 0.  1.
         11   -1    0    0    0    0 -0.00000000000E+00 -0.00000000000E+00 -0.45593999997E+02  0.45594000000E+02  0.51100000000E-03 0. -1.
         23    2    1    2    0    0 -0.71054273576E-14 -0.35527136788E-14 -0.17763568394E-14  0.91188000000E+02  0.91188000000E+02 0.  0.
    9900012    2    3    3    0    0  0.24004779831E+02  0.23777779395E+02  0.14634646204E+02  0.54367012544E+02  0.39999836697E+02 0.  0.
         12    1    3    3    0    0 -0.24004779831E+02 -0.23777779395E+02 -0.14634646204E+02  0.36820987456E+02  0.00000000000E+00 0. -1.
         11    1    4    4    0    0 -0.28805524338E+01 -0.43846001509E+01  0.10906963928E+02  0.12103064207E+02  0.51100000000E-03 0. -1.
        -11    1    4    4    0    0  0.10447139457E+02  0.25575192220E+01  0.48885665505E+01  0.11814470390E+02  0.51100000000E-03 0.  1.
        -12    1    4    4    0    0  0.16438192808E+02  0.25604860324E+02 -0.11608842745E+01  0.30449477948E+02  0.00000000000E+00 0.  1.
</event>
<event>
 8    1  0.1210161E-006  0.9118800E+02  0.7816164E-02  0.1184000E+00
        -11   -1    0    0    0    0  0.00000000000E+00  0.00000000000E+00  0.45593999997E+02  0.45594000000E+02  0.51100000000E-03 0.  1.
         11   -1    0    0    0    0 -0.00000000000E+00 -0.00000000000E+00 -0.45593999997E+02  0.45594000000E+02  0.51100000000E-03 0. -1.
         23    2    1    2    0    0  0.17763568394E-14  0.00000000000E+00 -0.71054273576E-14  0.91188000000E+02  0.91188000000E+02 0.  0.
    9900012    2    3    3    0    0  0.14424450416E+02 -0.20597379527E+02  0.26897272457E+02  0.54367080963E+02  0.39999992670E+02 0.  0.
         12    1    3    3    0    0 -0.14424450416E+02  0.20597379527E+02 -0.26897272457E+02  0.36820919037E+02  0.00000000000E+00 0. -1.
         11    1    4    4    0    0  0.62262623422E+01 -0.85811512078E+01 -0.13736027796E+01  0.10690616618E+02  0.51100000000E-03 0.  1.
        -11    1    4    4    0    0 -0.93965421427E+01 -0.52362150347E+01  0.13969160888E+01  0.10847318883E+02  0.51100000000E-03 0. -1.
        -12    1    4    4    0    0  0.17594730216E+02 -0.67800132843E+01  0.26873959147E+02  0.32829145462E+02  0.00000000000E+00 0.  1.
</event>
<event>
 8    1  0.1210161E-006  0.9118800E+02  0.7816164E-02  0.1184000E+00
        -11   -1    0    0    0    0  0.00000000000E+00  0.00000000000E+00  0.45593999997E+02  0.45594000000E+02  0.51100000000E-03 0. -1.
         11   -1    0    0    0    0 -0.00000000000E+00 -0.00000000000E+00 -0.45593999997E+02  0.45594000000E+02  0.51100000000E-03 0.  1.
         23    2    1    2    0    0 -0.44408920985E-15  0.00000000000E+00 -0.71054273576E-14  0.91188000000E+02  0.91188000000E+02 0.  0.
    9900012    2    3    3    0    0 -0.21099885078E+01  0.12481232902E+02 -0.34576659426E+02  0.54367100998E+02  0.40000038346E+02 0.  0.
         12    1    3    3    0    0  0.21099885078E+01 -0.12481232902E+02  0.34576659426E+02  0.36820899002E+02  0.00000000000E+00 0. -1.
         11    1    4    4    0    0  0.54278900204E+01 -0.18877219265E+00  0.46749330882E+01  0.71660745639E+01  0.51100000000E-03 0. -1.
        -11    1    4    4    0    0 -0.82610493930E+01  0.32075210838E+01 -0.24483039640E+01  0.91938741094E+01  0.51100000000E-03 0.  1.
        -12    1    4    4    0    0  0.72317086478E+00  0.94624840105E+01 -0.36803288550E+02  0.38007152325E+02  0.00000000000E+00 0.  1.
</event>
<event>
 8    1  0.1210161E-006  0.9118800E+02  0.7816164E-02  0.1184000E+00
        -11   -1    0    0    0    0  0.00000000000E+00  0.00000000000E+00  0.45593999997E+02  0.45594000000E+02  0.51100000000E-03 0. -1.
         11   -1    0    0    0    0 -0.00000000000E+00 -0.00000000000E+00 -0.45593999997E+02  0.45594000000E+02  0.51100000000E-03 0.  1.
         23    2    1    2    0    0 -0.35527136788E-14 -0.88817841970E-15  0.71054273576E-14  0.91188000000E+02  0.91188000000E+02 0.  0.
    9900012    2    3    3    0    0  0.29292414198E+02  0.37587179591E+01  0.21991067126E+02  0.54367074922E+02  0.39999978899E+02 0.  0.
        -12    1    3    3    0    0 -0.29292414198E+02 -0.37587179591E+01 -0.21991067126E+02  0.36820925078E+02  0.00000000000E+00 0.  1.
         11    1    4    4    0    0 -0.10120121582E+01  0.17560964592E+01  0.30723937792E+01  0.36807128627E+01  0.51100000000E-03 0. -1.
        -11    1    4    4    0    0 -0.15405235442E+01  0.12361557373E+02  0.49858767565E+00  0.12467152979E+02  0.51100000000E-03 0.  1.
        -12    1    4    4    0    0  0.31844949901E+02 -0.10358935873E+02  0.18420085671E+02  0.38219209080E+02  0.00000000000E+00 0.  1.
</event>
<event>
 8    1  0.1210161E-006  0.9118800E+02  0.7816164E-02  0.1184000E+00
        -11   -1    0    0    0    0  0.00000000000E+00  0.00000000000E+00  0.45593999997E+02  0.45594000000E+02  0.51100000000E-03 0.  1.
         11   -1    0    0    0    0 -0.00000000000E+00 -0.00000000000E+00 -0.45593999997E+02  0.45594000000E+02  0.51100000000E-03 0. -1.
         23    2    1    2    0    0  0.00000000000E+00  0.00000000000E+00  0.00000000000E+00  0.91188000000E+02  0.91188000000E+02 0.  0.
    9900012    2    3    3    0    0  0.27128176616E+02 -0.24385708997E+02 -0.50178316502E+01  0.54367090122E+02  0.40000013551E+02 0.  0.
        -12    1    3    3    0    0 -0.27128176616E+02  0.24385708997E+02  0.50178316502E+01  0.36820909878E+02  0.00000000000E+00 0.  1.
         11    1    4    4    0    0  0.65962110460E+01 -0.18304565298E+02 -0.16683351793E+02  0.25630086582E+02  0.51100000000E-03 0. -1.
        -11    1    4    4    0    0  0.21691842834E+02 -0.26017804865E+01  0.72984888093E+01  0.23034175618E+02  0.51100000000E-03 0.  1.
         12    1    4    4    0    0 -0.11598772647E+01 -0.34793632126E+01  0.43670313332E+01  0.57028279213E+01  0.00000000000E+00 0. -1.
</event>
<event>
 8    1  0.1210161E-006  0.9118800E+02  0.7816164E-02  0.1184000E+00
        -11   -1    0    0    0    0  0.00000000000E+00  0.00000000000E+00  0.45593999997E+02  0.45594000000E+02  0.51100000000E-03 0. -1.
         11   -1    0    0    0    0 -0.00000000000E+00 -0.00000000000E+00 -0.45593999997E+02  0.45594000000E+02  0.51100000000E-03 0.  1.
         23    2    1    2    0    0  0.88817841970E-15  0.00000000000E+00 -0.35527136788E-14  0.91188000000E+02  0.91188000000E+02 0.  0.
    9900012    2    3    3    0    0  0.59849956788E+01 -0.22457522035E+02 -0.28559068604E+02  0.54367070235E+02  0.39999968215E+02 0.  0.
         12    1    3    3    0    0 -0.59849956788E+01  0.22457522035E+02  0.28559068604E+02  0.36820929765E+02  0.00000000000E+00 0. -1.
         11    1    4    4    0    0  0.79322817565E+00 -0.79774847465E+01 -0.28865444856E+02  0.29958026984E+02  0.51100000000E-03 0. -1.
        -11    1    4    4    0    0 -0.65832619202E+01 -0.17906849873E+01 -0.15575154306E+01  0.69979814812E+01  0.51100000000E-03 0.  1.
         12    1    4    4    0    0  0.11775029423E+02 -0.12689352301E+02  0.18638916819E+01  0.17411061769E+02  0.00000000000E+00 0. -1.
</event>
<event>
 8    1  0.1210161E-006  0.9118800E+02  0.7816164E-02  0.1184000E+00
        -11   -1    0    0    0    0  0.00000000000E+00  0.00000000000E+00  0.45593999997E+02  0.45594000000E+02  0.51100000000E-03 0. -1.
         11   -1    0    0    0    0 -0.00000000000E+00 -0.00000000000E+00 -0.45593999997E+02  0.45594000000E+02  0.51100000000E-03 0.  1.
         23    2    1    2    0    0  0.00000000000E+00 -0.17763568394E-14 -0.35527136788E-14  0.91188000000E+02  0.91188000000E+02 0.  0.
    9900012    2    3    3    0    0 -0.22851439578E+02 -0.10016896130E+02 -0.27078690807E+02  0.54367054946E+02  0.39999933359E+02 0.  0.
         12    1    3    3    0    0  0.22851439578E+02  0.10016896130E+02  0.27078690807E+02  0.36820945054E+02  0.00000000000E+00 0. -1.
         11    1    4    4    0    0  0.12884471110E+01 -0.51576605620E+01 -0.68564319073E+01  0.86759562696E+01  0.51100000000E-03 0. -1.
        -11    1    4    4    0    0 -0.39109300319E+01 -0.56335320296E+01 -0.24119560105E+02  0.25075590457E+02  0.51100000000E-03 0.  1.
         12    1    4    4    0    0 -0.20228956657E+02  0.77429646150E+00  0.38973012050E+01  0.20615508219E+02  0.00000000000E+00 0. -1.
</event>
<event>
 8    1  0.1210161E-006  0.9118800E+02  0.7816164E-02  0.1184000E+00
        -11   -1    0    0    0    0  0.00000000000E+00  0.00000000000E+00  0.45593999997E+02  0.45594000000E+02  0.51100000000E-03 0.  1.
         11   -1    0    0    0    0 -0.00000000000E+00 -0.00000000000E+00 -0.45593999997E+02  0.45594000000E+02  0.51100000000E-03 0. -1.
         23    2    1    2    0    0  0.00000000000E+00  0.00000000000E+00  0.88817841970E-15  0.91188000000E+02  0.91188000000E+02 0.  0.
    9900012    2    3    3    0    0  0.21461265508E+02  0.29168794274E+02  0.66615255568E+01  0.54367076609E+02  0.39999982746E+02 0.  0.
         12    1    3    3    0    0 -0.21461265508E+02 -0.29168794274E+02 -0.66615255568E+01  0.36820923391E+02  0.00000000000E+00 0. -1.
         11    1    4    4    0    0  0.14508037411E+02  0.13497184898E+02  0.42559655981E+01  0.20267471305E+02  0.51100000000E-03 0. -1.
        -11    1    4    4    0    0  0.14558899346E+02  0.15656720179E+02  0.97757830968E+01  0.23508729706E+02  0.51100000000E-03 0.  1.
         12    1    4    4    0    0 -0.76056712489E+01  0.14889196602E-01 -0.73702231380E+01  0.10590875598E+02  0.00000000000E+00 0. -1.
</event>
<event>
 8    1  0.1210161E-006  0.9118800E+02  0.7816164E-02  0.1184000E+00
        -11   -1    0    0    0    0  0.00000000000E+00  0.00000000000E+00  0.45593999997E+02  0.45594000000E+02  0.51100000000E-03 0.  1.
         11   -1    0    0    0    0 -0.00000000000E+00 -0.00000000000E+00 -0.45593999997E+02  0.45594000000E+02  0.51100000000E-03 0. -1.
         23    2    1    2    0    0  0.35527136788E-14  0.00000000000E+00 -0.88817841970E-15  0.91188000000E+02  0.91188000000E+02 0.  0.
    9900012    2    3    3    0    0 -0.24189274139E+02  0.26644233199E+02 -0.77937827607E+01  0.54367092952E+02  0.40000020002E+02 0.  0.
         12    1    3    3    0    0  0.24189274139E+02 -0.26644233199E+02  0.77937827607E+01  0.36820907048E+02  0.00000000000E+00 0. -1.
         11    1    4    4    0    0 -0.11579915978E+01  0.16420976037E+02  0.17460292914E+01  0.16554093666E+02  0.51100000000E-03 0. -1.
        -11    1    4    4    0    0 -0.37011755135E+01  0.12214241204E+02  0.48285124979E+01  0.13645545852E+02  0.51100000000E-03 0.  1.
         12    1    4    4    0    0 -0.19330107028E+02 -0.19909840423E+01 -0.14368324550E+02  0.24167453435E+02  0.00000000000E+00 0. -1.
</event>
<event>
 8    1  0.1210161E-006  0.9118800E+02  0.7816164E-02  0.1184000E+00
        -11   -1    0    0    0    0  0.00000000000E+00  0.00000000000E+00  0.45593999997E+02  0.45594000000E+02  0.51100000000E-03 0.  1.
         11   -1    0    0    0    0 -0.00000000000E+00 -0.00000000000E+00 -0.45593999997E+02  0.45594000000E+02  0.51100000000E-03 0. -1.
         23    2    1    2    0    0  0.00000000000E+00  0.17763568394E-14  0.88817841970E-15  0.91188000000E+02  0.91188000000E+02 0.  0.
    9900012    2    3    3    0    0  0.35491884404E+02  0.81368065906E+01 -0.54678190670E+01  0.54367102057E+02  0.40000040758E+02 0.  0.
         12    1    3    3    0    0 -0.35491884404E+02 -0.81368065906E+01  0.54678190670E+01  0.36820897943E+02  0.00000000000E+00 0. -1.
         11    1    4    4    0    0 -0.39440697148E+01  0.26259483821E+01  0.45332801568E+01  0.65575849260E+01  0.51100000000E-03 0. -1.
        -11    1    4    4    0    0  0.19673589019E+02  0.83923068578E+01  0.60047878663E+01  0.22215724090E+02  0.51100000000E-03 0.  1.
         12    1    4    4    0    0  0.19762365100E+02 -0.28814486493E+01 -0.16005887090E+02  0.25593793040E+02  0.00000000000E+00 0. -1.
</event>
<event>
 8    1  0.1210161E-006  0.9118800E+02  0.7816164E-02  0.1184000E+00
        -11   -1    0    0    0    0  0.00000000000E+00  0.00000000000E+00  0.45593999997E+02  0.45594000000E+02  0.51100000000E-03 0. -1.
         11   -1    0    0    0    0 -0.00000000000E+00 -0.00000000000E+00 -0.45593999997E+02  0.45594000000E+02  0.51100000000E-03 0.  1.
         23    2    1    2    0    0 -0.35527136788E-14  0.17763568394E-14  0.00000000000E+00  0.91188000000E+02  0.91188000000E+02 0.  0.
    9900012    2    3    3    0    0 -0.22542758668E+02  0.11156422693E+02 -0.26891225102E+02  0.54367085791E+02  0.40000003678E+02 0.  0.
         12    1    3    3    0    0  0.22542758668E+02 -0.11156422693E+02  0.26891225102E+02  0.36820914209E+02  0.00000000000E+00 0. -1.
         11    1    4    4    0    0 -0.56368471665E+00 -0.10558599158E+02 -0.86596022563E+01  0.13667130940E+02  0.51100000000E-03 0. -1.
        -11    1    4    4    0    0  0.18025002581E+01 -0.10410778142E+01 -0.46466867512E+01  0.50916154824E+01  0.51100000000E-03 0.  1.
         12    1    4    4    0    0 -0.23781574210E+02  0.22756099665E+02 -0.13584936095E+02  0.35608339368E+02  0.00000000000E+00 0. -1.
</event>
<event>
 8    1  0.1210161E-006  0.9118800E+02  0.7816164E-02  0.1184000E+00
        -11   -1    0    0    0    0  0.00000000000E+00  0.00000000000E+00  0.45593999997E+02  0.45594000000E+02  0.51100000000E-03 0.  1.
         11   -1    0    0    0    0 -0.00000000000E+00 -0.00000000000E+00 -0.45593999997E+02  0.45594000000E+02  0.51100000000E-03 0. -1.
         23    2    1    2    0    0  0.00000000000E+00  0.22204460493E-15  0.35527136788E-14  0.91188000000E+02  0.91188000000E+02 0.  0.
    9900012    2    3    3    0    0  0.20209659201E+02  0.16045654585E+01 -0.30737230904E+02  0.54367050542E+02  0.39999923321E+02 0.  0.
        -12    1    3    3    0    0 -0.20209659201E+02 -0.16045654585E+01  0.30737230904E+02  0.36820949458E+02  0.00000000000E+00 0.  1.
         11    1    4    4    0    0  0.83728034581E+01 -0.16810875202E+01 -0.25452661118E+02  0.26847119980E+02  0.51100000000E-03 0. -1.
        -11    1    4    4    0    0 -0.96355189362E+00  0.89115154685E+01 -0.93562708302E+01  0.12956980524E+02  0.51100000000E-03 0.  1.
         12    1    4    4    0    0  0.12800407636E+02 -0.56258624898E+01  0.40717010436E+01  0.14562950037E+02  0.00000000000E+00 0. -1.
</event>
<event>
 8    1  0.1210161E-006  0.9118800E+02  0.7816164E-02  0.1184000E+00
        -11   -1    0    0    0    0  0.00000000000E+00  0.00000000000E+00  0.45593999997E+02  0.45594000000E+02  0.51100000000E-03 0.  1.
         11   -1    0    0    0    0 -0.00000000000E+00 -0.00000000000E+00 -0.45593999997E+02  0.45594000000E+02  0.51100000000E-03 0. -1.
         23    2    1    2    0    0 -0.88817841970E-15  0.35527136788E-14  0.35527136788E-14  0.91188000000E+02  0.91188000000E+02 0.  0.
    9900012    2    3    3    0    0  0.42400746575E+01 -0.25264642378E+02 -0.26448037091E+02  0.54367094883E+02  0.40000024406E+02 0.  0.
        -12    1    3    3    0    0 -0.42400746575E+01  0.25264642378E+02  0.26448037091E+02  0.36820905117E+02  0.00000000000E+00 0.  1.
         11    1    4    4    0    0  0.20353643874E+02 -0.10176881299E+02 -0.16244551251E+02  0.27959348661E+02  0.51100000000E-03 0. -1.
        -11    1    4    4    0    0 -0.10669348521E+02 -0.49282674923E+01 -0.12624373121E+01  0.11820176249E+02  0.51100000000E-03 0.  1.
         12    1    4    4    0    0 -0.54442206962E+01 -0.10159493588E+02 -0.89410485281E+01  0.14587569973E+02  0.00000000000E+00 0. -1.
</event>
<event>
 8    1  0.1210161E-006  0.9118800E+02  0.7816164E-02  0.1184000E+00
        -11   -1    0    0    0    0  0.00000000000E+00  0.00000000000E+00  0.45593999997E+02  0.45594000000E+02  0.51100000000E-03 0.  1.
         11   -1    0    0    0    0 -0.00000000000E+00 -0.00000000000E+00 -0.45593999997E+02  0.45594000000E+02  0.51100000000E-03 0. -1.
         23    2    1    2    0    0  0.00000000000E+00 -0.35527136788E-14  0.33306690739E-15  0.91188000000E+02  0.91188000000E+02 0.  0.
    9900012    2    3    3    0    0  0.24815418369E+02 -0.27197910281E+02  0.49532485616E+00  0.54367127398E+02  0.40000098528E+02 0.  0.
         12    1    3    3    0    0 -0.24815418369E+02  0.27197910281E+02 -0.49532485616E+00  0.36820872602E+02  0.00000000000E+00 0. -1.
         11    1    4    4    0    0 -0.60538170919E+01 -0.13182535194E+02  0.48938730639E+01  0.15309406565E+02  0.51100000000E-03 0. -1.
        -11    1    4    4    0    0  0.93652737443E+01 -0.60979949221E+01  0.72805727380E+01  0.13337939647E+02  0.51100000000E-03 0.  1.
        -12    1    4    4    0    0  0.21503961717E+02 -0.79173801646E+01 -0.11679120946E+02  0.25719781186E+02  0.00000000000E+00 0.  1.
</event>
<event>
 8    1  0.1210161E-006  0.9118800E+02  0.7816164E-02  0.1184000E+00
        -11   -1    0    0    0    0  0.00000000000E+00  0.00000000000E+00  0.45593999997E+02  0.45594000000E+02  0.51100000000E-03 0. -1.
         11   -1    0    0    0    0 -0.00000000000E+00 -0.00000000000E+00 -0.45593999997E+02  0.45594000000E+02  0.51100000000E-03 0.  1.
         23    2    1    2    0    0  0.00000000000E+00  0.00000000000E+00  0.35527136788E-14  0.91188000000E+02  0.91188000000E+02 0.  0.
    9900012    2    3    3    0    0 -0.94754681481E+01  0.22426876441E+02  0.27623063424E+02  0.54367042429E+02  0.39999904825E+02 0.  0.
        -12    1    3    3    0    0  0.94754681481E+01 -0.22426876441E+02 -0.27623063424E+02  0.36820957571E+02  0.00000000000E+00 0.  1.
         11    1    4    4    0    0 -0.37830936842E+01  0.58724846678E+01  0.15895458842E+02  0.17362703881E+02  0.51100000000E-03 0. -1.
        -11    1    4    4    0    0 -0.14223617417E+02  0.16245848027E+02 -0.10718729285E+01  0.21619153138E+02  0.51100000000E-03 0.  1.
        -12    1    4    4    0    0  0.85312429530E+01  0.30854374616E+00  0.12799477510E+02  0.15385185410E+02  0.00000000000E+00 0.  1.
</event>
<event>
 8    1  0.1210161E-006  0.9118800E+02  0.7816164E-02  0.1184000E+00
        -11   -1    0    0    0    0  0.00000000000E+00  0.00000000000E+00  0.45593999997E+02  0.45594000000E+02  0.51100000000E-03 0. -1.
         11   -1    0    0    0    0 -0.00000000000E+00 -0.00000000000E+00 -0.45593999997E+02  0.45594000000E+02  0.51100000000E-03 0.  1.
         23    2    1    2    0    0  0.00000000000E+00  0.00000000000E+00 -0.35527136788E-14  0.91188000000E+02  0.91188000000E+02 0.  0.
    9900012    2    3    3    0    0 -0.34205509774E+02  0.90947870462E+01  0.10151299084E+02  0.54367069493E+02  0.39999966523E+02 0.  0.
         12    1    3    3    0    0  0.34205509774E+02 -0.90947870462E+01 -0.10151299084E+02  0.36820930507E+02  0.00000000000E+00 0. -1.
         11    1    4    4    0    0 -0.85760401472E+01  0.57939047055E+01 -0.11883022693E+02  0.15758300192E+02  0.51100000000E-03 0. -1.
        -11    1    4    4    0    0 -0.24185270103E+02  0.77443033940E+01  0.13213314059E+02  0.28626791537E+02  0.51100000000E-03 0.  1.
         12    1    4    4    0    0 -0.14441995236E+01 -0.44434210532E+01  0.88210077182E+01  0.99819777642E+01  0.00000000000E+00 0. -1.
</event>
<event>
 8    1  0.1210161E-006  0.9118800E+02  0.7816164E-02  0.1184000E+00
        -11   -1    0    0    0    0  0.00000000000E+00  0.00000000000E+00  0.45593999997E+02  0.45594000000E+02  0.51100000000E-03 0.  1.
         11   -1    0    0    0    0 -0.00000000000E+00 -0.00000000000E+00 -0.45593999997E+02  0.45594000000E+02  0.51100000000E-03 0. -1.
         23    2    1    2    0    0  0.00000000000E+00 -0.35527136788E-14  0.00000000000E+00  0.91188000000E+02  0.91188000000E+02 0.  0.
    9900012    2    3    3    0    0  0.29443273901E+02 -0.13573312322E+02  0.17453835624E+02  0.54367115119E+02  0.40000070536E+02 0.  0.
         12    1    3    3    0    0 -0.29443273901E+02  0.13573312322E+02 -0.17453835624E+02  0.36820884881E+02  0.00000000000E+00 0. -1.
         11    1    4    4    0    0  0.19661461796E+02 -0.18689496844E+02  0.85823363911E+01  0.28452185688E+02  0.51100000000E-03 0. -1.
        -11    1    4    4    0    0  0.13157367332E+02  0.94448332141E+01  0.11465290285E+02  0.19843741359E+02  0.51100000000E-03 0.  1.
        -12    1    4    4    0    0 -0.33755552257E+01 -0.43286486927E+01 -0.25937910517E+01  0.60711880721E+01  0.00000000000E+00 0.  1.
</event>
<event>
 8    1  0.1210161E-006  0.9118800E+02  0.7816164E-02  0.1184000E+00
        -11   -1    0    0    0    0  0.00000000000E+00  0.00000000000E+00  0.45593999997E+02  0.45594000000E+02  0.51100000000E-03 0.  1.
         11   -1    0    0    0    0 -0.00000000000E+00 -0.00000000000E+00 -0.45593999997E+02  0.45594000000E+02  0.51100000000E-03 0. -1.
         23    2    1    2    0    0  0.00000000000E+00 -0.35527136788E-14  0.00000000000E+00  0.91188000000E+02  0.91188000000E+02 0.  0.
    9900012    2    3    3    0    0 -0.24448308992E+02  0.26573285213E+02  0.72044602911E+01  0.54367305443E+02  0.40000504415E+02 0.  0.
         12    1    3    3    0    0  0.24448308992E+02 -0.26573285213E+02 -0.72044602911E+01  0.36820694557E+02  0.00000000000E+00 0. -1.
         11    1    4    4    0    0  0.29881122980E+01  0.18318880372E+02  0.72768433720E+01  0.19936465156E+02  0.51100000000E-03 0. -1.
        -11    1    4    4    0    0 -0.21384279814E+02  0.11522607032E+02  0.62565635297E+01  0.25083908855E+02  0.51100000000E-03 0.  1.
        -12    1    4    4    0    0 -0.60521414751E+01 -0.32682021907E+01 -0.63289466105E+01  0.93469314319E+01  0.00000000000E+00 0.  1.
</event>
<event>
 8    1  0.1210161E-006  0.9118800E+02  0.7816164E-02  0.1184000E+00
        -11   -1    0    0    0    0  0.00000000000E+00  0.00000000000E+00  0.45593999997E+02  0.45594000000E+02  0.51100000000E-03 0. -1.
         11   -1    0    0    0    0 -0.00000000000E+00 -0.00000000000E+00 -0.45593999997E+02  0.45594000000E+02  0.51100000000E-03 0.  1.
         23    2    1    2    0    0  0.88817841970E-15  0.00000000000E+00  0.00000000000E+00  0.91188000000E+02  0.91188000000E+02 0.  0.
    9900012    2    3    3    0    0  0.12734072743E+01 -0.34839351802E+02  0.11848708385E+02  0.54366893411E+02  0.39999565107E+02 0.  0.
        -12    1    3    3    0    0 -0.12734072743E+01  0.34839351802E+02 -0.11848708385E+02  0.36821106589E+02  0.00000000000E+00 0.  1.
         11    1    4    4    0    0 -0.11523894842E+02 -0.71225851895E+01  0.43023053834E+01  0.14214119881E+02  0.51100000000E-03 0. -1.
        -11    1    4    4    0    0  0.10426022462E+02 -0.32377869933E+02  0.51595123741E+01  0.34404199947E+02  0.51100000000E-03 0.  1.
        -12    1    4    4    0    0  0.23712796543E+01  0.46611033212E+01  0.23868906273E+01  0.57485735828E+01  0.00000000000E+00 0.  1.
</event>
<event>
 8    1  0.1210161E-006  0.9118800E+02  0.7816164E-02  0.1184000E+00
        -11   -1    0    0    0    0  0.00000000000E+00  0.00000000000E+00  0.45593999997E+02  0.45594000000E+02  0.51100000000E-03 0.  1.
         11   -1    0    0    0    0 -0.00000000000E+00 -0.00000000000E+00 -0.45593999997E+02  0.45594000000E+02  0.51100000000E-03 0. -1.
         23    2    1    2    0    0  0.44408920985E-15  0.17763568394E-14  0.00000000000E+00  0.91188000000E+02  0.91188000000E+02 0.  0.
    9900012    2    3    3    0    0  0.30030797239E+01 -0.92412560299E+01  0.35515630700E+02  0.54367091200E+02  0.40000016009E+02 0.  0.
         12    1    3    3    0    0 -0.30030797239E+01  0.92412560299E+01 -0.35515630700E+02  0.36820908800E+02  0.00000000000E+00 0. -1.
         11    1    4    4    0    0 -0.40987365826E+01 -0.64672476429E+00 -0.55768152304E+01  0.69511698921E+01  0.51100000000E-03 0. -1.
        -11    1    4    4    0    0  0.58288382170E+01 -0.44133225173E+01  0.42263378542E+02  0.42891093908E+02  0.51100000000E-03 0.  1.
        -12    1    4    4    0    0  0.12729780895E+01 -0.41812087484E+01 -0.11709326118E+01  0.45248273995E+01  0.00000000000E+00 0.  1.
</event>
<event>
 8    1  0.1210161E-006  0.9118800E+02  0.7816164E-02  0.1184000E+00
        -11   -1    0    0    0    0  0.00000000000E+00  0.00000000000E+00  0.45593999997E+02  0.45594000000E+02  0.51100000000E-03 0.  1.
         11   -1    0    0    0    0 -0.00000000000E+00 -0.00000000000E+00 -0.45593999997E+02  0.45594000000E+02  0.51100000000E-03 0. -1.
         23    2    1    2    0    0  0.17763568394E-14 -0.35527136788E-14 -0.35527136788E-14  0.91188000000E+02  0.91188000000E+02 0.  0.
    9900012    2    3    3    0    0 -0.13016369312E+02 -0.22104470340E+02 -0.26414898491E+02  0.54367077396E+02  0.39999984540E+02 0.  0.
        -12    1    3    3    0    0  0.13016369312E+02  0.22104470340E+02  0.26414898491E+02  0.36820922604E+02  0.00000000000E+00 0.  1.
         11    1    4    4    0    0 -0.97936270366E+01 -0.64500762706E+01 -0.88171034167E+01  0.14671739070E+02  0.51100000000E-03 0. -1.
        -11    1    4    4    0    0 -0.50515588155E+01 -0.24976103976E+02 -0.94412841208E+01  0.27174654780E+02  0.51100000000E-03 0.  1.
        -12    1    4    4    0    0  0.18288165398E+01  0.93217099067E+01 -0.81565109537E+01  0.12520683546E+02  0.00000000000E+00 0.  1.
</event>
<event>
 8    1  0.1210161E-006  0.9118800E+02  0.7816164E-02  0.1184000E+00
        -11   -1    0    0    0    0  0.00000000000E+00  0.00000000000E+00  0.45593999997E+02  0.45594000000E+02  0.51100000000E-03 0.  1.
         11   -1    0    0    0    0 -0.00000000000E+00 -0.00000000000E+00 -0.45593999997E+02  0.45594000000E+02  0.51100000000E-03 0. -1.
         23    2    1    2    0    0 -0.71054273576E-14  0.35527136788E-14  0.22204460493E-15  0.91188000000E+02  0.91188000000E+02 0.  0.
    9900012    2    3    3    0    0 -0.19344426597E+02  0.31307913289E+02 -0.11729786262E+01  0.54367242896E+02  0.40000361828E+02 0.  0.
         12    1    3    3    0    0  0.19344426597E+02 -0.31307913289E+02  0.11729786262E+01  0.36820757104E+02  0.00000000000E+00 0. -1.
         11    1    4    4    0    0 -0.21084927167E+01  0.26507830488E+02 -0.29516519881E+01  0.26754869994E+02  0.51100000000E-03 0. -1.
        -11    1    4    4    0    0 -0.53509505978E+00  0.97073981673E+01  0.29674934808E+01  0.10164935992E+02  0.51100000000E-03 0.  1.
         12    1    4    4    0    0 -0.16700838821E+02 -0.49073153663E+01 -0.11888201189E+01  0.17447436909E+02  0.00000000000E+00 0. -1.
</event>
<event>
 8    1  0.1210161E-006  0.9118800E+02  0.7816164E-02  0.1184000E+00
        -11   -1    0    0    0    0  0.00000000000E+00  0.00000000000E+00  0.45593999997E+02  0.45594000000E+02  0.51100000000E-03 0. -1.
         11   -1    0    0    0    0 -0.00000000000E+00 -0.00000000000E+00 -0.45593999997E+02  0.45594000000E+02  0.51100000000E-03 0.  1.
         23    2    1    2    0    0  0.00000000000E+00  0.00000000000E+00  0.00000000000E+00  0.91188000000E+02  0.91188000000E+02 0.  0.
    9900012    2    3    3    0    0 -0.23655491765E+02  0.22134214991E+02 -0.17500381500E+02  0.54367229822E+02  0.40000332023E+02 0.  0.
        -12    1    3    3    0    0  0.23655491765E+02 -0.22134214991E+02  0.17500381500E+02  0.36820770178E+02  0.00000000000E+00 0.  1.
         11    1    4    4    0    0  0.26184497660E+01 -0.55651777753E+01  0.33605954627E+01  0.70086435901E+01  0.51100000000E-03 0. -1.
        -11    1    4    4    0    0 -0.21625523396E+02  0.97474754003E+01 -0.91391078311E+01  0.25420460874E+02  0.51100000000E-03 0.  1.
        -12    1    4    4    0    0 -0.46484181342E+01  0.17951917366E+02 -0.11721869132E+02  0.21938125357E+02  0.00000000000E+00 0.  1.
</event>
<event>
 8    1  0.1210161E-006  0.9118800E+02  0.7816164E-02  0.1184000E+00
        -11   -1    0    0    0    0  0.00000000000E+00  0.00000000000E+00  0.45593999997E+02  0.45594000000E+02  0.51100000000E-03 0. -1.
         11   -1    0    0    0    0 -0.00000000000E+00 -0.00000000000E+00 -0.45593999997E+02  0.45594000000E+02  0.51100000000E-03 0.  1.
         23    2    1    2    0    0  0.00000000000E+00  0.00000000000E+00  0.00000000000E+00  0.91188000000E+02  0.91188000000E+02 0.  0.
    9900012    2    3    3    0    0 -0.85090215359E+01 -0.23374778194E+02  0.27147689160E+02  0.54367072121E+02  0.39999972514E+02 0.  0.
        -12    1    3    3    0    0  0.85090215359E+01  0.23374778194E+02 -0.27147689160E+02  0.36820927879E+02  0.00000000000E+00 0.  1.
         11    1    4    4    0    0  0.67758111071E+00 -0.57014899598E+01  0.10165856838E+02  0.11675219460E+02  0.51100000000E-03 0. -1.
        -11    1    4    4    0    0 -0.72376384184E+01 -0.10664669426E+02  0.27228842961E+02  0.30125213246E+02  0.51100000000E-03 0.  1.
        -12    1    4    4    0    0 -0.19489642282E+01 -0.70086188084E+01 -0.10247010639E+02  0.12566639415E+02  0.00000000000E+00 0.  1.
</event>
<event>
 8    1  0.1210161E-006  0.9118800E+02  0.7816164E-02  0.1184000E+00
        -11   -1    0    0    0    0  0.00000000000E+00  0.00000000000E+00  0.45593999997E+02  0.45594000000E+02  0.51100000000E-03 0.  1.
         11   -1    0    0    0    0 -0.00000000000E+00 -0.00000000000E+00 -0.45593999997E+02  0.45594000000E+02  0.51100000000E-03 0. -1.
         23    2    1    2    0    0  0.00000000000E+00  0.00000000000E+00 -0.35527136788E-14  0.91188000000E+02  0.91188000000E+02 0.  0.
    9900012    2    3    3    0    0  0.80886993095E+01 -0.23525569417E+02  0.27145905772E+02  0.54367086471E+02  0.40000005229E+02 0.  0.
         12    1    3    3    0    0 -0.80886993095E+01  0.23525569417E+02 -0.27145905772E+02  0.36820913529E+02  0.00000000000E+00 0. -1.
         11    1    4    4    0    0 -0.23299615972E+01 -0.62703073499E+01 -0.92712432110E+01  0.11432472447E+02  0.51100000000E-03 0. -1.
        -11    1    4    4    0    0  0.52828527056E+01 -0.32858813211E+01  0.19165472098E+02  0.20149959548E+02  0.51100000000E-03 0.  1.
        -12    1    4    4    0    0  0.51358082011E+01 -0.13969380746E+02  0.17251676884E+02  0.22784654477E+02  0.00000000000E+00 0.  1.
</event>
<event>
 8    1  0.1210161E-006  0.9118800E+02  0.7816164E-02  0.1184000E+00
        -11   -1    0    0    0    0  0.00000000000E+00  0.00000000000E+00  0.45593999997E+02  0.45594000000E+02  0.51100000000E-03 0.  1.
         11   -1    0    0    0    0 -0.00000000000E+00 -0.00000000000E+00 -0.45593999997E+02  0.45594000000E+02  0.51100000000E-03 0. -1.
         23    2    1    2    0    0  0.17763568394E-14  0.00000000000E+00  0.35527136788E-14  0.91188000000E+02  0.91188000000E+02 0.  0.
    9900012    2    3    3    0    0 -0.90152812864E+01 -0.28987840031E+02 -0.20837774404E+02  0.54367041179E+02  0.39999901977E+02 0.  0.
        -12    1    3    3    0    0  0.90152812864E+01  0.28987840031E+02  0.20837774404E+02  0.36820958821E+02  0.00000000000E+00 0.  1.
         11    1    4    4    0    0  0.61194601846E+01 -0.58056338778E+01 -0.74964979454E+01  0.11284974939E+02  0.51100000000E-03 0. -1.
        -11    1    4    4    0    0  0.62292649475E-01 -0.69741914359E+01 -0.18928126599E+02  0.20172188859E+02  0.51100000000E-03 0.  1.
        -12    1    4    4    0    0 -0.15197034121E+02 -0.16208014717E+02  0.55868501399E+01  0.22909877381E+02  0.00000000000E+00 0.  1.
</event>
<event>
 8    1  0.1210161E-006  0.9118800E+02  0.7816164E-02  0.1184000E+00
        -11   -1    0    0    0    0  0.00000000000E+00  0.00000000000E+00  0.45593999997E+02  0.45594000000E+02  0.51100000000E-03 0.  1.
         11   -1    0    0    0    0 -0.00000000000E+00 -0.00000000000E+00 -0.45593999997E+02  0.45594000000E+02  0.51100000000E-03 0. -1.
         23    2    1    2    0    0  0.00000000000E+00 -0.35527136788E-14  0.00000000000E+00  0.91188000000E+02  0.91188000000E+02 0.  0.
    9900012    2    3    3    0    0  0.28497191736E+02  0.22912738305E+02  0.43240328562E+01  0.54367071528E+02  0.39999971161E+02 0.  0.
         12    1    3    3    0    0 -0.28497191736E+02 -0.22912738305E+02 -0.43240328562E+01  0.36820928472E+02  0.00000000000E+00 0. -1.
         11    1    4    4    0    0  0.16802887105E+02  0.28243973859E+02 -0.50624725737E+01  0.33251882702E+02  0.51100000000E-03 0. -1.
        -11    1    4    4    0    0  0.95198682217E+01 -0.75070633129E+01  0.12015167565E+02  0.17068923294E+02  0.51100000000E-03 0.  1.
        -12    1    4    4    0    0  0.21744364088E+01  0.21758277582E+01 -0.26286621350E+01  0.40462655312E+01  0.00000000000E+00 0.  1.
</event>
<event>
 8    1  0.1210161E-006  0.9118800E+02  0.7816164E-02  0.1184000E+00
        -11   -1    0    0    0    0  0.00000000000E+00  0.00000000000E+00  0.45593999997E+02  0.45594000000E+02  0.51100000000E-03 0.  1.
         11   -1    0    0    0    0 -0.00000000000E+00 -0.00000000000E+00 -0.45593999997E+02  0.45594000000E+02  0.51100000000E-03 0. -1.
         23    2    1    2    0    0 -0.17763568394E-14  0.17763568394E-14  0.00000000000E+00  0.91188000000E+02  0.91188000000E+02 0.  0.
    9900012    2    3    3    0    0  0.98366728351E+01  0.13503608480E+02 -0.32812704928E+02  0.54367066020E+02  0.39999958606E+02 0.  0.
        -12    1    3    3    0    0 -0.98366728351E+01 -0.13503608480E+02  0.32812704928E+02  0.36820933980E+02  0.00000000000E+00 0.  1.
         11    1    4    4    0    0 -0.10223403513E+02  0.29308579280E+01 -0.74980202839E+01  0.13012617570E+02  0.51100000000E-03 0. -1.
        -11    1    4    4    0    0  0.12320890828E+02 -0.59004391076E+01 -0.63350540803E+01  0.15058301462E+02  0.51100000000E-03 0.  1.
         12    1    4    4    0    0  0.77391855208E+01  0.16473189660E+02 -0.18979630564E+02  0.26296146988E+02  0.00000000000E+00 0. -1.
</event>
<event>
 8    1  0.1210161E-006  0.9118800E+02  0.7816164E-02  0.1184000E+00
        -11   -1    0    0    0    0  0.00000000000E+00  0.00000000000E+00  0.45593999997E+02  0.45594000000E+02  0.51100000000E-03 0. -1.
         11   -1    0    0    0    0 -0.00000000000E+00 -0.00000000000E+00 -0.45593999997E+02  0.45594000000E+02  0.51100000000E-03 0.  1.
         23    2    1    2    0    0 -0.35527136788E-14  0.17763568394E-14  0.00000000000E+00  0.91188000000E+02  0.91188000000E+02 0.  0.
    9900012    2    3    3    0    0 -0.23338591633E+02 -0.13359231868E+02  0.25151969406E+02  0.54367075235E+02  0.39999979614E+02 0.  0.
         12    1    3    3    0    0  0.23338591633E+02  0.13359231868E+02 -0.25151969406E+02  0.36820924765E+02  0.00000000000E+00 0. -1.
         11    1    4    4    0    0 -0.16358518232E+02 -0.24148026782E+02  0.82730424371E+01  0.30317842068E+02  0.51100000000E-03 0. -1.
        -11    1    4    4    0    0  0.20822992260E+01  0.41446314507E+01  0.95967674894E+01  0.10658887673E+02  0.51100000000E-03 0.  1.
         12    1    4    4    0    0 -0.90623726268E+01  0.66441634632E+01  0.72821594799E+01  0.13390345494E+02  0.00000000000E+00 0. -1.
</event>
<event>
 8    1  0.1210161E-006  0.9118800E+02  0.7816164E-02  0.1184000E+00
        -11   -1    0    0    0    0  0.00000000000E+00  0.00000000000E+00  0.45593999997E+02  0.45594000000E+02  0.51100000000E-03 0.  1.
         11   -1    0    0    0    0 -0.00000000000E+00 -0.00000000000E+00 -0.45593999997E+02  0.45594000000E+02  0.51100000000E-03 0. -1.
         23    2    1    2    0    0 -0.35527136788E-14 -0.35527136788E-14  0.35527136788E-14  0.91188000000E+02  0.91188000000E+02 0.  0.
    9900012    2    3    3    0    0  0.26317361103E+02 -0.18492533272E+02  0.17922118627E+02  0.54367087215E+02  0.40000006923E+02 0.  0.
        -12    1    3    3    0    0 -0.26317361103E+02  0.18492533272E+02 -0.17922118627E+02  0.36820912785E+02  0.00000000000E+00 0.  1.
         11    1    4    4    0    0  0.19385568449E+02 -0.12322208280E+02  0.64322640023E+01  0.23853953581E+02  0.51100000000E-03 0. -1.
        -11    1    4    4    0    0 -0.79594110484E+01  0.31713925795E+01 -0.14440511782E+01  0.86887996408E+01  0.51100000000E-03 0.  1.
        -12    1    4    4    0    0  0.14891203703E+02 -0.93417175713E+01  0.12933905803E+02  0.21824333992E+02  0.00000000000E+00 0.  1.
</event>
<event>
 8    1  0.1210161E-006  0.9118800E+02  0.7816164E-02  0.1184000E+00
        -11   -1    0    0    0    0  0.00000000000E+00  0.00000000000E+00  0.45593999997E+02  0.45594000000E+02  0.51100000000E-03 0.  1.
         11   -1    0    0    0    0 -0.00000000000E+00 -0.00000000000E+00 -0.45593999997E+02  0.45594000000E+02  0.51100000000E-03 0. -1.
         23    2    1    2    0    0  0.00000000000E+00  0.44408920985E-15  0.00000000000E+00  0.91188000000E+02  0.91188000000E+02 0.  0.
    9900012    2    3    3    0    0 -0.34121104416E+02 -0.35400182117E+01 -0.13379156115E+02  0.54367037033E+02  0.39999892524E+02 0.  0.
        -12    1    3    3    0    0  0.34121104416E+02  0.35400182117E+01  0.13379156115E+02  0.36820962967E+02  0.00000000000E+00 0.  1.
         11    1    4    4    0    0 -0.19125928588E+02  0.55617242353E+01 -0.14742240059E+01  0.19972662754E+02  0.51100000000E-03 0. -1.
        -11    1    4    4    0    0 -0.13724240321E+02 -0.17938185175E+02 -0.11763406695E+02  0.25465879076E+02  0.51100000000E-03 0.  1.
        -12    1    4    4    0    0 -0.12709355075E+01  0.88364427280E+01 -0.14152541376E+00  0.89284952031E+01  0.00000000000E+00 0.  1.
</event>
<event>
 8    1  0.1210161E-006  0.9118800E+02  0.7816164E-02  0.1184000E+00
        -11   -1    0    0    0    0  0.00000000000E+00  0.00000000000E+00  0.45593999997E+02  0.45594000000E+02  0.51100000000E-03 0.  1.
         11   -1    0    0    0    0 -0.00000000000E+00 -0.00000000000E+00 -0.45593999997E+02  0.45594000000E+02  0.51100000000E-03 0. -1.
         23    2    1    2    0    0 -0.44408920985E-15  0.00000000000E+00  0.71054273576E-14  0.91188000000E+02  0.91188000000E+02 0.  0.
    9900012    2    3    3    0    0  0.28515453945E+01 -0.55524958291E+01 -0.36287988702E+02  0.54367086851E+02  0.40000006095E+02 0.  0.
        -12    1    3    3    0    0 -0.28515453945E+01  0.55524958291E+01  0.36287988702E+02  0.36820913149E+02  0.00000000000E+00 0.  1.
         11    1    4    4    0    0 -0.10975931444E+02 -0.42068737216E+00 -0.50144173961E+01  0.12074453653E+02  0.51100000000E-03 0. -1.
        -11    1    4    4    0    0  0.15698824287E+02 -0.75799713891E+01 -0.86515694574E+01  0.19461724091E+02  0.51100000000E-03 0.  1.
         12    1    4    4    0    0 -0.18713474485E+01  0.24481629322E+01 -0.22622001849E+02  0.22830909107E+02  0.00000000000E+00 0. -1.
</event>
<event>
 8    1  0.1210161E-006  0.9118800E+02  0.7816164E-02  0.1184000E+00
        -11   -1    0    0    0    0  0.00000000000E+00  0.00000000000E+00  0.45593999997E+02  0.45594000000E+02  0.51100000000E-03 0. -1.
         11   -1    0    0    0    0 -0.00000000000E+00 -0.00000000000E+00 -0.45593999997E+02  0.45594000000E+02  0.51100000000E-03 0.  1.
         23    2    1    2    0    0  0.00000000000E+00  0.44408920985E-15  0.35527136788E-14  0.91188000000E+02  0.91188000000E+02 0.  0.
    9900012    2    3    3    0    0 -0.18839946248E+02 -0.23543472454E+01 -0.31548260920E+02  0.54367091638E+02  0.40000017007E+02 0.  0.
         12    1    3    3    0    0  0.18839946248E+02  0.23543472454E+01  0.31548260920E+02  0.36820908362E+02  0.00000000000E+00 0. -1.
         11    1    4    4    0    0 -0.88933277793E+01 -0.13237138123E+02 -0.68951539133E+01  0.17374010833E+02  0.51100000000E-03 0. -1.
        -11    1    4    4    0    0 -0.48770238453E+01  0.10947710253E+01 -0.25454872166E+02  0.25940979211E+02  0.51100000000E-03 0.  1.
        -12    1    4    4    0    0 -0.50695946231E+01  0.97880198520E+01  0.80176515988E+00  0.11052101594E+02  0.00000000000E+00 0.  1.
</event>
<event>
 8    1  0.1210161E-006  0.9118800E+02  0.7816164E-02  0.1184000E+00
        -11   -1    0    0    0    0  0.00000000000E+00  0.00000000000E+00  0.45593999997E+02  0.45594000000E+02  0.51100000000E-03 0.  1.
         11   -1    0    0    0    0 -0.00000000000E+00 -0.00000000000E+00 -0.45593999997E+02  0.45594000000E+02  0.51100000000E-03 0. -1.
         23    2    1    2    0    0 -0.35527136788E-14  0.00000000000E+00  0.00000000000E+00  0.91188000000E+02  0.91188000000E+02 0.  0.
    9900012    2    3    3    0    0  0.29310330754E+02 -0.18911105541E+02 -0.11792196273E+02  0.54367064451E+02  0.39999955030E+02 0.  0.
        -12    1    3    3    0    0 -0.29310330754E+02  0.18911105541E+02  0.11792196273E+02  0.36820935549E+02  0.00000000000E+00 0.  1.
         11    1    4    4    0    0 -0.21018688922E+01 -0.42529098062E+01  0.76495278791E+01  0.90011316897E+01  0.51100000000E-03 0. -1.
        -11    1    4    4    0    0  0.11476453723E+02  0.44692767468E+01 -0.10903185791E+02  0.16448795863E+02  0.51100000000E-03 0.  1.
         12    1    4    4    0    0  0.19935745924E+02 -0.19127472482E+02 -0.85385383617E+01  0.28917136899E+02  0.00000000000E+00 0. -1.
</event>
<event>
 8    1  0.1210161E-006  0.9118800E+02  0.7816164E-02  0.1184000E+00
        -11   -1    0    0    0    0  0.00000000000E+00  0.00000000000E+00  0.45593999997E+02  0.45594000000E+02  0.51100000000E-03 0. -1.
         11   -1    0    0    0    0 -0.00000000000E+00 -0.00000000000E+00 -0.45593999997E+02  0.45594000000E+02  0.51100000000E-03 0.  1.
         23    2    1    2    0    0  0.00000000000E+00  0.00000000000E+00  0.00000000000E+00  0.91188000000E+02  0.91188000000E+02 0.  0.
    9900012    2    3    3    0    0 -0.31043503379E+01 -0.11086052175E+02 -0.34974871525E+02  0.54367093139E+02  0.40000020429E+02 0.  0.
         12    1    3    3    0    0  0.31043503379E+01  0.11086052175E+02  0.34974871525E+02  0.36820906861E+02  0.00000000000E+00 0. -1.
         11    1    4    4    0    0 -0.33530064504E+01  0.19965377405E+00  0.11710450461E+01  0.35572265386E+01  0.51100000000E-03 0. -1.
        -11    1    4    4    0    0 -0.55679695016E+01  0.54425110631E+01 -0.31572327166E+02  0.32518226488E+02  0.51100000000E-03 0.  1.
        -12    1    4    4    0    0  0.58166256140E+01 -0.16728217012E+02 -0.45735894059E+01  0.18291640112E+02  0.00000000000E+00 0.  1.
</event>
<event>
 8    1  0.1210161E-006  0.9118800E+02  0.7816164E-02  0.1184000E+00
        -11   -1    0    0    0    0  0.00000000000E+00  0.00000000000E+00  0.45593999997E+02  0.45594000000E+02  0.51100000000E-03 0.  1.
         11   -1    0    0    0    0 -0.00000000000E+00 -0.00000000000E+00 -0.45593999997E+02  0.45594000000E+02  0.51100000000E-03 0. -1.
         23    2    1    2    0    0  0.00000000000E+00  0.00000000000E+00 -0.35527136788E-14  0.91188000000E+02  0.91188000000E+02 0.  0.
    9900012    2    3    3    0    0 -0.38214703238E+01 -0.19696989419E+02 -0.30874027404E+02  0.54367073942E+02  0.39999976666E+02 0.  0.
        -12    1    3    3    0    0  0.38214703238E+01  0.19696989419E+02  0.30874027404E+02  0.36820926058E+02  0.00000000000E+00 0.  1.
         11    1    4    4    0    0 -0.27003410960E+01 -0.18884413254E+02 -0.29994840403E+02  0.35547199004E+02  0.51100000000E-03 0. -1.
        -11    1    4    4    0    0  0.17542448067E+01 -0.29582069848E+00  0.86612995721E+01  0.88421148639E+01  0.51100000000E-03 0.  1.
        -12    1    4    4    0    0 -0.28753740345E+01 -0.51675546636E+00 -0.95404865728E+01  0.99777600740E+01  0.00000000000E+00 0.  1.
</event>
<event>
 8    1  0.1210161E-006  0.9118800E+02  0.7816164E-02  0.1184000E+00
        -11   -1    0    0    0    0  0.00000000000E+00  0.00000000000E+00  0.45593999997E+02  0.45594000000E+02  0.51100000000E-03 0.  1.
         11   -1    0    0    0    0 -0.00000000000E+00 -0.00000000000E+00 -0.45593999997E+02  0.45594000000E+02  0.51100000000E-03 0. -1.
         23    2    1    2    0    0  0.26645352591E-14  0.00000000000E+00 -0.88817841970E-15  0.91188000000E+02  0.91188000000E+02 0.  0.
    9900012    2    3    3    0    0  0.62513854538E+01  0.35699769399E+02  0.64981357652E+01  0.54367093932E+02  0.40000022238E+02 0.  0.
         12    1    3    3    0    0 -0.62513854538E+01 -0.35699769399E+02 -0.64981357652E+01  0.36820906068E+02  0.00000000000E+00 0. -1.
         11    1    4    4    0    0  0.15968307076E+02  0.17677213814E+02  0.24022975964E+01  0.23942467565E+02  0.51100000000E-03 0. -1.
        -11    1    4    4    0    0  0.52658283302E+01  0.39170260664E+01  0.70543844126E+01  0.96351637718E+01  0.51100000000E-03 0.  1.
         12    1    4    4    0    0 -0.14982749953E+02  0.14105529519E+02 -0.29585462438E+01  0.20789462596E+02  0.00000000000E+00 0. -1.
</event>
<event>
 8    1  0.1210161E-006  0.9118800E+02  0.7816164E-02  0.1184000E+00
        -11   -1    0    0    0    0  0.00000000000E+00  0.00000000000E+00  0.45593999997E+02  0.45594000000E+02  0.51100000000E-03 0. -1.
         11   -1    0    0    0    0 -0.00000000000E+00 -0.00000000000E+00 -0.45593999997E+02  0.45594000000E+02  0.51100000000E-03 0.  1.
         23    2    1    2    0    0  0.17763568394E-14  0.00000000000E+00  0.00000000000E+00  0.91188000000E+02  0.91188000000E+02 0.  0.
    9900012    2    3    3    0    0  0.86066499979E+01 -0.10381934484E+02 -0.34262523780E+02  0.54367088502E+02  0.40000009857E+02 0.  0.
         12    1    3    3    0    0 -0.86066499979E+01  0.10381934484E+02  0.34262523780E+02  0.36820911498E+02  0.00000000000E+00 0. -1.
         11    1    4    4    0    0  0.12567539283E+02 -0.16558960086E+02 -0.37932301418E+01  0.21131275350E+02  0.51100000000E-03 0. -1.
        -11    1    4    4    0    0 -0.52962140705E+01 -0.27735514083E-01 -0.22136098204E+02  0.22760876448E+02  0.51100000000E-03 0.  1.
         12    1    4    4    0    0  0.13353247856E+01  0.62047611164E+01 -0.83331954341E+01  0.10474936703E+02  0.00000000000E+00 0. -1.
</event>
<event>
 8    1  0.1210161E-006  0.9118800E+02  0.7816164E-02  0.1184000E+00
        -11   -1    0    0    0    0  0.00000000000E+00  0.00000000000E+00  0.45593999997E+02  0.45594000000E+02  0.51100000000E-03 0.  1.
         11   -1    0    0    0    0 -0.00000000000E+00 -0.00000000000E+00 -0.45593999997E+02  0.45594000000E+02  0.51100000000E-03 0. -1.
         23    2    1    2    0    0  0.00000000000E+00  0.44408920985E-15  0.00000000000E+00  0.91188000000E+02  0.91188000000E+02 0.  0.
    9900012    2    3    3    0    0 -0.14418935382E+02  0.17238484616E+01 -0.33836385199E+02  0.54367104922E+02  0.40000047290E+02 0.  0.
        -12    1    3    3    0    0  0.14418935382E+02 -0.17238484616E+01  0.33836385199E+02  0.36820895078E+02  0.00000000000E+00 0.  1.
         11    1    4    4    0    0 -0.15035556885E+02  0.54524941318E+01 -0.59218330966E+01  0.17054787322E+02  0.51100000000E-03 0. -1.
        -11    1    4    4    0    0 -0.82961049606E+01  0.45471343328E+01 -0.35941260471E+01  0.10120253478E+02  0.51100000000E-03 0.  1.
        -12    1    4    4    0    0  0.89127264644E+01 -0.82757800030E+01 -0.24320426055E+02  0.27192064121E+02  0.00000000000E+00 0.  1.
</event>
<event>
 8    1  0.1210161E-006  0.9118800E+02  0.7816164E-02  0.1184000E+00
        -11   -1    0    0    0    0  0.00000000000E+00  0.00000000000E+00  0.45593999997E+02  0.45594000000E+02  0.51100000000E-03 0. -1.
         11   -1    0    0    0    0 -0.00000000000E+00 -0.00000000000E+00 -0.45593999997E+02  0.45594000000E+02  0.51100000000E-03 0.  1.
         23    2    1    2    0    0  0.00000000000E+00  0.00000000000E+00  0.88817841970E-15  0.91188000000E+02  0.91188000000E+02 0.  0.
    9900012    2    3    3    0    0  0.94343395194E+01 -0.35277210344E+02 -0.47216331962E+01  0.54367052811E+02  0.39999928494E+02 0.  0.
        -12    1    3    3    0    0 -0.94343395194E+01  0.35277210344E+02  0.47216331962E+01  0.36820947189E+02  0.00000000000E+00 0.  1.
         11    1    4    4    0    0 -0.20745067072E+01 -0.12298613312E+02  0.44882736178E+01  0.13255341105E+02  0.51100000000E-03 0. -1.
        -11    1    4    4    0    0  0.88235391047E+01 -0.27565010350E+02  0.16827347412E+01  0.28991658014E+02  0.51100000000E-03 0.  1.
        -12    1    4    4    0    0  0.26853071219E+01  0.45864133178E+01 -0.10892641555E+02  0.12120053693E+02  0.00000000000E+00 0.  1.
</event>
<event>
 8    1  0.1210161E-006  0.9118800E+02  0.7816164E-02  0.1184000E+00
        -11   -1    0    0    0    0  0.00000000000E+00  0.00000000000E+00  0.45593999997E+02  0.45594000000E+02  0.51100000000E-03 0.  1.
         11   -1    0    0    0    0 -0.00000000000E+00 -0.00000000000E+00 -0.45593999997E+02  0.45594000000E+02  0.51100000000E-03 0. -1.
         23    2    1    2    0    0  0.10658141036E-13  0.33306690739E-15 -0.35527136788E-14  0.91188000000E+02  0.91188000000E+02 0.  0.
    9900012    2    3    3    0    0 -0.30949347044E+02  0.87647413031E+00  0.19928547309E+02  0.54367118870E+02  0.40000079088E+02 0.  0.
         12    1    3    3    0    0  0.30949347044E+02 -0.87647413031E+00 -0.19928547309E+02  0.36820881130E+02  0.00000000000E+00 0. -1.
         11    1    4    4    0    0 -0.20324176790E+02  0.73575958366E+01  0.11467913863E+02  0.24468743885E+02  0.51100000000E-03 0. -1.
        -11    1    4    4    0    0  0.70505637428E+01 -0.66786640723E+01 -0.11473505240E+01  0.97791316776E+01  0.51100000000E-03 0.  1.
        -12    1    4    4    0    0 -0.17675733996E+02  0.19754236598E+00  0.96079839697E+01  0.20119243307E+02  0.00000000000E+00 0.  1.
</event>
<event>
 8    1  0.1210161E-006  0.9118800E+02  0.7816164E-02  0.1184000E+00
        -11   -1    0    0    0    0  0.00000000000E+00  0.00000000000E+00  0.45593999997E+02  0.45594000000E+02  0.51100000000E-03 0.  1.
         11   -1    0    0    0    0 -0.00000000000E+00 -0.00000000000E+00 -0.45593999997E+02  0.45594000000E+02  0.51100000000E-03 0. -1.
         23    2    1    2    0    0  0.00000000000E+00  0.35527136788E-14 -0.17763568394E-14  0.91188000000E+02  0.91188000000E+02 0.  0.
    9900012    2    3    3    0    0 -0.27534398357E+02  0.21430652128E+02 -0.11762791740E+02  0.54367092718E+02  0.40000019469E+02 0.  0.
         12    1    3    3    0    0  0.27534398357E+02 -0.21430652128E+02  0.11762791740E+02  0.36820907282E+02  0.00000000000E+00 0. -1.
         11    1    4    4    0    0  0.27919319365E+01 -0.34777048891E+01 -0.83720600385E+01  0.94858159788E+01  0.51100000000E-03 0. -1.
        -11    1    4    4    0    0  0.12949196124E+01  0.95240242751E+00 -0.49248940997E+01  0.51805858106E+01  0.51100000000E-03 0.  1.
        -12    1    4    4    0    0 -0.31621249906E+02  0.23955954590E+02  0.15341623979E+01  0.39700690929E+02  0.00000000000E+00 0.  1.
</event>
<event>
 8    1  0.1210161E-006  0.9118800E+02  0.7816164E-02  0.1184000E+00
        -11   -1    0    0    0    0  0.00000000000E+00  0.00000000000E+00  0.45593999997E+02  0.45594000000E+02  0.51100000000E-03 0.  1.
         11   -1    0    0    0    0 -0.00000000000E+00 -0.00000000000E+00 -0.45593999997E+02  0.45594000000E+02  0.51100000000E-03 0. -1.
         23    2    1    2    0    0  0.00000000000E+00 -0.35527136788E-14  0.00000000000E+00  0.91188000000E+02  0.91188000000E+02 0.  0.
    9900012    2    3    3    0    0  0.29655378404E+02  0.16798452712E+02 -0.13933897688E+02  0.54367041477E+02  0.39999902655E+02 0.  0.
        -12    1    3    3    0    0 -0.29655378404E+02 -0.16798452712E+02  0.13933897688E+02  0.36820958523E+02  0.00000000000E+00 0.  1.
         11    1    4    4    0    0  0.25705323679E+02 -0.13882090118E+01 -0.34567898810E+00  0.25745102135E+02  0.51100000000E-03 0. -1.
        -11    1    4    4    0    0  0.23974411573E+01  0.66639116741E+01  0.35421398651E+01  0.79184719478E+01  0.51100000000E-03 0.  1.
         12    1    4    4    0    0  0.15526135671E+01  0.11522750049E+02 -0.17130358565E+02  0.20703467394E+02  0.00000000000E+00 0. -1.
</event>
<event>
 8    1  0.1210161E-006  0.9118800E+02  0.7816164E-02  0.1184000E+00
        -11   -1    0    0    0    0  0.00000000000E+00  0.00000000000E+00  0.45593999997E+02  0.45594000000E+02  0.51100000000E-03 0. -1.
         11   -1    0    0    0    0 -0.00000000000E+00 -0.00000000000E+00 -0.45593999997E+02  0.45594000000E+02  0.51100000000E-03 0.  1.
         23    2    1    2    0    0  0.35527136788E-14  0.00000000000E+00  0.41633363423E-15  0.91188000000E+02  0.91188000000E+02 0.  0.
    9900012    2    3    3    0    0 -0.17194606497E+02 -0.32559224011E+02 -0.14982904374E+00  0.54367081903E+02  0.39999994814E+02 0.  0.
         12    1    3    3    0    0  0.17194606497E+02  0.32559224011E+02  0.14982904374E+00  0.36820918097E+02  0.00000000000E+00 0. -1.
         11    1    4    4    0    0 -0.21931673830E+02 -0.11429050037E+02 -0.71317255154E+01  0.25738745323E+02  0.51100000000E-03 0. -1.
        -11    1    4    4    0    0  0.54706754986E+01 -0.23061056051E+02  0.93565124658E+01  0.25481069883E+02  0.51100000000E-03 0.  1.
        -12    1    4    4    0    0 -0.73360816644E+00  0.19308820777E+01 -0.23746159941E+01  0.31472666966E+01  0.00000000000E+00 0.  1.
</event>
<event>
 8    1  0.1210161E-006  0.9118800E+02  0.7816164E-02  0.1184000E+00
        -11   -1    0    0    0    0  0.00000000000E+00  0.00000000000E+00  0.45593999997E+02  0.45594000000E+02  0.51100000000E-03 0.  1.
         11   -1    0    0    0    0 -0.00000000000E+00 -0.00000000000E+00 -0.45593999997E+02  0.45594000000E+02  0.51100000000E-03 0. -1.
         23    2    1    2    0    0  0.00000000000E+00  0.00000000000E+00  0.00000000000E+00  0.91188000000E+02  0.91188000000E+02 0.  0.
    9900012    2    3    3    0    0  0.72134823830E+01 -0.15740009096E+02  0.32496091369E+02  0.54367106900E+02  0.40000051800E+02 0.  0.
        -12    1    3    3    0    0 -0.72134823830E+01  0.15740009096E+02 -0.32496091369E+02  0.36820893100E+02  0.00000000000E+00 0.  1.
         11    1    4    4    0    0  0.96369108067E+01 -0.35987067292E+01 -0.28023769766E+01  0.10661803647E+02  0.51100000000E-03 0.  1.
        -11    1    4    4    0    0  0.14593349231E+01  0.19953897778E+01  0.26484276098E+02  0.26599400735E+02  0.51100000000E-03 0. -1.
         12    1    4    4    0    0 -0.38827633467E+01 -0.14136692144E+02  0.88141922480E+01  0.17105902519E+02  0.00000000000E+00 0. -1.
</event>
<event>
 8    1  0.1210161E-006  0.9118800E+02  0.7816164E-02  0.1184000E+00
        -11   -1    0    0    0    0  0.00000000000E+00  0.00000000000E+00  0.45593999997E+02  0.45594000000E+02  0.51100000000E-03 0.  1.
         11   -1    0    0    0    0 -0.00000000000E+00 -0.00000000000E+00 -0.45593999997E+02  0.45594000000E+02  0.51100000000E-03 0. -1.
         23    2    1    2    0    0  0.00000000000E+00  0.00000000000E+00  0.00000000000E+00  0.91188000000E+02  0.91188000000E+02 0.  0.
    9900012    2    3    3    0    0  0.10697963911E+02  0.23707813659E+02 -0.26062860221E+02  0.54367088234E+02  0.40000009248E+02 0.  0.
        -12    1    3    3    0    0 -0.10697963911E+02 -0.23707813659E+02  0.26062860221E+02  0.36820911766E+02  0.00000000000E+00 0.  1.
         11    1    4    4    0    0  0.21482303283E+02  0.24524844125E+02 -0.24072183100E+02  0.40526871742E+02  0.51100000000E-03 0. -1.
        -11    1    4    4    0    0 -0.79147732356E+01 -0.38751232319E+01 -0.33560805754E+01  0.94299253721E+01  0.51100000000E-03 0.  1.
         12    1    4    4    0    0 -0.28695661357E+01  0.30580927661E+01  0.13654034551E+01  0.44102911206E+01  0.00000000000E+00 0. -1.
</event>
<event>
 8    1  0.1210161E-006  0.9118800E+02  0.7816164E-02  0.1184000E+00
        -11   -1    0    0    0    0  0.00000000000E+00  0.00000000000E+00  0.45593999997E+02  0.45594000000E+02  0.51100000000E-03 0.  1.
         11   -1    0    0    0    0 -0.00000000000E+00 -0.00000000000E+00 -0.45593999997E+02  0.45594000000E+02  0.51100000000E-03 0. -1.
         23    2    1    2    0    0 -0.44408920985E-15  0.17763568394E-14  0.00000000000E+00  0.91188000000E+02  0.91188000000E+02 0.  0.
    9900012    2    3    3    0    0  0.31217201119E+01 -0.14301268487E+02 -0.33786235025E+02  0.54367067177E+02  0.39999961243E+02 0.  0.
        -12    1    3    3    0    0 -0.31217201119E+01  0.14301268487E+02  0.33786235025E+02  0.36820932823E+02  0.00000000000E+00 0.  1.
         11    1    4    4    0    0 -0.22310981270E+00 -0.50833653541E+01 -0.12622724621E+02  0.13609686199E+02  0.51100000000E-03 0. -1.
        -11    1    4    4    0    0  0.66579033579E+01 -0.20995774193E+02 -0.17033870521E+02  0.27844262537E+02  0.51100000000E-03 0.  1.
        -12    1    4    4    0    0 -0.33130734333E+01  0.11777871060E+02 -0.41296398842E+01  0.12913118441E+02  0.00000000000E+00 0.  1.
</event>
<event>
 8    1  0.1210161E-006  0.9118800E+02  0.7816164E-02  0.1184000E+00
        -11   -1    0    0    0    0  0.00000000000E+00  0.00000000000E+00  0.45593999997E+02  0.45594000000E+02  0.51100000000E-03 0. -1.
         11   -1    0    0    0    0 -0.00000000000E+00 -0.00000000000E+00 -0.45593999997E+02  0.45594000000E+02  0.51100000000E-03 0.  1.
         23    2    1    2    0    0  0.00000000000E+00  0.00000000000E+00  0.17763568394E-14  0.91188000000E+02  0.91188000000E+02 0.  0.
    9900012    2    3    3    0    0  0.32029974011E+02  0.12623132867E+02 -0.13058212492E+02  0.54367087029E+02  0.40000006501E+02 0.  0.
         12    1    3    3    0    0 -0.32029974011E+02 -0.12623132867E+02  0.13058212492E+02  0.36820912971E+02  0.00000000000E+00 0. -1.
         11    1    4    4    0    0  0.28207574273E+01  0.16180892514E+02  0.23878865550E+01  0.16597588905E+02  0.51100000000E-03 0. -1.
        -11    1    4    4    0    0  0.24667970348E+02 -0.11255605573E+01 -0.19295712078E+02  0.31338477189E+02  0.51100000000E-03 0.  1.
         12    1    4    4    0    0  0.45412462352E+01 -0.24321990895E+01  0.38496130310E+01  0.64310209351E+01  0.00000000000E+00 0. -1.
</event>
<event>
 8    1  0.1210161E-006  0.9118800E+02  0.7816164E-02  0.1184000E+00
        -11   -1    0    0    0    0  0.00000000000E+00  0.00000000000E+00  0.45593999997E+02  0.45594000000E+02  0.51100000000E-03 0.  1.
         11   -1    0    0    0    0 -0.00000000000E+00 -0.00000000000E+00 -0.45593999997E+02  0.45594000000E+02  0.51100000000E-03 0. -1.
         23    2    1    2    0    0  0.00000000000E+00  0.00000000000E+00 -0.88817841970E-15  0.91188000000E+02  0.91188000000E+02 0.  0.
    9900012    2    3    3    0    0 -0.25501202762E+02  0.26126852878E+02  0.47806496596E+01  0.54367103830E+02  0.40000044801E+02 0.  0.
         12    1    3    3    0    0  0.25501202762E+02 -0.26126852878E+02 -0.47806496596E+01  0.36820896170E+02  0.00000000000E+00 0. -1.
         11    1    4    4    0    0 -0.57483887739E+01  0.13512881190E+02 -0.38877519716E+01  0.15190673033E+02  0.51100000000E-03 0. -1.
        -11    1    4    4    0    0 -0.92829114559E+01  0.76797070390E+01  0.19761512084E+02  0.23144496223E+02  0.51100000000E-03 0.  1.
        -12    1    4    4    0    0 -0.10469902532E+02  0.49342646492E+01 -0.11093110453E+02  0.16031934574E+02  0.00000000000E+00 0.  1.
</event>
<event>
 8    1  0.1210161E-006  0.9118800E+02  0.7816164E-02  0.1184000E+00
        -11   -1    0    0    0    0  0.00000000000E+00  0.00000000000E+00  0.45593999997E+02  0.45594000000E+02  0.51100000000E-03 0.  1.
         11   -1    0    0    0    0 -0.00000000000E+00 -0.00000000000E+00 -0.45593999997E+02  0.45594000000E+02  0.51100000000E-03 0. -1.
         23    2    1    2    0    0 -0.66613381478E-15  0.00000000000E+00  0.00000000000E+00  0.91188000000E+02  0.91188000000E+02 0.  0.
    9900012    2    3    3    0    0  0.68994013792E+00  0.36383168694E+02  0.56185669445E+01  0.54367091862E+02  0.40000017517E+02 0.  0.
         12    1    3    3    0    0 -0.68994013792E+00 -0.36383168694E+02 -0.56185669445E+01  0.36820908138E+02  0.00000000000E+00 0. -1.
         11    1    4    4    0    0  0.13528478435E+02 -0.66410198127E+00  0.22066450987E+01  0.13723339355E+02  0.51100000000E-03 0. -1.
        -11    1    4    4    0    0 -0.50701754422E+01  0.28509303159E+02  0.23485964853E+01  0.29051728887E+02  0.51100000000E-03 0.  1.
         12    1    4    4    0    0 -0.77683628549E+01  0.85379675166E+01  0.10633253605E+01  0.11592023619E+02  0.00000000000E+00 0. -1.
</event>
<event>
 8    1  0.1210161E-006  0.9118800E+02  0.7816164E-02  0.1184000E+00
        -11   -1    0    0    0    0  0.00000000000E+00  0.00000000000E+00  0.45593999997E+02  0.45594000000E+02  0.51100000000E-03 0. -1.
         11   -1    0    0    0    0 -0.00000000000E+00 -0.00000000000E+00 -0.45593999997E+02  0.45594000000E+02  0.51100000000E-03 0.  1.
         23    2    1    2    0    0 -0.88817841970E-15  0.00000000000E+00  0.14210854715E-13  0.91188000000E+02  0.91188000000E+02 0.  0.
    9900012    2    3    3    0    0 -0.55743064057E+01 -0.11689851868E+02  0.34468164156E+02  0.54367083813E+02  0.39999999168E+02 0.  0.
        -12    1    3    3    0    0  0.55743064057E+01  0.11689851868E+02 -0.34468164156E+02  0.36820916187E+02  0.00000000000E+00 0.  1.
         11    1    4    4    0    0 -0.11176830685E+02 -0.69719743455E+01 -0.18634682508E+01  0.13304228073E+02  0.51100000000E-03 0. -1.
        -11    1    4    4    0    0 -0.13272293716E+01  0.15084966090E+01 -0.12349074756E+01  0.23584097521E+01  0.51100000000E-03 0.  1.
         12    1    4    4    0    0  0.69297536511E+01 -0.62263741317E+01  0.37566539882E+02  0.38704445988E+02  0.00000000000E+00 0. -1.
</event>
<event>
 8    1  0.1210161E-006  0.9118800E+02  0.7816164E-02  0.1184000E+00
        -11   -1    0    0    0    0  0.00000000000E+00  0.00000000000E+00  0.45593999997E+02  0.45594000000E+02  0.51100000000E-03 0. -1.
         11   -1    0    0    0    0 -0.00000000000E+00 -0.00000000000E+00 -0.45593999997E+02  0.45594000000E+02  0.51100000000E-03 0.  1.
         23    2    1    2    0    0  0.00000000000E+00  0.00000000000E+00  0.00000000000E+00  0.91188000000E+02  0.91188000000E+02 0.  0.
    9900012    2    3    3    0    0 -0.25540030149E+02  0.22785190891E+02  0.13576653818E+02  0.54367033244E+02  0.39999883887E+02 0.  0.
        -12    1    3    3    0    0  0.25540030149E+02 -0.22785190891E+02 -0.13576653818E+02  0.36820966756E+02  0.00000000000E+00 0.  1.
         11    1    4    4    0    0 -0.13878407641E+02  0.17519378663E+02  0.20368631937E+02  0.30239378212E+02  0.51100000000E-03 0. -1.
        -11    1    4    4    0    0  0.41971585692E+01  0.10726608656E+01 -0.63886782387E+01  0.77189345953E+01  0.51100000000E-03 0.  1.
         12    1    4    4    0    0 -0.15858781077E+02  0.41931513619E+01 -0.40329988061E+00  0.16408720437E+02  0.00000000000E+00 0. -1.
</event>
<event>
 8    1  0.1210161E-006  0.9118800E+02  0.7816164E-02  0.1184000E+00
        -11   -1    0    0    0    0  0.00000000000E+00  0.00000000000E+00  0.45593999997E+02  0.45594000000E+02  0.51100000000E-03 0.  1.
         11   -1    0    0    0    0 -0.00000000000E+00 -0.00000000000E+00 -0.45593999997E+02  0.45594000000E+02  0.51100000000E-03 0. -1.
         23    2    1    2    0    0  0.00000000000E+00 -0.17763568394E-14 -0.17763568394E-14  0.91188000000E+02  0.91188000000E+02 0.  0.
    9900012    2    3    3    0    0  0.35638052626E+02  0.61948953814E+01  0.68805893658E+01  0.54366945781E+02  0.39999684496E+02 0.  0.
        -12    1    3    3    0    0 -0.35638052626E+02 -0.61948953814E+01 -0.68805893658E+01  0.36821054219E+02  0.00000000000E+00 0.  1.
         11    1    4    4    0    0  0.16002686019E+02  0.13170533456E+02  0.20635234796E+01  0.20828034971E+02  0.51100000000E-03 0. -1.
        -11    1    4    4    0    0  0.88282826340E+01  0.32560054207E+01 -0.91530826565E+01  0.13127035764E+02  0.51100000000E-03 0.  1.
        -12    1    4    4    0    0  0.10807083973E+02 -0.10231643495E+02  0.13970148543E+02  0.20411875046E+02  0.00000000000E+00 0.  1.
</event>
<event>
 8    1  0.1210161E-006  0.9118800E+02  0.7816164E-02  0.1184000E+00
        -11   -1    0    0    0    0  0.00000000000E+00  0.00000000000E+00  0.45593999997E+02  0.45594000000E+02  0.51100000000E-03 0.  1.
         11   -1    0    0    0    0 -0.00000000000E+00 -0.00000000000E+00 -0.45593999997E+02  0.45594000000E+02  0.51100000000E-03 0. -1.
         23    2    1    2    0    0 -0.71054273576E-14  0.17763568394E-14  0.00000000000E+00  0.91188000000E+02  0.91188000000E+02 0.  0.
    9900012    2    3    3    0    0 -0.32860266380E+02  0.61891549293E+01 -0.15416791200E+02  0.54367079368E+02  0.39999989034E+02 0.  0.
        -12    1    3    3    0    0  0.32860266380E+02 -0.61891549293E+01  0.15416791200E+02  0.36820920632E+02  0.00000000000E+00 0.  1.
         11    1    4    4    0    0 -0.19130238560E+02 -0.97153798028E+01 -0.87457185357E+01  0.23169855956E+02  0.51100000000E-03 0.  1.
        -11    1    4    4    0    0 -0.16726957219E+02  0.72993177073E+01  0.23186916852E+01  0.18396941816E+02  0.51100000000E-03 0. -1.
         12    1    4    4    0    0  0.29969293982E+01  0.86052170248E+01 -0.89897643495E+01  0.12800281595E+02  0.00000000000E+00 0. -1.
</event>
<event>
 8    1  0.1210161E-006  0.9118800E+02  0.7816164E-02  0.1184000E+00
        -11   -1    0    0    0    0  0.00000000000E+00  0.00000000000E+00  0.45593999997E+02  0.45594000000E+02  0.51100000000E-03 0.  1.
         11   -1    0    0    0    0 -0.00000000000E+00 -0.00000000000E+00 -0.45593999997E+02  0.45594000000E+02  0.51100000000E-03 0. -1.
         23    2    1    2    0    0  0.35527136788E-14 -0.88817841970E-15 -0.35527136788E-14  0.91188000000E+02  0.91188000000E+02 0.  0.
    9900012    2    3    3    0    0  0.25171730146E+02  0.57807098181E+01  0.26243990160E+02  0.54367087137E+02  0.40000006746E+02 0.  0.
         12    1    3    3    0    0 -0.25171730146E+02 -0.57807098181E+01 -0.26243990160E+02  0.36820912863E+02  0.00000000000E+00 0. -1.
         11    1    4    4    0    0  0.10362189097E+02  0.11847804002E+02  0.12195451097E+02  0.19911666185E+02  0.51100000000E-03 0. -1.
        -11    1    4    4    0    0  0.57338179577E+01  0.15638581934E+01  0.20228915923E+02  0.21083912362E+02  0.51100000000E-03 0.  1.
        -12    1    4    4    0    0  0.90757230919E+01 -0.76309523776E+01 -0.61803768598E+01  0.13371508589E+02  0.00000000000E+00 0.  1.
</event>
<event>
 8    1  0.1210161E-006  0.9118800E+02  0.7816164E-02  0.1184000E+00
        -11   -1    0    0    0    0  0.00000000000E+00  0.00000000000E+00  0.45593999997E+02  0.45594000000E+02  0.51100000000E-03 0.  1.
         11   -1    0    0    0    0 -0.00000000000E+00 -0.00000000000E+00 -0.45593999997E+02  0.45594000000E+02  0.51100000000E-03 0. -1.
         23    2    1    2    0    0  0.17763568394E-14 -0.22204460493E-15  0.00000000000E+00  0.91188000000E+02  0.91188000000E+02 0.  0.
    9900012    2    3    3    0    0 -0.15598564265E+02  0.18360098221E+01 -0.33303078896E+02  0.54367065694E+02  0.39999957863E+02 0.  0.
        -12    1    3    3    0    0  0.15598564265E+02 -0.18360098221E+01  0.33303078896E+02  0.36820934306E+02  0.00000000000E+00 0.  1.
         11    1    4    4    0    0 -0.23777182074E+02 -0.66882808751E+01 -0.29968348684E+02  0.38835414399E+02  0.51100000000E-03 0. -1.
        -11    1    4    4    0    0  0.27888793603E+01  0.16434711864E+01  0.32510428436E+01  0.45878236081E+01  0.51100000000E-03 0.  1.
         12    1    4    4    0    0  0.53897384495E+01  0.68808195107E+01 -0.65857730557E+01  0.10943827687E+02  0.00000000000E+00 0. -1.
</event>
<event>
 8    1  0.1210161E-006  0.9118800E+02  0.7816164E-02  0.1184000E+00
        -11   -1    0    0    0    0  0.00000000000E+00  0.00000000000E+00  0.45593999997E+02  0.45594000000E+02  0.51100000000E-03 0.  1.
         11   -1    0    0    0    0 -0.00000000000E+00 -0.00000000000E+00 -0.45593999997E+02  0.45594000000E+02  0.51100000000E-03 0. -1.
         23    2    1    2    0    0  0.35527136788E-14 -0.17763568394E-14  0.71054273576E-14  0.91188000000E+02  0.91188000000E+02 0.  0.
    9900012    2    3    3    0    0  0.10934558728E+02 -0.13281249501E+02  0.32554934055E+02  0.54367083469E+02  0.39999998384E+02 0.  0.
         12    1    3    3    0    0 -0.10934558728E+02  0.13281249501E+02 -0.32554934055E+02  0.36820916531E+02  0.00000000000E+00 0. -1.
         11    1    4    4    0    0  0.23884314833E+01 -0.13965956957E+01  0.47607751777E+01  0.55063658652E+01  0.51100000000E-03 0. -1.
        -11    1    4    4    0    0  0.20186033266E+02 -0.80573853343E+01  0.29336933247E+02  0.36510999028E+02  0.51100000000E-03 0.  1.
         12    1    4    4    0    0 -0.11639906021E+02 -0.38272684711E+01 -0.15427743701E+01  0.12349718576E+02  0.00000000000E+00 0. -1.
</event>
<event>
 8    1  0.1210161E-006  0.9118800E+02  0.7816164E-02  0.1184000E+00
        -11   -1    0    0    0    0  0.00000000000E+00  0.00000000000E+00  0.45593999997E+02  0.45594000000E+02  0.51100000000E-03 0.  1.
         11   -1    0    0    0    0 -0.00000000000E+00 -0.00000000000E+00 -0.45593999997E+02  0.45594000000E+02  0.51100000000E-03 0. -1.
         23    2    1    2    0    0  0.35527136788E-14  0.88817841970E-15 -0.35527136788E-14  0.91188000000E+02  0.91188000000E+02 0.  0.
    9900012    2    3    3    0    0 -0.21712442758E+02  0.51432703138E+01  0.29289944404E+02  0.54367024412E+02  0.39999863753E+02 0.  0.
         12    1    3    3    0    0  0.21712442758E+02 -0.51432703138E+01 -0.29289944404E+02  0.36820975588E+02  0.00000000000E+00 0. -1.
         11    1    4    4    0    0 -0.27338867583E+01  0.67639624216E+01  0.59156443591E+01  0.93925594431E+01  0.51100000000E-03 0. -1.
        -11    1    4    4    0    0 -0.18660581634E+02  0.43106736254E+01  0.30303181986E+02  0.35848041129E+02  0.51100000000E-03 0.  1.
         12    1    4    4    0    0 -0.31797436522E+00 -0.59313657331E+01 -0.69288819412E+01  0.91264238403E+01  0.00000000000E+00 0. -1.
</event>
<event>
 8    1  0.1210161E-006  0.9118800E+02  0.7816164E-02  0.1184000E+00
        -11   -1    0    0    0    0  0.00000000000E+00  0.00000000000E+00  0.45593999997E+02  0.45594000000E+02  0.51100000000E-03 0.  1.
         11   -1    0    0    0    0 -0.00000000000E+00 -0.00000000000E+00 -0.45593999997E+02  0.45594000000E+02  0.51100000000E-03 0. -1.
         23    2    1    2    0    0  0.00000000000E+00  0.00000000000E+00  0.00000000000E+00  0.91188000000E+02  0.91188000000E+02 0.  0.
    9900012    2    3    3    0    0  0.15111451312E+02  0.21004869029E+02  0.26195960510E+02  0.54366962117E+02  0.39999721738E+02 0.  0.
         12    1    3    3    0    0 -0.15111451312E+02 -0.21004869029E+02 -0.26195960510E+02  0.36821037883E+02  0.00000000000E+00 0. -1.
         11    1    4    4    0    0  0.15362020564E+01  0.15113643747E+02  0.21731202229E+02  0.26514661881E+02  0.51100000000E-03 0. -1.
        -11    1    4    4    0    0  0.13149984616E+02 -0.44312701180E+01  0.90314710202E+01  0.16556742413E+02  0.51100000000E-03 0.  1.
         12    1    4    4    0    0  0.42526463879E+00  0.10322495400E+02 -0.45667127393E+01  0.11295557824E+02  0.00000000000E+00 0. -1.
</event>
<event>
 8    1  0.1210161E-006  0.9118800E+02  0.7816164E-02  0.1184000E+00
        -11   -1    0    0    0    0  0.00000000000E+00  0.00000000000E+00  0.45593999997E+02  0.45594000000E+02  0.51100000000E-03 0.  1.
         11   -1    0    0    0    0 -0.00000000000E+00 -0.00000000000E+00 -0.45593999997E+02  0.45594000000E+02  0.51100000000E-03 0. -1.
         23    2    1    2    0    0 -0.35527136788E-14  0.00000000000E+00  0.35527136788E-14  0.91188000000E+02  0.91188000000E+02 0.  0.
    9900012    2    3    3    0    0 -0.17015180770E+02  0.21693985790E+02 -0.24405601658E+02  0.54367098485E+02  0.40000032616E+02 0.  0.
        -12    1    3    3    0    0  0.17015180770E+02 -0.21693985790E+02  0.24405601658E+02  0.36820901515E+02  0.00000000000E+00 0.  1.
         11    1    4    4    0    0  0.81013352869E+01  0.38849138784E+01 -0.20456075587E+02  0.22342229476E+02  0.51100000000E-03 0. -1.
        -11    1    4    4    0    0 -0.18097996790E+02  0.82996321192E+01 -0.33540497530E+01  0.20190865042E+02  0.51100000000E-03 0.  1.
         12    1    4    4    0    0 -0.70185192668E+01  0.95094397919E+01 -0.59547631836E+00  0.11834003967E+02  0.00000000000E+00 0. -1.
</event>
<event>
 8    1  0.1210161E-006  0.9118800E+02  0.7816164E-02  0.1184000E+00
        -11   -1    0    0    0    0  0.00000000000E+00  0.00000000000E+00  0.45593999997E+02  0.45594000000E+02  0.51100000000E-03 0. -1.
         11   -1    0    0    0    0 -0.00000000000E+00 -0.00000000000E+00 -0.45593999997E+02  0.45594000000E+02  0.51100000000E-03 0.  1.
         23    2    1    2    0    0 -0.35527136788E-14  0.00000000000E+00  0.00000000000E+00  0.91188000000E+02  0.91188000000E+02 0.  0.
    9900012    2    3    3    0    0  0.24384542295E+02  0.19139234929E+02  0.19871194726E+02  0.54367073933E+02  0.39999976644E+02 0.  0.
        -12    1    3    3    0    0 -0.24384542295E+02 -0.19139234929E+02 -0.19871194726E+02  0.36820926067E+02  0.00000000000E+00 0.  1.
         11    1    4    4    0    0 -0.19088679405E+01  0.15118037830E+01  0.19535800269E+01  0.31218268170E+01  0.51100000000E-03 0. -1.
        -11    1    4    4    0    0 -0.27851972744E+01 -0.82406985785E+01  0.82461070703E+00  0.87376438471E+01  0.51100000000E-03 0.  1.
         12    1    4    4    0    0  0.29078607510E+02  0.25868129725E+02  0.17093003992E+02  0.42507603269E+02  0.00000000000E+00 0. -1.
</event>
<event>
 8    1  0.1210161E-006  0.9118800E+02  0.7816164E-02  0.1184000E+00
        -11   -1    0    0    0    0  0.00000000000E+00  0.00000000000E+00  0.45593999997E+02  0.45594000000E+02  0.51100000000E-03 0. -1.
         11   -1    0    0    0    0 -0.00000000000E+00 -0.00000000000E+00 -0.45593999997E+02  0.45594000000E+02  0.51100000000E-03 0.  1.
         23    2    1    2    0    0  0.00000000000E+00 -0.35527136788E-14  0.00000000000E+00  0.91188000000E+02  0.91188000000E+02 0.  0.
    9900012    2    3    3    0    0  0.24457810070E+02  0.21692204572E+02  0.16942308489E+02  0.54367108789E+02  0.40000056107E+02 0.  0.
        -12    1    3    3    0    0 -0.24457810070E+02 -0.21692204572E+02 -0.16942308489E+02  0.36820891211E+02  0.00000000000E+00 0.  1.
         11    1    4    4    0    0  0.60619477917E+01  0.13735115144E+02 -0.70973359941E+00  0.15030113808E+02  0.51100000000E-03 0. -1.
        -11    1    4    4    0    0  0.18876684972E+02 -0.59752340479E+01  0.15682081319E+02  0.25257876637E+02  0.51100000000E-03 0.  1.
        -12    1    4    4    0    0 -0.48082269350E+00  0.13932323476E+02  0.19699607694E+01  0.14079118344E+02  0.00000000000E+00 0.  1.
</event>
<event>
 8    1  0.1210161E-006  0.9118800E+02  0.7816164E-02  0.1184000E+00
        -11   -1    0    0    0    0  0.00000000000E+00  0.00000000000E+00  0.45593999997E+02  0.45594000000E+02  0.51100000000E-03 0. -1.
         11   -1    0    0    0    0 -0.00000000000E+00 -0.00000000000E+00 -0.45593999997E+02  0.45594000000E+02  0.51100000000E-03 0.  1.
         23    2    1    2    0    0 -0.22204460493E-15  0.00000000000E+00  0.00000000000E+00  0.91188000000E+02  0.91188000000E+02 0.  0.
    9900012    2    3    3    0    0 -0.68514426512E+00 -0.48085032809E+01 -0.36499153711E+02  0.54367090885E+02  0.40000015290E+02 0.  0.
         12    1    3    3    0    0  0.68514426512E+00  0.48085032809E+01  0.36499153711E+02  0.36820909115E+02  0.00000000000E+00 0. -1.
         11    1    4    4    0    0 -0.13974840794E+02  0.63022028376E+01 -0.18569964092E+02  0.24080230531E+02  0.51100000000E-03 0. -1.
        -11    1    4    4    0    0  0.69502028602E+01 -0.43926468241E+01 -0.19272208031E+02  0.20952772337E+02  0.51100000000E-03 0.  1.
        -12    1    4    4    0    0  0.63394936684E+01 -0.67180592945E+01  0.13430184124E+01  0.93340880172E+01  0.00000000000E+00 0.  1.
</event>
<event>
 8    1  0.1210161E-006  0.9118800E+02  0.7816164E-02  0.1184000E+00
        -11   -1    0    0    0    0  0.00000000000E+00  0.00000000000E+00  0.45593999997E+02  0.45594000000E+02  0.51100000000E-03 0.  1.
         11   -1    0    0    0    0 -0.00000000000E+00 -0.00000000000E+00 -0.45593999997E+02  0.45594000000E+02  0.51100000000E-03 0. -1.
         23    2    1    2    0    0 -0.17763568394E-14  0.00000000000E+00  0.00000000000E+00  0.91188000000E+02  0.91188000000E+02 0.  0.
    9900012    2    3    3    0    0 -0.15768085797E+02 -0.16424241763E+02  0.28937727608E+02  0.54367077601E+02  0.39999985007E+02 0.  0.
         12    1    3    3    0    0  0.15768085797E+02  0.16424241763E+02 -0.28937727608E+02  0.36820922399E+02  0.00000000000E+00 0. -1.
         11    1    4    4    0    0 -0.21419366388E+02 -0.35375671943E+01  0.79375834418E+01  0.23115122090E+02  0.51100000000E-03 0. -1.
        -11    1    4    4    0    0 -0.39616488167E+00 -0.29651021094E+01 -0.32161772222E+01  0.43923311941E+01  0.51100000000E-03 0.  1.
        -12    1    4    4    0    0  0.60474454723E+01 -0.99215724590E+01  0.24216321389E+02  0.26859624316E+02  0.00000000000E+00 0.  1.
</event>
<event>
 8    1  0.1210161E-006  0.9118800E+02  0.7816164E-02  0.1184000E+00
        -11   -1    0    0    0    0  0.00000000000E+00  0.00000000000E+00  0.45593999997E+02  0.45594000000E+02  0.51100000000E-03 0. -1.
         11   -1    0    0    0    0 -0.00000000000E+00 -0.00000000000E+00 -0.45593999997E+02  0.45594000000E+02  0.51100000000E-03 0.  1.
         23    2    1    2    0    0  0.00000000000E+00  0.00000000000E+00  0.00000000000E+00  0.91188000000E+02  0.91188000000E+02 0.  0.
    9900012    2    3    3    0    0 -0.11324469371E+02 -0.20982933190E+02  0.28058008541E+02  0.54367096494E+02  0.40000028076E+02 0.  0.
        -12    1    3    3    0    0  0.11324469371E+02  0.20982933190E+02 -0.28058008541E+02  0.36820903506E+02  0.00000000000E+00 0.  1.
         11    1    4    4    0    0 -0.10163242607E+02 -0.13881442109E+02  0.95057904742E+01  0.19655685897E+02  0.51100000000E-03 0. -1.
        -11    1    4    4    0    0  0.15565499220E+01 -0.18019352411E+02  0.11385080688E+02  0.21371475651E+02  0.51100000000E-03 0.  1.
         12    1    4    4    0    0 -0.27177766860E+01  0.10917861330E+02  0.71671373784E+01  0.13339934945E+02  0.00000000000E+00 0. -1.
</event>
<event>
 8    1  0.1210161E-006  0.9118800E+02  0.7816164E-02  0.1184000E+00
        -11   -1    0    0    0    0  0.00000000000E+00  0.00000000000E+00  0.45593999997E+02  0.45594000000E+02  0.51100000000E-03 0. -1.
         11   -1    0    0    0    0 -0.00000000000E+00 -0.00000000000E+00 -0.45593999997E+02  0.45594000000E+02  0.51100000000E-03 0.  1.
         23    2    1    2    0    0  0.00000000000E+00  0.17763568394E-14  0.44408920985E-15  0.91188000000E+02  0.91188000000E+02 0.  0.
    9900012    2    3    3    0    0  0.36291209070E+02 -0.61082015179E+01 -0.11902600092E+01  0.54367099679E+02  0.40000035338E+02 0.  0.
         12    1    3    3    0    0 -0.36291209070E+02  0.61082015179E+01  0.11902600092E+01  0.36820900321E+02  0.00000000000E+00 0. -1.
         11    1    4    4    0    0  0.52534848423E+01  0.97745969090E+01 -0.11963191169E+01  0.11161228759E+02  0.51100000000E-03 0. -1.
        -11    1    4    4    0    0  0.61531940444E+00  0.47387549940E+01  0.40065716865E+01  0.62359469051E+01  0.51100000000E-03 0.  1.
        -12    1    4    4    0    0  0.30422404824E+02 -0.20621553421E+02 -0.40005125789E+01  0.36969924015E+02  0.00000000000E+00 0.  1.
</event>
<event>
 8    1  0.1210161E-006  0.9118800E+02  0.7816164E-02  0.1184000E+00
        -11   -1    0    0    0    0  0.00000000000E+00  0.00000000000E+00  0.45593999997E+02  0.45594000000E+02  0.51100000000E-03 0. -1.
         11   -1    0    0    0    0 -0.00000000000E+00 -0.00000000000E+00 -0.45593999997E+02  0.45594000000E+02  0.51100000000E-03 0.  1.
         23    2    1    2    0    0  0.17763568394E-14 -0.17763568394E-14 -0.35527136788E-14  0.91188000000E+02  0.91188000000E+02 0.  0.
    9900012    2    3    3    0    0  0.14568481871E+02 -0.14878863131E+02 -0.30367061733E+02  0.54367086508E+02  0.40000005311E+02 0.  0.
         12    1    3    3    0    0 -0.14568481871E+02  0.14878863131E+02  0.30367061733E+02  0.36820913492E+02  0.00000000000E+00 0. -1.
         11    1    4    4    0    0  0.81156647600E+00 -0.79195197694E+01  0.11609365856E+01  0.80451977937E+01  0.51100000000E-03 0. -1.
        -11    1    4    4    0    0 -0.30661732943E+01 -0.75155739683E-01 -0.27542761483E+02  0.27713007369E+02  0.51100000000E-03 0.  1.
        -12    1    4    4    0    0  0.16823088689E+02 -0.68841876223E+01 -0.39852368355E+01  0.18608881345E+02  0.00000000000E+00 0.  1.
</event>
<event>
 8    1  0.1210161E-006  0.9118800E+02  0.7816164E-02  0.1184000E+00
        -11   -1    0    0    0    0  0.00000000000E+00  0.00000000000E+00  0.45593999997E+02  0.45594000000E+02  0.51100000000E-03 0.  1.
         11   -1    0    0    0    0 -0.00000000000E+00 -0.00000000000E+00 -0.45593999997E+02  0.45594000000E+02  0.51100000000E-03 0. -1.
         23    2    1    2    0    0 -0.71054273576E-14  0.00000000000E+00  0.00000000000E+00  0.91188000000E+02  0.91188000000E+02 0.  0.
    9900012    2    3    3    0    0  0.31258544685E+02 -0.16612848908E+02  0.10133959093E+02  0.54367075357E+02  0.39999979891E+02 0.  0.
         12    1    3    3    0    0 -0.31258544685E+02  0.16612848908E+02 -0.10133959093E+02  0.36820924643E+02  0.00000000000E+00 0. -1.
         11    1    4    4    0    0  0.31201181959E+02 -0.37323974135E+01  0.84746704816E+01  0.32546345204E+02  0.51100000000E-03 0. -1.
        -11    1    4    4    0    0 -0.46900039782E+01 -0.14132334724E+02  0.51949955011E+01  0.15770447064E+02  0.51100000000E-03 0.  1.
        -12    1    4    4    0    0  0.47473667043E+01  0.12518832297E+01 -0.35357068895E+01  0.60502830888E+01  0.00000000000E+00 0.  1.
</event>
<event>
 8    1  0.1210161E-006  0.9118800E+02  0.7816164E-02  0.1184000E+00
        -11   -1    0    0    0    0  0.00000000000E+00  0.00000000000E+00  0.45593999997E+02  0.45594000000E+02  0.51100000000E-03 0.  1.
         11   -1    0    0    0    0 -0.00000000000E+00 -0.00000000000E+00 -0.45593999997E+02  0.45594000000E+02  0.51100000000E-03 0. -1.
         23    2    1    2    0    0  0.66613381478E-15 -0.71054273576E-14 -0.16098233857E-14  0.91188000000E+02  0.91188000000E+02 0.  0.
    9900012    2    3    3    0    0  0.14452344618E+01 -0.36792296848E+02  0.13255404666E+00  0.54367090443E+02  0.40000014283E+02 0.  0.
        -12    1    3    3    0    0 -0.14452344618E+01  0.36792296848E+02 -0.13255404666E+00  0.36820909557E+02  0.00000000000E+00 0.  1.
         11    1    4    4    0    0 -0.99458641853E+01 -0.27565056394E+02 -0.68982581103E+01  0.30105456543E+02  0.51100000000E-03 0. -1.
        -11    1    4    4    0    0  0.63587749338E+00 -0.70969072761E+01  0.10563863882E+02  0.12742278189E+02  0.51100000000E-03 0.  1.
        -12    1    4    4    0    0  0.10755221154E+02 -0.21303331776E+01 -0.35330517252E+01  0.11519355711E+02  0.00000000000E+00 0.  1.
</event>
<event>
 8    1  0.1210161E-006  0.9118800E+02  0.7816164E-02  0.1184000E+00
        -11   -1    0    0    0    0  0.00000000000E+00  0.00000000000E+00  0.45593999997E+02  0.45594000000E+02  0.51100000000E-03 0.  1.
         11   -1    0    0    0    0 -0.00000000000E+00 -0.00000000000E+00 -0.45593999997E+02  0.45594000000E+02  0.51100000000E-03 0. -1.
         23    2    1    2    0    0  0.00000000000E+00  0.00000000000E+00  0.00000000000E+00  0.91188000000E+02  0.91188000000E+02 0.  0.
    9900012    2    3    3    0    0 -0.20114602341E+02  0.29985786783E+02 -0.72134470104E+01  0.54367103024E+02  0.40000042963E+02 0.  0.
         12    1    3    3    0    0  0.20114602341E+02 -0.29985786783E+02  0.72134470104E+01  0.36820896976E+02  0.00000000000E+00 0. -1.
         11    1    4    4    0    0  0.29676814032E+01 -0.26472972632E+01 -0.70369157425E+01  0.80829140252E+01  0.51100000000E-03 0. -1.
        -11    1    4    4    0    0 -0.14084832933E+02  0.30484448831E+02  0.73294464827E+01  0.34371571470E+02  0.51100000000E-03 0.  1.
         12    1    4    4    0    0 -0.89974508115E+01  0.21486352154E+01 -0.75059777505E+01  0.11912617529E+02  0.00000000000E+00 0. -1.
</event>
<event>
 8    1  0.1210161E-006  0.9118800E+02  0.7816164E-02  0.1184000E+00
        -11   -1    0    0    0    0  0.00000000000E+00  0.00000000000E+00  0.45593999997E+02  0.45594000000E+02  0.51100000000E-03 0. -1.
         11   -1    0    0    0    0 -0.00000000000E+00 -0.00000000000E+00 -0.45593999997E+02  0.45594000000E+02  0.51100000000E-03 0.  1.
         23    2    1    2    0    0  0.35527136788E-14  0.71054273576E-14  0.17763568394E-14  0.91188000000E+02  0.91188000000E+02 0.  0.
    9900012    2    3    3    0    0 -0.19502792899E+02 -0.28968290728E+02 -0.11673019695E+02  0.54367079488E+02  0.39999989308E+02 0.  0.
         12    1    3    3    0    0  0.19502792899E+02  0.28968290728E+02  0.11673019695E+02  0.36820920512E+02  0.00000000000E+00 0. -1.
         11    1    4    4    0    0  0.28543394207E+01  0.19301694600E+01 -0.45149087099E+01  0.56795429915E+01  0.51100000000E-03 0. -1.
        -11    1    4    4    0    0 -0.21375600896E+02 -0.58769307406E+01 -0.81699870125E+01  0.23626326770E+02  0.51100000000E-03 0.  1.
         12    1    4    4    0    0 -0.98153142370E+00 -0.25021529448E+02  0.10118760272E+01  0.25061209726E+02  0.00000000000E+00 0. -1.
</event>
<event>
 8    1  0.1210161E-006  0.9118800E+02  0.7816164E-02  0.1184000E+00
        -11   -1    0    0    0    0  0.00000000000E+00  0.00000000000E+00  0.45593999997E+02  0.45594000000E+02  0.51100000000E-03 0. -1.
         11   -1    0    0    0    0 -0.00000000000E+00 -0.00000000000E+00 -0.45593999997E+02  0.45594000000E+02  0.51100000000E-03 0.  1.
         23    2    1    2    0    0  0.00000000000E+00  0.35527136788E-14  0.35527136788E-14  0.91188000000E+02  0.91188000000E+02 0.  0.
    9900012    2    3    3    0    0 -0.22690628086E+02  0.20947844287E+02  0.20052538398E+02  0.54367067375E+02  0.39999961695E+02 0.  0.
        -12    1    3    3    0    0  0.22690628086E+02 -0.20947844287E+02 -0.20052538398E+02  0.36820932625E+02  0.00000000000E+00 0.  1.
         11    1    4    4    0    0 -0.98020013378E+01  0.80588221243E+01  0.92067076367E+00  0.12722872285E+02  0.51100000000E-03 0. -1.
        -11    1    4    4    0    0  0.43764882296E+01  0.11174773687E+02 -0.40700824284E+01  0.12672599868E+02  0.51100000000E-03 0.  1.
         12    1    4    4    0    0 -0.17265114978E+02  0.17142484757E+01  0.23201950062E+02  0.28971595222E+02  0.00000000000E+00 0. -1.
</event>
<event>
 8    1  0.1210161E-006  0.9118800E+02  0.7816164E-02  0.1184000E+00
        -11   -1    0    0    0    0  0.00000000000E+00  0.00000000000E+00  0.45593999997E+02  0.45594000000E+02  0.51100000000E-03 0.  1.
         11   -1    0    0    0    0 -0.00000000000E+00 -0.00000000000E+00 -0.45593999997E+02  0.45594000000E+02  0.51100000000E-03 0. -1.
         23    2    1    2    0    0  0.00000000000E+00  0.88817841970E-15  0.17763568394E-14  0.91188000000E+02  0.91188000000E+02 0.  0.
    9900012    2    3    3    0    0 -0.33019374117E+02  0.56580854174E+01 -0.15280227970E+02  0.54367104241E+02  0.40000045739E+02 0.  0.
         12    1    3    3    0    0  0.33019374117E+02 -0.56580854174E+01  0.15280227970E+02  0.36820895759E+02  0.00000000000E+00 0. -1.
         11    1    4    4    0    0 -0.18986676977E+02  0.20491196744E+02 -0.59028380417E+01  0.28552172313E+02  0.51100000000E-03 0. -1.
        -11    1    4    4    0    0 -0.87792481405E+01 -0.42782727343E+01  0.13696793458E+01  0.98617867181E+01  0.51100000000E-03 0.  1.
         12    1    4    4    0    0 -0.52534489993E+01 -0.10554838592E+02 -0.10747069275E+02  0.15953145210E+02  0.00000000000E+00 0. -1.
</event>
<event>
 8    1  0.1210161E-006  0.9118800E+02  0.7816164E-02  0.1184000E+00
        -11   -1    0    0    0    0  0.00000000000E+00  0.00000000000E+00  0.45593999997E+02  0.45594000000E+02  0.51100000000E-03 0.  1.
         11   -1    0    0    0    0 -0.00000000000E+00 -0.00000000000E+00 -0.45593999997E+02  0.45594000000E+02  0.51100000000E-03 0. -1.
         23    2    1    2    0    0 -0.44408920985E-15  0.17763568394E-14  0.71054273576E-14  0.91188000000E+02  0.91188000000E+02 0.  0.
    9900012    2    3    3    0    0 -0.19233861017E+01 -0.84404774423E+01  0.35788707333E+02  0.54367181892E+02  0.40000222758E+02 0.  0.
         12    1    3    3    0    0  0.19233861017E+01  0.84404774423E+01 -0.35788707333E+02  0.36820818108E+02  0.00000000000E+00 0. -1.
         11    1    4    4    0    0 -0.60988402733E+00  0.13319099658E+02  0.43547043154E+01  0.14026183521E+02  0.51100000000E-03 0. -1.
        -11    1    4    4    0    0  0.61057377083E-01 -0.53415270364E+00  0.10444877715E+02  0.10458705363E+02  0.51100000000E-03 0.  1.
         12    1    4    4    0    0 -0.13745594515E+01 -0.21225424396E+02  0.20989125303E+02  0.29882293009E+02  0.00000000000E+00 0. -1.
</event>
<event>
 8    1  0.1210161E-006  0.9118800E+02  0.7816164E-02  0.1184000E+00
        -11   -1    0    0    0    0  0.00000000000E+00  0.00000000000E+00  0.45593999997E+02  0.45594000000E+02  0.51100000000E-03 0.  1.
         11   -1    0    0    0    0 -0.00000000000E+00 -0.00000000000E+00 -0.45593999997E+02  0.45594000000E+02  0.51100000000E-03 0. -1.
         23    2    1    2    0    0  0.00000000000E+00  0.00000000000E+00  0.00000000000E+00  0.91188000000E+02  0.91188000000E+02 0.  0.
    9900012    2    3    3    0    0 -0.24531942424E+02 -0.24708126618E+02 -0.11977938876E+02  0.54367099145E+02  0.40000034121E+02 0.  0.
        -12    1    3    3    0    0  0.24531942424E+02  0.24708126618E+02  0.11977938876E+02  0.36820900855E+02  0.00000000000E+00 0.  1.
         11    1    4    4    0    0  0.18314333142E+01 -0.12999528318E+02 -0.82559117043E+01  0.15508125703E+02  0.51100000000E-03 0.  1.
        -11    1    4    4    0    0 -0.19423871417E+02 -0.23706471182E+01 -0.13407700462E+02  0.23720733136E+02  0.51100000000E-03 0. -1.
        -12    1    4    4    0    0 -0.69395043209E+01 -0.93379511815E+01  0.96856732902E+01  0.15138240306E+02  0.00000000000E+00 0.  1.
</event>
<event>
 8    1  0.1210161E-006  0.9118800E+02  0.7816164E-02  0.1184000E+00
        -11   -1    0    0    0    0  0.00000000000E+00  0.00000000000E+00  0.45593999997E+02  0.45594000000E+02  0.51100000000E-03 0. -1.
         11   -1    0    0    0    0 -0.00000000000E+00 -0.00000000000E+00 -0.45593999997E+02  0.45594000000E+02  0.51100000000E-03 0.  1.
         23    2    1    2    0    0  0.00000000000E+00 -0.35527136788E-14  0.00000000000E+00  0.91188000000E+02  0.91188000000E+02 0.  0.
    9900012    2    3    3    0    0  0.23350698117E+02 -0.92268978303E+01  0.26933065752E+02  0.54367071483E+02  0.39999971059E+02 0.  0.
         12    1    3    3    0    0 -0.23350698117E+02  0.92268978303E+01 -0.26933065752E+02  0.36820928517E+02  0.00000000000E+00 0. -1.
         11    1    4    4    0    0 -0.14435677359E+01  0.34213565323E+01  0.91309523265E+00  0.38240438667E+01  0.51100000000E-03 0. -1.
        -11    1    4    4    0    0  0.17103493606E+02  0.95279964721E+01  0.89894647997E+01  0.21543506863E+02  0.51100000000E-03 0.  1.
        -12    1    4    4    0    0  0.76907722462E+01 -0.22176250835E+02  0.17030505719E+02  0.28999520753E+02  0.00000000000E+00 0.  1.
</event>
<event>
 8    1  0.1210161E-006  0.9118800E+02  0.7816164E-02  0.1184000E+00
        -11   -1    0    0    0    0  0.00000000000E+00  0.00000000000E+00  0.45593999997E+02  0.45594000000E+02  0.51100000000E-03 0.  1.
         11   -1    0    0    0    0 -0.00000000000E+00 -0.00000000000E+00 -0.45593999997E+02  0.45594000000E+02  0.51100000000E-03 0. -1.
         23    2    1    2    0    0 -0.88817841970E-15  0.35527136788E-14  0.00000000000E+00  0.91188000000E+02  0.91188000000E+02 0.  0.
    9900012    2    3    3    0    0 -0.40250808895E+01  0.26534774198E+02 -0.25208860984E+02  0.54367052294E+02  0.39999927314E+02 0.  0.
        -12    1    3    3    0    0  0.40250808895E+01 -0.26534774198E+02  0.25208860984E+02  0.36820947706E+02  0.00000000000E+00 0.  1.
         11    1    4    4    0    0  0.78366435245E+01 -0.87641464170E+00  0.30290026303E+01  0.84472446129E+01  0.51100000000E-03 0. -1.
        -11    1    4    4    0    0  0.35757605069E+01 -0.73775571602E+00 -0.54111565166E+01  0.65277072397E+01  0.51100000000E-03 0.  1.
        -12    1    4    4    0    0 -0.15437484921E+02  0.28148944555E+02 -0.22826707097E+02  0.39392100441E+02  0.00000000000E+00 0.  1.
</event>
<event>
 8    1  0.1210161E-006  0.9118800E+02  0.7816164E-02  0.1184000E+00
        -11   -1    0    0    0    0  0.00000000000E+00  0.00000000000E+00  0.45593999997E+02  0.45594000000E+02  0.51100000000E-03 0.  1.
         11   -1    0    0    0    0 -0.00000000000E+00 -0.00000000000E+00 -0.45593999997E+02  0.45594000000E+02  0.51100000000E-03 0. -1.
         23    2    1    2    0    0  0.00000000000E+00  0.35527136788E-14 -0.35527136788E-14  0.91188000000E+02  0.91188000000E+02 0.  0.
    9900012    2    3    3    0    0 -0.92764824331E+01  0.30656723214E+02 -0.18162964578E+02  0.54367067274E+02  0.39999961464E+02 0.  0.
        -12    1    3    3    0    0  0.92764824331E+01 -0.30656723214E+02  0.18162964578E+02  0.36820932726E+02  0.00000000000E+00 0.  1.
         11    1    4    4    0    0 -0.67712640835E+01  0.23083755475E+02 -0.22326937867E+02  0.32820754697E+02  0.51100000000E-03 0. -1.
        -11    1    4    4    0    0 -0.32711780171E+01 -0.54747988649E+01 -0.25306101987E+01  0.68613421770E+01  0.51100000000E-03 0.  1.
         12    1    4    4    0    0  0.76595966746E+00  0.13047766604E+02  0.66945834876E+01  0.14684970400E+02  0.00000000000E+00 0. -1.
</event>
<event>
 8    1  0.1210161E-006  0.9118800E+02  0.7816164E-02  0.1184000E+00
        -11   -1    0    0    0    0  0.00000000000E+00  0.00000000000E+00  0.45593999997E+02  0.45594000000E+02  0.51100000000E-03 0.  1.
         11   -1    0    0    0    0 -0.00000000000E+00 -0.00000000000E+00 -0.45593999997E+02  0.45594000000E+02  0.51100000000E-03 0. -1.
         23    2    1    2    0    0 -0.88817841970E-15  0.00000000000E+00 -0.35527136788E-14  0.91188000000E+02  0.91188000000E+02 0.  0.
    9900012    2    3    3    0    0  0.79639280058E+01 -0.20750687511E+02 -0.29355829631E+02  0.54367083189E+02  0.39999997747E+02 0.  0.
        -12    1    3    3    0    0 -0.79639280058E+01  0.20750687511E+02  0.29355829631E+02  0.36820916811E+02  0.00000000000E+00 0.  1.
         11    1    4    4    0    0 -0.11020870232E+02 -0.59128106525E+00 -0.17245202492E+02  0.20474525714E+02  0.51100000000E-03 0. -1.
        -11    1    4    4    0    0  0.13192401833E+02 -0.21632503105E+02 -0.11679945133E+02  0.27900282710E+02  0.51100000000E-03 0.  1.
        -12    1    4    4    0    0  0.57923964050E+01  0.14730966590E+01 -0.43068200618E+00  0.59922747659E+01  0.00000000000E+00 0.  1.
</event>
<event>
 8    1  0.1210161E-006  0.9118800E+02  0.7816164E-02  0.1184000E+00
        -11   -1    0    0    0    0  0.00000000000E+00  0.00000000000E+00  0.45593999997E+02  0.45594000000E+02  0.51100000000E-03 0.  1.
         11   -1    0    0    0    0 -0.00000000000E+00 -0.00000000000E+00 -0.45593999997E+02  0.45594000000E+02  0.51100000000E-03 0. -1.
         23    2    1    2    0    0 -0.35527136788E-14  0.00000000000E+00  0.17763568394E-14  0.91188000000E+02  0.91188000000E+02 0.  0.
    9900012    2    3    3    0    0  0.17250434023E+02  0.30515296735E+02 -0.11270272718E+02  0.54367083988E+02  0.39999999568E+02 0.  0.
        -12    1    3    3    0    0 -0.17250434023E+02 -0.30515296735E+02  0.11270272718E+02  0.36820916012E+02  0.00000000000E+00 0.  1.
         11    1    4    4    0    0 -0.44354848473E+01  0.11749943644E+02 -0.72985701874E+01  0.14525970828E+02  0.51100000000E-03 0. -1.
        -11    1    4    4    0    0 -0.25207258369E+01  0.43319452537E+01  0.78219491347E+01  0.92899244858E+01  0.51100000000E-03 0.  1.
        -12    1    4    4    0    0  0.24206644708E+02  0.14433407837E+02 -0.11793651666E+02  0.30551188674E+02  0.00000000000E+00 0.  1.
</event>
<event>
 8    1  0.1210161E-006  0.9118800E+02  0.7816164E-02  0.1184000E+00
        -11   -1    0    0    0    0  0.00000000000E+00  0.00000000000E+00  0.45593999997E+02  0.45594000000E+02  0.51100000000E-03 0.  1.
         11   -1    0    0    0    0 -0.00000000000E+00 -0.00000000000E+00 -0.45593999997E+02  0.45594000000E+02  0.51100000000E-03 0. -1.
         23    2    1    2    0    0  0.00000000000E+00  0.13322676296E-14 -0.35527136788E-14  0.91188000000E+02  0.91188000000E+02 0.  0.
    9900012    2    3    3    0    0 -0.18462912776E+02  0.26030731157E+01 -0.31750967796E+02  0.54367094337E+02  0.40000023161E+02 0.  0.
        -12    1    3    3    0    0  0.18462912776E+02 -0.26030731157E+01  0.31750967796E+02  0.36820905663E+02  0.00000000000E+00 0.  1.
         11    1    4    4    0    0 -0.76211624456E+00 -0.33880483521E-01 -0.17558280547E+02  0.17574845237E+02  0.51100000000E-03 0. -1.
        -11    1    4    4    0    0  0.41189817668E+01 -0.84685809412E+01 -0.47906446884E+01  0.10565659030E+02  0.51100000000E-03 0.  1.
         12    1    4    4    0    0 -0.21819778298E+02  0.11105534540E+02 -0.94020425603E+01  0.26226590070E+02  0.00000000000E+00 0. -1.
</event>
<event>
 8    1  0.1210161E-006  0.9118800E+02  0.7816164E-02  0.1184000E+00
        -11   -1    0    0    0    0  0.00000000000E+00  0.00000000000E+00  0.45593999997E+02  0.45594000000E+02  0.51100000000E-03 0. -1.
         11   -1    0    0    0    0 -0.00000000000E+00 -0.00000000000E+00 -0.45593999997E+02  0.45594000000E+02  0.51100000000E-03 0.  1.
         23    2    1    2    0    0 -0.71054273576E-14  0.17763568394E-14  0.00000000000E+00  0.91188000000E+02  0.91188000000E+02 0.  0.
    9900012    2    3    3    0    0  0.35205118264E+02 -0.87980470806E+01 -0.62428786918E+01  0.54367088566E+02  0.40000010005E+02 0.  0.
        -12    1    3    3    0    0 -0.35205118264E+02  0.87980470806E+01  0.62428786918E+01  0.36820911434E+02  0.00000000000E+00 0.  1.
         11    1    4    4    0    0 -0.17105445420E+01  0.30243255598E+01 -0.96111543510E+01  0.10219921523E+02  0.51100000000E-03 0. -1.
        -11    1    4    4    0    0  0.17206912534E+02 -0.24583622911E+01 -0.84557582133E+01  0.19329284294E+02  0.51100000000E-03 0.  1.
         12    1    4    4    0    0  0.19708750272E+02 -0.93640103494E+01  0.11824033873E+02  0.24817882749E+02  0.00000000000E+00 0. -1.
</event>
<event>
 8    1  0.1210161E-006  0.9118800E+02  0.7816164E-02  0.1184000E+00
        -11   -1    0    0    0    0  0.00000000000E+00  0.00000000000E+00  0.45593999997E+02  0.45594000000E+02  0.51100000000E-03 0.  1.
         11   -1    0    0    0    0 -0.00000000000E+00 -0.00000000000E+00 -0.45593999997E+02  0.45594000000E+02  0.51100000000E-03 0. -1.
         23    2    1    2    0    0  0.00000000000E+00 -0.17763568394E-14 -0.88817841970E-15  0.91188000000E+02  0.91188000000E+02 0.  0.
    9900012    2    3    3    0    0 -0.33599792571E+02  0.13235983969E+02  0.71862139150E+01  0.54367095572E+02  0.40000025976E+02 0.  0.
         12    1    3    3    0    0  0.33599792571E+02 -0.13235983969E+02 -0.71862139150E+01  0.36820904428E+02  0.00000000000E+00 0. -1.
         11    1    4    4    0    0 -0.18832884499E+02  0.18860435094E+02  0.79431907321E+01  0.27811649174E+02  0.51100000000E-03 0. -1.
        -11    1    4    4    0    0  0.15282778534E+01  0.60336164268E+01  0.14717973640E+01  0.63958070738E+01  0.51100000000E-03 0.  1.
         12    1    4    4    0    0 -0.16295185925E+02 -0.11658067551E+02 -0.22287741810E+01  0.20159639325E+02  0.00000000000E+00 0. -1.
</event>
<event>
 8    1  0.1210161E-006  0.9118800E+02  0.7816164E-02  0.1184000E+00
        -11   -1    0    0    0    0  0.00000000000E+00  0.00000000000E+00  0.45593999997E+02  0.45594000000E+02  0.51100000000E-03 0.  1.
         11   -1    0    0    0    0 -0.00000000000E+00 -0.00000000000E+00 -0.45593999997E+02  0.45594000000E+02  0.51100000000E-03 0. -1.
         23    2    1    2    0    0 -0.35527136788E-14  0.88817841970E-15 -0.35527136788E-14  0.91188000000E+02  0.91188000000E+02 0.  0.
    9900012    2    3    3    0    0 -0.29531518454E+02  0.61601926332E+01 -0.21112085100E+02  0.54367099784E+02  0.40000035577E+02 0.  0.
        -12    1    3    3    0    0  0.29531518454E+02 -0.61601926332E+01  0.21112085100E+02  0.36820900216E+02  0.00000000000E+00 0.  1.
         11    1    4    4    0    0 -0.75865020283E+01 -0.63648691372E+01 -0.20826396451E+01  0.10119484192E+02  0.51100000000E-03 0. -1.
        -11    1    4    4    0    0  0.73649254510E+01  0.33463491737E+01 -0.86118342648E+01  0.11815408133E+02  0.51100000000E-03 0.  1.
         12    1    4    4    0    0 -0.29309941876E+02  0.91787125967E+01 -0.10417611190E+02  0.32432207459E+02  0.00000000000E+00 0. -1.
</event>
<event>
 8    1  0.1210161E-006  0.9118800E+02  0.7816164E-02  0.1184000E+00
        -11   -1    0    0    0    0  0.00000000000E+00  0.00000000000E+00  0.45593999997E+02  0.45594000000E+02  0.51100000000E-03 0.  1.
         11   -1    0    0    0    0 -0.00000000000E+00 -0.00000000000E+00 -0.45593999997E+02  0.45594000000E+02  0.51100000000E-03 0. -1.
         23    2    1    2    0    0  0.35527136788E-14  0.00000000000E+00  0.00000000000E+00  0.91188000000E+02  0.91188000000E+02 0.  0.
    9900012    2    3    3    0    0 -0.28449649766E+02  0.20181094763E+02 -0.11794960747E+02  0.54367078547E+02  0.39999987163E+02 0.  0.
        -12    1    3    3    0    0  0.28449649766E+02 -0.20181094763E+02  0.11794960747E+02  0.36820921453E+02  0.00000000000E+00 0.  1.
         11    1    4    4    0    0 -0.17149219324E+02  0.22541820372E+02 -0.20879840901E+02  0.35188025597E+02  0.51100000000E-03 0. -1.
        -11    1    4    4    0    0 -0.11465514182E+02  0.27384307097E+01  0.62434137219E+01  0.13339311578E+02  0.51100000000E-03 0.  1.
         12    1    4    4    0    0  0.16508374000E+00 -0.50991563188E+01  0.28414664316E+01  0.58397413715E+01  0.00000000000E+00 0. -1.
</event>
<event>
 8    1  0.1210161E-006  0.9118800E+02  0.7816164E-02  0.1184000E+00
        -11   -1    0    0    0    0  0.00000000000E+00  0.00000000000E+00  0.45593999997E+02  0.45594000000E+02  0.51100000000E-03 0.  1.
         11   -1    0    0    0    0 -0.00000000000E+00 -0.00000000000E+00 -0.45593999997E+02  0.45594000000E+02  0.51100000000E-03 0. -1.
         23    2    1    2    0    0  0.35527136788E-14  0.35527136788E-14  0.00000000000E+00  0.91188000000E+02  0.91188000000E+02 0.  0.
    9900012    2    3    3    0    0  0.22998490422E+02 -0.27208050849E+02  0.93043962238E+01  0.54367076848E+02  0.39999983291E+02 0.  0.
        -12    1    3    3    0    0 -0.22998490422E+02  0.27208050849E+02 -0.93043962238E+01  0.36820923152E+02  0.00000000000E+00 0.  1.
         11    1    4    4    0    0  0.18276230234E+01  0.43770264165E+00  0.56179478712E+01  0.59239453123E+01  0.51100000000E-03 0.  1.
        -11    1    4    4    0    0  0.79874554160E+00 -0.78083040907E+01 -0.13210703200E+02  0.15366531375E+02  0.51100000000E-03 0. -1.
         12    1    4    4    0    0  0.20372121857E+02 -0.19837449400E+02  0.16897151552E+02  0.33076600161E+02  0.00000000000E+00 0. -1.
</event>
<event>
 8    1  0.1210161E-006  0.9118800E+02  0.7816164E-02  0.1184000E+00
        -11   -1    0    0    0    0  0.00000000000E+00  0.00000000000E+00  0.45593999997E+02  0.45594000000E+02  0.51100000000E-03 0.  1.
         11   -1    0    0    0    0 -0.00000000000E+00 -0.00000000000E+00 -0.45593999997E+02  0.45594000000E+02  0.51100000000E-03 0. -1.
         23    2    1    2    0    0  0.00000000000E+00  0.00000000000E+00  0.00000000000E+00  0.91188000000E+02  0.91188000000E+02 0.  0.
    9900012    2    3    3    0    0  0.13606407101E+02  0.32732081876E+02 -0.99628442542E+01  0.54367058082E+02  0.39999940508E+02 0.  0.
         12    1    3    3    0    0 -0.13606407101E+02 -0.32732081876E+02  0.99628442542E+01  0.36820941918E+02  0.00000000000E+00 0. -1.
         11    1    4    4    0    0  0.95355466482E+00  0.90646128826E+00 -0.39818734148E+01  0.41935968712E+01  0.51100000000E-03 0. -1.
        -11    1    4    4    0    0  0.12372287482E+02  0.35427353672E+02 -0.15034836350E+02  0.40425452255E+02  0.51100000000E-03 0.  1.
        -12    1    4    4    0    0  0.28056495498E+00 -0.36017330845E+01  0.90538655103E+01  0.97480089549E+01  0.00000000000E+00 0.  1.
</event>
<event>
 8    1  0.1210161E-006  0.9118800E+02  0.7816164E-02  0.1184000E+00
        -11   -1    0    0    0    0  0.00000000000E+00  0.00000000000E+00  0.45593999997E+02  0.45594000000E+02  0.51100000000E-03 0. -1.
         11   -1    0    0    0    0 -0.00000000000E+00 -0.00000000000E+00 -0.45593999997E+02  0.45594000000E+02  0.51100000000E-03 0.  1.
         23    2    1    2    0    0  0.88817841970E-15  0.17763568394E-14 -0.71054273576E-14  0.91188000000E+02  0.91188000000E+02 0.  0.
    9900012    2    3    3    0    0  0.45758195206E+01 -0.92865031226E+01  0.35335597491E+02  0.54367058749E+02  0.39999942031E+02 0.  0.
        -12    1    3    3    0    0 -0.45758195206E+01  0.92865031226E+01 -0.35335597491E+02  0.36820941251E+02  0.00000000000E+00 0.  1.
         11    1    4    4    0    0  0.90695191499E+01  0.13727828892E+02  0.12820487664E+02  0.20858436372E+02  0.51100000000E-03 0.  1.
        -11    1    4    4    0    0 -0.31555587904E+01 -0.22952277695E+02  0.19780887555E+02  0.30463882145E+02  0.51100000000E-03 0. -1.
         12    1    4    4    0    0 -0.13381408389E+01 -0.62054319658E-01  0.27342222724E+01  0.30447402317E+01  0.00000000000E+00 0. -1.
</event>
<event>
 8    1  0.1210161E-006  0.9118800E+02  0.7816164E-02  0.1184000E+00
        -11   -1    0    0    0    0  0.00000000000E+00  0.00000000000E+00  0.45593999997E+02  0.45594000000E+02  0.51100000000E-03 0. -1.
         11   -1    0    0    0    0 -0.00000000000E+00 -0.00000000000E+00 -0.45593999997E+02  0.45594000000E+02  0.51100000000E-03 0.  1.
         23    2    1    2    0    0 -0.35527136788E-14  0.00000000000E+00  0.00000000000E+00  0.91188000000E+02  0.91188000000E+02 0.  0.
    9900012    2    3    3    0    0 -0.20959844042E+02  0.22187386058E+02  0.20595733208E+02  0.54367090333E+02  0.40000014031E+02 0.  0.
        -12    1    3    3    0    0  0.20959844042E+02 -0.22187386058E+02 -0.20595733208E+02  0.36820909667E+02  0.00000000000E+00 0.  1.
         11    1    4    4    0    0 -0.18476055781E+02  0.14635457274E+02  0.25752079501E+02  0.34910325775E+02  0.51100000000E-03 0. -1.
        -11    1    4    4    0    0 -0.15491575346E+01  0.11372678023E+02 -0.85094985274E+01  0.14288081044E+02  0.51100000000E-03 0.  1.
        -12    1    4    4    0    0 -0.93463072619E+00 -0.38207492395E+01  0.33531522351E+01  0.51686835130E+01  0.00000000000E+00 0.  1.
</event>
<event>
 8    1  0.1210161E-006  0.9118800E+02  0.7816164E-02  0.1184000E+00
        -11   -1    0    0    0    0  0.00000000000E+00  0.00000000000E+00  0.45593999997E+02  0.45594000000E+02  0.51100000000E-03 0.  1.
         11   -1    0    0    0    0 -0.00000000000E+00 -0.00000000000E+00 -0.45593999997E+02  0.45594000000E+02  0.51100000000E-03 0. -1.
         23    2    1    2    0    0  0.00000000000E+00  0.00000000000E+00 -0.35527136788E-14  0.91188000000E+02  0.91188000000E+02 0.  0.
    9900012    2    3    3    0    0  0.17647081776E+02 -0.71432738961E+01  0.31517199426E+02  0.54367085878E+02  0.40000003875E+02 0.  0.
         12    1    3    3    0    0 -0.17647081776E+02  0.71432738961E+01 -0.31517199426E+02  0.36820914122E+02  0.00000000000E+00 0. -1.
         11    1    4    4    0    0 -0.13989419787E+01 -0.30604871050E+00 -0.67243438733E+01  0.68751367449E+01  0.51100000000E-03 0. -1.
        -11    1    4    4    0    0  0.15911804161E+02 -0.75268967637E+01  0.12592209329E+02  0.21642629752E+02  0.51100000000E-03 0.  1.
        -12    1    4    4    0    0  0.31342195939E+01  0.68967157812E+00  0.25649333970E+02  0.25849319381E+02  0.00000000000E+00 0.  1.
</event>
<event>
 8    1  0.1210161E-006  0.9118800E+02  0.7816164E-02  0.1184000E+00
        -11   -1    0    0    0    0  0.00000000000E+00  0.00000000000E+00  0.45593999997E+02  0.45594000000E+02  0.51100000000E-03 0.  1.
         11   -1    0    0    0    0 -0.00000000000E+00 -0.00000000000E+00 -0.45593999997E+02  0.45594000000E+02  0.51100000000E-03 0. -1.
         23    2    1    2    0    0  0.00000000000E+00  0.00000000000E+00  0.00000000000E+00  0.91188000000E+02  0.91188000000E+02 0.  0.
    9900012    2    3    3    0    0 -0.34113602067E+02  0.89439001259E+01 -0.10585297819E+02  0.54367085761E+02  0.40000003610E+02 0.  0.
        -12    1    3    3    0    0  0.34113602067E+02 -0.89439001259E+01  0.10585297819E+02  0.36820914239E+02  0.00000000000E+00 0.  1.
         11    1    4    4    0    0 -0.47174381335E+01  0.77326649308E+01 -0.11706358030E+02  0.14801592754E+02  0.51100000000E-03 0. -1.
        -11    1    4    4    0    0 -0.28693855646E+02  0.10098049479E+02 -0.87004556393E+00  0.30431315033E+02  0.51100000000E-03 0.  1.
        -12    1    4    4    0    0 -0.70230828782E+00 -0.88868142840E+01  0.19911057754E+01  0.91341779739E+01  0.00000000000E+00 0.  1.
</event>
<event>
 8    1  0.1210161E-006  0.9118800E+02  0.7816164E-02  0.1184000E+00
        -11   -1    0    0    0    0  0.00000000000E+00  0.00000000000E+00  0.45593999997E+02  0.45594000000E+02  0.51100000000E-03 0.  1.
         11   -1    0    0    0    0 -0.00000000000E+00 -0.00000000000E+00 -0.45593999997E+02  0.45594000000E+02  0.51100000000E-03 0. -1.
         23    2    1    2    0    0  0.27755575616E-15  0.00000000000E+00  0.71054273576E-14  0.91188000000E+02  0.91188000000E+02 0.  0.
    9900012    2    3    3    0    0 -0.41826282156E+00 -0.35007112912E+01 -0.36651730826E+02  0.54367091593E+02  0.40000016905E+02 0.  0.
        -12    1    3    3    0    0  0.41826282156E+00  0.35007112912E+01  0.36651730826E+02  0.36820908407E+02  0.00000000000E+00 0.  1.
         11    1    4    4    0    0 -0.16327737335E+01 -0.60681061086E+00 -0.31036237503E+02  0.31085080148E+02  0.51100000000E-03 0. -1.
        -11    1    4    4    0    0  0.12132359232E+01 -0.12607962501E+02 -0.15850119907E+01  0.12764988175E+02  0.51100000000E-03 0.  1.
         12    1    4    4    0    0  0.12749887944E-02  0.97140618212E+01 -0.40304813323E+01  0.10517023270E+02  0.00000000000E+00 0. -1.
</event>
<event>
 8    1  0.1210161E-006  0.9118800E+02  0.7816164E-02  0.1184000E+00
        -11   -1    0    0    0    0  0.00000000000E+00  0.00000000000E+00  0.45593999997E+02  0.45594000000E+02  0.51100000000E-03 0.  1.
         11   -1    0    0    0    0 -0.00000000000E+00 -0.00000000000E+00 -0.45593999997E+02  0.45594000000E+02  0.51100000000E-03 0. -1.
         23    2    1    2    0    0  0.17763568394E-14  0.00000000000E+00  0.00000000000E+00  0.91188000000E+02  0.91188000000E+02 0.  0.
    9900012    2    3    3    0    0  0.54884634944E+01  0.17153599768E+02 -0.32115603094E+02  0.54367066027E+02  0.39999958621E+02 0.  0.
        -12    1    3    3    0    0 -0.54884634944E+01 -0.17153599768E+02  0.32115603094E+02  0.36820933973E+02  0.00000000000E+00 0.  1.
         11    1    4    4    0    0  0.15572357006E+02 -0.39667989685E+01 -0.50189856258E+01  0.16835201625E+02  0.51100000000E-03 0. -1.
        -11    1    4    4    0    0  0.16019131782E+01  0.38577980874E+00 -0.41742738359E+01  0.44877070102E+01  0.51100000000E-03 0.  1.
        -12    1    4    4    0    0 -0.11685806690E+02  0.20734618928E+02 -0.22922343633E+02  0.33044157391E+02  0.00000000000E+00 0.  1.
</event>
<event>
 8    1  0.1210161E-006  0.9118800E+02  0.7816164E-02  0.1184000E+00
        -11   -1    0    0    0    0  0.00000000000E+00  0.00000000000E+00  0.45593999997E+02  0.45594000000E+02  0.51100000000E-03 0. -1.
         11   -1    0    0    0    0 -0.00000000000E+00 -0.00000000000E+00 -0.45593999997E+02  0.45594000000E+02  0.51100000000E-03 0.  1.
         23    2    1    2    0    0  0.00000000000E+00  0.00000000000E+00  0.71054273576E-14  0.91188000000E+02  0.91188000000E+02 0.  0.
    9900012    2    3    3    0    0 -0.15110242501E+02  0.33788482555E+01 -0.33407248224E+02  0.54367078259E+02  0.39999986506E+02 0.  0.
         12    1    3    3    0    0  0.15110242501E+02 -0.33788482555E+01  0.33407248224E+02  0.36820921741E+02  0.00000000000E+00 0. -1.
         11    1    4    4    0    0  0.19853423265E+00  0.24201262020E+01 -0.25030743173E+02  0.25148251047E+02  0.51100000000E-03 0. -1.
        -11    1    4    4    0    0 -0.14620381867E+02  0.31217235417E+01 -0.15623932686E+02  0.21624245574E+02  0.51100000000E-03 0.  1.
         12    1    4    4    0    0 -0.68839486689E+00 -0.21630014882E+01  0.72474276349E+01  0.75945816378E+01  0.00000000000E+00 0. -1.
</event>
<event>
 8    1  0.1210161E-006  0.9118800E+02  0.7816164E-02  0.1184000E+00
        -11   -1    0    0    0    0  0.00000000000E+00  0.00000000000E+00  0.45593999997E+02  0.45594000000E+02  0.51100000000E-03 0. -1.
         11   -1    0    0    0    0 -0.00000000000E+00 -0.00000000000E+00 -0.45593999997E+02  0.45594000000E+02  0.51100000000E-03 0.  1.
         23    2    1    2    0    0  0.00000000000E+00  0.00000000000E+00  0.00000000000E+00  0.91188000000E+02  0.91188000000E+02 0.  0.
    9900012    2    3    3    0    0 -0.33144889409E+02  0.14853853814E+02  0.60464016737E+01  0.54367086917E+02  0.40000006245E+02 0.  0.
        -12    1    3    3    0    0  0.33144889409E+02 -0.14853853814E+02 -0.60464016737E+01  0.36820913083E+02  0.00000000000E+00 0.  1.
         11    1    4    4    0    0  0.30601268327E+01 -0.88226744109E+00  0.35800629800E+01  0.47916201093E+01  0.51100000000E-03 0.  1.
        -11    1    4    4    0    0 -0.85811604079E-01  0.21783835661E+01  0.10027370800E+02  0.10261621900E+02  0.51100000000E-03 0. -1.
        -12    1    4    4    0    0 -0.36119204638E+02  0.13557737689E+02 -0.75610321067E+01  0.39313844908E+02  0.00000000000E+00 0.  1.
</event>
<event>
 8    1  0.1210161E-006  0.9118800E+02  0.7816164E-02  0.1184000E+00
        -11   -1    0    0    0    0  0.00000000000E+00  0.00000000000E+00  0.45593999997E+02  0.45594000000E+02  0.51100000000E-03 0. -1.
         11   -1    0    0    0    0 -0.00000000000E+00 -0.00000000000E+00 -0.45593999997E+02  0.45594000000E+02  0.51100000000E-03 0.  1.
         23    2    1    2    0    0  0.00000000000E+00 -0.44408920985E-15  0.00000000000E+00  0.91188000000E+02  0.91188000000E+02 0.  0.
    9900012    2    3    3    0    0  0.23032369042E+02  0.12672044281E+01 -0.28699928362E+02  0.54367058693E+02  0.39999941902E+02 0.  0.
         12    1    3    3    0    0 -0.23032369042E+02 -0.12672044281E+01  0.28699928362E+02  0.36820941307E+02  0.00000000000E+00 0. -1.
         11    1    4    4    0    0  0.73233794825E+01  0.13900864233E+01  0.12128340104E+01  0.75521648490E+01  0.51100000000E-03 0. -1.
        -11    1    4    4    0    0  0.24504887049E+02  0.42445043224E+01 -0.26685600284E+02  0.36477754440E+02  0.51100000000E-03 0.  1.
         12    1    4    4    0    0 -0.87958974899E+01 -0.43673863177E+01 -0.32271620886E+01  0.10337139403E+02  0.00000000000E+00 0. -1.
</event>
<event>
 8    1  0.1210161E-006  0.9118800E+02  0.7816164E-02  0.1184000E+00
        -11   -1    0    0    0    0  0.00000000000E+00  0.00000000000E+00  0.45593999997E+02  0.45594000000E+02  0.51100000000E-03 0.  1.
         11   -1    0    0    0    0 -0.00000000000E+00 -0.00000000000E+00 -0.45593999997E+02  0.45594000000E+02  0.51100000000E-03 0. -1.
         23    2    1    2    0    0  0.00000000000E+00  0.00000000000E+00  0.17763568394E-14  0.91188000000E+02  0.91188000000E+02 0.  0.
    9900012    2    3    3    0    0 -0.17247054640E+02  0.30816313290E+02  0.10424583667E+02  0.54367109147E+02  0.40000056923E+02 0.  0.
        -12    1    3    3    0    0  0.17247054640E+02 -0.30816313290E+02 -0.10424583667E+02  0.36820890853E+02  0.00000000000E+00 0.  1.
         11    1    4    4    0    0  0.10610640488E+01  0.29155224277E+02  0.11929149145E+02  0.31519161778E+02  0.51100000000E-03 0.  1.
        -11    1    4    4    0    0 -0.12013878371E+02  0.69755439081E+01 -0.35936297726E+01  0.14349413282E+02  0.51100000000E-03 0. -1.
        -12    1    4    4    0    0 -0.62942403180E+01 -0.53144548954E+01  0.20890642947E+01  0.84985340879E+01  0.00000000000E+00 0.  1.
</event>
<event>
 8    1  0.1210161E-006  0.9118800E+02  0.7816164E-02  0.1184000E+00
        -11   -1    0    0    0    0  0.00000000000E+00  0.00000000000E+00  0.45593999997E+02  0.45594000000E+02  0.51100000000E-03 0.  1.
         11   -1    0    0    0    0 -0.00000000000E+00 -0.00000000000E+00 -0.45593999997E+02  0.45594000000E+02  0.51100000000E-03 0. -1.
         23    2    1    2    0    0 -0.44408920985E-15  0.71054273576E-14  0.35527136788E-14  0.91188000000E+02  0.91188000000E+02 0.  0.
    9900012    2    3    3    0    0 -0.12293886982E+01  0.32627766963E+02  0.17020492971E+02  0.54367085365E+02  0.40000002706E+02 0.  0.
         12    1    3    3    0    0  0.12293886982E+01 -0.32627766963E+02 -0.17020492971E+02  0.36820914635E+02  0.00000000000E+00 0. -1.
         11    1    4    4    0    0  0.90603627130E+00  0.94798174463E+01  0.84982805068E+01  0.12763565817E+02  0.51100000000E-03 0.  1.
        -11    1    4    4    0    0 -0.44919651034E+01  0.17484981424E+02  0.21004013541E+02  0.27696045042E+02  0.51100000000E-03 0. -1.
         12    1    4    4    0    0  0.23565401339E+01  0.56629680927E+01 -0.12481801076E+02  0.13907474505E+02  0.00000000000E+00 0. -1.
</event>
<event>
 8    1  0.1210161E-006  0.9118800E+02  0.7816164E-02  0.1184000E+00
        -11   -1    0    0    0    0  0.00000000000E+00  0.00000000000E+00  0.45593999997E+02  0.45594000000E+02  0.51100000000E-03 0.  1.
         11   -1    0    0    0    0 -0.00000000000E+00 -0.00000000000E+00 -0.45593999997E+02  0.45594000000E+02  0.51100000000E-03 0. -1.
         23    2    1    2    0    0 -0.35527136788E-14  0.35527136788E-14  0.00000000000E+00  0.91188000000E+02  0.91188000000E+02 0.  0.
    9900012    2    3    3    0    0  0.19567076122E+02  0.23382025900E+02  0.20644361768E+02  0.54367091864E+02  0.40000017523E+02 0.  0.
         12    1    3    3    0    0 -0.19567076122E+02 -0.23382025900E+02 -0.20644361768E+02  0.36820908136E+02  0.00000000000E+00 0. -1.
         11    1    4    4    0    0  0.43238808505E+01  0.12200836432E+02  0.64871998599E+01  0.14478954297E+02  0.51100000000E-03 0. -1.
        -11    1    4    4    0    0  0.51675948808E+01  0.21746759747E+02  0.59110397854E+01  0.23120683121E+02  0.51100000000E-03 0.  1.
         12    1    4    4    0    0  0.10075600391E+02 -0.10565570279E+02  0.82461221227E+01  0.16767454447E+02  0.00000000000E+00 0. -1.
</event>
<event>
 8    1  0.1210161E-006  0.9118800E+02  0.7816164E-02  0.1184000E+00
        -11   -1    0    0    0    0  0.00000000000E+00  0.00000000000E+00  0.45593999997E+02  0.45594000000E+02  0.51100000000E-03 0.  1.
         11   -1    0    0    0    0 -0.00000000000E+00 -0.00000000000E+00 -0.45593999997E+02  0.45594000000E+02  0.51100000000E-03 0. -1.
         23    2    1    2    0    0  0.00000000000E+00 -0.35527136788E-14  0.00000000000E+00  0.91188000000E+02  0.91188000000E+02 0.  0.
    9900012    2    3    3    0    0 -0.16111160666E+02  0.18434667569E+02  0.27502221285E+02  0.54367100473E+02  0.40000037149E+02 0.  0.
         12    1    3    3    0    0  0.16111160666E+02 -0.18434667569E+02 -0.27502221285E+02  0.36820899527E+02  0.00000000000E+00 0. -1.
         11    1    4    4    0    0 -0.17814954880E+01  0.15135278768E+02 -0.52621499566E+01  0.16122673847E+02  0.51100000000E-03 0. -1.
        -11    1    4    4    0    0 -0.76200970146E+01 -0.49427293847E+01  0.14336159980E+02  0.16971209017E+02  0.51100000000E-03 0.  1.
        -12    1    4    4    0    0 -0.67095681631E+01  0.82421181855E+01  0.18428211262E+02  0.21273217609E+02  0.00000000000E+00 0.  1.
</event>
<event>
 8    1  0.1210161E-006  0.9118800E+02  0.7816164E-02  0.1184000E+00
        -11   -1    0    0    0    0  0.00000000000E+00  0.00000000000E+00  0.45593999997E+02  0.45594000000E+02  0.51100000000E-03 0. -1.
         11   -1    0    0    0    0 -0.00000000000E+00 -0.00000000000E+00 -0.45593999997E+02  0.45594000000E+02  0.51100000000E-03 0.  1.
         23    2    1    2    0    0  0.00000000000E+00  0.88817841970E-15  0.00000000000E+00  0.91188000000E+02  0.91188000000E+02 0.  0.
    9900012    2    3    3    0    0  0.15970828967E+02 -0.49724628239E+01 -0.32802251553E+02  0.54367075632E+02  0.39999980517E+02 0.  0.
         12    1    3    3    0    0 -0.15970828967E+02  0.49724628239E+01  0.32802251553E+02  0.36820924368E+02  0.00000000000E+00 0. -1.
         11    1    4    4    0    0  0.78413764697E+01 -0.13992555169E+01 -0.23863902965E+01  0.83150441881E+01  0.51100000000E-03 0. -1.
        -11    1    4    4    0    0  0.25513278671E+01  0.14489464350E+02 -0.18768321417E+02  0.23847510145E+02  0.51100000000E-03 0.  1.
        -12    1    4    4    0    0  0.55781246303E+01 -0.18062671657E+02 -0.11647539839E+02  0.22204521298E+02  0.00000000000E+00 0.  1.
</event>
<event>
 8    1  0.1210161E-006  0.9118800E+02  0.7816164E-02  0.1184000E+00
        -11   -1    0    0    0    0  0.00000000000E+00  0.00000000000E+00  0.45593999997E+02  0.45594000000E+02  0.51100000000E-03 0.  1.
         11   -1    0    0    0    0 -0.00000000000E+00 -0.00000000000E+00 -0.45593999997E+02  0.45594000000E+02  0.51100000000E-03 0. -1.
         23    2    1    2    0    0  0.00000000000E+00  0.00000000000E+00  0.00000000000E+00  0.91188000000E+02  0.91188000000E+02 0.  0.
    9900012    2    3    3    0    0 -0.12666414024E+02  0.93140952165E+01  0.33295487550E+02  0.54367083320E+02  0.39999998045E+02 0.  0.
         12    1    3    3    0    0  0.12666414024E+02 -0.93140952165E+01 -0.33295487550E+02  0.36820916680E+02  0.00000000000E+00 0. -1.
         11    1    4    4    0    0 -0.52220220333E+01  0.11290399067E+02  0.68979191698E+01  0.14224061106E+02  0.51100000000E-03 0. -1.
        -11    1    4    4    0    0  0.11326202764E+02 -0.16454682345E+01  0.92234424750E+01  0.14699058682E+02  0.51100000000E-03 0.  1.
         12    1    4    4    0    0 -0.18770594755E+02 -0.33083561585E+00  0.17174125905E+02  0.25443963533E+02  0.00000000000E+00 0. -1.
</event>
<event>
 8    1  0.1210161E-006  0.9118800E+02  0.7816164E-02  0.1184000E+00
        -11   -1    0    0    0    0  0.00000000000E+00  0.00000000000E+00  0.45593999997E+02  0.45594000000E+02  0.51100000000E-03 0.  1.
         11   -1    0    0    0    0 -0.00000000000E+00 -0.00000000000E+00 -0.45593999997E+02  0.45594000000E+02  0.51100000000E-03 0. -1.
         23    2    1    2    0    0  0.00000000000E+00  0.00000000000E+00  0.35527136788E-14  0.91188000000E+02  0.91188000000E+02 0.  0.
    9900012    2    3    3    0    0 -0.23641743697E+02  0.87004688719E+01 -0.26854188872E+02  0.54367113758E+02  0.40000067435E+02 0.  0.
         12    1    3    3    0    0  0.23641743697E+02 -0.87004688719E+01  0.26854188872E+02  0.36820886242E+02  0.00000000000E+00 0. -1.
         11    1    4    4    0    0  0.18918117465E+01  0.91517607783E+01  0.14258558050E+00  0.93463366051E+01  0.51100000000E-03 0. -1.
        -11    1    4    4    0    0  0.20916804730E+01  0.67919015708E+01 -0.81015919330E+01  0.10776866254E+02  0.51100000000E-03 0.  1.
        -12    1    4    4    0    0 -0.27625235917E+02 -0.72431934772E+01 -0.18895182520E+02  0.34243910899E+02  0.00000000000E+00 0.  1.
</event>
<event>
 8    1  0.1210161E-006  0.9118800E+02  0.7816164E-02  0.1184000E+00
        -11   -1    0    0    0    0  0.00000000000E+00  0.00000000000E+00  0.45593999997E+02  0.45594000000E+02  0.51100000000E-03 0.  1.
         11   -1    0    0    0    0 -0.00000000000E+00 -0.00000000000E+00 -0.45593999997E+02  0.45594000000E+02  0.51100000000E-03 0. -1.
         23    2    1    2    0    0  0.00000000000E+00  0.00000000000E+00  0.00000000000E+00  0.91188000000E+02  0.91188000000E+02 0.  0.
    9900012    2    3    3    0    0  0.25795085304E+02 -0.22621849310E+02  0.13365852339E+02  0.54367075232E+02  0.39999979606E+02 0.  0.
         12    1    3    3    0    0 -0.25795085304E+02  0.22621849310E+02 -0.13365852339E+02  0.36820924768E+02  0.00000000000E+00 0. -1.
         11    1    4    4    0    0 -0.49926528073E+01 -0.11423013508E+02 -0.67972373282E+01  0.14199093465E+02  0.51100000000E-03 0. -1.
        -11    1    4    4    0    0  0.32374954854E+01 -0.38443471319E+01  0.73558110271E+01  0.89088909532E+01  0.51100000000E-03 0.  1.
         12    1    4    4    0    0  0.27550242626E+02 -0.73544886698E+01  0.12807278640E+02  0.31259090814E+02  0.00000000000E+00 0. -1.
</event>
<event>
 8    1  0.1210161E-006  0.9118800E+02  0.7816164E-02  0.1184000E+00
        -11   -1    0    0    0    0  0.00000000000E+00  0.00000000000E+00  0.45593999997E+02  0.45594000000E+02  0.51100000000E-03 0. -1.
         11   -1    0    0    0    0 -0.00000000000E+00 -0.00000000000E+00 -0.45593999997E+02  0.45594000000E+02  0.51100000000E-03 0.  1.
         23    2    1    2    0    0  0.22204460493E-15  0.00000000000E+00  0.88817841970E-15  0.91188000000E+02  0.91188000000E+02 0.  0.
    9900012    2    3    3    0    0 -0.14344417330E+01  0.36223232913E+02  0.64497287607E+01  0.54367092531E+02  0.40000019043E+02 0.  0.
         12    1    3    3    0    0  0.14344417330E+01 -0.36223232913E+02 -0.64497287607E+01  0.36820907469E+02  0.00000000000E+00 0. -1.
         11    1    4    4    0    0  0.11785252419E+02  0.79459035807E+01 -0.80535570585E+01  0.16336748142E+02  0.51100000000E-03 0.  1.
        -11    1    4    4    0    0 -0.33431787630E+01  0.10793159304E+02 -0.26669367696E+01  0.11609551412E+02  0.51100000000E-03 0. -1.
        -12    1    4    4    0    0 -0.98765153888E+01  0.17484170028E+02  0.17170222589E+02  0.26420792977E+02  0.00000000000E+00 0.  1.
</event>
<event>
 8    1  0.1210161E-006  0.9118800E+02  0.7816164E-02  0.1184000E+00
        -11   -1    0    0    0    0  0.00000000000E+00  0.00000000000E+00  0.45593999997E+02  0.45594000000E+02  0.51100000000E-03 0.  1.
         11   -1    0    0    0    0 -0.00000000000E+00 -0.00000000000E+00 -0.45593999997E+02  0.45594000000E+02  0.51100000000E-03 0. -1.
         23    2    1    2    0    0 -0.71054273576E-14  0.44408920985E-15 -0.53290705182E-14  0.91188000000E+02  0.91188000000E+02 0.  0.
    9900012    2    3    3    0    0  0.35331456070E+02 -0.38130267116E+01  0.96400122019E+01  0.54367071223E+02  0.39999970468E+02 0.  0.
         12    1    3    3    0    0 -0.35331456070E+02  0.38130267116E+01 -0.96400122019E+01  0.36820928777E+02  0.00000000000E+00 0. -1.
         11    1    4    4    0    0  0.79879954677E+01 -0.15984366402E+01 -0.13021277899E+02  0.15359581689E+02  0.51100000000E-03 0. -1.
        -11    1    4    4    0    0 -0.68214846226E-01  0.21128229395E+01  0.66295403289E+01  0.69584106858E+01  0.51100000000E-03 0.  1.
         12    1    4    4    0    0  0.27411675449E+02 -0.43274130109E+01  0.16031749772E+02  0.32049078848E+02  0.00000000000E+00 0. -1.
</event>
<event>
 8    1  0.1210161E-006  0.9118800E+02  0.7816164E-02  0.1184000E+00
        -11   -1    0    0    0    0  0.00000000000E+00  0.00000000000E+00  0.45593999997E+02  0.45594000000E+02  0.51100000000E-03 0.  1.
         11   -1    0    0    0    0 -0.00000000000E+00 -0.00000000000E+00 -0.45593999997E+02  0.45594000000E+02  0.51100000000E-03 0. -1.
         23    2    1    2    0    0 -0.88817841970E-15 -0.17763568394E-14  0.00000000000E+00  0.91188000000E+02  0.91188000000E+02 0.  0.
    9900012    2    3    3    0    0  0.43088358980E+01  0.70261774979E+01  0.35886561985E+02  0.54367101476E+02  0.40000039435E+02 0.  0.
         12    1    3    3    0    0 -0.43088358980E+01 -0.70261774979E+01 -0.35886561985E+02  0.36820898524E+02  0.00000000000E+00 0. -1.
         11    1    4    4    0    0  0.61918870179E+01  0.19092614512E+02  0.12404929801E+02  0.23595543592E+02  0.51100000000E-03 0. -1.
        -11    1    4    4    0    0 -0.18790340806E+01  0.31321420307E+01  0.92702356865E+01  0.99638523033E+01  0.51100000000E-03 0.  1.
        -12    1    4    4    0    0 -0.40170392341E-02 -0.15198579045E+02  0.14211396497E+02  0.20807705581E+02  0.00000000000E+00 0.  1.
</event>
<event>
 8    1  0.1210161E-006  0.9118800E+02  0.7816164E-02  0.1184000E+00
        -11   -1    0    0    0    0  0.00000000000E+00  0.00000000000E+00  0.45593999997E+02  0.45594000000E+02  0.51100000000E-03 0.  1.
         11   -1    0    0    0    0 -0.00000000000E+00 -0.00000000000E+00 -0.45593999997E+02  0.45594000000E+02  0.51100000000E-03 0. -1.
         23    2    1    2    0    0  0.00000000000E+00 -0.35527136788E-14  0.00000000000E+00  0.91188000000E+02  0.91188000000E+02 0.  0.
    9900012    2    3    3    0    0  0.27349745425E+02 -0.22497867865E+02 -0.10080552114E+02  0.54367079803E+02  0.39999990026E+02 0.  0.
         12    1    3    3    0    0 -0.27349745425E+02  0.22497867865E+02  0.10080552114E+02  0.36820920197E+02  0.00000000000E+00 0. -1.
         11    1    4    4    0    0  0.12178823717E+02  0.14633577916E+01 -0.11375911936E+02  0.16729510926E+02  0.51100000000E-03 0. -1.
        -11    1    4    4    0    0  0.20710194214E+02 -0.19832313188E+02  0.59783723538E+01  0.29291188556E+02  0.51100000000E-03 0.  1.
         12    1    4    4    0    0 -0.55392725072E+01 -0.41289124682E+01 -0.46830125320E+01  0.83463803205E+01  0.00000000000E+00 0. -1.
</event>
<event>
 8    1  0.1210161E-006  0.9118800E+02  0.7816164E-02  0.1184000E+00
        -11   -1    0    0    0    0  0.00000000000E+00  0.00000000000E+00  0.45593999997E+02  0.45594000000E+02  0.51100000000E-03 0.  1.
         11   -1    0    0    0    0 -0.00000000000E+00 -0.00000000000E+00 -0.45593999997E+02  0.45594000000E+02  0.51100000000E-03 0. -1.
         23    2    1    2    0    0  0.00000000000E+00  0.88817841970E-15  0.71054273576E-14  0.91188000000E+02  0.91188000000E+02 0.  0.
    9900012    2    3    3    0    0 -0.60236686849E+01 -0.64487620640E+01 -0.35747811883E+02  0.54367120448E+02  0.40000082685E+02 0.  0.
        -12    1    3    3    0    0  0.60236686849E+01  0.64487620640E+01  0.35747811883E+02  0.36820879552E+02  0.00000000000E+00 0.  1.
         11    1    4    4    0    0 -0.16051972170E+01 -0.62386857701E+01  0.20659717139E+01  0.67650644954E+01  0.51100000000E-03 0. -1.
        -11    1    4    4    0    0  0.10435014228E+02 -0.68334579851E+01 -0.13828221719E+02  0.18622711568E+02  0.51100000000E-03 0.  1.
         12    1    4    4    0    0 -0.14853485696E+02  0.66233816912E+01 -0.23985561878E+02  0.28979344385E+02  0.00000000000E+00 0. -1.
</event>
<event>
 8    1  0.1210161E-006  0.9118800E+02  0.7816164E-02  0.1184000E+00
        -11   -1    0    0    0    0  0.00000000000E+00  0.00000000000E+00  0.45593999997E+02  0.45594000000E+02  0.51100000000E-03 0. -1.
         11   -1    0    0    0    0 -0.00000000000E+00 -0.00000000000E+00 -0.45593999997E+02  0.45594000000E+02  0.51100000000E-03 0.  1.
         23    2    1    2    0    0  0.00000000000E+00  0.00000000000E+00  0.17763568394E-14  0.91188000000E+02  0.91188000000E+02 0.  0.
    9900012    2    3    3    0    0  0.25393838796E+02  0.21372702195E+02 -0.15941703295E+02  0.54367117992E+02  0.40000077085E+02 0.  0.
         12    1    3    3    0    0 -0.25393838796E+02 -0.21372702195E+02  0.15941703295E+02  0.36820882008E+02  0.00000000000E+00 0. -1.
         11    1    4    4    0    0  0.13091001893E+02  0.10768381870E+02 -0.60716179589E+01  0.18005469268E+02  0.51100000000E-03 0. -1.
        -11    1    4    4    0    0  0.81781251508E+01  0.13444856137E+02 -0.19769111980E+02  0.25267838773E+02  0.51100000000E-03 0.  1.
         12    1    4    4    0    0  0.41247117519E+01 -0.28405358115E+01  0.98990266435E+01  0.11093809951E+02  0.00000000000E+00 0. -1.
</event>
<event>
 8    1  0.1210161E-006  0.9118800E+02  0.7816164E-02  0.1184000E+00
        -11   -1    0    0    0    0  0.00000000000E+00  0.00000000000E+00  0.45593999997E+02  0.45594000000E+02  0.51100000000E-03 0.  1.
         11   -1    0    0    0    0 -0.00000000000E+00 -0.00000000000E+00 -0.45593999997E+02  0.45594000000E+02  0.51100000000E-03 0. -1.
         23    2    1    2    0    0  0.00000000000E+00  0.88817841970E-15  0.35527136788E-14  0.91188000000E+02  0.91188000000E+02 0.  0.
    9900012    2    3    3    0    0 -0.32798216644E+02 -0.29586347957E+01  0.16471303977E+02  0.54367076742E+02  0.39999983049E+02 0.  0.
        -12    1    3    3    0    0  0.32798216644E+02  0.29586347957E+01 -0.16471303977E+02  0.36820923258E+02  0.00000000000E+00 0.  1.
         11    1    4    4    0    0 -0.15947519103E+02 -0.62725384967E+01  0.35837387494E+01  0.17507463791E+02  0.51100000000E-03 0. -1.
        -11    1    4    4    0    0 -0.16880380092E+02 -0.10703824627E+02  0.10701319020E+02  0.22672391200E+02  0.51100000000E-03 0.  1.
        -12    1    4    4    0    0  0.29682551194E-01  0.14017728328E+02  0.21862462074E+01  0.14187221751E+02  0.00000000000E+00 0.  1.
</event>
<event>
 8    1  0.1210161E-006  0.9118800E+02  0.7816164E-02  0.1184000E+00
        -11   -1    0    0    0    0  0.00000000000E+00  0.00000000000E+00  0.45593999997E+02  0.45594000000E+02  0.51100000000E-03 0.  1.
         11   -1    0    0    0    0 -0.00000000000E+00 -0.00000000000E+00 -0.45593999997E+02  0.45594000000E+02  0.51100000000E-03 0. -1.
         23    2    1    2    0    0  0.00000000000E+00  0.00000000000E+00  0.00000000000E+00  0.91188000000E+02  0.91188000000E+02 0.  0.
    9900012    2    3    3    0    0 -0.16670465391E+02  0.29127461920E+02  0.15148215216E+02  0.54367056524E+02  0.39999936958E+02 0.  0.
         12    1    3    3    0    0  0.16670465391E+02 -0.29127461920E+02 -0.15148215216E+02  0.36820943476E+02  0.00000000000E+00 0. -1.
         11    1    4    4    0    0  0.17241957719E+01 -0.37276867399E+01 -0.48555932280E+01  0.63596607888E+01  0.51100000000E-03 0. -1.
        -11    1    4    4    0    0 -0.38065809517E+01  0.76359374881E+01  0.16613400035E+02  0.18676259284E+02  0.51100000000E-03 0.  1.
         12    1    4    4    0    0 -0.14588080211E+02  0.25219211171E+02  0.33904084086E+01  0.29331136451E+02  0.00000000000E+00 0. -1.
</event>
<event>
 8    1  0.1210161E-006  0.9118800E+02  0.7816164E-02  0.1184000E+00
        -11   -1    0    0    0    0  0.00000000000E+00  0.00000000000E+00  0.45593999997E+02  0.45594000000E+02  0.51100000000E-03 0.  1.
         11   -1    0    0    0    0 -0.00000000000E+00 -0.00000000000E+00 -0.45593999997E+02  0.45594000000E+02  0.51100000000E-03 0. -1.
         23    2    1    2    0    0  0.00000000000E+00  0.35527136788E-14 -0.17763568394E-14  0.91188000000E+02  0.91188000000E+02 0.  0.
    9900012    2    3    3    0    0  0.17875612300E+02 -0.29559900211E+02  0.12745735268E+02  0.54367095841E+02  0.40000026588E+02 0.  0.
         12    1    3    3    0    0 -0.17875612300E+02  0.29559900211E+02 -0.12745735268E+02  0.36820904159E+02  0.00000000000E+00 0. -1.
         11    1    4    4    0    0 -0.93295668671E+01 -0.12570980360E+02  0.28300841254E+01  0.15908480177E+02  0.51100000000E-03 0. -1.
        -11    1    4    4    0    0  0.19007295652E+02 -0.20748526941E+02  0.73909200062E+01  0.29093029355E+02  0.51100000000E-03 0.  1.
         12    1    4    4    0    0  0.81978835151E+01  0.37596070895E+01  0.25247311365E+01  0.93655863087E+01  0.00000000000E+00 0. -1.
</event>
<event>
 8    1  0.1210161E-006  0.9118800E+02  0.7816164E-02  0.1184000E+00
        -11   -1    0    0    0    0  0.00000000000E+00  0.00000000000E+00  0.45593999997E+02  0.45594000000E+02  0.51100000000E-03 0. -1.
         11   -1    0    0    0    0 -0.00000000000E+00 -0.00000000000E+00 -0.45593999997E+02  0.45594000000E+02  0.51100000000E-03 0.  1.
         23    2    1    2    0    0  0.71054273576E-14  0.35527136788E-14 -0.17763568394E-14  0.91188000000E+02  0.91188000000E+02 0.  0.
    9900012    2    3    3    0    0 -0.28422297883E+02  0.19865708678E+02  0.12381714665E+02  0.54367078552E+02  0.39999987175E+02 0.  0.
        -12    1    3    3    0    0  0.28422297883E+02 -0.19865708678E+02 -0.12381714665E+02  0.36820921448E+02  0.00000000000E+00 0.  1.
         11    1    4    4    0    0  0.36752351427E+01  0.38145193694E+01  0.45906496923E+01  0.70094205347E+01  0.51100000000E-03 0. -1.
        -11    1    4    4    0    0 -0.17643525396E+01  0.15845774070E+02  0.57731676245E+01  0.16956737907E+02  0.51100000000E-03 0.  1.
         12    1    4    4    0    0 -0.30333180486E+02  0.20541523841E+00  0.20178973482E+01  0.30400920110E+02  0.00000000000E+00 0. -1.
</event>
<event>
 8    1  0.1210161E-006  0.9118800E+02  0.7816164E-02  0.1184000E+00
        -11   -1    0    0    0    0  0.00000000000E+00  0.00000000000E+00  0.45593999997E+02  0.45594000000E+02  0.51100000000E-03 0. -1.
         11   -1    0    0    0    0 -0.00000000000E+00 -0.00000000000E+00 -0.45593999997E+02  0.45594000000E+02  0.51100000000E-03 0.  1.
         23    2    1    2    0    0  0.00000000000E+00  0.00000000000E+00  0.35527136788E-14  0.91188000000E+02  0.91188000000E+02 0.  0.
    9900012    2    3    3    0    0  0.24805651729E+02  0.22085750112E+02  0.15895833437E+02  0.54367105980E+02  0.40000049703E+02 0.  0.
        -12    1    3    3    0    0 -0.24805651729E+02 -0.22085750112E+02 -0.15895833437E+02  0.36820894020E+02  0.00000000000E+00 0.  1.
         11    1    4    4    0    0  0.70330010729E+01  0.97147007168E+01  0.17629308404E+02  0.21322078444E+02  0.51100000000E-03 0. -1.
        -11    1    4    4    0    0  0.25088597132E+01  0.24755367329E+01 -0.11758042121E+02  0.12274942523E+02  0.51100000000E-03 0.  1.
        -12    1    4    4    0    0  0.15263790943E+02  0.98955126626E+01  0.10024567154E+02  0.20770085013E+02  0.00000000000E+00 0.  1.
</event>
<event>
 8    1  0.1210161E-006  0.9118800E+02  0.7816164E-02  0.1184000E+00
        -11   -1    0    0    0    0  0.00000000000E+00  0.00000000000E+00  0.45593999997E+02  0.45594000000E+02  0.51100000000E-03 0.  1.
         11   -1    0    0    0    0 -0.00000000000E+00 -0.00000000000E+00 -0.45593999997E+02  0.45594000000E+02  0.51100000000E-03 0. -1.
         23    2    1    2    0    0  0.00000000000E+00  0.00000000000E+00  0.00000000000E+00  0.91188000000E+02  0.91188000000E+02 0.  0.
    9900012    2    3    3    0    0 -0.25551586472E+02 -0.17447029249E+02 -0.19962397943E+02  0.54367085665E+02  0.40000003390E+02 0.  0.
        -12    1    3    3    0    0  0.25551586472E+02  0.17447029249E+02  0.19962397943E+02  0.36820914335E+02  0.00000000000E+00 0.  1.
         11    1    4    4    0    0 -0.62219819398E+01 -0.11153744239E+02  0.49644919076E+01  0.13702746074E+02  0.51100000000E-03 0.  1.
        -11    1    4    4    0    0 -0.18339175281E+02  0.60489347557E+01 -0.11856892009E+02  0.22660557143E+02  0.51100000000E-03 0. -1.
        -12    1    4    4    0    0 -0.99042925118E+00 -0.12342219765E+02 -0.13069997842E+02  0.18003782447E+02  0.00000000000E+00 0.  1.
</event>
<event>
 8    1  0.1210161E-006  0.9118800E+02  0.7816164E-02  0.1184000E+00
        -11   -1    0    0    0    0  0.00000000000E+00  0.00000000000E+00  0.45593999997E+02  0.45594000000E+02  0.51100000000E-03 0.  1.
         11   -1    0    0    0    0 -0.00000000000E+00 -0.00000000000E+00 -0.45593999997E+02  0.45594000000E+02  0.51100000000E-03 0. -1.
         23    2    1    2    0    0  0.00000000000E+00  0.00000000000E+00  0.35527136788E-14  0.91188000000E+02  0.91188000000E+02 0.  0.
    9900012    2    3    3    0    0  0.16362729240E+02 -0.24604439739E+02 -0.21969600459E+02  0.54367072427E+02  0.39999973211E+02 0.  0.
        -12    1    3    3    0    0 -0.16362729240E+02  0.24604439739E+02  0.21969600459E+02  0.36820927573E+02  0.00000000000E+00 0.  1.
         11    1    4    4    0    0  0.37787223130E+01 -0.14760095757E+02 -0.13137327093E+02  0.20117866002E+02  0.51100000000E-03 0. -1.
        -11    1    4    4    0    0 -0.25576176115E+01  0.72463109144E+01  0.33344168694E+01  0.83766798813E+01  0.51100000000E-03 0.  1.
        -12    1    4    4    0    0  0.15141624539E+02 -0.17090654896E+02 -0.12166690236E+02  0.25872526544E+02  0.00000000000E+00 0.  1.
</event>
<event>
 8    1  0.1210161E-006  0.9118800E+02  0.7816164E-02  0.1184000E+00
        -11   -1    0    0    0    0  0.00000000000E+00  0.00000000000E+00  0.45593999997E+02  0.45594000000E+02  0.51100000000E-03 0.  1.
         11   -1    0    0    0    0 -0.00000000000E+00 -0.00000000000E+00 -0.45593999997E+02  0.45594000000E+02  0.51100000000E-03 0. -1.
         23    2    1    2    0    0 -0.88817841970E-15  0.17763568394E-14  0.00000000000E+00  0.91188000000E+02  0.91188000000E+02 0.  0.
    9900012    2    3    3    0    0 -0.62749798328E+01 -0.13688302875E+02  0.33601127326E+02  0.54367071643E+02  0.39999971425E+02 0.  0.
         12    1    3    3    0    0  0.62749798328E+01  0.13688302875E+02 -0.33601127326E+02  0.36820928357E+02  0.00000000000E+00 0. -1.
         11    1    4    4    0    0 -0.41598964336E+01 -0.25684679127E+02  0.27050988127E+02  0.37533497561E+02  0.51100000000E-03 0. -1.
        -11    1    4    4    0    0 -0.26819139872E+01 -0.44297950246E+00 -0.93508944603E-01  0.27198598601E+01  0.51100000000E-03 0.  1.
         12    1    4    4    0    0  0.56683058806E+00  0.12439355755E+02  0.66436481430E+01  0.14113714222E+02  0.00000000000E+00 0. -1.
</event>
<event>
 8    1  0.1210161E-006  0.9118800E+02  0.7816164E-02  0.1184000E+00
        -11   -1    0    0    0    0  0.00000000000E+00  0.00000000000E+00  0.45593999997E+02  0.45594000000E+02  0.51100000000E-03 0. -1.
         11   -1    0    0    0    0 -0.00000000000E+00 -0.00000000000E+00 -0.45593999997E+02  0.45594000000E+02  0.51100000000E-03 0.  1.
         23    2    1    2    0    0  0.00000000000E+00  0.00000000000E+00  0.00000000000E+00  0.91188000000E+02  0.91188000000E+02 0.  0.
    9900012    2    3    3    0    0  0.33386265937E+02  0.12564080974E+02 -0.91256949447E+01  0.54367120161E+02  0.40000082030E+02 0.  0.
         12    1    3    3    0    0 -0.33386265937E+02 -0.12564080974E+02  0.91256949447E+01  0.36820879839E+02  0.00000000000E+00 0. -1.
         11    1    4    4    0    0  0.84471371855E+01  0.41308157491E+01  0.13372063253E+02  0.16347166155E+02  0.51100000000E-03 0. -1.
        -11    1    4    4    0    0  0.15042315888E+02  0.12389601452E+02 -0.17720870650E+02  0.26340135692E+02  0.51100000000E-03 0.  1.
        -12    1    4    4    0    0  0.98968128632E+01 -0.39563362274E+01 -0.47768875478E+01  0.11679818314E+02  0.00000000000E+00 0.  1.
</event>
<event>
 8    1  0.1210161E-006  0.9118800E+02  0.7816164E-02  0.1184000E+00
        -11   -1    0    0    0    0  0.00000000000E+00  0.00000000000E+00  0.45593999997E+02  0.45594000000E+02  0.51100000000E-03 0.  1.
         11   -1    0    0    0    0 -0.00000000000E+00 -0.00000000000E+00 -0.45593999997E+02  0.45594000000E+02  0.51100000000E-03 0. -1.
         23    2    1    2    0    0  0.00000000000E+00  0.00000000000E+00 -0.35527136788E-14  0.91188000000E+02  0.91188000000E+02 0.  0.
    9900012    2    3    3    0    0  0.14145156515E+02  0.24300146992E+02  0.23773881194E+02  0.54367081711E+02  0.39999994376E+02 0.  0.
        -12    1    3    3    0    0 -0.14145156515E+02 -0.24300146992E+02 -0.23773881194E+02  0.36820918289E+02  0.00000000000E+00 0.  1.
         11    1    4    4    0    0  0.14303779893E+02  0.12312744191E+02  0.87655369422E+01  0.20809527310E+02  0.51100000000E-03 0. -1.
        -11    1    4    4    0    0  0.11693220639E+02  0.12852127756E+02  0.51651293456E+01  0.18126973222E+02  0.51100000000E-03 0.  1.
        -12    1    4    4    0    0 -0.11851844016E+02 -0.86472495486E+00  0.98432149059E+01  0.15430581179E+02  0.00000000000E+00 0.  1.
</event>
<event>
 8    1  0.1210161E-006  0.9118800E+02  0.7816164E-02  0.1184000E+00
        -11   -1    0    0    0    0  0.00000000000E+00  0.00000000000E+00  0.45593999997E+02  0.45594000000E+02  0.51100000000E-03 0. -1.
         11   -1    0    0    0    0 -0.00000000000E+00 -0.00000000000E+00 -0.45593999997E+02  0.45594000000E+02  0.51100000000E-03 0.  1.
         23    2    1    2    0    0  0.00000000000E+00  0.00000000000E+00  0.00000000000E+00  0.91188000000E+02  0.91188000000E+02 0.  0.
    9900012    2    3    3    0    0  0.56430016025E+01  0.62775420263E+01  0.35840332458E+02  0.54367076170E+02  0.39999981745E+02 0.  0.
        -12    1    3    3    0    0 -0.56430016025E+01 -0.62775420263E+01 -0.35840332458E+02  0.36820923830E+02  0.00000000000E+00 0.  1.
         11    1    4    4    0    0  0.52332615045E+01  0.87108769316E+01  0.21320500714E+02  0.23618428268E+02  0.51100000000E-03 0. -1.
        -11    1    4    4    0    0 -0.71204974974E+01 -0.89644782524E+01 -0.18361245537E+01  0.11594598250E+02  0.51100000000E-03 0.  1.
        -12    1    4    4    0    0  0.75302375954E+01  0.65311433470E+01  0.16355956298E+02  0.19154049652E+02  0.00000000000E+00 0.  1.
</event>
<event>
 8    1  0.1210161E-006  0.9118800E+02  0.7816164E-02  0.1184000E+00
        -11   -1    0    0    0    0  0.00000000000E+00  0.00000000000E+00  0.45593999997E+02  0.45594000000E+02  0.51100000000E-03 0.  1.
         11   -1    0    0    0    0 -0.00000000000E+00 -0.00000000000E+00 -0.45593999997E+02  0.45594000000E+02  0.51100000000E-03 0. -1.
         23    2    1    2    0    0  0.00000000000E+00  0.88817841970E-15  0.00000000000E+00  0.91188000000E+02  0.91188000000E+02 0.  0.
    9900012    2    3    3    0    0  0.34075967324E+02 -0.78323786550E+01  0.11543897064E+02  0.54367092028E+02  0.40000017896E+02 0.  0.
         12    1    3    3    0    0 -0.34075967324E+02  0.78323786550E+01 -0.11543897064E+02  0.36820907972E+02  0.00000000000E+00 0. -1.
         11    1    4    4    0    0  0.23121253302E+02 -0.17377644791E+02  0.11819248265E+02  0.31245312009E+02  0.51100000000E-03 0. -1.
        -11    1    4    4    0    0 -0.45715367894E+01 -0.15395798210E+00  0.12776443247E+01  0.47492132989E+01  0.51100000000E-03 0.  1.
        -12    1    4    4    0    0  0.15526250811E+02  0.96992241185E+01 -0.15529955260E+01  0.18372566720E+02  0.00000000000E+00 0.  1.
</event>
<event>
 8    1  0.1210161E-006  0.9118800E+02  0.7816164E-02  0.1184000E+00
        -11   -1    0    0    0    0  0.00000000000E+00  0.00000000000E+00  0.45593999997E+02  0.45594000000E+02  0.51100000000E-03 0.  1.
         11   -1    0    0    0    0 -0.00000000000E+00 -0.00000000000E+00 -0.45593999997E+02  0.45594000000E+02  0.51100000000E-03 0. -1.
         23    2    1    2    0    0  0.00000000000E+00  0.00000000000E+00  0.71054273576E-14  0.91188000000E+02  0.91188000000E+02 0.  0.
    9900012    2    3    3    0    0  0.91854502134E+01 -0.10778613373E+02  0.33988634862E+02  0.54367105094E+02  0.40000047684E+02 0.  0.
         12    1    3    3    0    0 -0.91854502134E+01  0.10778613373E+02 -0.33988634862E+02  0.36820894906E+02  0.00000000000E+00 0. -1.
         11    1    4    4    0    0 -0.49688768741E+01 -0.75130368120E+01  0.91910848056E+01  0.12869013159E+02  0.51100000000E-03 0. -1.
        -11    1    4    4    0    0  0.13307094431E+01 -0.10363850068E+02  0.24723439794E+02  0.26840801988E+02  0.51100000000E-03 0.  1.
        -12    1    4    4    0    0  0.12823617644E+02  0.70982735068E+01  0.74110262685E-01  0.14657289947E+02  0.00000000000E+00 0.  1.
</event>
<event>
 8    1  0.1210161E-006  0.9118800E+02  0.7816164E-02  0.1184000E+00
        -11   -1    0    0    0    0  0.00000000000E+00  0.00000000000E+00  0.45593999997E+02  0.45594000000E+02  0.51100000000E-03 0. -1.
         11   -1    0    0    0    0 -0.00000000000E+00 -0.00000000000E+00 -0.45593999997E+02  0.45594000000E+02  0.51100000000E-03 0.  1.
         23    2    1    2    0    0  0.71054273576E-14  0.13322676296E-14 -0.17763568394E-14  0.91188000000E+02  0.91188000000E+02 0.  0.
    9900012    2    3    3    0    0  0.35239607563E+02  0.22473270128E+01  0.10435417980E+02  0.54367104189E+02  0.40000045621E+02 0.  0.
         12    1    3    3    0    0 -0.35239607563E+02 -0.22473270128E+01 -0.10435417980E+02  0.36820895811E+02  0.00000000000E+00 0. -1.
         11    1    4    4    0    0  0.98698587819E+01 -0.14956657100E+02  0.67336616527E+00  0.17932348598E+02  0.51100000000E-03 0. -1.
        -11    1    4    4    0    0 -0.17194507900E+01  0.13870434850E+01 -0.19541159166E+01  0.29494016215E+01  0.51100000000E-03 0.  1.
        -12    1    4    4    0    0  0.27089199571E+02  0.15816940628E+02  0.11716167731E+02  0.33485353970E+02  0.00000000000E+00 0.  1.
</event>
<event>
 8    1  0.1210161E-006  0.9118800E+02  0.7816164E-02  0.1184000E+00
        -11   -1    0    0    0    0  0.00000000000E+00  0.00000000000E+00  0.45593999997E+02  0.45594000000E+02  0.51100000000E-03 0.  1.
         11   -1    0    0    0    0 -0.00000000000E+00 -0.00000000000E+00 -0.45593999997E+02  0.45594000000E+02  0.51100000000E-03 0. -1.
         23    2    1    2    0    0 -0.35527136788E-14  0.00000000000E+00  0.44408920985E-15  0.91188000000E+02  0.91188000000E+02 0.  0.
    9900012    2    3    3    0    0  0.28888344088E+02 -0.22691416575E+02  0.25185606067E+01  0.54367082604E+02  0.39999996413E+02 0.  0.
        -12    1    3    3    0    0 -0.28888344088E+02  0.22691416575E+02 -0.25185606067E+01  0.36820917396E+02  0.00000000000E+00 0.  1.
         11    1    4    4    0    0  0.39468357136E+01 -0.72126077453E+01  0.24232607999E+00  0.82254449623E+01  0.51100000000E-03 0. -1.
        -11    1    4    4    0    0  0.19890242044E+02 -0.26513492572E+02  0.54682627475E+01  0.33592989070E+02  0.51100000000E-03 0.  1.
         12    1    4    4    0    0  0.50512663303E+01  0.11034683742E+02 -0.31920282208E+01  0.12548648572E+02  0.00000000000E+00 0. -1.
</event>
<event>
 8    1  0.1210161E-006  0.9118800E+02  0.7816164E-02  0.1184000E+00
        -11   -1    0    0    0    0  0.00000000000E+00  0.00000000000E+00  0.45593999997E+02  0.45594000000E+02  0.51100000000E-03 0. -1.
         11   -1    0    0    0    0 -0.00000000000E+00 -0.00000000000E+00 -0.45593999997E+02  0.45594000000E+02  0.51100000000E-03 0.  1.
         23    2    1    2    0    0 -0.17763568394E-14  0.00000000000E+00  0.00000000000E+00  0.91188000000E+02  0.91188000000E+02 0.  0.
    9900012    2    3    3    0    0  0.13479259467E+02 -0.31835307965E+02 -0.12673209043E+02  0.54366980236E+02  0.39999763043E+02 0.  0.
        -12    1    3    3    0    0 -0.13479259467E+02  0.31835307965E+02  0.12673209043E+02  0.36821019764E+02  0.00000000000E+00 0.  1.
         11    1    4    4    0    0 -0.16918733589E+01  0.24911633036E-01 -0.52406561424E+00  0.17713557184E+01  0.51100000000E-03 0. -1.
        -11    1    4    4    0    0  0.65478315350E+01 -0.14191248890E+02 -0.24729475416E+02  0.29254274858E+02  0.51100000000E-03 0.  1.
         12    1    4    4    0    0  0.86233012909E+01 -0.17668970708E+02  0.12580331987E+02  0.23341349660E+02  0.00000000000E+00 0. -1.
</event>
<event>
 8    1  0.1210161E-006  0.9118800E+02  0.7816164E-02  0.1184000E+00
        -11   -1    0    0    0    0  0.00000000000E+00  0.00000000000E+00  0.45593999997E+02  0.45594000000E+02  0.51100000000E-03 0. -1.
         11   -1    0    0    0    0 -0.00000000000E+00 -0.00000000000E+00 -0.45593999997E+02  0.45594000000E+02  0.51100000000E-03 0.  1.
         23    2    1    2    0    0 -0.35527136788E-14  0.00000000000E+00  0.88817841970E-15  0.91188000000E+02  0.91188000000E+02 0.  0.
    9900012    2    3    3    0    0 -0.28417029489E+02  0.22039375688E+02  0.79068038689E+01  0.54367092989E+02  0.40000020087E+02 0.  0.
        -12    1    3    3    0    0  0.28417029489E+02 -0.22039375688E+02 -0.79068038689E+01  0.36820907011E+02  0.00000000000E+00 0.  1.
         11    1    4    4    0    0 -0.14025445387E+02  0.86768607676E+01  0.18499361322E+02  0.24783611534E+02  0.51100000000E-03 0.  1.
        -11    1    4    4    0    0  0.44520859001E+01  0.18700474858E+01  0.54741316081E+00  0.48598156231E+01  0.51100000000E-03 0. -1.
        -12    1    4    4    0    0 -0.18843670002E+02  0.11492467434E+02 -0.11139970614E+02  0.24723665832E+02  0.00000000000E+00 0.  1.
</event>
<event>
 8    1  0.1210161E-006  0.9118800E+02  0.7816164E-02  0.1184000E+00
        -11   -1    0    0    0    0  0.00000000000E+00  0.00000000000E+00  0.45593999997E+02  0.45594000000E+02  0.51100000000E-03 0. -1.
         11   -1    0    0    0    0 -0.00000000000E+00 -0.00000000000E+00 -0.45593999997E+02  0.45594000000E+02  0.51100000000E-03 0.  1.
         23    2    1    2    0    0  0.00000000000E+00  0.00000000000E+00  0.00000000000E+00  0.91188000000E+02  0.91188000000E+02 0.  0.
    9900012    2    3    3    0    0 -0.34020668007E+02 -0.42056725299E+01 -0.13441927040E+02  0.54367096486E+02  0.40000028059E+02 0.  0.
        -12    1    3    3    0    0  0.34020668007E+02  0.42056725299E+01  0.13441927040E+02  0.36820903514E+02  0.00000000000E+00 0.  1.
         11    1    4    4    0    0 -0.23666027725E+02  0.51888478925E+01  0.47385994415E+01  0.24687230214E+02  0.51100000000E-03 0. -1.
        -11    1    4    4    0    0 -0.71435008933E+01  0.49765561641E+01 -0.74647021340E+01  0.11468107711E+02  0.51100000000E-03 0.  1.
        -12    1    4    4    0    0 -0.32111393883E+01 -0.14371076587E+02 -0.10715824347E+02  0.18211758560E+02  0.00000000000E+00 0.  1.
</event>
<event>
 8    1  0.1210161E-006  0.9118800E+02  0.7816164E-02  0.1184000E+00
        -11   -1    0    0    0    0  0.00000000000E+00  0.00000000000E+00  0.45593999997E+02  0.45594000000E+02  0.51100000000E-03 0. -1.
         11   -1    0    0    0    0 -0.00000000000E+00 -0.00000000000E+00 -0.45593999997E+02  0.45594000000E+02  0.51100000000E-03 0.  1.
         23    2    1    2    0    0 -0.22204460493E-15  0.00000000000E+00  0.71054273576E-14  0.91188000000E+02  0.91188000000E+02 0.  0.
    9900012    2    3    3    0    0  0.84915674154E+00  0.19552060143E+02 -0.31189362535E+02  0.54367075808E+02  0.39999980921E+02 0.  0.
         12    1    3    3    0    0 -0.84915674154E+00 -0.19552060143E+02  0.31189362535E+02  0.36820924192E+02  0.00000000000E+00 0. -1.
         11    1    4    4    0    0 -0.61455691726E+00  0.24355778720E+02 -0.21760787046E+02  0.32666703084E+02  0.51100000000E-03 0. -1.
        -11    1    4    4    0    0  0.28507712367E+01  0.65977157233E+01 -0.68505770588E+01  0.99291064910E+01  0.51100000000E-03 0.  1.
        -12    1    4    4    0    0 -0.13870575779E+01 -0.11401434301E+02 -0.25779984301E+01  0.11771266234E+02  0.00000000000E+00 0.  1.
</event>
<event>
 8    1  0.1210161E-006  0.9118800E+02  0.7816164E-02  0.1184000E+00
        -11   -1    0    0    0    0  0.00000000000E+00  0.00000000000E+00  0.45593999997E+02  0.45594000000E+02  0.51100000000E-03 0.  1.
         11   -1    0    0    0    0 -0.00000000000E+00 -0.00000000000E+00 -0.45593999997E+02  0.45594000000E+02  0.51100000000E-03 0. -1.
         23    2    1    2    0    0  0.00000000000E+00  0.00000000000E+00  0.00000000000E+00  0.91188000000E+02  0.91188000000E+02 0.  0.
    9900012    2    3    3    0    0  0.36294848098E+02 -0.68518643916E+00  0.61638545924E+01  0.54367101282E+02  0.40000038993E+02 0.  0.
         12    1    3    3    0    0 -0.36294848098E+02  0.68518643916E+00 -0.61638545924E+01  0.36820898718E+02  0.00000000000E+00 0. -1.
         11    1    4    4    0    0  0.34154189001E+02 -0.97124572292E+00  0.63887520607E+01  0.34760151003E+02  0.51100000000E-03 0. -1.
        -11    1    4    4    0    0  0.94294213936E+00  0.48204831532E+01  0.84336923391E+01  0.97597830120E+01  0.51100000000E-03 0.  1.
         12    1    4    4    0    0  0.11977169578E+01 -0.45344238695E+01 -0.86585898074E+01  0.98471672674E+01  0.00000000000E+00 0. -1.
</event>
<event>
 8    1  0.1210161E-006  0.9118800E+02  0.7816164E-02  0.1184000E+00
        -11   -1    0    0    0    0  0.00000000000E+00  0.00000000000E+00  0.45593999997E+02  0.45594000000E+02  0.51100000000E-03 0.  1.
         11   -1    0    0    0    0 -0.00000000000E+00 -0.00000000000E+00 -0.45593999997E+02  0.45594000000E+02  0.51100000000E-03 0. -1.
         23    2    1    2    0    0  0.44408920985E-15  0.00000000000E+00 -0.11102230246E-14  0.91188000000E+02  0.91188000000E+02 0.  0.
    9900012    2    3    3    0    0 -0.16726345420E+01 -0.36739877763E+02 -0.17781160695E+01  0.54367108904E+02  0.40000056369E+02 0.  0.
        -12    1    3    3    0    0  0.16726345420E+01  0.36739877763E+02  0.17781160695E+01  0.36820891096E+02  0.00000000000E+00 0.  1.
         11    1    4    4    0    0  0.25299135600E+01 -0.60338379161E+01  0.90026522398E+01  0.11129034560E+02  0.51100000000E-03 0. -1.
        -11    1    4    4    0    0  0.71617477185E+01  0.17485924013E+01 -0.31380305897E+01  0.80122058144E+01  0.51100000000E-03 0.  1.
         12    1    4    4    0    0 -0.11364295820E+02 -0.32454632248E+02 -0.76427377196E+01  0.35225868530E+02  0.00000000000E+00 0. -1.
</event>
<event>
 8    1  0.1210161E-006  0.9118800E+02  0.7816164E-02  0.1184000E+00
        -11   -1    0    0    0    0  0.00000000000E+00  0.00000000000E+00  0.45593999997E+02  0.45594000000E+02  0.51100000000E-03 0.  1.
         11   -1    0    0    0    0 -0.00000000000E+00 -0.00000000000E+00 -0.45593999997E+02  0.45594000000E+02  0.51100000000E-03 0. -1.
         23    2    1    2    0    0 -0.35527136788E-14 -0.35527136788E-14 -0.35527136788E-14  0.91188000000E+02  0.91188000000E+02 0.  0.
    9900012    2    3    3    0    0  0.15053928809E+02 -0.22175838979E+02 -0.25246578406E+02  0.54367104734E+02  0.40000046862E+02 0.  0.
        -12    1    3    3    0    0 -0.15053928809E+02  0.22175838979E+02  0.25246578406E+02  0.36820895266E+02  0.00000000000E+00 0.  1.
         11    1    4    4    0    0  0.95123718607E+01 -0.13328067579E+02 -0.68896598956E+01  0.17764853434E+02  0.51100000000E-03 0. -1.
        -11    1    4    4    0    0 -0.82410246223E+01  0.68539466251E+01 -0.72538911382E+01  0.12942565745E+02  0.51100000000E-03 0.  1.
        -12    1    4    4    0    0  0.13782581571E+02 -0.15701718025E+02 -0.11103027372E+02  0.23659685554E+02  0.00000000000E+00 0.  1.
</event>
<event>
 8    1  0.1210161E-006  0.9118800E+02  0.7816164E-02  0.1184000E+00
        -11   -1    0    0    0    0  0.00000000000E+00  0.00000000000E+00  0.45593999997E+02  0.45594000000E+02  0.51100000000E-03 0. -1.
         11   -1    0    0    0    0 -0.00000000000E+00 -0.00000000000E+00 -0.45593999997E+02  0.45594000000E+02  0.51100000000E-03 0.  1.
         23    2    1    2    0    0  0.17763568394E-14  0.13322676296E-14  0.00000000000E+00  0.91188000000E+02  0.91188000000E+02 0.  0.
    9900012    2    3    3    0    0  0.13093592605E+02  0.97750053589E+00 -0.34400324931E+02  0.54367081625E+02  0.39999994181E+02 0.  0.
         12    1    3    3    0    0 -0.13093592605E+02 -0.97750053589E+00  0.34400324931E+02  0.36820918375E+02  0.00000000000E+00 0. -1.
         11    1    4    4    0    0 -0.35855540025E+01 -0.33531947989E+01 -0.26936102267E+01  0.55996115203E+01  0.51100000000E-03 0. -1.
        -11    1    4    4    0    0  0.17678721695E+02  0.15438187974E+02 -0.12586801443E+02  0.26632732107E+02  0.51100000000E-03 0.  1.
        -12    1    4    4    0    0 -0.99957508695E+00 -0.11107492639E+02 -0.19119913261E+02  0.22134737997E+02  0.00000000000E+00 0.  1.
</event>
<event>
 8    1  0.1210161E-006  0.9118800E+02  0.7816164E-02  0.1184000E+00
        -11   -1    0    0    0    0  0.00000000000E+00  0.00000000000E+00  0.45593999997E+02  0.45594000000E+02  0.51100000000E-03 0.  1.
         11   -1    0    0    0    0 -0.00000000000E+00 -0.00000000000E+00 -0.45593999997E+02  0.45594000000E+02  0.51100000000E-03 0. -1.
         23    2    1    2    0    0  0.17763568394E-14  0.00000000000E+00  0.00000000000E+00  0.91188000000E+02  0.91188000000E+02 0.  0.
    9900012    2    3    3    0    0  0.87370851630E+01  0.14161206953E+02  0.32846659752E+02  0.54367088871E+02  0.40000010699E+02 0.  0.
         12    1    3    3    0    0 -0.87370851630E+01 -0.14161206953E+02 -0.32846659752E+02  0.36820911129E+02  0.00000000000E+00 0. -1.
         11    1    4    4    0    0  0.17075272761E+02  0.73260902341E+01  0.12658069191E+02  0.22482509955E+02  0.51100000000E-03 0. -1.
        -11    1    4    4    0    0 -0.16586773254E+01  0.11764652367E+02  0.20369266277E+02  0.23581036124E+02  0.51100000000E-03 0.  1.
         12    1    4    4    0    0 -0.66795102722E+01 -0.49295356481E+01 -0.18067571587E+00  0.83035427919E+01  0.00000000000E+00 0. -1.
</event>
<event>
 8    1  0.1210161E-006  0.9118800E+02  0.7816164E-02  0.1184000E+00
        -11   -1    0    0    0    0  0.00000000000E+00  0.00000000000E+00  0.45593999997E+02  0.45594000000E+02  0.51100000000E-03 0. -1.
         11   -1    0    0    0    0 -0.00000000000E+00 -0.00000000000E+00 -0.45593999997E+02  0.45594000000E+02  0.51100000000E-03 0.  1.
         23    2    1    2    0    0 -0.71054273576E-14 -0.35527136788E-14  0.17763568394E-14  0.91188000000E+02  0.91188000000E+02 0.  0.
    9900012    2    3    3    0    0 -0.28755088649E+02 -0.19553896968E+02  0.12106574985E+02  0.54367093334E+02  0.40000020873E+02 0.  0.
        -12    1    3    3    0    0  0.28755088649E+02  0.19553896968E+02 -0.12106574985E+02  0.36820906666E+02  0.00000000000E+00 0.  1.
         11    1    4    4    0    0  0.76898121752E+00  0.58981423715E+01  0.49244866167E+01  0.77220453409E+01  0.51100000000E-03 0. -1.
        -11    1    4    4    0    0  0.19373979212E+00 -0.13606894203E+02 -0.93340273433E+00  0.13640247281E+02  0.51100000000E-03 0.  1.
        -12    1    4    4    0    0 -0.29717809659E+02 -0.11845145137E+02  0.81154911021E+01  0.33004800712E+02  0.00000000000E+00 0.  1.
</event>
<event>
 8    1  0.1210161E-006  0.9118800E+02  0.7816164E-02  0.1184000E+00
        -11   -1    0    0    0    0  0.00000000000E+00  0.00000000000E+00  0.45593999997E+02  0.45594000000E+02  0.51100000000E-03 0. -1.
         11   -1    0    0    0    0 -0.00000000000E+00 -0.00000000000E+00 -0.45593999997E+02  0.45594000000E+02  0.51100000000E-03 0.  1.
         23    2    1    2    0    0 -0.17763568394E-14  0.00000000000E+00 -0.17763568394E-14  0.91188000000E+02  0.91188000000E+02 0.  0.
    9900012    2    3    3    0    0 -0.15726628807E+02 -0.32092343273E+02 -0.88619847814E+01  0.54367080340E+02  0.39999991251E+02 0.  0.
        -12    1    3    3    0    0  0.15726628807E+02  0.32092343273E+02  0.88619847814E+01  0.36820919660E+02  0.00000000000E+00 0.  1.
         11    1    4    4    0    0 -0.13798733729E+02 -0.60094264485E+00 -0.43055176675E+01  0.14467331034E+02  0.51100000000E-03 0. -1.
        -11    1    4    4    0    0 -0.88348968061E+00 -0.31259686416E+02  0.37756170094E+01  0.31499267180E+02  0.51100000000E-03 0.  1.
        -12    1    4    4    0    0 -0.10444053969E+01 -0.23171421220E+00 -0.83320841233E+01  0.84004821259E+01  0.00000000000E+00 0.  1.
</event>
<event>
 8    1  0.1210161E-006  0.9118800E+02  0.7816164E-02  0.1184000E+00
        -11   -1    0    0    0    0  0.00000000000E+00  0.00000000000E+00  0.45593999997E+02  0.45594000000E+02  0.51100000000E-03 0.  1.
         11   -1    0    0    0    0 -0.00000000000E+00 -0.00000000000E+00 -0.45593999997E+02  0.45594000000E+02  0.51100000000E-03 0. -1.
         23    2    1    2    0    0  0.00000000000E+00 -0.17763568394E-14  0.00000000000E+00  0.91188000000E+02  0.91188000000E+02 0.  0.
    9900012    2    3    3    0    0 -0.29210060135E+02  0.98202921383E+01 -0.20152270639E+02  0.54367085255E+02  0.40000002455E+02 0.  0.
        -12    1    3    3    0    0  0.29210060135E+02 -0.98202921383E+01  0.20152270639E+02  0.36820914745E+02  0.00000000000E+00 0.  1.
         11    1    4    4    0    0  0.29453535353E+01  0.53134606224E+00 -0.13217628020E+02  0.13552236967E+02  0.51100000000E-03 0. -1.
        -11    1    4    4    0    0 -0.11574048334E+02 -0.73002351350E+01 -0.98863690681E+00  0.13719673139E+02  0.51100000000E-03 0.  1.
         12    1    4    4    0    0 -0.20581365337E+02  0.16589181211E+02 -0.59460057120E+01  0.27095175148E+02  0.00000000000E+00 0. -1.
</event>
<event>
 8    1  0.1210161E-006  0.9118800E+02  0.7816164E-02  0.1184000E+00
        -11   -1    0    0    0    0  0.00000000000E+00  0.00000000000E+00  0.45593999997E+02  0.45594000000E+02  0.51100000000E-03 0.  1.
         11   -1    0    0    0    0 -0.00000000000E+00 -0.00000000000E+00 -0.45593999997E+02  0.45594000000E+02  0.51100000000E-03 0. -1.
         23    2    1    2    0    0 -0.35527136788E-14  0.00000000000E+00  0.00000000000E+00  0.91188000000E+02  0.91188000000E+02 0.  0.
    9900012    2    3    3    0    0  0.21871705765E+02  0.13457811882E+02 -0.26387416658E+02  0.54367082418E+02  0.39999995988E+02 0.  0.
        -12    1    3    3    0    0 -0.21871705765E+02 -0.13457811882E+02  0.26387416658E+02  0.36820917582E+02  0.00000000000E+00 0.  1.
         11    1    4    4    0    0  0.12816440071E+02  0.14526829140E+02 -0.31960926620E+01  0.19634278941E+02  0.51100000000E-03 0.  1.
        -11    1    4    4    0    0 -0.20727112149E+01 -0.10490261964E+02 -0.13514897509E+02  0.17233519164E+02  0.51100000000E-03 0. -1.
         12    1    4    4    0    0  0.11127976909E+02  0.94212447053E+01 -0.96764264869E+01  0.17499284312E+02  0.00000000000E+00 0. -1.
</event>
<event>
 8    1  0.1210161E-006  0.9118800E+02  0.7816164E-02  0.1184000E+00
        -11   -1    0    0    0    0  0.00000000000E+00  0.00000000000E+00  0.45593999997E+02  0.45594000000E+02  0.51100000000E-03 0. -1.
         11   -1    0    0    0    0 -0.00000000000E+00 -0.00000000000E+00 -0.45593999997E+02  0.45594000000E+02  0.51100000000E-03 0.  1.
         23    2    1    2    0    0  0.00000000000E+00  0.35527136788E-14  0.00000000000E+00  0.91188000000E+02  0.91188000000E+02 0.  0.
    9900012    2    3    3    0    0  0.16252215701E+02  0.18889743864E+02  0.27107299711E+02  0.54367317822E+02  0.40000532635E+02 0.  0.
        -12    1    3    3    0    0 -0.16252215701E+02 -0.18889743864E+02 -0.27107299711E+02  0.36820682178E+02  0.00000000000E+00 0.  1.
         11    1    4    4    0    0 -0.87172271315E+01  0.16944469454E+02  0.90308014449E+01  0.21086973916E+02  0.51100000000E-03 0. -1.
        -11    1    4    4    0    0 -0.41266708742E-01  0.63397441931E+00  0.49750875575E+01  0.50154883084E+01  0.51100000000E-03 0.  1.
         12    1    4    4    0    0  0.25010709541E+02  0.13112999907E+01  0.13101410709E+02  0.28264855598E+02  0.00000000000E+00 0. -1.
</event>
<event>
 8    1  0.1210161E-006  0.9118800E+02  0.7816164E-02  0.1184000E+00
        -11   -1    0    0    0    0  0.00000000000E+00  0.00000000000E+00  0.45593999997E+02  0.45594000000E+02  0.51100000000E-03 0.  1.
         11   -1    0    0    0    0 -0.00000000000E+00 -0.00000000000E+00 -0.45593999997E+02  0.45594000000E+02  0.51100000000E-03 0. -1.
         23    2    1    2    0    0  0.35527136788E-14  0.00000000000E+00 -0.35527136788E-14  0.91188000000E+02  0.91188000000E+02 0.  0.
    9900012    2    3    3    0    0  0.17447559874E+02  0.18363721841E+02 -0.26723302654E+02  0.54367101991E+02  0.40000040610E+02 0.  0.
        -12    1    3    3    0    0 -0.17447559874E+02 -0.18363721841E+02  0.26723302654E+02  0.36820898009E+02  0.00000000000E+00 0.  1.
         11    1    4    4    0    0  0.98282960727E+01 -0.74253085304E+01 -0.10615193725E+02  0.16260779457E+02  0.51100000000E-03 0. -1.
        -11    1    4    4    0    0  0.49084493402E+01 -0.28866365476E+01 -0.33209020745E+01  0.65919599766E+01  0.51100000000E-03 0.  1.
        -12    1    4    4    0    0  0.27108144613E+01  0.28675666919E+02 -0.12787206855E+02  0.31514362558E+02  0.00000000000E+00 0.  1.
</event>
<event>
 8    1  0.1210161E-006  0.9118800E+02  0.7816164E-02  0.1184000E+00
        -11   -1    0    0    0    0  0.00000000000E+00  0.00000000000E+00  0.45593999997E+02  0.45594000000E+02  0.51100000000E-03 0. -1.
         11   -1    0    0    0    0 -0.00000000000E+00 -0.00000000000E+00 -0.45593999997E+02  0.45594000000E+02  0.51100000000E-03 0.  1.
         23    2    1    2    0    0  0.17763568394E-14 -0.35527136788E-14  0.00000000000E+00  0.91188000000E+02  0.91188000000E+02 0.  0.
    9900012    2    3    3    0    0  0.15964745121E+02 -0.20267303528E+02 -0.26270565454E+02  0.54367091696E+02  0.40000017140E+02 0.  0.
         12    1    3    3    0    0 -0.15964745121E+02  0.20267303528E+02  0.26270565454E+02  0.36820908304E+02  0.00000000000E+00 0. -1.
         11    1    4    4    0    0 -0.82278684074E+00 -0.13667530257E+02  0.27988711921E+01  0.13975408463E+02  0.51100000000E-03 0. -1.
        -11    1    4    4    0    0  0.30460083706E+01 -0.12547550143E+02 -0.15609648693E+02  0.20257845744E+02  0.51100000000E-03 0.  1.
         12    1    4    4    0    0  0.13741523591E+02  0.59477768719E+01 -0.13459787952E+02  0.20133837489E+02  0.00000000000E+00 0. -1.
</event>
<event>
 8    1  0.1210161E-006  0.9118800E+02  0.7816164E-02  0.1184000E+00
        -11   -1    0    0    0    0  0.00000000000E+00  0.00000000000E+00  0.45593999997E+02  0.45594000000E+02  0.51100000000E-03 0. -1.
         11   -1    0    0    0    0 -0.00000000000E+00 -0.00000000000E+00 -0.45593999997E+02  0.45594000000E+02  0.51100000000E-03 0.  1.
         23    2    1    2    0    0  0.00000000000E+00  0.00000000000E+00 -0.35527136788E-14  0.91188000000E+02  0.91188000000E+02 0.  0.
    9900012    2    3    3    0    0  0.27427623929E+02  0.21375515464E+01  0.24473152849E+02  0.54367097087E+02  0.40000029428E+02 0.  0.
        -12    1    3    3    0    0 -0.27427623929E+02 -0.21375515464E+01 -0.24473152849E+02  0.36820902913E+02  0.00000000000E+00 0.  1.
         11    1    4    4    0    0  0.31848773607E+02  0.22178298303E+01  0.25816533150E+02  0.41057965531E+02  0.51100000000E-03 0. -1.
        -11    1    4    4    0    0  0.21737200274E+01  0.46397215903E+01 -0.73945208829E+00  0.51767620039E+01  0.51100000000E-03 0.  1.
         12    1    4    4    0    0 -0.65948697053E+01 -0.47199998742E+01 -0.60392821242E+00  0.81323695519E+01  0.00000000000E+00 0. -1.
</event>
<event>
 8    1  0.1210161E-006  0.9118800E+02  0.7816164E-02  0.1184000E+00
        -11   -1    0    0    0    0  0.00000000000E+00  0.00000000000E+00  0.45593999997E+02  0.45594000000E+02  0.51100000000E-03 0.  1.
         11   -1    0    0    0    0 -0.00000000000E+00 -0.00000000000E+00 -0.45593999997E+02  0.45594000000E+02  0.51100000000E-03 0. -1.
         23    2    1    2    0    0 -0.17763568394E-14  0.00000000000E+00  0.00000000000E+00  0.91188000000E+02  0.91188000000E+02 0.  0.
    9900012    2    3    3    0    0 -0.41829074070E+01  0.34402254357E+02 -0.12440695485E+02  0.54367045051E+02  0.39999910803E+02 0.  0.
        -12    1    3    3    0    0  0.41829074070E+01 -0.34402254357E+02  0.12440695485E+02  0.36820954949E+02  0.00000000000E+00 0.  1.
         11    1    4    4    0    0 -0.11627558572E+02  0.27919641809E+02 -0.57554084945E+01  0.30786868049E+02  0.51100000000E-03 0. -1.
        -11    1    4    4    0    0  0.82368316250E+01 -0.46975832554E+01 -0.78522054477E+01  0.12311369311E+02  0.51100000000E-03 0.  1.
        -12    1    4    4    0    0 -0.79218045959E+00  0.11180195803E+02  0.11669184576E+01  0.11268807691E+02  0.00000000000E+00 0.  1.
</event>
<event>
 8    1  0.1210161E-006  0.9118800E+02  0.7816164E-02  0.1184000E+00
        -11   -1    0    0    0    0  0.00000000000E+00  0.00000000000E+00  0.45593999997E+02  0.45594000000E+02  0.51100000000E-03 0.  1.
         11   -1    0    0    0    0 -0.00000000000E+00 -0.00000000000E+00 -0.45593999997E+02  0.45594000000E+02  0.51100000000E-03 0. -1.
         23    2    1    2    0    0  0.17763568394E-14  0.00000000000E+00  0.00000000000E+00  0.91188000000E+02  0.91188000000E+02 0.  0.
    9900012    2    3    3    0    0 -0.12535482566E+02  0.16197112458E+02  0.30599075905E+02  0.54366970393E+02  0.39999740603E+02 0.  0.
         12    1    3    3    0    0  0.12535482566E+02 -0.16197112458E+02 -0.30599075905E+02  0.36821029607E+02  0.00000000000E+00 0. -1.
         11    1    4    4    0    0  0.51775446419E+00 -0.79559338323E+01  0.27628091279E+01  0.84378947236E+01  0.51100000000E-03 0. -1.
        -11    1    4    4    0    0 -0.11391953844E+02  0.24498928984E+02  0.31734236338E+02  0.41677762535E+02  0.51100000000E-03 0.  1.
        -12    1    4    4    0    0 -0.16612831863E+01 -0.34588269391E+00 -0.38979695610E+01  0.42513131338E+01  0.00000000000E+00 0.  1.
</event>
<event>
 8    1  0.1210161E-006  0.9118800E+02  0.7816164E-02  0.1184000E+00
        -11   -1    0    0    0    0  0.00000000000E+00  0.00000000000E+00  0.45593999997E+02  0.45594000000E+02  0.51100000000E-03 0. -1.
         11   -1    0    0    0    0 -0.00000000000E+00 -0.00000000000E+00 -0.45593999997E+02  0.45594000000E+02  0.51100000000E-03 0.  1.
         23    2    1    2    0    0  0.35527136788E-14  0.00000000000E+00 -0.17763568394E-14  0.91188000000E+02  0.91188000000E+02 0.  0.
    9900012    2    3    3    0    0  0.24195977726E+02 -0.25798747172E+02 -0.10235124792E+02  0.54367102763E+02  0.40000042370E+02 0.  0.
        -12    1    3    3    0    0 -0.24195977726E+02  0.25798747172E+02  0.10235124792E+02  0.36820897237E+02  0.00000000000E+00 0.  1.
         11    1    4    4    0    0  0.21713318758E+02 -0.19251979290E+02  0.31634696070E+01  0.29190999611E+02  0.51100000000E-03 0. -1.
        -11    1    4    4    0    0 -0.33535031294E+01  0.42716248055E+01  0.17147842037E+01  0.56950194771E+01  0.51100000000E-03 0.  1.
         12    1    4    4    0    0  0.58361620976E+01 -0.10818392688E+02 -0.15113378603E+02  0.19481083675E+02  0.00000000000E+00 0. -1.
</event>
<event>
 8    1  0.1210161E-006  0.9118800E+02  0.7816164E-02  0.1184000E+00
        -11   -1    0    0    0    0  0.00000000000E+00  0.00000000000E+00  0.45593999997E+02  0.45594000000E+02  0.51100000000E-03 0. -1.
         11   -1    0    0    0    0 -0.00000000000E+00 -0.00000000000E+00 -0.45593999997E+02  0.45594000000E+02  0.51100000000E-03 0.  1.
         23    2    1    2    0    0 -0.44408920985E-15  0.35527136788E-14  0.00000000000E+00  0.91188000000E+02  0.91188000000E+02 0.  0.
    9900012    2    3    3    0    0 -0.35400310968E+01 -0.26110800679E+02 -0.25719159868E+02  0.54367069586E+02  0.39999966735E+02 0.  0.
         12    1    3    3    0    0  0.35400310968E+01  0.26110800679E+02  0.25719159868E+02  0.36820930414E+02  0.00000000000E+00 0. -1.
         11    1    4    4    0    0 -0.49067828554E+01 -0.11160785258E+01 -0.78219536839E+01  0.93008122743E+01  0.51100000000E-03 0. -1.
        -11    1    4    4    0    0 -0.59834773147E+01 -0.23065633760E+02  0.18564845346E+01  0.23901296965E+02  0.51100000000E-03 0.  1.
        -12    1    4    4    0    0  0.73502290733E+01 -0.19290883931E+01 -0.19753690718E+02  0.21164960346E+02  0.00000000000E+00 0.  1.
</event>
<event>
 8    1  0.1210161E-006  0.9118800E+02  0.7816164E-02  0.1184000E+00
        -11   -1    0    0    0    0  0.00000000000E+00  0.00000000000E+00  0.45593999997E+02  0.45594000000E+02  0.51100000000E-03 0. -1.
         11   -1    0    0    0    0 -0.00000000000E+00 -0.00000000000E+00 -0.45593999997E+02  0.45594000000E+02  0.51100000000E-03 0.  1.
         23    2    1    2    0    0  0.35527136788E-14  0.00000000000E+00  0.00000000000E+00  0.91188000000E+02  0.91188000000E+02 0.  0.
    9900012    2    3    3    0    0  0.22780406670E+02 -0.23014980148E+02 -0.17525106132E+02  0.54367277788E+02  0.40000441371E+02 0.  0.
         12    1    3    3    0    0 -0.22780406670E+02  0.23014980148E+02  0.17525106132E+02  0.36820722212E+02  0.00000000000E+00 0. -1.
         11    1    4    4    0    0  0.22265084929E+02 -0.10178576845E+02 -0.25504093821E+01  0.24613858327E+02  0.51100000000E-03 0. -1.
        -11    1    4    4    0    0  0.10078257561E+02 -0.76623636718E+01 -0.13940577610E+02  0.18831431089E+02  0.51100000000E-03 0.  1.
        -12    1    4    4    0    0 -0.95629358196E+01 -0.51740396316E+01 -0.10341191400E+01  0.10921988372E+02  0.00000000000E+00 0.  1.
</event>
<event>
 8    1  0.1210161E-006  0.9118800E+02  0.7816164E-02  0.1184000E+00
        -11   -1    0    0    0    0  0.00000000000E+00  0.00000000000E+00  0.45593999997E+02  0.45594000000E+02  0.51100000000E-03 0. -1.
         11   -1    0    0    0    0 -0.00000000000E+00 -0.00000000000E+00 -0.45593999997E+02  0.45594000000E+02  0.51100000000E-03 0.  1.
         23    2    1    2    0    0  0.00000000000E+00  0.13322676296E-14  0.00000000000E+00  0.91188000000E+02  0.91188000000E+02 0.  0.
    9900012    2    3    3    0    0  0.16803429752E+02 -0.15909181828E+01  0.32724615509E+02  0.54366990612E+02  0.39999786698E+02 0.  0.
        -12    1    3    3    0    0 -0.16803429752E+02  0.15909181828E+01 -0.32724615509E+02  0.36821009388E+02  0.00000000000E+00 0.  1.
         11    1    4    4    0    0  0.45186529351E+00  0.11371526957E+02  0.79197435749E+00  0.11408024861E+02  0.51100000000E-03 0. -1.
        -11    1    4    4    0    0  0.18974902353E+02 -0.10238653979E+02  0.16722816929E+02  0.27286068990E+02  0.51100000000E-03 0.  1.
         12    1    4    4    0    0 -0.26233378948E+01 -0.27237911610E+01  0.15209824223E+02  0.15672896761E+02  0.00000000000E+00 0. -1.
</event>
<event>
 8    1  0.1210161E-006  0.9118800E+02  0.7816164E-02  0.1184000E+00
        -11   -1    0    0    0    0  0.00000000000E+00  0.00000000000E+00  0.45593999997E+02  0.45594000000E+02  0.51100000000E-03 0.  1.
         11   -1    0    0    0    0 -0.00000000000E+00 -0.00000000000E+00 -0.45593999997E+02  0.45594000000E+02  0.51100000000E-03 0. -1.
         23    2    1    2    0    0  0.00000000000E+00  0.00000000000E+00  0.00000000000E+00  0.91188000000E+02  0.91188000000E+02 0.  0.
    9900012    2    3    3    0    0  0.22968074859E+02 -0.50258971622E+01 -0.28337044382E+02  0.54367079461E+02  0.39999989247E+02 0.  0.
        -12    1    3    3    0    0 -0.22968074859E+02  0.50258971622E+01  0.28337044382E+02  0.36820920539E+02  0.00000000000E+00 0.  1.
         11    1    4    4    0    0 -0.29284753002E+01  0.27901938716E+01 -0.78279071772E+01  0.88112019873E+01  0.51100000000E-03 0. -1.
        -11    1    4    4    0    0  0.16302141819E+02  0.13259051234E+01  0.47495985262E+01  0.17031633472E+02  0.51100000000E-03 0.  1.
         12    1    4    4    0    0  0.95944083400E+01 -0.91419961572E+01 -0.25258735731E+02  0.28524244002E+02  0.00000000000E+00 0. -1.
</event>
<event>
 8    1  0.1210161E-006  0.9118800E+02  0.7816164E-02  0.1184000E+00
        -11   -1    0    0    0    0  0.00000000000E+00  0.00000000000E+00  0.45593999997E+02  0.45594000000E+02  0.51100000000E-03 0.  1.
         11   -1    0    0    0    0 -0.00000000000E+00 -0.00000000000E+00 -0.45593999997E+02  0.45594000000E+02  0.51100000000E-03 0. -1.
         23    2    1    2    0    0  0.17763568394E-14  0.00000000000E+00 -0.35527136788E-14  0.91188000000E+02  0.91188000000E+02 0.  0.
    9900012    2    3    3    0    0 -0.99325811583E+01  0.22589955407E+02  0.27327965228E+02  0.54367082884E+02  0.39999997050E+02 0.  0.
         12    1    3    3    0    0  0.99325811583E+01 -0.22589955407E+02 -0.27327965228E+02  0.36820917116E+02  0.00000000000E+00 0. -1.
         11    1    4    4    0    0  0.19621725868E+01  0.84813663144E+01 -0.27811863090E+01  0.91388562395E+01  0.51100000000E-03 0. -1.
        -11    1    4    4    0    0 -0.99633107164E+01 -0.71153088789E+01  0.13369594748E+02  0.18128465044E+02  0.51100000000E-03 0.  1.
        -12    1    4    4    0    0 -0.19314430288E+01  0.21223897972E+02  0.16739556789E+02  0.27099761600E+02  0.00000000000E+00 0.  1.
</event>
<event>
 8    1  0.1210161E-006  0.9118800E+02  0.7816164E-02  0.1184000E+00
        -11   -1    0    0    0    0  0.00000000000E+00  0.00000000000E+00  0.45593999997E+02  0.45594000000E+02  0.51100000000E-03 0. -1.
         11   -1    0    0    0    0 -0.00000000000E+00 -0.00000000000E+00 -0.45593999997E+02  0.45594000000E+02  0.51100000000E-03 0.  1.
         23    2    1    2    0    0  0.17763568394E-14 -0.35527136788E-14  0.35527136788E-14  0.91188000000E+02  0.91188000000E+02 0.  0.
    9900012    2    3    3    0    0  0.10062698649E+02 -0.20206034140E+02  0.29090165659E+02  0.54367089394E+02  0.40000011892E+02 0.  0.
         12    1    3    3    0    0 -0.10062698649E+02  0.20206034140E+02 -0.29090165659E+02  0.36820910606E+02  0.00000000000E+00 0. -1.
         11    1    4    4    0    0 -0.33009991951E+01  0.12616021804E+01 -0.87703220987E-01  0.35349579720E+01  0.51100000000E-03 0. -1.
        -11    1    4    4    0    0 -0.24244302450E+01  0.53186348915E+01  0.16050361707E+02  0.17081564633E+02  0.51100000000E-03 0.  1.
         12    1    4    4    0    0  0.15788128089E+02 -0.26786271212E+02  0.13127507172E+02  0.33750566789E+02  0.00000000000E+00 0. -1.
</event>
<event>
 8    1  0.1210161E-006  0.9118800E+02  0.7816164E-02  0.1184000E+00
        -11   -1    0    0    0    0  0.00000000000E+00  0.00000000000E+00  0.45593999997E+02  0.45594000000E+02  0.51100000000E-03 0.  1.
         11   -1    0    0    0    0 -0.00000000000E+00 -0.00000000000E+00 -0.45593999997E+02  0.45594000000E+02  0.51100000000E-03 0. -1.
         23    2    1    2    0    0  0.00000000000E+00  0.00000000000E+00  0.00000000000E+00  0.91188000000E+02  0.91188000000E+02 0.  0.
    9900012    2    3    3    0    0 -0.25395541904E+02  0.25718734997E+02  0.70280261189E+01  0.54367081631E+02  0.39999994193E+02 0.  0.
         12    1    3    3    0    0  0.25395541904E+02 -0.25718734997E+02 -0.70280261189E+01  0.36820918369E+02  0.00000000000E+00 0. -1.
         11    1    4    4    0    0 -0.34863532255E+01  0.12536089449E+02 -0.61345359804E+01  0.14385434628E+02  0.51100000000E-03 0. -1.
        -11    1    4    4    0    0 -0.26559863484E+02  0.37913055648E+01  0.66425367903E+01  0.27639168610E+02  0.51100000000E-03 0.  1.
        -12    1    4    4    0    0  0.46506748058E+01  0.93913399832E+01  0.65200253090E+01  0.12342478392E+02  0.00000000000E+00 0.  1.
</event>
<event>
 8    1  0.1210161E-006  0.9118800E+02  0.7816164E-02  0.1184000E+00
        -11   -1    0    0    0    0  0.00000000000E+00  0.00000000000E+00  0.45593999997E+02  0.45594000000E+02  0.51100000000E-03 0. -1.
         11   -1    0    0    0    0 -0.00000000000E+00 -0.00000000000E+00 -0.45593999997E+02  0.45594000000E+02  0.51100000000E-03 0.  1.
         23    2    1    2    0    0 -0.35527136788E-14 -0.35527136788E-14  0.35527136788E-14  0.91188000000E+02  0.91188000000E+02 0.  0.
    9900012    2    3    3    0    0  0.25760007404E+02  0.19252357555E+02 -0.17931769141E+02  0.54367087499E+02  0.40000007571E+02 0.  0.
         12    1    3    3    0    0 -0.25760007404E+02 -0.19252357555E+02  0.17931769141E+02  0.36820912501E+02  0.00000000000E+00 0. -1.
         11    1    4    4    0    0  0.12510850846E+02 -0.48731257194E+00 -0.13824272536E+02  0.18651256629E+02  0.51100000000E-03 0. -1.
        -11    1    4    4    0    0  0.20459508139E+01 -0.21532574998E+00 -0.11487683821E+02  0.11670439570E+02  0.51100000000E-03 0.  1.
         12    1    4    4    0    0  0.11203205744E+02  0.19954995877E+02  0.73801872164E+01  0.24045391299E+02  0.00000000000E+00 0. -1.
</event>
<event>
 8    1  0.1210161E-006  0.9118800E+02  0.7816164E-02  0.1184000E+00
        -11   -1    0    0    0    0  0.00000000000E+00  0.00000000000E+00  0.45593999997E+02  0.45594000000E+02  0.51100000000E-03 0.  1.
         11   -1    0    0    0    0 -0.00000000000E+00 -0.00000000000E+00 -0.45593999997E+02  0.45594000000E+02  0.51100000000E-03 0. -1.
         23    2    1    2    0    0  0.00000000000E+00  0.00000000000E+00  0.00000000000E+00  0.91188000000E+02  0.91188000000E+02 0.  0.
    9900012    2    3    3    0    0 -0.24248536155E+02 -0.27069163763E+02  0.59201701973E+01  0.54367088175E+02  0.40000009112E+02 0.  0.
        -12    1    3    3    0    0  0.24248536155E+02  0.27069163763E+02 -0.59201701973E+01  0.36820911825E+02  0.00000000000E+00 0.  1.
         11    1    4    4    0    0  0.13587580546E+01 -0.29178193895E+01 -0.57011672495E+01  0.65469994432E+01  0.51100000000E-03 0. -1.
        -11    1    4    4    0    0  0.26032239027E+01 -0.13923390049E+02 -0.29395640229E+01  0.14466464739E+02  0.51100000000E-03 0.  1.
        -12    1    4    4    0    0 -0.28210518112E+02 -0.10227954325E+02  0.14560901470E+02  0.33353623993E+02  0.00000000000E+00 0.  1.
</event>
<event>
 8    1  0.1210161E-006  0.9118800E+02  0.7816164E-02  0.1184000E+00
        -11   -1    0    0    0    0  0.00000000000E+00  0.00000000000E+00  0.45593999997E+02  0.45594000000E+02  0.51100000000E-03 0.  1.
         11   -1    0    0    0    0 -0.00000000000E+00 -0.00000000000E+00 -0.45593999997E+02  0.45594000000E+02  0.51100000000E-03 0. -1.
         23    2    1    2    0    0  0.72164496601E-15  0.00000000000E+00  0.35527136788E-14  0.91188000000E+02  0.91188000000E+02 0.  0.
    9900012    2    3    3    0    0 -0.44723716839E+00  0.31542234535E+02 -0.18991243488E+02  0.54367083257E+02  0.39999997902E+02 0.  0.
        -12    1    3    3    0    0  0.44723716839E+00 -0.31542234535E+02  0.18991243488E+02  0.36820916743E+02  0.00000000000E+00 0.  1.
         11    1    4    4    0    0  0.54575725201E+01  0.57141970414E+01  0.52249556244E+01  0.94729777356E+01  0.51100000000E-03 0. -1.
        -11    1    4    4    0    0 -0.95490600896E+01  0.54075146301E+01  0.23160899114E+01  0.11215615712E+02  0.51100000000E-03 0.  1.
         12    1    4    4    0    0  0.36442504010E+01  0.20420522863E+02 -0.26532289024E+02  0.33678489810E+02  0.00000000000E+00 0. -1.
</event>
<event>
 8    1  0.1210161E-006  0.9118800E+02  0.7816164E-02  0.1184000E+00
        -11   -1    0    0    0    0  0.00000000000E+00  0.00000000000E+00  0.45593999997E+02  0.45594000000E+02  0.51100000000E-03 0. -1.
         11   -1    0    0    0    0 -0.00000000000E+00 -0.00000000000E+00 -0.45593999997E+02  0.45594000000E+02  0.51100000000E-03 0.  1.
         23    2    1    2    0    0  0.88817841970E-15 -0.71054273576E-14  0.00000000000E+00  0.91188000000E+02  0.91188000000E+02 0.  0.
    9900012    2    3    3    0    0  0.43905951481E+01  0.36549359870E+02 -0.80457067663E+00  0.54367077053E+02  0.39999983758E+02 0.  0.
         12    1    3    3    0    0 -0.43905951481E+01 -0.36549359870E+02  0.80457067663E+00  0.36820922947E+02  0.00000000000E+00 0. -1.
         11    1    4    4    0    0 -0.11551617966E+02  0.44380210147E+01  0.25934024593E+01  0.12643640486E+02  0.51100000000E-03 0. -1.
        -11    1    4    4    0    0  0.55082530794E+01 -0.15098572407E+01 -0.31437866205E+01  0.65195026996E+01  0.51100000000E-03 0.  1.
        -12    1    4    4    0    0  0.10433960035E+02  0.33621196096E+02 -0.25418651541E+00  0.35203933867E+02  0.00000000000E+00 0.  1.
</event>
<event>
 8    1  0.1210161E-006  0.9118800E+02  0.7816164E-02  0.1184000E+00
        -11   -1    0    0    0    0  0.00000000000E+00  0.00000000000E+00  0.45593999997E+02  0.45594000000E+02  0.51100000000E-03 0.  1.
         11   -1    0    0    0    0 -0.00000000000E+00 -0.00000000000E+00 -0.45593999997E+02  0.45594000000E+02  0.51100000000E-03 0. -1.
         23    2    1    2    0    0  0.00000000000E+00  0.00000000000E+00  0.00000000000E+00  0.91188000000E+02  0.91188000000E+02 0.  0.
    9900012    2    3    3    0    0 -0.10830493106E+02 -0.12489913232E+02  0.32901104001E+02  0.54367079887E+02  0.39999990219E+02 0.  0.
         12    1    3    3    0    0  0.10830493106E+02  0.12489913232E+02 -0.32901104001E+02  0.36820920113E+02  0.00000000000E+00 0. -1.
         11    1    4    4    0    0 -0.10410579860E+01 -0.15245646864E+02  0.11411479233E+02  0.19071848589E+02  0.51100000000E-03 0. -1.
        -11    1    4    4    0    0 -0.89883547221E+01  0.93279601753E+01  0.15273909950E+00  0.12954716945E+02  0.51100000000E-03 0.  1.
        -12    1    4    4    0    0 -0.80108039760E+00 -0.65722265426E+01  0.21336885669E+02  0.22340514353E+02  0.00000000000E+00 0.  1.
</event>
<event>
 8    1  0.1210161E-006  0.9118800E+02  0.7816164E-02  0.1184000E+00
        -11   -1    0    0    0    0  0.00000000000E+00  0.00000000000E+00  0.45593999997E+02  0.45594000000E+02  0.51100000000E-03 0.  1.
         11   -1    0    0    0    0 -0.00000000000E+00 -0.00000000000E+00 -0.45593999997E+02  0.45594000000E+02  0.51100000000E-03 0. -1.
         23    2    1    2    0    0  0.00000000000E+00 -0.17763568394E-14  0.00000000000E+00  0.91188000000E+02  0.91188000000E+02 0.  0.
    9900012    2    3    3    0    0 -0.27553076221E+02 -0.93050802713E+01 -0.22583699188E+02  0.54367082071E+02  0.39999995198E+02 0.  0.
        -12    1    3    3    0    0  0.27553076221E+02  0.93050802713E+01  0.22583699188E+02  0.36820917929E+02  0.00000000000E+00 0.  1.
         11    1    4    4    0    0 -0.65881413860E+01  0.85800245285E+01 -0.20243549125E+02  0.22952597005E+02  0.51100000000E-03 0. -1.
        -11    1    4    4    0    0 -0.12129843986E+02 -0.40670846316E+01 -0.67028094960E+01  0.14443058815E+02  0.51100000000E-03 0.  1.
         12    1    4    4    0    0 -0.88350908490E+01 -0.13818020168E+02  0.43626594336E+01  0.16971426251E+02  0.00000000000E+00 0. -1.
</event>
<event>
 8    1  0.1210161E-006  0.9118800E+02  0.7816164E-02  0.1184000E+00
        -11   -1    0    0    0    0  0.00000000000E+00  0.00000000000E+00  0.45593999997E+02  0.45594000000E+02  0.51100000000E-03 0.  1.
         11   -1    0    0    0    0 -0.00000000000E+00 -0.00000000000E+00 -0.45593999997E+02  0.45594000000E+02  0.51100000000E-03 0. -1.
         23    2    1    2    0    0  0.00000000000E+00  0.00000000000E+00  0.35527136788E-14  0.91188000000E+02  0.91188000000E+02 0.  0.
    9900012    2    3    3    0    0  0.17731029877E+02  0.12891612117E+02  0.29583724905E+02  0.54367083896E+02  0.39999999357E+02 0.  0.
         12    1    3    3    0    0 -0.17731029877E+02 -0.12891612117E+02 -0.29583724905E+02  0.36820916104E+02  0.00000000000E+00 0. -1.
         11    1    4    4    0    0  0.15628503243E+02 -0.35274087970E+01  0.72752642271E+01  0.17596084686E+02  0.51100000000E-03 0. -1.
        -11    1    4    4    0    0 -0.42609629229E+01  0.49250336561E+01  0.22711604567E+02  0.23626864875E+02  0.51100000000E-03 0.  1.
        -12    1    4    4    0    0  0.63634895570E+01  0.11493987258E+02 -0.40314388876E+00  0.13144134335E+02  0.00000000000E+00 0.  1.
</event>
<event>
 8    1  0.1210161E-006  0.9118800E+02  0.7816164E-02  0.1184000E+00
        -11   -1    0    0    0    0  0.00000000000E+00  0.00000000000E+00  0.45593999997E+02  0.45594000000E+02  0.51100000000E-03 0. -1.
         11   -1    0    0    0    0 -0.00000000000E+00 -0.00000000000E+00 -0.45593999997E+02  0.45594000000E+02  0.51100000000E-03 0.  1.
         23    2    1    2    0    0  0.00000000000E+00  0.00000000000E+00  0.00000000000E+00  0.91188000000E+02  0.91188000000E+02 0.  0.
    9900012    2    3    3    0    0  0.18231787801E+02 -0.30596089259E+02 -0.93414275052E+01  0.54367068015E+02  0.39999963155E+02 0.  0.
        -12    1    3    3    0    0 -0.18231787801E+02  0.30596089259E+02  0.93414275052E+01  0.36820931985E+02  0.00000000000E+00 0.  1.
         11    1    4    4    0    0  0.61899649839E+01 -0.48386215052E+01 -0.17294675739E+02  0.18995624068E+02  0.51100000000E-03 0. -1.
        -11    1    4    4    0    0  0.15491895776E+01  0.32595591457E+01  0.75543230437E+00  0.36871930244E+01  0.51100000000E-03 0.  1.
         12    1    4    4    0    0  0.10492633240E+02 -0.29017026899E+02  0.71978159290E+01  0.31684250923E+02  0.00000000000E+00 0. -1.
</event>
<event>
 8    1  0.1210161E-006  0.9118800E+02  0.7816164E-02  0.1184000E+00
        -11   -1    0    0    0    0  0.00000000000E+00  0.00000000000E+00  0.45593999997E+02  0.45594000000E+02  0.51100000000E-03 0.  1.
         11   -1    0    0    0    0 -0.00000000000E+00 -0.00000000000E+00 -0.45593999997E+02  0.45594000000E+02  0.51100000000E-03 0. -1.
         23    2    1    2    0    0 -0.71054273576E-14  0.17763568394E-14  0.00000000000E+00  0.91188000000E+02  0.91188000000E+02 0.  0.
    9900012    2    3    3    0    0 -0.34302655524E+02  0.11728465091E+02  0.64460564016E+01  0.54367072356E+02  0.39999973050E+02 0.  0.
        -12    1    3    3    0    0  0.34302655524E+02 -0.11728465091E+02 -0.64460564016E+01  0.36820927644E+02  0.00000000000E+00 0.  1.
         11    1    4    4    0    0 -0.11315757562E+02 -0.58582309310E-01  0.46422448100E+01  0.12231117619E+02  0.51100000000E-03 0. -1.
        -11    1    4    4    0    0  0.16509090122E+01 -0.22721003347E+01  0.11746079007E+02  0.12077181493E+02  0.51100000000E-03 0.  1.
        -12    1    4    4    0    0 -0.24637806975E+02  0.14059147735E+02 -0.99422674159E+01  0.30058773244E+02  0.00000000000E+00 0.  1.
</event>
<event>
 8    1  0.1210161E-006  0.9118800E+02  0.7816164E-02  0.1184000E+00
        -11   -1    0    0    0    0  0.00000000000E+00  0.00000000000E+00  0.45593999997E+02  0.45594000000E+02  0.51100000000E-03 0.  1.
         11   -1    0    0    0    0 -0.00000000000E+00 -0.00000000000E+00 -0.45593999997E+02  0.45594000000E+02  0.51100000000E-03 0. -1.
         23    2    1    2    0    0  0.00000000000E+00 -0.17763568394E-14 -0.71054273576E-14  0.91188000000E+02  0.91188000000E+02 0.  0.
    9900012    2    3    3    0    0 -0.15585646085E+02 -0.11369840314E+02 -0.31362261054E+02  0.54367122076E+02  0.40000086398E+02 0.  0.
        -12    1    3    3    0    0  0.15585646085E+02  0.11369840314E+02  0.31362261054E+02  0.36820877924E+02  0.00000000000E+00 0.  1.
         11    1    4    4    0    0  0.22329434297E+01  0.75086440069E+01  0.36655697632E+01  0.86488249567E+01  0.51100000000E-03 0. -1.
        -11    1    4    4    0    0 -0.26590049605E+01 -0.28088254911E-01  0.53089339899E+00  0.27116313157E+01  0.51100000000E-03 0.  1.
         12    1    4    4    0    0 -0.15159584554E+02 -0.18850396066E+02 -0.35558724216E+02  0.43006665804E+02  0.00000000000E+00 0. -1.
</event>
<event>
 8    1  0.1210161E-006  0.9118800E+02  0.7816164E-02  0.1184000E+00
        -11   -1    0    0    0    0  0.00000000000E+00  0.00000000000E+00  0.45593999997E+02  0.45594000000E+02  0.51100000000E-03 0.  1.
         11   -1    0    0    0    0 -0.00000000000E+00 -0.00000000000E+00 -0.45593999997E+02  0.45594000000E+02  0.51100000000E-03 0. -1.
         23    2    1    2    0    0 -0.99920072216E-15 -0.71054273576E-14  0.00000000000E+00  0.91188000000E+02  0.91188000000E+02 0.  0.
    9900012    2    3    3    0    0  0.63204187090E+00 -0.34685956907E+02  0.12339553515E+02  0.54367086589E+02  0.40000005497E+02 0.  0.
         12    1    3    3    0    0 -0.63204187090E+00  0.34685956907E+02 -0.12339553515E+02  0.36820913411E+02  0.00000000000E+00 0. -1.
         11    1    4    4    0    0  0.54661724219E+01 -0.63925697585E+00 -0.88764799994E+00  0.55745501756E+01  0.51100000000E-03 0. -1.
        -11    1    4    4    0    0 -0.12851680041E+02 -0.95776994815E+01 -0.55088779492E+01  0.16948325692E+02  0.51100000000E-03 0.  1.
         12    1    4    4    0    0  0.80175494900E+01 -0.24469000449E+02  0.18736079464E+02  0.31844210722E+02  0.00000000000E+00 0. -1.
</event>
<event>
 8    1  0.1210161E-006  0.9118800E+02  0.7816164E-02  0.1184000E+00
        -11   -1    0    0    0    0  0.00000000000E+00  0.00000000000E+00  0.45593999997E+02  0.45594000000E+02  0.51100000000E-03 0. -1.
         11   -1    0    0    0    0 -0.00000000000E+00 -0.00000000000E+00 -0.45593999997E+02  0.45594000000E+02  0.51100000000E-03 0.  1.
         23    2    1    2    0    0  0.35527136788E-14  0.00000000000E+00  0.35527136788E-14  0.91188000000E+02  0.91188000000E+02 0.  0.
    9900012    2    3    3    0    0 -0.26335412919E+02 -0.12761363118E+02 -0.22346677275E+02  0.54367077313E+02  0.39999984351E+02 0.  0.
         12    1    3    3    0    0  0.26335412919E+02  0.12761363118E+02  0.22346677275E+02  0.36820922687E+02  0.00000000000E+00 0. -1.
         11    1    4    4    0    0 -0.29388771999E+01  0.61848617705E+01 -0.11879958109E+02  0.13712144955E+02  0.51100000000E-03 0. -1.
        -11    1    4    4    0    0 -0.18228766956E+02 -0.49928443444E+01 -0.16016669510E+02  0.24773981146E+02  0.51100000000E-03 0.  1.
         12    1    4    4    0    0 -0.51677687632E+01 -0.13953380544E+02  0.55499503442E+01  0.15880951212E+02  0.00000000000E+00 0. -1.
</event>
<event>
 8    1  0.1210161E-006  0.9118800E+02  0.7816164E-02  0.1184000E+00
        -11   -1    0    0    0    0  0.00000000000E+00  0.00000000000E+00  0.45593999997E+02  0.45594000000E+02  0.51100000000E-03 0.  1.
         11   -1    0    0    0    0 -0.00000000000E+00 -0.00000000000E+00 -0.45593999997E+02  0.45594000000E+02  0.51100000000E-03 0. -1.
         23    2    1    2    0    0  0.00000000000E+00  0.00000000000E+00 -0.35527136788E-14  0.91188000000E+02  0.91188000000E+02 0.  0.
    9900012    2    3    3    0    0  0.11811767193E+02 -0.16632318517E+02 -0.30653356405E+02  0.54367080370E+02  0.39999991320E+02 0.  0.
        -12    1    3    3    0    0 -0.11811767193E+02  0.16632318517E+02  0.30653356405E+02  0.36820919630E+02  0.00000000000E+00 0.  1.
         11    1    4    4    0    0  0.36319268211E+01 -0.96599526407E+01 -0.16178341724E+01  0.10446193810E+02  0.51100000000E-03 0.  1.
        -11    1    4    4    0    0 -0.30379440220E+01 -0.17382938516E+02 -0.15223917197E+02  0.23305864293E+02  0.51100000000E-03 0. -1.
         12    1    4    4    0    0  0.11217784394E+02  0.10410572640E+02 -0.13811605035E+02  0.20615022267E+02  0.00000000000E+00 0. -1.
</event>
<event>
 8    1  0.1210161E-006  0.9118800E+02  0.7816164E-02  0.1184000E+00
        -11   -1    0    0    0    0  0.00000000000E+00  0.00000000000E+00  0.45593999997E+02  0.45594000000E+02  0.51100000000E-03 0.  1.
         11   -1    0    0    0    0 -0.00000000000E+00 -0.00000000000E+00 -0.45593999997E+02  0.45594000000E+02  0.51100000000E-03 0. -1.
         23    2    1    2    0    0 -0.35527136788E-14  0.71054273576E-14  0.00000000000E+00  0.91188000000E+02  0.91188000000E+02 0.  0.
    9900012    2    3    3    0    0 -0.11448951279E+02  0.33704150193E+02 -0.94198501209E+01  0.54367057563E+02  0.39999939327E+02 0.  0.
         12    1    3    3    0    0  0.11448951279E+02 -0.33704150193E+02  0.94198501209E+01  0.36820942437E+02  0.00000000000E+00 0. -1.
         11    1    4    4    0    0  0.48530407768E+01 -0.48606935867E+01 -0.38502453743E+01  0.78741816482E+01  0.51100000000E-03 0. -1.
        -11    1    4    4    0    0  0.67496063706E+00  0.68219736551E+01  0.55464372839E+01  0.88180419152E+01  0.51100000000E-03 0.  1.
         12    1    4    4    0    0 -0.16976952692E+02  0.31742870125E+02 -0.11116042030E+02  0.37674834000E+02  0.00000000000E+00 0. -1.
</event>
<event>
 8    1  0.1210161E-006  0.9118800E+02  0.7816164E-02  0.1184000E+00
        -11   -1    0    0    0    0  0.00000000000E+00  0.00000000000E+00  0.45593999997E+02  0.45594000000E+02  0.51100000000E-03 0. -1.
         11   -1    0    0    0    0 -0.00000000000E+00 -0.00000000000E+00 -0.45593999997E+02  0.45594000000E+02  0.51100000000E-03 0.  1.
         23    2    1    2    0    0 -0.55511151231E-16  0.71054273576E-14  0.00000000000E+00  0.91188000000E+02  0.91188000000E+02 0.  0.
    9900012    2    3    3    0    0 -0.43095475996E+00  0.36770536042E+02 -0.18767716340E+01  0.54367077760E+02  0.39999985371E+02 0.  0.
        -12    1    3    3    0    0  0.43095475996E+00 -0.36770536042E+02  0.18767716340E+01  0.36820922240E+02  0.00000000000E+00 0.  1.
         11    1    4    4    0    0  0.39832174940E+01 -0.72132735798E+01  0.21749732807E+01  0.85221972738E+01  0.51100000000E-03 0. -1.
        -11    1    4    4    0    0 -0.50029463402E+01  0.17457965844E+02  0.29631708082E+01  0.18400826747E+02  0.51100000000E-03 0.  1.
         12    1    4    4    0    0  0.58877408625E+00  0.26525843778E+02 -0.70149157229E+01  0.27444053739E+02  0.00000000000E+00 0. -1.
</event>
<event>
 8    1  0.1210161E-006  0.9118800E+02  0.7816164E-02  0.1184000E+00
        -11   -1    0    0    0    0  0.00000000000E+00  0.00000000000E+00  0.45593999997E+02  0.45594000000E+02  0.51100000000E-03 0. -1.
         11   -1    0    0    0    0 -0.00000000000E+00 -0.00000000000E+00 -0.45593999997E+02  0.45594000000E+02  0.51100000000E-03 0.  1.
         23    2    1    2    0    0  0.00000000000E+00 -0.66613381478E-15  0.88817841970E-15  0.91188000000E+02  0.91188000000E+02 0.  0.
    9900012    2    3    3    0    0  0.36300694658E+02 -0.11742573956E+01  0.60548228156E+01  0.54367079419E+02  0.39999989152E+02 0.  0.
        -12    1    3    3    0    0 -0.36300694658E+02  0.11742573956E+01 -0.60548228156E+01  0.36820920581E+02  0.00000000000E+00 0.  1.
         11    1    4    4    0    0  0.29475945318E+02 -0.50189002584E+01 -0.38529455866E+01  0.30147402909E+02  0.51100000000E-03 0. -1.
        -11    1    4    4    0    0  0.71294346785E+01  0.75548743952E+01 -0.29786122086E+01  0.10806345215E+02  0.51100000000E-03 0.  1.
         12    1    4    4    0    0 -0.30468533851E+00 -0.37102315324E+01  0.12886380611E+02  0.13413331295E+02  0.00000000000E+00 0. -1.
</event>
<event>
 8    1  0.1210161E-006  0.9118800E+02  0.7816164E-02  0.1184000E+00
        -11   -1    0    0    0    0  0.00000000000E+00  0.00000000000E+00  0.45593999997E+02  0.45594000000E+02  0.51100000000E-03 0. -1.
         11   -1    0    0    0    0 -0.00000000000E+00 -0.00000000000E+00 -0.45593999997E+02  0.45594000000E+02  0.51100000000E-03 0.  1.
         23    2    1    2    0    0  0.00000000000E+00 -0.53290705182E-14  0.88817841970E-15  0.91188000000E+02  0.91188000000E+02 0.  0.
    9900012    2    3    3    0    0  0.34879552744E+02  0.10367586172E+02 -0.56312137087E+01  0.54367073742E+02  0.39999976210E+02 0.  0.
         12    1    3    3    0    0 -0.34879552744E+02 -0.10367586172E+02  0.56312137087E+01  0.36820926258E+02  0.00000000000E+00 0. -1.
         11    1    4    4    0    0  0.56882623043E+01 -0.83445697611E+01 -0.48496583102E-02  0.10098920552E+02  0.51100000000E-03 0. -1.
        -11    1    4    4    0    0  0.14238827936E+02  0.14320742269E+02 -0.15813902627E+02  0.25649705587E+02  0.51100000000E-03 0.  1.
         12    1    4    4    0    0  0.14952462503E+02  0.43914136634E+01  0.10187538577E+02  0.18618447603E+02  0.00000000000E+00 0. -1.
</event>
<event>
 8    1  0.1210161E-006  0.9118800E+02  0.7816164E-02  0.1184000E+00
        -11   -1    0    0    0    0  0.00000000000E+00  0.00000000000E+00  0.45593999997E+02  0.45594000000E+02  0.51100000000E-03 0. -1.
         11   -1    0    0    0    0 -0.00000000000E+00 -0.00000000000E+00 -0.45593999997E+02  0.45594000000E+02  0.51100000000E-03 0.  1.
         23    2    1    2    0    0  0.35527136788E-14 -0.35527136788E-14 -0.71054273576E-14  0.91188000000E+02  0.91188000000E+02 0.  0.
    9900012    2    3    3    0    0 -0.25817557871E+02  0.11113423282E+02  0.23785013381E+02  0.54367063931E+02  0.39999953843E+02 0.  0.
        -12    1    3    3    0    0  0.25817557871E+02 -0.11113423282E+02 -0.23785013381E+02  0.36820936069E+02  0.00000000000E+00 0.  1.
         11    1    4    4    0    0 -0.27949790878E+00 -0.32240600094E+01 -0.25966525269E+01  0.41491308285E+01  0.51100000000E-03 0. -1.
        -11    1    4    4    0    0  0.77787928502E-01  0.30582707334E+01 -0.64117071173E+01  0.71041578853E+01  0.51100000000E-03 0.  1.
         12    1    4    4    0    0 -0.25615847891E+02  0.11279212558E+02  0.32793373025E+02  0.43113775217E+02  0.00000000000E+00 0. -1.
</event>
<event>
 8    1  0.1210161E-006  0.9118800E+02  0.7816164E-02  0.1184000E+00
        -11   -1    0    0    0    0  0.00000000000E+00  0.00000000000E+00  0.45593999997E+02  0.45594000000E+02  0.51100000000E-03 0.  1.
         11   -1    0    0    0    0 -0.00000000000E+00 -0.00000000000E+00 -0.45593999997E+02  0.45594000000E+02  0.51100000000E-03 0. -1.
         23    2    1    2    0    0  0.00000000000E+00  0.00000000000E+00  0.00000000000E+00  0.91188000000E+02  0.91188000000E+02 0.  0.
    9900012    2    3    3    0    0 -0.78163714249E+01 -0.31215701860E+02  0.17895916845E+02  0.54367088216E+02  0.40000009206E+02 0.  0.
         12    1    3    3    0    0  0.78163714249E+01  0.31215701860E+02 -0.17895916845E+02  0.36820911784E+02  0.00000000000E+00 0. -1.
         11    1    4    4    0    0 -0.86234202007E+01 -0.27263940543E+02  0.14776823143E+02  0.32187580405E+02  0.51100000000E-03 0. -1.
        -11    1    4    4    0    0  0.21042427557E+01 -0.85259509407E+01  0.10319889758E+02  0.13550638431E+02  0.51100000000E-03 0.  1.
        -12    1    4    4    0    0 -0.12971939799E+01  0.45741896233E+01 -0.72007960560E+01  0.86288693797E+01  0.00000000000E+00 0.  1.
</event>
<event>
 8    1  0.1210161E-006  0.9118800E+02  0.7816164E-02  0.1184000E+00
        -11   -1    0    0    0    0  0.00000000000E+00  0.00000000000E+00  0.45593999997E+02  0.45594000000E+02  0.51100000000E-03 0.  1.
         11   -1    0    0    0    0 -0.00000000000E+00 -0.00000000000E+00 -0.45593999997E+02  0.45594000000E+02  0.51100000000E-03 0. -1.
         23    2    1    2    0    0  0.35527136788E-14 -0.17763568394E-14  0.35527136788E-14  0.91188000000E+02  0.91188000000E+02 0.  0.
    9900012    2    3    3    0    0 -0.21748464709E+02 -0.85513633260E+01 -0.28454485322E+02  0.54367091987E+02  0.40000017803E+02 0.  0.
        -12    1    3    3    0    0  0.21748464709E+02  0.85513633260E+01  0.28454485322E+02  0.36820908013E+02  0.00000000000E+00 0.  1.
         11    1    4    4    0    0 -0.96767758685E+01 -0.61135770419E+01 -0.11265106720E+02  0.16059839512E+02  0.51100000000E-03 0. -1.
        -11    1    4    4    0    0  0.44363781607E+01  0.76786278697E+01 -0.16736409410E+02  0.18940701607E+02  0.51100000000E-03 0.  1.
        -12    1    4    4    0    0 -0.16508067001E+02 -0.10116414154E+02 -0.45296919124E+00  0.19366550869E+02  0.00000000000E+00 0.  1.
</event>
<event>
 8    1  0.1210161E-006  0.9118800E+02  0.7816164E-02  0.1184000E+00
        -11   -1    0    0    0    0  0.00000000000E+00  0.00000000000E+00  0.45593999997E+02  0.45594000000E+02  0.51100000000E-03 0.  1.
         11   -1    0    0    0    0 -0.00000000000E+00 -0.00000000000E+00 -0.45593999997E+02  0.45594000000E+02  0.51100000000E-03 0. -1.
         23    2    1    2    0    0  0.00000000000E+00  0.00000000000E+00  0.00000000000E+00  0.91188000000E+02  0.91188000000E+02 0.  0.
    9900012    2    3    3    0    0  0.16382286056E+02  0.21585618265E+02  0.24929153753E+02  0.54367069551E+02  0.39999966655E+02 0.  0.
        -12    1    3    3    0    0 -0.16382286056E+02 -0.21585618265E+02 -0.24929153753E+02  0.36820930449E+02  0.00000000000E+00 0.  1.
         11    1    4    4    0    0  0.25992672192E+02  0.15904324489E+02  0.17790334457E+02  0.35285443819E+02  0.51100000000E-03 0. -1.
        -11    1    4    4    0    0  0.60048917743E+00 -0.36712079415E+01  0.59786233253E+00  0.37677307006E+01  0.51100000000E-03 0.  1.
         12    1    4    4    0    0 -0.10210875314E+02  0.93525017169E+01  0.65409569642E+01  0.15313895032E+02  0.00000000000E+00 0. -1.
</event>
<event>
 8    1  0.1210161E-006  0.9118800E+02  0.7816164E-02  0.1184000E+00
        -11   -1    0    0    0    0  0.00000000000E+00  0.00000000000E+00  0.45593999997E+02  0.45594000000E+02  0.51100000000E-03 0.  1.
         11   -1    0    0    0    0 -0.00000000000E+00 -0.00000000000E+00 -0.45593999997E+02  0.45594000000E+02  0.51100000000E-03 0. -1.
         23    2    1    2    0    0  0.44408920985E-15  0.17763568394E-14  0.00000000000E+00  0.91188000000E+02  0.91188000000E+02 0.  0.
    9900012    2    3    3    0    0  0.91635622451E+00  0.10750261339E+02  0.35204778557E+02  0.54367024173E+02  0.39999863208E+02 0.  0.
         12    1    3    3    0    0 -0.91635622451E+00 -0.10750261339E+02 -0.35204778557E+02  0.36820975827E+02  0.00000000000E+00 0. -1.
         11    1    4    4    0    0 -0.43414486376E+01 -0.52086522531E+01  0.25095259446E+01  0.72302112898E+01  0.51100000000E-03 0. -1.
        -11    1    4    4    0    0  0.11842240821E+02  0.19730896062E+02  0.13940574608E+02  0.26905139802E+02  0.51100000000E-03 0.  1.
        -12    1    4    4    0    0 -0.65844359591E+01 -0.37719824700E+01  0.18754678004E+02  0.20231673082E+02  0.00000000000E+00 0.  1.
</event>
<event>
 8    1  0.1210161E-006  0.9118800E+02  0.7816164E-02  0.1184000E+00
        -11   -1    0    0    0    0  0.00000000000E+00  0.00000000000E+00  0.45593999997E+02  0.45594000000E+02  0.51100000000E-03 0.  1.
         11   -1    0    0    0    0 -0.00000000000E+00 -0.00000000000E+00 -0.45593999997E+02  0.45594000000E+02  0.51100000000E-03 0. -1.
         23    2    1    2    0    0  0.00000000000E+00  0.00000000000E+00  0.22204460493E-14  0.91188000000E+02  0.91188000000E+02 0.  0.
    9900012    2    3    3    0    0 -0.11188137715E+02 -0.34943019628E+02 -0.30969271337E+01  0.54367081979E+02  0.39999994987E+02 0.  0.
        -12    1    3    3    0    0  0.11188137715E+02  0.34943019628E+02  0.30969271337E+01  0.36820918021E+02  0.00000000000E+00 0.  1.
         11    1    4    4    0    0 -0.57644393765E+00 -0.16194662761E+02  0.12367765420E+02  0.20385313618E+02  0.51100000000E-03 0.  1.
        -11    1    4    4    0    0 -0.13063525152E+02 -0.22194543068E+02 -0.14791366504E+02  0.29699123804E+02  0.51100000000E-03 0. -1.
        -12    1    4    4    0    0  0.24518313747E+01  0.34461862019E+01 -0.67332604949E+00  0.42826445564E+01  0.00000000000E+00 0.  1.
</event>
<event>
 8    1  0.1210161E-006  0.9118800E+02  0.7816164E-02  0.1184000E+00
        -11   -1    0    0    0    0  0.00000000000E+00  0.00000000000E+00  0.45593999997E+02  0.45594000000E+02  0.51100000000E-03 0.  1.
         11   -1    0    0    0    0 -0.00000000000E+00 -0.00000000000E+00 -0.45593999997E+02  0.45594000000E+02  0.51100000000E-03 0. -1.
         23    2    1    2    0    0 -0.35527136788E-14 -0.35527136788E-14  0.17763568394E-14  0.91188000000E+02  0.91188000000E+02 0.  0.
    9900012    2    3    3    0    0 -0.30225782543E+02 -0.16536667969E+02  0.12989188540E+02  0.54367104617E+02  0.40000046596E+02 0.  0.
        -12    1    3    3    0    0  0.30225782543E+02  0.16536667969E+02 -0.12989188540E+02  0.36820895383E+02  0.00000000000E+00 0.  1.
         11    1    4    4    0    0 -0.15073364988E+02 -0.46233541240E+01 -0.12267865095E+02  0.19977043066E+02  0.51100000000E-03 0. -1.
        -11    1    4    4    0    0 -0.14863230106E+02 -0.43081537497E+01  0.14453579069E+02  0.21175026472E+02  0.51100000000E-03 0.  1.
        -12    1    4    4    0    0 -0.28918744912E+00 -0.76051600949E+01  0.10803474567E+02  0.13215035080E+02  0.00000000000E+00 0.  1.
</event>
<event>
 8    1  0.1210161E-006  0.9118800E+02  0.7816164E-02  0.1184000E+00
        -11   -1    0    0    0    0  0.00000000000E+00  0.00000000000E+00  0.45593999997E+02  0.45594000000E+02  0.51100000000E-03 0. -1.
         11   -1    0    0    0    0 -0.00000000000E+00 -0.00000000000E+00 -0.45593999997E+02  0.45594000000E+02  0.51100000000E-03 0.  1.
         23    2    1    2    0    0  0.00000000000E+00  0.00000000000E+00  0.00000000000E+00  0.91188000000E+02  0.91188000000E+02 0.  0.
    9900012    2    3    3    0    0 -0.29263995875E+02 -0.11188608785E+02 -0.19344540956E+02  0.54367113456E+02  0.40000066745E+02 0.  0.
         12    1    3    3    0    0  0.29263995875E+02  0.11188608785E+02  0.19344540956E+02  0.36820886544E+02  0.00000000000E+00 0. -1.
         11    1    4    4    0    0  0.11924375897E+01 -0.97800286434E+01 -0.16537346719E+00  0.98538427182E+01  0.51100000000E-03 0.  1.
        -11    1    4    4    0    0 -0.23309381328E+02  0.10065038143E+02 -0.70462197535E+01  0.26349221312E+02  0.51100000000E-03 0. -1.
        -12    1    4    4    0    0 -0.71470521367E+01 -0.11473618284E+02 -0.12132947735E+02  0.18164049425E+02  0.00000000000E+00 0.  1.
</event>
<event>
 8    1  0.1210161E-006  0.9118800E+02  0.7816164E-02  0.1184000E+00
        -11   -1    0    0    0    0  0.00000000000E+00  0.00000000000E+00  0.45593999997E+02  0.45594000000E+02  0.51100000000E-03 0. -1.
         11   -1    0    0    0    0 -0.00000000000E+00 -0.00000000000E+00 -0.45593999997E+02  0.45594000000E+02  0.51100000000E-03 0.  1.
         23    2    1    2    0    0  0.00000000000E+00  0.17763568394E-14  0.00000000000E+00  0.91188000000E+02  0.91188000000E+02 0.  0.
    9900012    2    3    3    0    0 -0.32371036022E+02 -0.10759812197E+02 -0.13860827681E+02  0.54367081005E+02  0.39999992767E+02 0.  0.
         12    1    3    3    0    0  0.32371036022E+02  0.10759812197E+02  0.13860827681E+02  0.36820918995E+02  0.00000000000E+00 0. -1.
         11    1    4    4    0    0 -0.12730450341E+02  0.75445133505E+01  0.39919738109E+01  0.15327097010E+02  0.51100000000E-03 0. -1.
        -11    1    4    4    0    0 -0.19377422679E+02 -0.22779899789E+02 -0.13575571159E+02  0.32843636775E+02  0.51100000000E-03 0.  1.
        -12    1    4    4    0    0 -0.26316300209E+00  0.44755742411E+01 -0.42772303328E+01  0.61963472202E+01  0.00000000000E+00 0.  1.
</event>
<event>
 8    1  0.1210161E-006  0.9118800E+02  0.7816164E-02  0.1184000E+00
        -11   -1    0    0    0    0  0.00000000000E+00  0.00000000000E+00  0.45593999997E+02  0.45594000000E+02  0.51100000000E-03 0.  1.
         11   -1    0    0    0    0 -0.00000000000E+00 -0.00000000000E+00 -0.45593999997E+02  0.45594000000E+02  0.51100000000E-03 0. -1.
         23    2    1    2    0    0 -0.88817841970E-15  0.17763568394E-14  0.00000000000E+00  0.91188000000E+02  0.91188000000E+02 0.  0.
    9900012    2    3    3    0    0  0.77480030200E+01  0.86371841242E+01  0.34944901315E+02  0.54367100659E+02  0.40000037572E+02 0.  0.
         12    1    3    3    0    0 -0.77480030200E+01 -0.86371841242E+01 -0.34944901315E+02  0.36820899341E+02  0.00000000000E+00 0. -1.
         11    1    4    4    0    0  0.71082091621E+01  0.14245758809E+02  0.17837804630E+02  0.23909319435E+02  0.51100000000E-03 0. -1.
        -11    1    4    4    0    0  0.76176248627E+01  0.67786900366E+01  0.35076136950E+01  0.10783422521E+02  0.51100000000E-03 0.  1.
         12    1    4    4    0    0 -0.69778310048E+01 -0.12387264722E+02  0.13599482990E+02  0.19674358704E+02  0.00000000000E+00 0. -1.
</event>
<event>
 8    1  0.1210161E-006  0.9118800E+02  0.7816164E-02  0.1184000E+00
        -11   -1    0    0    0    0  0.00000000000E+00  0.00000000000E+00  0.45593999997E+02  0.45594000000E+02  0.51100000000E-03 0.  1.
         11   -1    0    0    0    0 -0.00000000000E+00 -0.00000000000E+00 -0.45593999997E+02  0.45594000000E+02  0.51100000000E-03 0. -1.
         23    2    1    2    0    0  0.17763568394E-14  0.00000000000E+00 -0.35527136788E-14  0.91188000000E+02  0.91188000000E+02 0.  0.
    9900012    2    3    3    0    0 -0.11753249734E+02 -0.17315932861E+02  0.30295192383E+02  0.54367094367E+02  0.40000023228E+02 0.  0.
         12    1    3    3    0    0  0.11753249734E+02  0.17315932861E+02 -0.30295192383E+02  0.36820905633E+02  0.00000000000E+00 0. -1.
         11    1    4    4    0    0  0.21311330767E+01 -0.10045040698E+02  0.86310265798E+01  0.13414141452E+02  0.51100000000E-03 0. -1.
        -11    1    4    4    0    0 -0.13330813626E+02 -0.15441886481E+02  0.24862697563E+02  0.32160786377E+02  0.51100000000E-03 0.  1.
        -12    1    4    4    0    0 -0.55356918431E+00  0.81709943187E+01 -0.31985317597E+01  0.87921665371E+01  0.00000000000E+00 0.  1.
</event>
<event>
 8    1  0.1210161E-006  0.9118800E+02  0.7816164E-02  0.1184000E+00
        -11   -1    0    0    0    0  0.00000000000E+00  0.00000000000E+00  0.45593999997E+02  0.45594000000E+02  0.51100000000E-03 0. -1.
         11   -1    0    0    0    0 -0.00000000000E+00 -0.00000000000E+00 -0.45593999997E+02  0.45594000000E+02  0.51100000000E-03 0.  1.
         23    2    1    2    0    0  0.00000000000E+00 -0.35527136788E-14 -0.35527136788E-14  0.91188000000E+02  0.91188000000E+02 0.  0.
    9900012    2    3    3    0    0  0.27239611112E+02 -0.16974455208E+02 -0.18045776070E+02  0.54367101354E+02  0.40000039156E+02 0.  0.
         12    1    3    3    0    0 -0.27239611112E+02  0.16974455208E+02  0.18045776070E+02  0.36820898646E+02  0.00000000000E+00 0. -1.
         11    1    4    4    0    0  0.27408085426E+02  0.15699456451E+01 -0.63685066839E+01  0.28182011172E+02  0.51100000000E-03 0. -1.
        -11    1    4    4    0    0  0.64325720932E+01 -0.10939052520E+02 -0.33691256473E+01  0.13129808135E+02  0.51100000000E-03 0.  1.
        -12    1    4    4    0    0 -0.66010464074E+01 -0.76053483328E+01 -0.83081437386E+01  0.13055282047E+02  0.00000000000E+00 0.  1.
</event>
<event>
 8    1  0.1210161E-006  0.9118800E+02  0.7816164E-02  0.1184000E+00
        -11   -1    0    0    0    0  0.00000000000E+00  0.00000000000E+00  0.45593999997E+02  0.45594000000E+02  0.51100000000E-03 0. -1.
         11   -1    0    0    0    0 -0.00000000000E+00 -0.00000000000E+00 -0.45593999997E+02  0.45594000000E+02  0.51100000000E-03 0.  1.
         23    2    1    2    0    0  0.00000000000E+00 -0.35527136788E-14  0.00000000000E+00  0.91188000000E+02  0.91188000000E+02 0.  0.
    9900012    2    3    3    0    0  0.11120437337E+02 -0.23323736610E+02 -0.26232011101E+02  0.54367092591E+02  0.40000019179E+02 0.  0.
         12    1    3    3    0    0 -0.11120437337E+02  0.23323736610E+02  0.26232011101E+02  0.36820907409E+02  0.00000000000E+00 0. -1.
         11    1    4    4    0    0 -0.74008772139E+01 -0.25735899924E+01 -0.11813618143E+01  0.79241381223E+01  0.51100000000E-03 0. -1.
        -11    1    4    4    0    0 -0.16739319069E+01 -0.23594214115E+00  0.47303217717E+01  0.50233117610E+01  0.51100000000E-03 0.  1.
        -12    1    4    4    0    0  0.20195246458E+02 -0.20514204477E+02 -0.29780971059E+02  0.41419642707E+02  0.00000000000E+00 0.  1.
</event>
<event>
 8    1  0.1210161E-006  0.9118800E+02  0.7816164E-02  0.1184000E+00
        -11   -1    0    0    0    0  0.00000000000E+00  0.00000000000E+00  0.45593999997E+02  0.45594000000E+02  0.51100000000E-03 0.  1.
         11   -1    0    0    0    0 -0.00000000000E+00 -0.00000000000E+00 -0.45593999997E+02  0.45594000000E+02  0.51100000000E-03 0. -1.
         23    2    1    2    0    0  0.00000000000E+00  0.00000000000E+00  0.17763568394E-14  0.91188000000E+02  0.91188000000E+02 0.  0.
    9900012    2    3    3    0    0  0.11629274387E+02  0.32239253997E+02 -0.13459907970E+02  0.54367100451E+02  0.40000037098E+02 0.  0.
        -12    1    3    3    0    0 -0.11629274387E+02 -0.32239253997E+02  0.13459907970E+02  0.36820899549E+02  0.00000000000E+00 0.  1.
         11    1    4    4    0    0 -0.20907551524E+01  0.27290539206E+02 -0.10556986115E+02  0.29335895134E+02  0.51100000000E-03 0. -1.
        -11    1    4    4    0    0  0.87620896900E+01 -0.18860903213E+01 -0.10407250516E+02  0.13734715723E+02  0.51100000000E-03 0.  1.
         12    1    4    4    0    0  0.49579398492E+01  0.68348051125E+01  0.75043286607E+01  0.11296489593E+02  0.00000000000E+00 0. -1.
</event>
<event>
 8    1  0.1210161E-006  0.9118800E+02  0.7816164E-02  0.1184000E+00
        -11   -1    0    0    0    0  0.00000000000E+00  0.00000000000E+00  0.45593999997E+02  0.45594000000E+02  0.51100000000E-03 0. -1.
         11   -1    0    0    0    0 -0.00000000000E+00 -0.00000000000E+00 -0.45593999997E+02  0.45594000000E+02  0.51100000000E-03 0.  1.
         23    2    1    2    0    0 -0.35527136788E-14  0.26645352591E-14  0.00000000000E+00  0.91188000000E+02  0.91188000000E+02 0.  0.
    9900012    2    3    3    0    0 -0.29155690408E+02 -0.22331071458E+01 -0.22377172047E+02  0.54367097247E+02  0.40000029795E+02 0.  0.
         12    1    3    3    0    0  0.29155690408E+02  0.22331071458E+01  0.22377172047E+02  0.36820902753E+02  0.00000000000E+00 0. -1.
         11    1    4    4    0    0  0.59487449334E+00 -0.67699397050E+01 -0.79273785434E+01  0.10441709156E+02  0.51100000000E-03 0. -1.
        -11    1    4    4    0    0 -0.25335496228E+01 -0.10212525296E+02 -0.38518833067E+01  0.11204978889E+02  0.51100000000E-03 0.  1.
        -12    1    4    4    0    0 -0.27217015279E+02  0.14749357856E+02 -0.10597910197E+02  0.32720409203E+02  0.00000000000E+00 0.  1.
</event>
<event>
 8    1  0.1210161E-006  0.9118800E+02  0.7816164E-02  0.1184000E+00
        -11   -1    0    0    0    0  0.00000000000E+00  0.00000000000E+00  0.45593999997E+02  0.45594000000E+02  0.51100000000E-03 0.  1.
         11   -1    0    0    0    0 -0.00000000000E+00 -0.00000000000E+00 -0.45593999997E+02  0.45594000000E+02  0.51100000000E-03 0. -1.
         23    2    1    2    0    0 -0.35527136788E-14  0.00000000000E+00  0.00000000000E+00  0.91188000000E+02  0.91188000000E+02 0.  0.
    9900012    2    3    3    0    0 -0.27069340064E+02 -0.52322681286E+01  0.24406018415E+02  0.54367088331E+02  0.40000009469E+02 0.  0.
         12    1    3    3    0    0  0.27069340064E+02  0.52322681286E+01 -0.24406018415E+02  0.36820911669E+02  0.00000000000E+00 0. -1.
         11    1    4    4    0    0 -0.24035493848E+02 -0.12643305289E+00 -0.10642461068E+01  0.24059375924E+02  0.51100000000E-03 0. -1.
        -11    1    4    4    0    0 -0.11625986127E+01 -0.99748820747E+01  0.10847168488E+02  0.14782116642E+02  0.51100000000E-03 0.  1.
        -12    1    4    4    0    0 -0.18712476035E+01  0.48690469990E+01  0.14623096033E+02  0.15525595766E+02  0.00000000000E+00 0.  1.
</event>
<event>
 8    1  0.1210161E-006  0.9118800E+02  0.7816164E-02  0.1184000E+00
        -11   -1    0    0    0    0  0.00000000000E+00  0.00000000000E+00  0.45593999997E+02  0.45594000000E+02  0.51100000000E-03 0.  1.
         11   -1    0    0    0    0 -0.00000000000E+00 -0.00000000000E+00 -0.45593999997E+02  0.45594000000E+02  0.51100000000E-03 0. -1.
         23    2    1    2    0    0  0.88817841970E-15  0.00000000000E+00  0.17763568394E-14  0.91188000000E+02  0.91188000000E+02 0.  0.
    9900012    2    3    3    0    0  0.69734995992E+01 -0.34704295744E+02  0.10137172323E+02  0.54367080641E+02  0.39999991937E+02 0.  0.
         12    1    3    3    0    0 -0.69734995992E+01  0.34704295744E+02 -0.10137172323E+02  0.36820919359E+02  0.00000000000E+00 0. -1.
         11    1    4    4    0    0 -0.86766042173E+00 -0.49972515662E+01 -0.24632001812E+01  0.56385027461E+01  0.51100000000E-03 0. -1.
        -11    1    4    4    0    0  0.40889488522E+01 -0.34485895787E+02 -0.13695117418E-01  0.34727463178E+02  0.51100000000E-03 0.  1.
        -12    1    4    4    0    0  0.37522111688E+01  0.47788516093E+01  0.12614067622E+02  0.14001114717E+02  0.00000000000E+00 0.  1.
</event>
<event>
 8    1  0.1210161E-006  0.9118800E+02  0.7816164E-02  0.1184000E+00
        -11   -1    0    0    0    0  0.00000000000E+00  0.00000000000E+00  0.45593999997E+02  0.45594000000E+02  0.51100000000E-03 0.  1.
         11   -1    0    0    0    0 -0.00000000000E+00 -0.00000000000E+00 -0.45593999997E+02  0.45594000000E+02  0.51100000000E-03 0. -1.
         23    2    1    2    0    0  0.00000000000E+00  0.00000000000E+00  0.00000000000E+00  0.91188000000E+02  0.91188000000E+02 0.  0.
    9900012    2    3    3    0    0  0.16044075666E+02  0.20350804615E+02 -0.26157452666E+02  0.54367082814E+02  0.39999996890E+02 0.  0.
        -12    1    3    3    0    0 -0.16044075666E+02 -0.20350804615E+02  0.26157452666E+02  0.36820917186E+02  0.00000000000E+00 0.  1.
         11    1    4    4    0    0  0.21155956211E+02  0.24236333317E+02 -0.96333656816E+01  0.33582377380E+02  0.51100000000E-03 0. -1.
        -11    1    4    4    0    0 -0.71541156476E+01  0.66346095822E+00 -0.12322664075E+02  0.14264277104E+02  0.51100000000E-03 0.  1.
        -12    1    4    4    0    0  0.20422351030E+01 -0.45489896598E+01 -0.42014229095E+01  0.65204283299E+01  0.00000000000E+00 0.  1.
</event>
<event>
 8    1  0.1210161E-006  0.9118800E+02  0.7816164E-02  0.1184000E+00
        -11   -1    0    0    0    0  0.00000000000E+00  0.00000000000E+00  0.45593999997E+02  0.45594000000E+02  0.51100000000E-03 0. -1.
         11   -1    0    0    0    0 -0.00000000000E+00 -0.00000000000E+00 -0.45593999997E+02  0.45594000000E+02  0.51100000000E-03 0.  1.
         23    2    1    2    0    0  0.00000000000E+00  0.00000000000E+00  0.00000000000E+00  0.91188000000E+02  0.91188000000E+02 0.  0.
    9900012    2    3    3    0    0 -0.18816164526E+02  0.30412383106E+02 -0.87646331666E+01  0.54367083550E+02  0.39999998570E+02 0.  0.
         12    1    3    3    0    0  0.18816164526E+02 -0.30412383106E+02  0.87646331666E+01  0.36820916450E+02  0.00000000000E+00 0. -1.
         11    1    4    4    0    0 -0.12289792301E+02  0.25044808776E+02 -0.94921886352E+01  0.29468340414E+02  0.51100000000E-03 0. -1.
        -11    1    4    4    0    0 -0.10278510243E+02 -0.45710814251E+00 -0.85096561813E+01  0.13351815204E+02  0.51100000000E-03 0.  1.
         12    1    4    4    0    0  0.37521380174E+01  0.58246824727E+01  0.92372116499E+01  0.11546927932E+02  0.00000000000E+00 0. -1.
</event>
<event>
 8    1  0.1210161E-006  0.9118800E+02  0.7816164E-02  0.1184000E+00
        -11   -1    0    0    0    0  0.00000000000E+00  0.00000000000E+00  0.45593999997E+02  0.45594000000E+02  0.51100000000E-03 0. -1.
         11   -1    0    0    0    0 -0.00000000000E+00 -0.00000000000E+00 -0.45593999997E+02  0.45594000000E+02  0.51100000000E-03 0.  1.
         23    2    1    2    0    0  0.00000000000E+00  0.00000000000E+00  0.00000000000E+00  0.91188000000E+02  0.91188000000E+02 0.  0.
    9900012    2    3    3    0    0  0.65695669894E+01 -0.19462048346E+02 -0.30558938782E+02  0.54367091867E+02  0.40000017529E+02 0.  0.
         12    1    3    3    0    0 -0.65695669894E+01  0.19462048346E+02  0.30558938782E+02  0.36820908133E+02  0.00000000000E+00 0. -1.
         11    1    4    4    0    0  0.22537971987E+01  0.32437186447E+01  0.25769760206E+01  0.47161550155E+01  0.51100000000E-03 0. -1.
        -11    1    4    4    0    0  0.32779580517E+01  0.63082300836E+01 -0.11189295621E+02  0.13256662949E+02  0.51100000000E-03 0.  1.
        -12    1    4    4    0    0  0.10378117390E+01 -0.29013997074E+02 -0.21946619181E+02  0.36394273903E+02  0.00000000000E+00 0.  1.
</event>
<event>
 8    1  0.1210161E-006  0.9118800E+02  0.7816164E-02  0.1184000E+00
        -11   -1    0    0    0    0  0.00000000000E+00  0.00000000000E+00  0.45593999997E+02  0.45594000000E+02  0.51100000000E-03 0.  1.
         11   -1    0    0    0    0 -0.00000000000E+00 -0.00000000000E+00 -0.45593999997E+02  0.45594000000E+02  0.51100000000E-03 0. -1.
         23    2    1    2    0    0  0.00000000000E+00 -0.44408920985E-15  0.00000000000E+00  0.91188000000E+02  0.91188000000E+02 0.  0.
    9900012    2    3    3    0    0  0.36555819915E+02 -0.10094979899E+00 -0.44091069275E+01  0.54367103970E+02  0.40000045121E+02 0.  0.
        -12    1    3    3    0    0 -0.36555819915E+02  0.10094979899E+00  0.44091069275E+01  0.36820896030E+02  0.00000000000E+00 0.  1.
         11    1    4    4    0    0  0.29513204539E+02 -0.13501471172E+02  0.46636130483E+01  0.32788233451E+02  0.51100000000E-03 0. -1.
        -11    1    4    4    0    0 -0.56355695632E+00  0.12440448659E+01  0.26997717541E+01  0.30255597592E+01  0.51100000000E-03 0.  1.
         12    1    4    4    0    0  0.76061723328E+01  0.12156476507E+02 -0.11772491730E+02  0.18553310760E+02  0.00000000000E+00 0. -1.
</event>
<event>
 8    1  0.1210161E-006  0.9118800E+02  0.7816164E-02  0.1184000E+00
        -11   -1    0    0    0    0  0.00000000000E+00  0.00000000000E+00  0.45593999997E+02  0.45594000000E+02  0.51100000000E-03 0. -1.
         11   -1    0    0    0    0 -0.00000000000E+00 -0.00000000000E+00 -0.45593999997E+02  0.45594000000E+02  0.51100000000E-03 0.  1.
         23    2    1    2    0    0 -0.35527136788E-14  0.44408920985E-15  0.35527136788E-14  0.91188000000E+02  0.91188000000E+02 0.  0.
    9900012    2    3    3    0    0  0.31883261339E+02 -0.21371119705E+01 -0.18293994059E+02  0.54367084479E+02  0.40000000687E+02 0.  0.
         12    1    3    3    0    0 -0.31883261339E+02  0.21371119705E+01  0.18293994059E+02  0.36820915521E+02  0.00000000000E+00 0. -1.
         11    1    4    4    0    0  0.23205300662E+02 -0.10261759562E+02 -0.11384459016E+02  0.27809990929E+02  0.51100000000E-03 0.  1.
        -11    1    4    4    0    0  0.12847166551E+02 -0.16751981819E+01  0.14244307783E+01  0.13033993273E+02  0.51100000000E-03 0. -1.
        -12    1    4    4    0    0 -0.41692058741E+01  0.97998457736E+01 -0.83339658209E+01  0.13523100277E+02  0.00000000000E+00 0.  1.
</event>
<event>
 8    1  0.1210161E-006  0.9118800E+02  0.7816164E-02  0.1184000E+00
        -11   -1    0    0    0    0  0.00000000000E+00  0.00000000000E+00  0.45593999997E+02  0.45594000000E+02  0.51100000000E-03 0. -1.
         11   -1    0    0    0    0 -0.00000000000E+00 -0.00000000000E+00 -0.45593999997E+02  0.45594000000E+02  0.51100000000E-03 0.  1.
         23    2    1    2    0    0  0.00000000000E+00  0.00000000000E+00  0.35527136788E-14  0.91188000000E+02  0.91188000000E+02 0.  0.
    9900012    2    3    3    0    0  0.17615745039E+02  0.23978800700E+02 -0.21690576142E+02  0.54367103085E+02  0.40000043102E+02 0.  0.
         12    1    3    3    0    0 -0.17615745039E+02 -0.23978800700E+02  0.21690576142E+02  0.36820896915E+02  0.00000000000E+00 0. -1.
         11    1    4    4    0    0  0.42083347673E+01  0.14589375783E+02  0.38300427682E+01  0.15659795501E+02  0.51100000000E-03 0. -1.
        -11    1    4    4    0    0  0.62819012005E+01  0.15238971874E+02 -0.67820280237E+01  0.17823704745E+02  0.51100000000E-03 0.  1.
        -12    1    4    4    0    0  0.71255090709E+01 -0.58495469571E+01 -0.18738590886E+02  0.20883602839E+02  0.00000000000E+00 0.  1.
</event>
<event>
 8    1  0.1210161E-006  0.9118800E+02  0.7816164E-02  0.1184000E+00
        -11   -1    0    0    0    0  0.00000000000E+00  0.00000000000E+00  0.45593999997E+02  0.45594000000E+02  0.51100000000E-03 0.  1.
         11   -1    0    0    0    0 -0.00000000000E+00 -0.00000000000E+00 -0.45593999997E+02  0.45594000000E+02  0.51100000000E-03 0. -1.
         23    2    1    2    0    0 -0.44408920985E-15  0.88817841970E-15  0.00000000000E+00  0.91188000000E+02  0.91188000000E+02 0.  0.
    9900012    2    3    3    0    0  0.16709990098E+01  0.64825447090E+01  0.36207280735E+02  0.54367043986E+02  0.39999908375E+02 0.  0.
         12    1    3    3    0    0 -0.16709990098E+01 -0.64825447090E+01 -0.36207280735E+02  0.36820956014E+02  0.00000000000E+00 0. -1.
         11    1    4    4    0    0  0.31064661952E+01 -0.11685589101E+00  0.16101298830E+02  0.16398646646E+02  0.51100000000E-03 0.  1.
        -11    1    4    4    0    0 -0.64417569746E+01 -0.11503010354E+02  0.60310019321E+01  0.14497877938E+02  0.51100000000E-03 0. -1.
         12    1    4    4    0    0  0.50062897892E+01  0.18102410954E+02  0.14074979972E+02  0.23470519403E+02  0.00000000000E+00 0. -1.
</event>
<event>
 8    1  0.1210161E-006  0.9118800E+02  0.7816164E-02  0.1184000E+00
        -11   -1    0    0    0    0  0.00000000000E+00  0.00000000000E+00  0.45593999997E+02  0.45594000000E+02  0.51100000000E-03 0. -1.
         11   -1    0    0    0    0 -0.00000000000E+00 -0.00000000000E+00 -0.45593999997E+02  0.45594000000E+02  0.51100000000E-03 0.  1.
         23    2    1    2    0    0  0.17763568394E-14 -0.35527136788E-14 -0.71054273576E-14  0.91188000000E+02  0.91188000000E+02 0.  0.
    9900012    2    3    3    0    0  0.86690983399E+01 -0.16057315083E+02 -0.31981079050E+02  0.54367081341E+02  0.39999993532E+02 0.  0.
         12    1    3    3    0    0 -0.86690983399E+01  0.16057315083E+02  0.31981079050E+02  0.36820918659E+02  0.00000000000E+00 0. -1.
         11    1    4    4    0    0  0.98711407710E+00 -0.41598280251E+01  0.58649344737E+01  0.72578247459E+01  0.51100000000E-03 0. -1.
        -11    1    4    4    0    0  0.22772535143E+01 -0.45896686134E+00 -0.33723467024E+02  0.33803383891E+02  0.51100000000E-03 0.  1.
         12    1    4    4    0    0  0.54047307485E+01 -0.11438520197E+02 -0.41225465005E+01  0.13305872703E+02  0.00000000000E+00 0. -1.
</event>
<event>
 8    1  0.1210161E-006  0.9118800E+02  0.7816164E-02  0.1184000E+00
        -11   -1    0    0    0    0  0.00000000000E+00  0.00000000000E+00  0.45593999997E+02  0.45594000000E+02  0.51100000000E-03 0.  1.
         11   -1    0    0    0    0 -0.00000000000E+00 -0.00000000000E+00 -0.45593999997E+02  0.45594000000E+02  0.51100000000E-03 0. -1.
         23    2    1    2    0    0  0.00000000000E+00 -0.35527136788E-14  0.00000000000E+00  0.91188000000E+02  0.91188000000E+02 0.  0.
    9900012    2    3    3    0    0 -0.16314298684E+02  0.27566500872E+02 -0.18157977059E+02  0.54367076020E+02  0.39999981403E+02 0.  0.
        -12    1    3    3    0    0  0.16314298684E+02 -0.27566500872E+02  0.18157977059E+02  0.36820923980E+02  0.00000000000E+00 0.  1.
         11    1    4    4    0    0 -0.68073818757E+01  0.25617399675E+02 -0.65401562617E+01  0.27301378322E+02  0.51100000000E-03 0. -1.
        -11    1    4    4    0    0 -0.31772827342E+01  0.84113334894E+01  0.33347347566E+01  0.95898963916E+01  0.51100000000E-03 0.  1.
        -12    1    4    4    0    0 -0.63296340739E+01 -0.64622322922E+01 -0.14952555554E+02  0.17475801306E+02  0.00000000000E+00 0.  1.
</event>
<event>
 8    1  0.1210161E-006  0.9118800E+02  0.7816164E-02  0.1184000E+00
        -11   -1    0    0    0    0  0.00000000000E+00  0.00000000000E+00  0.45593999997E+02  0.45594000000E+02  0.51100000000E-03 0. -1.
         11   -1    0    0    0    0 -0.00000000000E+00 -0.00000000000E+00 -0.45593999997E+02  0.45594000000E+02  0.51100000000E-03 0.  1.
         23    2    1    2    0    0  0.00000000000E+00  0.00000000000E+00  0.00000000000E+00  0.91188000000E+02  0.91188000000E+02 0.  0.
    9900012    2    3    3    0    0 -0.18451038941E+02 -0.19946936600E+02 -0.24848698980E+02  0.54367096172E+02  0.40000027343E+02 0.  0.
         12    1    3    3    0    0  0.18451038941E+02  0.19946936600E+02  0.24848698980E+02  0.36820903828E+02  0.00000000000E+00 0. -1.
         11    1    4    4    0    0 -0.23121240148E+01  0.39491139345E+01 -0.47687701578E+00  0.46009597126E+01  0.51100000000E-03 0. -1.
        -11    1    4    4    0    0 -0.71503699117E+01 -0.13137891235E+02 -0.30878656911E+02  0.34310689717E+02  0.51100000000E-03 0.  1.
        -12    1    4    4    0    0 -0.89885450145E+01 -0.10758159299E+02  0.65068349468E+01  0.15455446742E+02  0.00000000000E+00 0.  1.
</event>
<event>
 8    1  0.1210161E-006  0.9118800E+02  0.7816164E-02  0.1184000E+00
        -11   -1    0    0    0    0  0.00000000000E+00  0.00000000000E+00  0.45593999997E+02  0.45594000000E+02  0.51100000000E-03 0.  1.
         11   -1    0    0    0    0 -0.00000000000E+00 -0.00000000000E+00 -0.45593999997E+02  0.45594000000E+02  0.51100000000E-03 0. -1.
         23    2    1    2    0    0  0.00000000000E+00  0.00000000000E+00 -0.88817841970E-15  0.91188000000E+02  0.91188000000E+02 0.  0.
    9900012    2    3    3    0    0  0.15772440107E+02 -0.32507037037E+02  0.70913576903E+01  0.54367290097E+02  0.40000469432E+02 0.  0.
        -12    1    3    3    0    0 -0.15772440107E+02  0.32507037037E+02 -0.70913576903E+01  0.36820709903E+02  0.00000000000E+00 0.  1.
         11    1    4    4    0    0 -0.17903881491E+01 -0.48310704855E+01 -0.85720178208E+01  0.10001211004E+02  0.51100000000E-03 0. -1.
        -11    1    4    4    0    0  0.18886779378E+02 -0.68041890556E+01  0.41746881115E+01  0.20504522552E+02  0.51100000000E-03 0.  1.
        -12    1    4    4    0    0 -0.13239511222E+01 -0.20871777496E+02  0.11488687400E+02  0.23861556542E+02  0.00000000000E+00 0.  1.
</event>
<event>
 8    1  0.1210161E-006  0.9118800E+02  0.7816164E-02  0.1184000E+00
        -11   -1    0    0    0    0  0.00000000000E+00  0.00000000000E+00  0.45593999997E+02  0.45594000000E+02  0.51100000000E-03 0. -1.
         11   -1    0    0    0    0 -0.00000000000E+00 -0.00000000000E+00 -0.45593999997E+02  0.45594000000E+02  0.51100000000E-03 0.  1.
         23    2    1    2    0    0  0.00000000000E+00  0.35527136788E-14  0.00000000000E+00  0.91188000000E+02  0.91188000000E+02 0.  0.
    9900012    2    3    3    0    0  0.16316132382E+02 -0.10199879956E+02 -0.31393084713E+02  0.54367088892E+02  0.40000010747E+02 0.  0.
         12    1    3    3    0    0 -0.16316132382E+02  0.10199879956E+02  0.31393084713E+02  0.36820911108E+02  0.00000000000E+00 0. -1.
         11    1    4    4    0    0  0.52682358532E+01  0.88867212615E+01 -0.49001650996E+01  0.11434148068E+02  0.51100000000E-03 0. -1.
        -11    1    4    4    0    0  0.10156403259E+02 -0.19465285282E+02 -0.64734761282E+01  0.22890079767E+02  0.51100000000E-03 0.  1.
        -12    1    4    4    0    0  0.89149326969E+00  0.37868406485E+00 -0.20019443485E+02  0.20042861057E+02  0.00000000000E+00 0.  1.
</event>
<event>
 8    1  0.1210161E-006  0.9118800E+02  0.7816164E-02  0.1184000E+00
        -11   -1    0    0    0    0  0.00000000000E+00  0.00000000000E+00  0.45593999997E+02  0.45594000000E+02  0.51100000000E-03 0. -1.
         11   -1    0    0    0    0 -0.00000000000E+00 -0.00000000000E+00 -0.45593999997E+02  0.45594000000E+02  0.51100000000E-03 0.  1.
         23    2    1    2    0    0 -0.71054273576E-14  0.17763568394E-14  0.00000000000E+00  0.91188000000E+02  0.91188000000E+02 0.  0.
    9900012    2    3    3    0    0  0.34710616088E+02 -0.11456497790E+02 -0.44391199113E+01  0.54367027764E+02  0.39999871393E+02 0.  0.
        -12    1    3    3    0    0 -0.34710616088E+02  0.11456497790E+02  0.44391199113E+01  0.36820972236E+02  0.00000000000E+00 0.  1.
         11    1    4    4    0    0  0.18670632554E+02 -0.13258928688E+02  0.88562155063E+01  0.24552479779E+02  0.51100000000E-03 0. -1.
        -11    1    4    4    0    0 -0.38958889975E+00 -0.52811266729E+01  0.25842517822E+01  0.58924049403E+01  0.51100000000E-03 0.  1.
         12    1    4    4    0    0  0.16429572434E+02  0.70835575709E+01 -0.15879587200E+02  0.23922143045E+02  0.00000000000E+00 0. -1.
</event>
<event>
 8    1  0.1210161E-006  0.9118800E+02  0.7816164E-02  0.1184000E+00
        -11   -1    0    0    0    0  0.00000000000E+00  0.00000000000E+00  0.45593999997E+02  0.45594000000E+02  0.51100000000E-03 0.  1.
         11   -1    0    0    0    0 -0.00000000000E+00 -0.00000000000E+00 -0.45593999997E+02  0.45594000000E+02  0.51100000000E-03 0. -1.
         23    2    1    2    0    0  0.00000000000E+00  0.35527136788E-14  0.00000000000E+00  0.91188000000E+02  0.91188000000E+02 0.  0.
    9900012    2    3    3    0    0  0.23068776820E+02  0.24452370691E+02 -0.15023039706E+02  0.54367100793E+02  0.40000037878E+02 0.  0.
        -12    1    3    3    0    0 -0.23068776820E+02 -0.24452370691E+02  0.15023039706E+02  0.36820899207E+02  0.00000000000E+00 0.  1.
         11    1    4    4    0    0  0.17928531920E+02  0.72037798242E+01  0.18328702636E+00  0.19322533348E+02  0.51100000000E-03 0. -1.
        -11    1    4    4    0    0  0.14657445736E+02  0.83912283858E+01 -0.28881964277E+01  0.17134617247E+02  0.51100000000E-03 0.  1.
         12    1    4    4    0    0 -0.95172008370E+01  0.88573624812E+01 -0.12318130305E+02  0.17909950198E+02  0.00000000000E+00 0. -1.
</event>
<event>
 8    1  0.1210161E-006  0.9118800E+02  0.7816164E-02  0.1184000E+00
        -11   -1    0    0    0    0  0.00000000000E+00  0.00000000000E+00  0.45593999997E+02  0.45594000000E+02  0.51100000000E-03 0.  1.
         11   -1    0    0    0    0 -0.00000000000E+00 -0.00000000000E+00 -0.45593999997E+02  0.45594000000E+02  0.51100000000E-03 0. -1.
         23    2    1    2    0    0  0.00000000000E+00  0.00000000000E+00  0.35527136788E-14  0.91188000000E+02  0.91188000000E+02 0.  0.
    9900012    2    3    3    0    0  0.17061229738E+02  0.16314198856E+02  0.28258481416E+02  0.54367076377E+02  0.39999982217E+02 0.  0.
         12    1    3    3    0    0 -0.17061229738E+02 -0.16314198856E+02 -0.28258481416E+02  0.36820923623E+02  0.00000000000E+00 0. -1.
         11    1    4    4    0    0  0.12707998622E+02  0.16957777311E+02  0.64475670786E+01  0.22150181981E+02  0.51100000000E-03 0. -1.
        -11    1    4    4    0    0  0.13442999436E+02  0.26146592291E+01  0.99793031482E+01  0.16945122257E+02  0.51100000000E-03 0.  1.
        -12    1    4    4    0    0 -0.90897683202E+01 -0.32582376837E+01  0.11831611189E+02  0.15271772138E+02  0.00000000000E+00 0.  1.
</event>
<event>
 8    1  0.1210161E-006  0.9118800E+02  0.7816164E-02  0.1184000E+00
        -11   -1    0    0    0    0  0.00000000000E+00  0.00000000000E+00  0.45593999997E+02  0.45594000000E+02  0.51100000000E-03 0. -1.
         11   -1    0    0    0    0 -0.00000000000E+00 -0.00000000000E+00 -0.45593999997E+02  0.45594000000E+02  0.51100000000E-03 0.  1.
         23    2    1    2    0    0  0.35527136788E-14  0.00000000000E+00  0.35527136788E-14  0.91188000000E+02  0.91188000000E+02 0.  0.
    9900012    2    3    3    0    0  0.13107284572E+02 -0.26606009074E+02  0.21819703071E+02  0.54367081084E+02  0.39999992948E+02 0.  0.
        -12    1    3    3    0    0 -0.13107284572E+02  0.26606009074E+02 -0.21819703071E+02  0.36820918916E+02  0.00000000000E+00 0.  1.
         11    1    4    4    0    0  0.50650866462E+01  0.37597868338E+01  0.86545997634E+01  0.10709490982E+02  0.51100000000E-03 0. -1.
        -11    1    4    4    0    0  0.31347401592E+01  0.48268613669E+01 -0.24368404461E-01  0.57555000305E+01  0.51100000000E-03 0.  1.
        -12    1    4    4    0    0  0.49074577665E+01 -0.35192657274E+02  0.13189471712E+02  0.37902090072E+02  0.00000000000E+00 0.  1.
</event>
<event>
 8    1  0.1210161E-006  0.9118800E+02  0.7816164E-02  0.1184000E+00
        -11   -1    0    0    0    0  0.00000000000E+00  0.00000000000E+00  0.45593999997E+02  0.45594000000E+02  0.51100000000E-03 0.  1.
         11   -1    0    0    0    0 -0.00000000000E+00 -0.00000000000E+00 -0.45593999997E+02  0.45594000000E+02  0.51100000000E-03 0. -1.
         23    2    1    2    0    0 -0.71054273576E-14 -0.35527136788E-14  0.00000000000E+00  0.91188000000E+02  0.91188000000E+02 0.  0.
    9900012    2    3    3    0    0  0.29774545270E+02  0.21104197995E+02  0.48856364507E+01  0.54367079824E+02  0.39999990076E+02 0.  0.
        -12    1    3    3    0    0 -0.29774545270E+02 -0.21104197995E+02 -0.48856364507E+01  0.36820920176E+02  0.00000000000E+00 0.  1.
         11    1    4    4    0    0  0.18461941372E+01  0.52761749814E+01  0.86108017371E+01  0.10266078221E+02  0.51100000000E-03 0.  1.
        -11    1    4    4    0    0  0.16937912215E+02  0.24345664721E+02 -0.52278816978E+01  0.30115361665E+02  0.51100000000E-03 0. -1.
         12    1    4    4    0    0  0.10990438918E+02 -0.85176417074E+01  0.15027164114E+01  0.13985639938E+02  0.00000000000E+00 0. -1.
</event>
<event>
 8    1  0.1210161E-006  0.9118800E+02  0.7816164E-02  0.1184000E+00
        -11   -1    0    0    0    0  0.00000000000E+00  0.00000000000E+00  0.45593999997E+02  0.45594000000E+02  0.51100000000E-03 0. -1.
         11   -1    0    0    0    0 -0.00000000000E+00 -0.00000000000E+00 -0.45593999997E+02  0.45594000000E+02  0.51100000000E-03 0.  1.
         23    2    1    2    0    0 -0.71054273576E-14 -0.88817841970E-15 -0.17763568394E-14  0.91188000000E+02  0.91188000000E+02 0.  0.
    9900012    2    3    3    0    0 -0.35049469702E+02 -0.61416921559E+01 -0.94654011958E+01  0.54367088432E+02  0.40000009698E+02 0.  0.
         12    1    3    3    0    0  0.35049469702E+02  0.61416921559E+01  0.94654011958E+01  0.36820911568E+02  0.00000000000E+00 0. -1.
         11    1    4    4    0    0 -0.10102615383E+02  0.14090129077E+02 -0.21676723368E+01  0.17472646582E+02  0.51100000000E-03 0. -1.
        -11    1    4    4    0    0 -0.17604254411E+02 -0.51734236693E+01 -0.82417482761E+01  0.20114683710E+02  0.51100000000E-03 0.  1.
         12    1    4    4    0    0 -0.73425999077E+01 -0.15058397563E+02  0.94401941705E+00  0.16779758140E+02  0.00000000000E+00 0. -1.
</event>
<event>
 8    1  0.1210161E-006  0.9118800E+02  0.7816164E-02  0.1184000E+00
        -11   -1    0    0    0    0  0.00000000000E+00  0.00000000000E+00  0.45593999997E+02  0.45594000000E+02  0.51100000000E-03 0.  1.
         11   -1    0    0    0    0 -0.00000000000E+00 -0.00000000000E+00 -0.45593999997E+02  0.45594000000E+02  0.51100000000E-03 0. -1.
         23    2    1    2    0    0  0.35527136788E-14 -0.88817841970E-15  0.00000000000E+00  0.91188000000E+02  0.91188000000E+02 0.  0.
    9900012    2    3    3    0    0  0.31291028645E+02 -0.49968720214E+01 -0.18753213879E+02  0.54367078848E+02  0.39999987850E+02 0.  0.
        -12    1    3    3    0    0 -0.31291028645E+02  0.49968720214E+01  0.18753213879E+02  0.36820921152E+02  0.00000000000E+00 0.  1.
         11    1    4    4    0    0  0.24073850052E+02 -0.95884212136E+01 -0.67543910872E+01  0.26778907314E+02  0.51100000000E-03 0. -1.
        -11    1    4    4    0    0  0.32810429764E+01  0.16752023525E+01 -0.18827236914E+02  0.19184274706E+02  0.51100000000E-03 0.  1.
         12    1    4    4    0    0  0.39361356170E+01  0.29163468396E+01  0.68284141218E+01  0.84038968285E+01  0.00000000000E+00 0. -1.
</event>
<event>
 8    1  0.1210161E-006  0.9118800E+02  0.7816164E-02  0.1184000E+00
        -11   -1    0    0    0    0  0.00000000000E+00  0.00000000000E+00  0.45593999997E+02  0.45594000000E+02  0.51100000000E-03 0. -1.
         11   -1    0    0    0    0 -0.00000000000E+00 -0.00000000000E+00 -0.45593999997E+02  0.45594000000E+02  0.51100000000E-03 0.  1.
         23    2    1    2    0    0  0.00000000000E+00  0.00000000000E+00 -0.17763568394E-14  0.91188000000E+02  0.91188000000E+02 0.  0.
    9900012    2    3    3    0    0 -0.48035665573E+01  0.33954087046E+02  0.13409944775E+02  0.54367069843E+02  0.39999967321E+02 0.  0.
        -12    1    3    3    0    0  0.48035665573E+01 -0.33954087046E+02 -0.13409944775E+02  0.36820930157E+02  0.00000000000E+00 0.  1.
         11    1    4    4    0    0 -0.20481286387E+01  0.92650012041E+00  0.46779958317E+01  0.51900750145E+01  0.51100000000E-03 0. -1.
        -11    1    4    4    0    0 -0.30646554515E+01  0.47613343639E+01  0.18438982155E+02  0.19288817515E+02  0.51100000000E-03 0.  1.
         12    1    4    4    0    0  0.30921753290E+00  0.28266252561E+02 -0.97070332120E+01  0.29888177313E+02  0.00000000000E+00 0. -1.
</event>
<event>
 8    1  0.1210161E-006  0.9118800E+02  0.7816164E-02  0.1184000E+00
        -11   -1    0    0    0    0  0.00000000000E+00  0.00000000000E+00  0.45593999997E+02  0.45594000000E+02  0.51100000000E-03 0.  1.
         11   -1    0    0    0    0 -0.00000000000E+00 -0.00000000000E+00 -0.45593999997E+02  0.45594000000E+02  0.51100000000E-03 0. -1.
         23    2    1    2    0    0 -0.11102230246E-15  0.71054273576E-14  0.00000000000E+00  0.91188000000E+02  0.91188000000E+02 0.  0.
    9900012    2    3    3    0    0  0.96126782314E+00  0.30790731943E+02  0.20168935545E+02  0.54367093297E+02  0.40000020789E+02 0.  0.
         12    1    3    3    0    0 -0.96126782314E+00 -0.30790731943E+02 -0.20168935545E+02  0.36820906703E+02  0.00000000000E+00 0. -1.
         11    1    4    4    0    0  0.13898972058E+02  0.24836302829E+02 -0.75546110232E+00  0.28470934024E+02  0.51100000000E-03 0. -1.
        -11    1    4    4    0    0 -0.20491168788E+01  0.17770388394E+01  0.81943218425E+01  0.86315501354E+01  0.51100000000E-03 0.  1.
        -12    1    4    4    0    0 -0.10888587356E+02  0.41773902753E+01  0.12730074805E+02  0.17264609137E+02  0.00000000000E+00 0.  1.
</event>
<event>
 8    1  0.1210161E-006  0.9118800E+02  0.7816164E-02  0.1184000E+00
        -11   -1    0    0    0    0  0.00000000000E+00  0.00000000000E+00  0.45593999997E+02  0.45594000000E+02  0.51100000000E-03 0.  1.
         11   -1    0    0    0    0 -0.00000000000E+00 -0.00000000000E+00 -0.45593999997E+02  0.45594000000E+02  0.51100000000E-03 0. -1.
         23    2    1    2    0    0 -0.17763568394E-14  0.00000000000E+00  0.00000000000E+00  0.91188000000E+02  0.91188000000E+02 0.  0.
    9900012    2    3    3    0    0  0.12499663929E+02  0.17583962492E+02  0.29838610390E+02  0.54367081961E+02  0.39999994946E+02 0.  0.
         12    1    3    3    0    0 -0.12499663929E+02 -0.17583962492E+02 -0.29838610390E+02  0.36820918039E+02  0.00000000000E+00 0. -1.
         11    1    4    4    0    0 -0.89497173758E+01  0.13471582304E+02  0.81788094558E+01  0.18123848798E+02  0.51100000000E-03 0. -1.
        -11    1    4    4    0    0  0.46635338907E+01 -0.67182972097E+01  0.24709237208E+01  0.85433910155E+01  0.51100000000E-03 0.  1.
        -12    1    4    4    0    0  0.16785847414E+02  0.10830677398E+02  0.19188877213E+02  0.27699842148E+02  0.00000000000E+00 0.  1.
</event>
<event>
 8    1  0.1210161E-006  0.9118800E+02  0.7816164E-02  0.1184000E+00
        -11   -1    0    0    0    0  0.00000000000E+00  0.00000000000E+00  0.45593999997E+02  0.45594000000E+02  0.51100000000E-03 0. -1.
         11   -1    0    0    0    0 -0.00000000000E+00 -0.00000000000E+00 -0.45593999997E+02  0.45594000000E+02  0.51100000000E-03 0.  1.
         23    2    1    2    0    0  0.35527136788E-14  0.00000000000E+00 -0.17763568394E-14  0.91188000000E+02  0.91188000000E+02 0.  0.
    9900012    2    3    3    0    0 -0.24128378404E+02  0.24837613495E+02 -0.12517757032E+02  0.54367082988E+02  0.39999997287E+02 0.  0.
        -12    1    3    3    0    0  0.24128378404E+02 -0.24837613495E+02  0.12517757032E+02  0.36820917012E+02  0.00000000000E+00 0.  1.
         11    1    4    4    0    0 -0.33226138897E+01  0.14267026818E+02 -0.45073886120E+01  0.15326590281E+02  0.51100000000E-03 0. -1.
        -11    1    4    4    0    0  0.18629791445E+01  0.11457262674E+02 -0.11201440312E+02  0.16131082561E+02  0.51100000000E-03 0.  1.
        -12    1    4    4    0    0 -0.22668743659E+02 -0.88667599712E+00  0.31910718919E+01  0.22909410145E+02  0.00000000000E+00 0.  1.
</event>
<event>
 8    1  0.1210161E-006  0.9118800E+02  0.7816164E-02  0.1184000E+00
        -11   -1    0    0    0    0  0.00000000000E+00  0.00000000000E+00  0.45593999997E+02  0.45594000000E+02  0.51100000000E-03 0. -1.
         11   -1    0    0    0    0 -0.00000000000E+00 -0.00000000000E+00 -0.45593999997E+02  0.45594000000E+02  0.51100000000E-03 0.  1.
         23    2    1    2    0    0 -0.71054273576E-14 -0.10658141036E-13 -0.17763568394E-14  0.91188000000E+02  0.91188000000E+02 0.  0.
    9900012    2    3    3    0    0  0.22598310098E+02  0.28472348907E+02  0.58670598261E+01  0.54367073035E+02  0.39999974598E+02 0.  0.
        -12    1    3    3    0    0 -0.22598310098E+02 -0.28472348907E+02 -0.58670598261E+01  0.36820926965E+02  0.00000000000E+00 0.  1.
         11    1    4    4    0    0  0.39435345096E+01  0.13845871242E+02  0.32553782881E+01  0.14759983162E+02  0.51100000000E-03 0. -1.
        -11    1    4    4    0    0  0.22295998975E+02 -0.91989339118E+00 -0.33465971243E+01  0.22564518313E+02  0.51100000000E-03 0.  1.
         12    1    4    4    0    0 -0.36412233865E+01  0.15546371056E+02  0.59582786623E+01  0.17042571560E+02  0.00000000000E+00 0. -1.
</event>
<event>
 8    1  0.1210161E-006  0.9118800E+02  0.7816164E-02  0.1184000E+00
        -11   -1    0    0    0    0  0.00000000000E+00  0.00000000000E+00  0.45593999997E+02  0.45594000000E+02  0.51100000000E-03 0. -1.
         11   -1    0    0    0    0 -0.00000000000E+00 -0.00000000000E+00 -0.45593999997E+02  0.45594000000E+02  0.51100000000E-03 0.  1.
         23    2    1    2    0    0  0.00000000000E+00  0.35527136788E-14  0.00000000000E+00  0.91188000000E+02  0.91188000000E+02 0.  0.
    9900012    2    3    3    0    0 -0.11376049284E+02 -0.16478795281E+02 -0.30900072456E+02  0.54367086527E+02  0.40000005355E+02 0.  0.
         12    1    3    3    0    0  0.11376049284E+02  0.16478795281E+02  0.30900072456E+02  0.36820913473E+02  0.00000000000E+00 0. -1.
         11    1    4    4    0    0  0.28670542275E+01  0.32542393049E+00  0.71934060407E-01  0.28863602423E+01  0.51100000000E-03 0. -1.
        -11    1    4    4    0    0  0.59798025486E+01 -0.17335390065E+02 -0.58969154993E+01  0.19262590685E+02  0.51100000000E-03 0.  1.
        -12    1    4    4    0    0 -0.20222906060E+02  0.53117085416E+00 -0.25075091017E+02  0.32218135599E+02  0.00000000000E+00 0.  1.
</event>
<event>
 8    1  0.1210161E-006  0.9118800E+02  0.7816164E-02  0.1184000E+00
        -11   -1    0    0    0    0  0.00000000000E+00  0.00000000000E+00  0.45593999997E+02  0.45594000000E+02  0.51100000000E-03 0.  1.
         11   -1    0    0    0    0 -0.00000000000E+00 -0.00000000000E+00 -0.45593999997E+02  0.45594000000E+02  0.51100000000E-03 0. -1.
         23    2    1    2    0    0  0.00000000000E+00  0.00000000000E+00  0.00000000000E+00  0.91188000000E+02  0.91188000000E+02 0.  0.
    9900012    2    3    3    0    0 -0.27214492455E+02  0.16139783696E+02  0.18832407785E+02  0.54367071164E+02  0.39999970333E+02 0.  0.
         12    1    3    3    0    0  0.27214492455E+02 -0.16139783696E+02 -0.18832407785E+02  0.36820928836E+02  0.00000000000E+00 0. -1.
         11    1    4    4    0    0  0.92719488384E+00 -0.11935581235E+01 -0.40059779645E+01  0.42816037953E+01  0.51100000000E-03 0. -1.
        -11    1    4    4    0    0 -0.13299927778E+01 -0.63448966023E+01 -0.17065833519E+01  0.67036572616E+01  0.51100000000E-03 0.  1.
        -12    1    4    4    0    0 -0.26811694562E+02  0.23678238422E+02  0.24544969101E+02  0.43381810107E+02  0.00000000000E+00 0.  1.
</event>
<event>
 8    1  0.1210161E-006  0.9118800E+02  0.7816164E-02  0.1184000E+00
        -11   -1    0    0    0    0  0.00000000000E+00  0.00000000000E+00  0.45593999997E+02  0.45594000000E+02  0.51100000000E-03 0.  1.
         11   -1    0    0    0    0 -0.00000000000E+00 -0.00000000000E+00 -0.45593999997E+02  0.45594000000E+02  0.51100000000E-03 0. -1.
         23    2    1    2    0    0  0.00000000000E+00  0.88817841970E-15  0.00000000000E+00  0.91188000000E+02  0.91188000000E+02 0.  0.
    9900012    2    3    3    0    0  0.30758220346E+02 -0.59699696173E+01  0.19340885785E+02  0.54367102143E+02  0.40000040955E+02 0.  0.
        -12    1    3    3    0    0 -0.30758220346E+02  0.59699696173E+01 -0.19340885785E+02  0.36820897857E+02  0.00000000000E+00 0.  1.
         11    1    4    4    0    0  0.20129276280E+02 -0.44299038550E+01 -0.63394478854E+01  0.21563868193E+02  0.51100000000E-03 0. -1.
        -11    1    4    4    0    0  0.17753652615E+01  0.74433676433E+01  0.78487532236E+01  0.10961686509E+02  0.51100000000E-03 0.  1.
         12    1    4    4    0    0  0.88535788046E+01 -0.89834334057E+01  0.17831580446E+02  0.21841547441E+02  0.00000000000E+00 0. -1.
</event>
<event>
 8    1  0.1210161E-006  0.9118800E+02  0.7816164E-02  0.1184000E+00
        -11   -1    0    0    0    0  0.00000000000E+00  0.00000000000E+00  0.45593999997E+02  0.45594000000E+02  0.51100000000E-03 0.  1.
         11   -1    0    0    0    0 -0.00000000000E+00 -0.00000000000E+00 -0.45593999997E+02  0.45594000000E+02  0.51100000000E-03 0. -1.
         23    2    1    2    0    0  0.00000000000E+00 -0.17763568394E-14  0.00000000000E+00  0.91188000000E+02  0.91188000000E+02 0.  0.
    9900012    2    3    3    0    0  0.33296684842E+02  0.13220781976E+02 -0.85040436095E+01  0.54367122019E+02  0.40000086268E+02 0.  0.
        -12    1    3    3    0    0 -0.33296684842E+02 -0.13220781976E+02  0.85040436095E+01  0.36820877981E+02  0.00000000000E+00 0.  1.
         11    1    4    4    0    0  0.19314962214E+02  0.18390965716E+02 -0.45989259335E+01  0.27063730439E+02  0.51100000000E-03 0. -1.
        -11    1    4    4    0    0 -0.82764921053E+00  0.71843035197E+01  0.12528425650E+01  0.73395391567E+01  0.51100000000E-03 0.  1.
         12    1    4    4    0    0  0.14809371839E+02 -0.12354487260E+02 -0.51579602410E+01  0.19963852423E+02  0.00000000000E+00 0. -1.
</event>
<event>
 8    1  0.1210161E-006  0.9118800E+02  0.7816164E-02  0.1184000E+00
        -11   -1    0    0    0    0  0.00000000000E+00  0.00000000000E+00  0.45593999997E+02  0.45594000000E+02  0.51100000000E-03 0.  1.
         11   -1    0    0    0    0 -0.00000000000E+00 -0.00000000000E+00 -0.45593999997E+02  0.45594000000E+02  0.51100000000E-03 0. -1.
         23    2    1    2    0    0  0.88817841970E-15 -0.17763568394E-14  0.00000000000E+00  0.91188000000E+02  0.91188000000E+02 0.  0.
    9900012    2    3    3    0    0 -0.44571448942E+01  0.85085573885E+01  0.35546004474E+02  0.54367080355E+02  0.39999991286E+02 0.  0.
         12    1    3    3    0    0  0.44571448942E+01 -0.85085573885E+01 -0.35546004474E+02  0.36820919645E+02  0.00000000000E+00 0. -1.
         11    1    4    4    0    0  0.36705715786E+01  0.64821959932E+01 -0.37323252973E+01  0.83319993395E+01  0.51100000000E-03 0. -1.
        -11    1    4    4    0    0  0.25587983565E+00 -0.90498090090E+01  0.92184495847E+01  0.12920693890E+02  0.51100000000E-03 0.  1.
         12    1    4    4    0    0 -0.83835963084E+01  0.11076170404E+02  0.30059880186E+02  0.33114387126E+02  0.00000000000E+00 0. -1.
</event>
<event>
 8    1  0.1210161E-006  0.9118800E+02  0.7816164E-02  0.1184000E+00
        -11   -1    0    0    0    0  0.00000000000E+00  0.00000000000E+00  0.45593999997E+02  0.45594000000E+02  0.51100000000E-03 0.  1.
         11   -1    0    0    0    0 -0.00000000000E+00 -0.00000000000E+00 -0.45593999997E+02  0.45594000000E+02  0.51100000000E-03 0. -1.
         23    2    1    2    0    0  0.00000000000E+00 -0.17763568394E-14  0.00000000000E+00  0.91188000000E+02  0.91188000000E+02 0.  0.
    9900012    2    3    3    0    0  0.22394869165E+02  0.13769614214E+02  0.25780765079E+02  0.54367078113E+02  0.39999986174E+02 0.  0.
         12    1    3    3    0    0 -0.22394869165E+02 -0.13769614214E+02 -0.25780765079E+02  0.36820921887E+02  0.00000000000E+00 0. -1.
         11    1    4    4    0    0  0.50771545780E+01  0.13509059239E+02 -0.98566412022E+00  0.14465258869E+02  0.51100000000E-03 0. -1.
        -11    1    4    4    0    0  0.12746886100E+02  0.60660959847E+00  0.15833312346E-01  0.12761321695E+02  0.51100000000E-03 0.  1.
        -12    1    4    4    0    0  0.45708284877E+01 -0.34605462367E+00  0.26750595887E+02  0.27140497549E+02  0.00000000000E+00 0.  1.
</event>
<event>
 8    1  0.1210161E-006  0.9118800E+02  0.7816164E-02  0.1184000E+00
        -11   -1    0    0    0    0  0.00000000000E+00  0.00000000000E+00  0.45593999997E+02  0.45594000000E+02  0.51100000000E-03 0. -1.
         11   -1    0    0    0    0 -0.00000000000E+00 -0.00000000000E+00 -0.45593999997E+02  0.45594000000E+02  0.51100000000E-03 0.  1.
         23    2    1    2    0    0  0.00000000000E+00  0.00000000000E+00  0.00000000000E+00  0.91188000000E+02  0.91188000000E+02 0.  0.
    9900012    2    3    3    0    0  0.14016628545E+02 -0.27768741328E+02  0.19703064158E+02  0.54367087356E+02  0.40000007245E+02 0.  0.
        -12    1    3    3    0    0 -0.14016628545E+02  0.27768741328E+02 -0.19703064158E+02  0.36820912644E+02  0.00000000000E+00 0.  1.
         11    1    4    4    0    0  0.90755281517E+01 -0.11695979423E+02  0.14171607274E+02  0.20493794156E+02  0.51100000000E-03 0. -1.
        -11    1    4    4    0    0  0.58566023500E+01 -0.22567593518E+02  0.10573080245E+02  0.25600509652E+02  0.51100000000E-03 0.  1.
        -12    1    4    4    0    0 -0.91550195622E+00  0.64948316132E+01 -0.50416233616E+01  0.82727835483E+01  0.00000000000E+00 0.  1.
</event>
<event>
 8    1  0.1210161E-006  0.9118800E+02  0.7816164E-02  0.1184000E+00
        -11   -1    0    0    0    0  0.00000000000E+00  0.00000000000E+00  0.45593999997E+02  0.45594000000E+02  0.51100000000E-03 0.  1.
         11   -1    0    0    0    0 -0.00000000000E+00 -0.00000000000E+00 -0.45593999997E+02  0.45594000000E+02  0.51100000000E-03 0. -1.
         23    2    1    2    0    0  0.00000000000E+00  0.71054273576E-14  0.00000000000E+00  0.91188000000E+02  0.91188000000E+02 0.  0.
    9900012    2    3    3    0    0 -0.13927832755E+02 -0.30538687345E+02  0.15138931116E+02  0.54367038778E+02  0.39999896501E+02 0.  0.
         12    1    3    3    0    0  0.13927832755E+02  0.30538687345E+02 -0.15138931116E+02  0.36820961222E+02  0.00000000000E+00 0. -1.
         11    1    4    4    0    0  0.27451030324E+01  0.26610147296E+01  0.26807403642E+01  0.46693638979E+01  0.51100000000E-03 0. -1.
        -11    1    4    4    0    0  0.49524030931E+01 -0.52233108281E+01  0.12399862358E+02  0.14337568105E+02  0.51100000000E-03 0.  1.
         12    1    4    4    0    0 -0.21625338881E+02 -0.27976391247E+02  0.58328393153E-01  0.35360106774E+02  0.00000000000E+00 0. -1.
</event>
<event>
 8    1  0.1210161E-006  0.9118800E+02  0.7816164E-02  0.1184000E+00
        -11   -1    0    0    0    0  0.00000000000E+00  0.00000000000E+00  0.45593999997E+02  0.45594000000E+02  0.51100000000E-03 0.  1.
         11   -1    0    0    0    0 -0.00000000000E+00 -0.00000000000E+00 -0.45593999997E+02  0.45594000000E+02  0.51100000000E-03 0. -1.
         23    2    1    2    0    0  0.00000000000E+00  0.00000000000E+00 -0.35527136788E-14  0.91188000000E+02  0.91188000000E+02 0.  0.
    9900012    2    3    3    0    0 -0.14535772069E+02 -0.23248487234E+02 -0.24576412830E+02  0.54367069867E+02  0.39999967376E+02 0.  0.
        -12    1    3    3    0    0  0.14535772069E+02  0.23248487234E+02  0.24576412830E+02  0.36820930133E+02  0.00000000000E+00 0.  1.
         11    1    4    4    0    0  0.42103067846E+00 -0.50489878883E+01 -0.23959566698E+02  0.24489393258E+02  0.51100000000E-03 0. -1.
        -11    1    4    4    0    0  0.37418199081E+01 -0.69153456105E+01 -0.15668339352E+01  0.80173680207E+01  0.51100000000E-03 0.  1.
         12    1    4    4    0    0 -0.18698622656E+02 -0.11284153735E+02  0.94998780391E+00  0.21860308588E+02  0.00000000000E+00 0. -1.
</event>
<event>
 8    1  0.1210161E-006  0.9118800E+02  0.7816164E-02  0.1184000E+00
        -11   -1    0    0    0    0  0.00000000000E+00  0.00000000000E+00  0.45593999997E+02  0.45594000000E+02  0.51100000000E-03 0. -1.
         11   -1    0    0    0    0 -0.00000000000E+00 -0.00000000000E+00 -0.45593999997E+02  0.45594000000E+02  0.51100000000E-03 0.  1.
         23    2    1    2    0    0 -0.44408920985E-15  0.00000000000E+00 -0.71054273576E-14  0.91188000000E+02  0.91188000000E+02 0.  0.
    9900012    2    3    3    0    0  0.29320153021E+01  0.32991785057E+01  0.36555414729E+02  0.54367086940E+02  0.40000006297E+02 0.  0.
        -12    1    3    3    0    0 -0.29320153021E+01 -0.32991785057E+01 -0.36555414729E+02  0.36820913060E+02  0.00000000000E+00 0.  1.
         11    1    4    4    0    0  0.58760860304E+01 -0.96327035776E+01  0.10337017065E+02  0.15302656217E+02  0.51100000000E-03 0. -1.
        -11    1    4    4    0    0  0.23720674571E+01  0.18596085444E+01 -0.48196571107E+01  0.56845354150E+01  0.51100000000E-03 0.  1.
        -12    1    4    4    0    0 -0.53161381853E+01  0.11072273539E+02  0.31038054775E+02  0.33379895308E+02  0.00000000000E+00 0.  1.
</event>
<event>
 8    1  0.1210161E-006  0.9118800E+02  0.7816164E-02  0.1184000E+00
        -11   -1    0    0    0    0  0.00000000000E+00  0.00000000000E+00  0.45593999997E+02  0.45594000000E+02  0.51100000000E-03 0.  1.
         11   -1    0    0    0    0 -0.00000000000E+00 -0.00000000000E+00 -0.45593999997E+02  0.45594000000E+02  0.51100000000E-03 0. -1.
         23    2    1    2    0    0  0.71054273576E-14  0.00000000000E+00  0.35527136788E-14  0.91188000000E+02  0.91188000000E+02 0.  0.
    9900012    2    3    3    0    0 -0.24410775879E+02 -0.24222762716E+01 -0.27459529659E+02  0.54367093296E+02  0.40000020788E+02 0.  0.
        -12    1    3    3    0    0  0.24410775879E+02  0.24222762716E+01  0.27459529659E+02  0.36820906704E+02  0.00000000000E+00 0.  1.
         11    1    4    4    0    0 -0.41341001446E+01 -0.36066890260E+01 -0.14586927034E+02  0.15584525347E+02  0.51100000000E-03 0. -1.
        -11    1    4    4    0    0  0.48135968426E+01 -0.27183372675E+01  0.52207368346E+01  0.76036941956E+01  0.51100000000E-03 0.  1.
        -12    1    4    4    0    0 -0.25090272578E+02  0.39027500219E+01 -0.18093339460E+02  0.31178873754E+02  0.00000000000E+00 0.  1.
</event>
<event>
 8    1  0.1210161E-006  0.9118800E+02  0.7816164E-02  0.1184000E+00
        -11   -1    0    0    0    0  0.00000000000E+00  0.00000000000E+00  0.45593999997E+02  0.45594000000E+02  0.51100000000E-03 0.  1.
         11   -1    0    0    0    0 -0.00000000000E+00 -0.00000000000E+00 -0.45593999997E+02  0.45594000000E+02  0.51100000000E-03 0. -1.
         23    2    1    2    0    0  0.99920072216E-15  0.17763568394E-14  0.00000000000E+00  0.91188000000E+02  0.91188000000E+02 0.  0.
    9900012    2    3    3    0    0  0.23143338895E+00  0.15209424583E+02  0.33532045196E+02  0.54367106303E+02  0.40000050440E+02 0.  0.
         12    1    3    3    0    0 -0.23143338895E+00 -0.15209424583E+02 -0.33532045196E+02  0.36820893697E+02  0.00000000000E+00 0. -1.
         11    1    4    4    0    0 -0.10202224884E+02  0.12390102088E+02  0.24066491732E+01  0.16229355589E+02  0.51100000000E-03 0. -1.
        -11    1    4    4    0    0 -0.40859601509E+01  0.55955659523E+01  0.70396406116E+01  0.98773462470E+01  0.51100000000E-03 0.  1.
        -12    1    4    4    0    0  0.14519618424E+02 -0.27762434576E+01  0.24085755412E+02  0.28260404467E+02  0.00000000000E+00 0.  1.
</event>
<event>
 8    1  0.1210161E-006  0.9118800E+02  0.7816164E-02  0.1184000E+00
        -11   -1    0    0    0    0  0.00000000000E+00  0.00000000000E+00  0.45593999997E+02  0.45594000000E+02  0.51100000000E-03 0.  1.
         11   -1    0    0    0    0 -0.00000000000E+00 -0.00000000000E+00 -0.45593999997E+02  0.45594000000E+02  0.51100000000E-03 0. -1.
         23    2    1    2    0    0 -0.88817841970E-15 -0.11102230246E-15  0.00000000000E+00  0.91188000000E+02  0.91188000000E+02 0.  0.
    9900012    2    3    3    0    0  0.55127135862E+01  0.87722186316E+00 -0.36395340479E+02  0.54367077444E+02  0.39999984649E+02 0.  0.
        -12    1    3    3    0    0 -0.55127135862E+01 -0.87722186316E+00  0.36395340479E+02  0.36820922556E+02  0.00000000000E+00 0.  1.
         11    1    4    4    0    0  0.39361317407E+01  0.49190116045E+01 -0.33949540218E+02  0.34529133924E+02  0.51100000000E-03 0. -1.
        -11    1    4    4    0    0  0.26834725301E+01  0.63125633558E+01  0.36517027923E+01  0.77707409225E+01  0.51100000000E-03 0.  1.
        -12    1    4    4    0    0 -0.11068906846E+01 -0.10354353097E+02 -0.60975030531E+01  0.12067202598E+02  0.00000000000E+00 0.  1.
</event>
<event>
 8    1  0.1210161E-006  0.9118800E+02  0.7816164E-02  0.1184000E+00
        -11   -1    0    0    0    0  0.00000000000E+00  0.00000000000E+00  0.45593999997E+02  0.45594000000E+02  0.51100000000E-03 0. -1.
         11   -1    0    0    0    0 -0.00000000000E+00 -0.00000000000E+00 -0.45593999997E+02  0.45594000000E+02  0.51100000000E-03 0.  1.
         23    2    1    2    0    0 -0.17763568394E-14  0.00000000000E+00  0.00000000000E+00  0.91188000000E+02  0.91188000000E+02 0.  0.
    9900012    2    3    3    0    0 -0.11915945371E+02  0.28901450708E+02 -0.19454992637E+02  0.54367077339E+02  0.39999984409E+02 0.  0.
        -12    1    3    3    0    0  0.11915945371E+02 -0.28901450708E+02  0.19454992637E+02  0.36820922661E+02  0.00000000000E+00 0.  1.
         11    1    4    4    0    0 -0.73960665171E+01  0.22738925922E+02  0.44608069040E+01  0.24324048810E+02  0.51100000000E-03 0.  1.
        -11    1    4    4    0    0 -0.85775129212E+01  0.76209119394E+01 -0.91949550928E+01  0.14703714705E+02  0.51100000000E-03 0. -1.
        -12    1    4    4    0    0  0.40576340667E+01 -0.14583871537E+01 -0.14720844448E+02  0.15339313823E+02  0.00000000000E+00 0.  1.
</event>
<event>
 8    1  0.1210161E-006  0.9118800E+02  0.7816164E-02  0.1184000E+00
        -11   -1    0    0    0    0  0.00000000000E+00  0.00000000000E+00  0.45593999997E+02  0.45594000000E+02  0.51100000000E-03 0.  1.
         11   -1    0    0    0    0 -0.00000000000E+00 -0.00000000000E+00 -0.45593999997E+02  0.45594000000E+02  0.51100000000E-03 0. -1.
         23    2    1    2    0    0  0.88817841970E-15 -0.71054273576E-14 -0.88817841970E-15  0.91188000000E+02  0.91188000000E+02 0.  0.
    9900012    2    3    3    0    0 -0.30432804779E+01  0.36153900255E+02 -0.62780646898E+01  0.54367079914E+02  0.39999990280E+02 0.  0.
         12    1    3    3    0    0  0.30432804779E+01 -0.36153900255E+02  0.62780646898E+01  0.36820920086E+02  0.00000000000E+00 0. -1.
         11    1    4    4    0    0  0.35175759418E+01 -0.16666836734E+00  0.93760925824E+01  0.10015599394E+02  0.51100000000E-03 0. -1.
        -11    1    4    4    0    0  0.53768049127E+01  0.13024406717E+02 -0.10741185037E+02  0.17717738503E+02  0.51100000000E-03 0.  1.
        -12    1    4    4    0    0 -0.11937661332E+02  0.23296161906E+02 -0.49129722350E+01  0.26633742016E+02  0.00000000000E+00 0.  1.
</event>
<event>
 8    1  0.1210161E-006  0.9118800E+02  0.7816164E-02  0.1184000E+00
        -11   -1    0    0    0    0  0.00000000000E+00  0.00000000000E+00  0.45593999997E+02  0.45594000000E+02  0.51100000000E-03 0.  1.
         11   -1    0    0    0    0 -0.00000000000E+00 -0.00000000000E+00 -0.45593999997E+02  0.45594000000E+02  0.51100000000E-03 0. -1.
         23    2    1    2    0    0  0.71054273576E-14  0.00000000000E+00 -0.17763568394E-14  0.91188000000E+02  0.91188000000E+02 0.  0.
    9900012    2    3    3    0    0  0.32285041838E+02  0.16598950746E+02 -0.61587551383E+01  0.54367090761E+02  0.40000015008E+02 0.  0.
        -12    1    3    3    0    0 -0.32285041838E+02 -0.16598950746E+02  0.61587551383E+01  0.36820909239E+02  0.00000000000E+00 0.  1.
         11    1    4    4    0    0  0.37421550518E+01  0.25073608095E+01 -0.11935645938E+02  0.12757359715E+02  0.51100000000E-03 0. -1.
        -11    1    4    4    0    0  0.31648858905E+02  0.62426261758E+01  0.18825430836E+01  0.32313536177E+02  0.51100000000E-03 0.  1.
        -12    1    4    4    0    0 -0.31059721184E+01  0.78489637606E+01  0.38943477163E+01  0.92961948695E+01  0.00000000000E+00 0.  1.
</event>
<event>
 8    1  0.1210161E-006  0.9118800E+02  0.7816164E-02  0.1184000E+00
        -11   -1    0    0    0    0  0.00000000000E+00  0.00000000000E+00  0.45593999997E+02  0.45594000000E+02  0.51100000000E-03 0.  1.
         11   -1    0    0    0    0 -0.00000000000E+00 -0.00000000000E+00 -0.45593999997E+02  0.45594000000E+02  0.51100000000E-03 0. -1.
         23    2    1    2    0    0 -0.88817841970E-15 -0.17763568394E-14  0.00000000000E+00  0.91188000000E+02  0.91188000000E+02 0.  0.
    9900012    2    3    3    0    0 -0.73256974980E+01 -0.15059884945E+02 -0.32791975129E+02  0.54367087311E+02  0.40000007143E+02 0.  0.
        -12    1    3    3    0    0  0.73256974980E+01  0.15059884945E+02  0.32791975129E+02  0.36820912689E+02  0.00000000000E+00 0.  1.
         11    1    4    4    0    0 -0.22777762765E+02 -0.12206216144E+02 -0.22194678971E+02  0.34064966814E+02  0.51100000000E-03 0. -1.
        -11    1    4    4    0    0  0.10059307843E+02 -0.15166388812E+01 -0.24893050071E+01  0.10473132648E+02  0.51100000000E-03 0.  1.
         12    1    4    4    0    0  0.53927574243E+01 -0.13370299200E+01 -0.81079911503E+01  0.98289878491E+01  0.00000000000E+00 0. -1.
</event>
<event>
 8    1  0.1210161E-006  0.9118800E+02  0.7816164E-02  0.1184000E+00
        -11   -1    0    0    0    0  0.00000000000E+00  0.00000000000E+00  0.45593999997E+02  0.45594000000E+02  0.51100000000E-03 0. -1.
         11   -1    0    0    0    0 -0.00000000000E+00 -0.00000000000E+00 -0.45593999997E+02  0.45594000000E+02  0.51100000000E-03 0.  1.
         23    2    1    2    0    0  0.26645352591E-14  0.00000000000E+00  0.00000000000E+00  0.91188000000E+02  0.91188000000E+02 0.  0.
    9900012    2    3    3    0    0  0.39416261526E+01 -0.17491763962E+02  0.32160243626E+02  0.54367088913E+02  0.40000010795E+02 0.  0.
        -12    1    3    3    0    0 -0.39416261526E+01  0.17491763962E+02 -0.32160243626E+02  0.36820911087E+02  0.00000000000E+00 0.  1.
         11    1    4    4    0    0 -0.58166272735E+01  0.16912110098E+01  0.23488831088E+01  0.64969684960E+01  0.51100000000E-03 0. -1.
        -11    1    4    4    0    0  0.15442040216E+02 -0.24884752260E+02  0.24887173247E+02  0.38432784099E+02  0.51100000000E-03 0.  1.
        -12    1    4    4    0    0 -0.56837867897E+01  0.57017772883E+01  0.49241872693E+01  0.94373363180E+01  0.00000000000E+00 0.  1.
</event>
<event>
 8    1  0.1210161E-006  0.9118800E+02  0.7816164E-02  0.1184000E+00
        -11   -1    0    0    0    0  0.00000000000E+00  0.00000000000E+00  0.45593999997E+02  0.45594000000E+02  0.51100000000E-03 0.  1.
         11   -1    0    0    0    0 -0.00000000000E+00 -0.00000000000E+00 -0.45593999997E+02  0.45594000000E+02  0.51100000000E-03 0. -1.
         23    2    1    2    0    0  0.00000000000E+00 -0.35527136788E-14 -0.17763568394E-14  0.91188000000E+02  0.91188000000E+02 0.  0.
    9900012    2    3    3    0    0 -0.24325462966E+02  0.27370876528E+02  0.38583288240E+01  0.54367085675E+02  0.40000003413E+02 0.  0.
         12    1    3    3    0    0  0.24325462966E+02 -0.27370876528E+02 -0.38583288240E+01  0.36820914325E+02  0.00000000000E+00 0. -1.
         11    1    4    4    0    0 -0.28626234277E+02  0.78203810744E+01  0.10452468096E+02  0.31462258955E+02  0.51100000000E-03 0.  1.
        -11    1    4    4    0    0 -0.13936271324E+01  0.15258264170E+00 -0.15067159847E+01  0.20580746746E+01  0.51100000000E-03 0. -1.
        -12    1    4    4    0    0  0.56943984432E+01  0.19397912812E+02 -0.50874232878E+01  0.20846752045E+02  0.00000000000E+00 0.  1.
</event>
<event>
 8    1  0.1210161E-006  0.9118800E+02  0.7816164E-02  0.1184000E+00
        -11   -1    0    0    0    0  0.00000000000E+00  0.00000000000E+00  0.45593999997E+02  0.45594000000E+02  0.51100000000E-03 0. -1.
         11   -1    0    0    0    0 -0.00000000000E+00 -0.00000000000E+00 -0.45593999997E+02  0.45594000000E+02  0.51100000000E-03 0.  1.
         23    2    1    2    0    0  0.17763568394E-14  0.53290705182E-14  0.35527136788E-14  0.91188000000E+02  0.91188000000E+02 0.  0.
    9900012    2    3    3    0    0  0.10437587213E+02  0.15028755151E+02  0.31952670722E+02  0.54367083736E+02  0.39999998993E+02 0.  0.
        -12    1    3    3    0    0 -0.10437587213E+02 -0.15028755151E+02 -0.31952670722E+02  0.36820916264E+02  0.00000000000E+00 0.  1.
         11    1    4    4    0    0 -0.66773814679E+01  0.86420819007E+01  0.39610747776E+01  0.11617362717E+02  0.51100000000E-03 0. -1.
        -11    1    4    4    0    0 -0.46078955539E+01 -0.36886855938E+01 -0.14176184447E-01  0.59024828734E+01  0.51100000000E-03 0.  1.
         12    1    4    4    0    0  0.21722864235E+02  0.10075358844E+02  0.28005772129E+02  0.36847238146E+02  0.00000000000E+00 0. -1.
</event>
<event>
 8    1  0.1210161E-006  0.9118800E+02  0.7816164E-02  0.1184000E+00
        -11   -1    0    0    0    0  0.00000000000E+00  0.00000000000E+00  0.45593999997E+02  0.45594000000E+02  0.51100000000E-03 0.  1.
         11   -1    0    0    0    0 -0.00000000000E+00 -0.00000000000E+00 -0.45593999997E+02  0.45594000000E+02  0.51100000000E-03 0. -1.
         23    2    1    2    0    0  0.17763568394E-14  0.00000000000E+00 -0.17763568394E-14  0.91188000000E+02  0.91188000000E+02 0.  0.
    9900012    2    3    3    0    0 -0.95944620008E+01 -0.31836530573E+02 -0.15816514681E+02  0.54367075016E+02  0.39999979114E+02 0.  0.
         12    1    3    3    0    0  0.95944620008E+01  0.31836530573E+02  0.15816514681E+02  0.36820924984E+02  0.00000000000E+00 0. -1.
         11    1    4    4    0    0  0.61568323318E+01 -0.12391640796E+02 -0.14822890584E+01  0.13916052856E+02  0.51100000000E-03 0. -1.
        -11    1    4    4    0    0 -0.14696185617E+02 -0.26406371393E+02 -0.87420108718E+01  0.31459451301E+02  0.51100000000E-03 0.  1.
         12    1    4    4    0    0 -0.10551087158E+01  0.69614816159E+01 -0.55922147507E+01  0.89915708588E+01  0.00000000000E+00 0. -1.
</event>
<event>
 8    1  0.1210161E-006  0.9118800E+02  0.7816164E-02  0.1184000E+00
        -11   -1    0    0    0    0  0.00000000000E+00  0.00000000000E+00  0.45593999997E+02  0.45594000000E+02  0.51100000000E-03 0. -1.
         11   -1    0    0    0    0 -0.00000000000E+00 -0.00000000000E+00 -0.45593999997E+02  0.45594000000E+02  0.51100000000E-03 0.  1.
         23    2    1    2    0    0 -0.17763568394E-14  0.33306690739E-15  0.00000000000E+00  0.91188000000E+02  0.91188000000E+02 0.  0.
    9900012    2    3    3    0    0  0.14325656967E+02 -0.15360602965E+00  0.33919494563E+02  0.54367079944E+02  0.39999990348E+02 0.  0.
        -12    1    3    3    0    0 -0.14325656967E+02  0.15360602965E+00 -0.33919494563E+02  0.36820920056E+02  0.00000000000E+00 0.  1.
         11    1    4    4    0    0  0.16721456372E+02 -0.35610673411E+01  0.98136929382E+01  0.19712860603E+02  0.51100000000E-03 0. -1.
        -11    1    4    4    0    0  0.96009839151E+01 -0.10125656738E+01  0.32407828625E+01  0.10183656279E+02  0.51100000000E-03 0.  1.
        -12    1    4    4    0    0 -0.11996783320E+02  0.44200269853E+01  0.20865018763E+02  0.24470563062E+02  0.00000000000E+00 0.  1.
</event>
<event>
 8    1  0.1210161E-006  0.9118800E+02  0.7816164E-02  0.1184000E+00
        -11   -1    0    0    0    0  0.00000000000E+00  0.00000000000E+00  0.45593999997E+02  0.45594000000E+02  0.51100000000E-03 0. -1.
         11   -1    0    0    0    0 -0.00000000000E+00 -0.00000000000E+00 -0.45593999997E+02  0.45594000000E+02  0.51100000000E-03 0.  1.
         23    2    1    2    0    0 -0.35527136788E-14  0.00000000000E+00  0.00000000000E+00  0.91188000000E+02  0.91188000000E+02 0.  0.
    9900012    2    3    3    0    0  0.29635422227E+02 -0.11463145288E+02 -0.18604256847E+02  0.54367077642E+02  0.39999985101E+02 0.  0.
         12    1    3    3    0    0 -0.29635422227E+02  0.11463145288E+02  0.18604256847E+02  0.36820922358E+02  0.00000000000E+00 0. -1.
         11    1    4    4    0    0  0.16389952925E+02 -0.11180911679E+02 -0.13511245183E+02  0.24004105680E+02  0.51100000000E-03 0. -1.
        -11    1    4    4    0    0 -0.61148720442E+01 -0.61305203036E+01 -0.52725781723E+01  0.10137801544E+02  0.51100000000E-03 0.  1.
        -12    1    4    4    0    0  0.19360341346E+02  0.58482866948E+01  0.17956650814E+00  0.20225170418E+02  0.00000000000E+00 0.  1.
</event>
<event>
 8    1  0.1210161E-006  0.9118800E+02  0.7816164E-02  0.1184000E+00
        -11   -1    0    0    0    0  0.00000000000E+00  0.00000000000E+00  0.45593999997E+02  0.45594000000E+02  0.51100000000E-03 0. -1.
         11   -1    0    0    0    0 -0.00000000000E+00 -0.00000000000E+00 -0.45593999997E+02  0.45594000000E+02  0.51100000000E-03 0.  1.
         23    2    1    2    0    0  0.00000000000E+00 -0.35527136788E-14  0.00000000000E+00  0.91188000000E+02  0.91188000000E+02 0.  0.
    9900012    2    3    3    0    0 -0.20521846616E+02  0.25667097074E+02 -0.16608182923E+02  0.54367111896E+02  0.40000063190E+02 0.  0.
         12    1    3    3    0    0  0.20521846616E+02 -0.25667097074E+02  0.16608182923E+02  0.36820888104E+02  0.00000000000E+00 0. -1.
         11    1    4    4    0    0  0.39675063799E+00 -0.20220043393E+00  0.80822066534E+01  0.80944648207E+01  0.51100000000E-03 0. -1.
        -11    1    4    4    0    0 -0.13083856142E+02  0.38152853904E+01 -0.21840123622E+01  0.13802666569E+02  0.51100000000E-03 0.  1.
        -12    1    4    4    0    0 -0.78347411118E+01  0.22054012117E+02 -0.22506377215E+02  0.32469980506E+02  0.00000000000E+00 0.  1.
</event>
<event>
 8    1  0.1210161E-006  0.9118800E+02  0.7816164E-02  0.1184000E+00
        -11   -1    0    0    0    0  0.00000000000E+00  0.00000000000E+00  0.45593999997E+02  0.45594000000E+02  0.51100000000E-03 0.  1.
         11   -1    0    0    0    0 -0.00000000000E+00 -0.00000000000E+00 -0.45593999997E+02  0.45594000000E+02  0.51100000000E-03 0. -1.
         23    2    1    2    0    0  0.35527136788E-14 -0.88817841970E-15  0.00000000000E+00  0.91188000000E+02  0.91188000000E+02 0.  0.
    9900012    2    3    3    0    0 -0.19548809416E+02 -0.54806644415E+01 -0.30717859546E+02  0.54367074871E+02  0.39999978782E+02 0.  0.
        -12    1    3    3    0    0  0.19548809416E+02  0.54806644415E+01  0.30717859546E+02  0.36820925129E+02  0.00000000000E+00 0.  1.
         11    1    4    4    0    0  0.18650025191E+01 -0.70112126159E+01 -0.89907684261E+01  0.11552889418E+02  0.51100000000E-03 0. -1.
        -11    1    4    4    0    0 -0.20345799516E+02 -0.76278695851E+01 -0.24914282893E+02  0.33058394466E+02  0.51100000000E-03 0.  1.
        -12    1    4    4    0    0 -0.10680124191E+01  0.91584177594E+01  0.31871917729E+01  0.97557909869E+01  0.00000000000E+00 0.  1.
</event>
<event>
 8    1  0.1210161E-006  0.9118800E+02  0.7816164E-02  0.1184000E+00
        -11   -1    0    0    0    0  0.00000000000E+00  0.00000000000E+00  0.45593999997E+02  0.45594000000E+02  0.51100000000E-03 0.  1.
         11   -1    0    0    0    0 -0.00000000000E+00 -0.00000000000E+00 -0.45593999997E+02  0.45594000000E+02  0.51100000000E-03 0. -1.
         23    2    1    2    0    0 -0.49960036108E-15 -0.17763568394E-14  0.00000000000E+00  0.91188000000E+02  0.91188000000E+02 0.  0.
    9900012    2    3    3    0    0 -0.21244645084E+00  0.15815241321E+02 -0.33250742027E+02  0.54367097827E+02  0.40000031116E+02 0.  0.
        -12    1    3    3    0    0  0.21244645084E+00 -0.15815241321E+02  0.33250742027E+02  0.36820902173E+02  0.00000000000E+00 0.  1.
         11    1    4    4    0    0 -0.57966482728E+01  0.11247160577E+02 -0.39027016821E+02  0.41026915487E+02  0.51100000000E-03 0. -1.
        -11    1    4    4    0    0  0.26574070206E+00  0.10066895103E+01  0.67815200155E+01  0.68609806787E+01  0.51100000000E-03 0.  1.
        -12    1    4    4    0    0  0.53184611199E+01  0.35613912338E+01 -0.10052452214E+01  0.64792016607E+01  0.00000000000E+00 0.  1.
</event>
<event>
 8    1  0.1210161E-006  0.9118800E+02  0.7816164E-02  0.1184000E+00
        -11   -1    0    0    0    0  0.00000000000E+00  0.00000000000E+00  0.45593999997E+02  0.45594000000E+02  0.51100000000E-03 0. -1.
         11   -1    0    0    0    0 -0.00000000000E+00 -0.00000000000E+00 -0.45593999997E+02  0.45594000000E+02  0.51100000000E-03 0.  1.
         23    2    1    2    0    0 -0.35527136788E-14  0.00000000000E+00 -0.35527136788E-14  0.91188000000E+02  0.91188000000E+02 0.  0.
    9900012    2    3    3    0    0 -0.24829956321E+02 -0.87088807237E+01 -0.25756712493E+02  0.54367087833E+02  0.40000008333E+02 0.  0.
         12    1    3    3    0    0  0.24829956321E+02  0.87088807237E+01  0.25756712493E+02  0.36820912167E+02  0.00000000000E+00 0. -1.
         11    1    4    4    0    0  0.29304826505E+01  0.53959473493E+01 -0.42660244256E+01  0.74768269355E+01  0.51100000000E-03 0.  1.
        -11    1    4    4    0    0 -0.27095960839E+02 -0.10071128533E+02 -0.27317324258E+02  0.39772539881E+02  0.51100000000E-03 0. -1.
         12    1    4    4    0    0 -0.66447813202E+00 -0.40336995404E+01  0.58266361903E+01  0.71177210162E+01  0.00000000000E+00 0. -1.
</event>
<event>
 8    1  0.1210161E-006  0.9118800E+02  0.7816164E-02  0.1184000E+00
        -11   -1    0    0    0    0  0.00000000000E+00  0.00000000000E+00  0.45593999997E+02  0.45594000000E+02  0.51100000000E-03 0.  1.
         11   -1    0    0    0    0 -0.00000000000E+00 -0.00000000000E+00 -0.45593999997E+02  0.45594000000E+02  0.51100000000E-03 0. -1.
         23    2    1    2    0    0  0.35527136788E-14  0.00000000000E+00 -0.35527136788E-14  0.91188000000E+02  0.91188000000E+02 0.  0.
    9900012    2    3    3    0    0  0.20602592758E+02  0.18600430848E+02 -0.24193714485E+02  0.54367100002E+02  0.40000036076E+02 0.  0.
         12    1    3    3    0    0 -0.20602592758E+02 -0.18600430848E+02  0.24193714485E+02  0.36820899998E+02  0.00000000000E+00 0. -1.
         11    1    4    4    0    0 -0.12446510378E+01  0.43764231479E+01  0.72595613362E+01  0.85675823212E+01  0.51100000000E-03 0.  1.
        -11    1    4    4    0    0  0.11289245464E+02 -0.30592553115E+01 -0.18066536766E+02  0.21522217757E+02  0.51100000000E-03 0. -1.
         12    1    4    4    0    0  0.10557998331E+02  0.17283263011E+02 -0.13386739055E+02  0.24277299924E+02  0.00000000000E+00 0. -1.
</event>
<event>
 8    1  0.1210161E-006  0.9118800E+02  0.7816164E-02  0.1184000E+00
        -11   -1    0    0    0    0  0.00000000000E+00  0.00000000000E+00  0.45593999997E+02  0.45594000000E+02  0.51100000000E-03 0.  1.
         11   -1    0    0    0    0 -0.00000000000E+00 -0.00000000000E+00 -0.45593999997E+02  0.45594000000E+02  0.51100000000E-03 0. -1.
         23    2    1    2    0    0  0.00000000000E+00  0.00000000000E+00  0.00000000000E+00  0.91188000000E+02  0.91188000000E+02 0.  0.
    9900012    2    3    3    0    0  0.72821741446E+01 -0.23211712160E+02  0.27639925104E+02  0.54367094234E+02  0.40000022926E+02 0.  0.
         12    1    3    3    0    0 -0.72821741446E+01  0.23211712160E+02 -0.27639925104E+02  0.36820905766E+02  0.00000000000E+00 0. -1.
         11    1    4    4    0    0  0.13360222630E+02 -0.23468714894E+02  0.21828470778E+02  0.34724030070E+02  0.51100000000E-03 0. -1.
        -11    1    4    4    0    0  0.24960129899E+01 -0.45498855892E+01  0.80349432427E+01  0.95651373694E+01  0.51100000000E-03 0.  1.
         12    1    4    4    0    0 -0.85740614750E+01  0.48068883235E+01 -0.22234889174E+01  0.10077926796E+02  0.00000000000E+00 0. -1.
</event>
<event>
 8    1  0.1210161E-006  0.9118800E+02  0.7816164E-02  0.1184000E+00
        -11   -1    0    0    0    0  0.00000000000E+00  0.00000000000E+00  0.45593999997E+02  0.45594000000E+02  0.51100000000E-03 0. -1.
         11   -1    0    0    0    0 -0.00000000000E+00 -0.00000000000E+00 -0.45593999997E+02  0.45594000000E+02  0.51100000000E-03 0.  1.
         23    2    1    2    0    0  0.00000000000E+00  0.00000000000E+00  0.00000000000E+00  0.91188000000E+02  0.91188000000E+02 0.  0.
    9900012    2    3    3    0    0  0.26750418049E+02 -0.24676447491E+02  0.55917746680E+01  0.54367083791E+02  0.39999999117E+02 0.  0.
        -12    1    3    3    0    0 -0.26750418049E+02  0.24676447491E+02 -0.55917746680E+01  0.36820916209E+02  0.00000000000E+00 0.  1.
         11    1    4    4    0    0 -0.50010805871E+01 -0.11718464305E+02 -0.97679018333E+00  0.12778393171E+02  0.51100000000E-03 0.  1.
        -11    1    4    4    0    0  0.84039703244E+01 -0.14735331174E+02  0.65208586695E+01  0.18173560468E+02  0.51100000000E-03 0. -1.
         12    1    4    4    0    0  0.23347528312E+02  0.17773479885E+01  0.47706181829E-01  0.23415130152E+02  0.00000000000E+00 0. -1.
</event>
<event>
 8    1  0.1210161E-006  0.9118800E+02  0.7816164E-02  0.1184000E+00
        -11   -1    0    0    0    0  0.00000000000E+00  0.00000000000E+00  0.45593999997E+02  0.45594000000E+02  0.51100000000E-03 0.  1.
         11   -1    0    0    0    0 -0.00000000000E+00 -0.00000000000E+00 -0.45593999997E+02  0.45594000000E+02  0.51100000000E-03 0. -1.
         23    2    1    2    0    0  0.17763568394E-14 -0.17763568394E-14  0.71054273576E-14  0.91188000000E+02  0.91188000000E+02 0.  0.
    9900012    2    3    3    0    0  0.86996145074E+01 -0.46375749578E+01  0.35476612939E+02  0.54367075790E+02  0.39999980879E+02 0.  0.
         12    1    3    3    0    0 -0.86996145074E+01  0.46375749578E+01 -0.35476612939E+02  0.36820924210E+02  0.00000000000E+00 0. -1.
         11    1    4    4    0    0  0.97437111240E+00  0.34389621247E+00 -0.63764153758E+01  0.64595926323E+01  0.51100000000E-03 0. -1.
        -11    1    4    4    0    0  0.29605116747E+01 -0.65963439477E+01  0.16828644817E+01  0.74235042923E+01  0.51100000000E-03 0.  1.
         12    1    4    4    0    0  0.47647317203E+01  0.16148727774E+01  0.40170163833E+02  0.40483978866E+02  0.00000000000E+00 0. -1.
</event>
<event>
 8    1  0.1210161E-006  0.9118800E+02  0.7816164E-02  0.1184000E+00
        -11   -1    0    0    0    0  0.00000000000E+00  0.00000000000E+00  0.45593999997E+02  0.45594000000E+02  0.51100000000E-03 0.  1.
         11   -1    0    0    0    0 -0.00000000000E+00 -0.00000000000E+00 -0.45593999997E+02  0.45594000000E+02  0.51100000000E-03 0. -1.
         23    2    1    2    0    0 -0.71054273576E-14 -0.26645352591E-14 -0.88817841970E-15  0.91188000000E+02  0.91188000000E+02 0.  0.
    9900012    2    3    3    0    0  0.36023164029E+02  0.23442971938E+01 -0.72535880351E+01  0.54367100834E+02  0.40000037971E+02 0.  0.
        -12    1    3    3    0    0 -0.36023164029E+02 -0.23442971938E+01  0.72535880351E+01  0.36820899166E+02  0.00000000000E+00 0.  1.
         11    1    4    4    0    0  0.35671058288E+01  0.15311055601E+02  0.13909417689E+00  0.15721705221E+02  0.51100000000E-03 0.  1.
        -11    1    4    4    0    0  0.16989921287E+02 -0.13720856832E+02 -0.90650774528E+00  0.21857289267E+02  0.51100000000E-03 0. -1.
         12    1    4    4    0    0  0.15466136913E+02  0.75409842484E+00 -0.64861744667E+01  0.16788106346E+02  0.00000000000E+00 0. -1.
</event>
<event>
 8    1  0.1210161E-006  0.9118800E+02  0.7816164E-02  0.1184000E+00
        -11   -1    0    0    0    0  0.00000000000E+00  0.00000000000E+00  0.45593999997E+02  0.45594000000E+02  0.51100000000E-03 0. -1.
         11   -1    0    0    0    0 -0.00000000000E+00 -0.00000000000E+00 -0.45593999997E+02  0.45594000000E+02  0.51100000000E-03 0.  1.
         23    2    1    2    0    0  0.00000000000E+00  0.00000000000E+00  0.35527136788E-14  0.91188000000E+02  0.91188000000E+02 0.  0.
    9900012    2    3    3    0    0 -0.35235891243E+02  0.82184022406E+01  0.68314388020E+01  0.54367099370E+02  0.40000034635E+02 0.  0.
         12    1    3    3    0    0  0.35235891243E+02 -0.82184022406E+01 -0.68314388020E+01  0.36820900630E+02  0.00000000000E+00 0. -1.
         11    1    4    4    0    0 -0.20804695936E+02 -0.88754534485E+01  0.17476016309E+02  0.28583565089E+02  0.51100000000E-03 0. -1.
        -11    1    4    4    0    0 -0.75512073555E+01  0.94071852341E+01 -0.18028951876E+01  0.12196979047E+02  0.51100000000E-03 0.  1.
        -12    1    4    4    0    0 -0.68799879509E+01  0.76866704550E+01 -0.88416823195E+01  0.13586555234E+02  0.00000000000E+00 0.  1.
</event>
<event>
 8    1  0.1210161E-006  0.9118800E+02  0.7816164E-02  0.1184000E+00
        -11   -1    0    0    0    0  0.00000000000E+00  0.00000000000E+00  0.45593999997E+02  0.45594000000E+02  0.51100000000E-03 0.  1.
         11   -1    0    0    0    0 -0.00000000000E+00 -0.00000000000E+00 -0.45593999997E+02  0.45594000000E+02  0.51100000000E-03 0. -1.
         23    2    1    2    0    0 -0.35527136788E-14  0.00000000000E+00 -0.17763568394E-14  0.91188000000E+02  0.91188000000E+02 0.  0.
    9900012    2    3    3    0    0 -0.24750191751E+02  0.23426422296E+02  0.13943118987E+02  0.54367084471E+02  0.40000000669E+02 0.  0.
         12    1    3    3    0    0  0.24750191751E+02 -0.23426422296E+02 -0.13943118987E+02  0.36820915529E+02  0.00000000000E+00 0. -1.
         11    1    4    4    0    0 -0.34318380087E+02  0.11172868542E+02  0.52911904750E+01  0.36477128453E+02  0.51100000000E-03 0. -1.
        -11    1    4    4    0    0  0.83069352941E+01  0.94425782220E+01  0.70393998985E+01  0.14412515695E+02  0.51100000000E-03 0.  1.
         12    1    4    4    0    0  0.12612530421E+01  0.28109755318E+01  0.16125286131E+01  0.34774403237E+01  0.00000000000E+00 0. -1.
</event>
<event>
 8    1  0.1210161E-006  0.9118800E+02  0.7816164E-02  0.1184000E+00
        -11   -1    0    0    0    0  0.00000000000E+00  0.00000000000E+00  0.45593999997E+02  0.45594000000E+02  0.51100000000E-03 0.  1.
         11   -1    0    0    0    0 -0.00000000000E+00 -0.00000000000E+00 -0.45593999997E+02  0.45594000000E+02  0.51100000000E-03 0. -1.
         23    2    1    2    0    0  0.00000000000E+00  0.17763568394E-14  0.00000000000E+00  0.91188000000E+02  0.91188000000E+02 0.  0.
    9900012    2    3    3    0    0 -0.29441206095E+01  0.14145559767E+02 -0.33867636629E+02  0.54367061417E+02  0.39999948113E+02 0.  0.
        -12    1    3    3    0    0  0.29441206095E+01 -0.14145559767E+02  0.33867636629E+02  0.36820938583E+02  0.00000000000E+00 0.  1.
         11    1    4    4    0    0  0.48728267006E+00  0.77823592631E+00 -0.26698268429E+01  0.28233085538E+01  0.51100000000E-03 0. -1.
        -11    1    4    4    0    0 -0.16934677092E+01  0.19792318240E+02 -0.37462498928E+02  0.42403331477E+02  0.51100000000E-03 0.  1.
        -12    1    4    4    0    0 -0.17379355704E+01 -0.64249943993E+01  0.62646891417E+01  0.91404213864E+01  0.00000000000E+00 0.  1.
</event>
<event>
 8    1  0.1210161E-006  0.9118800E+02  0.7816164E-02  0.1184000E+00
        -11   -1    0    0    0    0  0.00000000000E+00  0.00000000000E+00  0.45593999997E+02  0.45594000000E+02  0.51100000000E-03 0.  1.
         11   -1    0    0    0    0 -0.00000000000E+00 -0.00000000000E+00 -0.45593999997E+02  0.45594000000E+02  0.51100000000E-03 0. -1.
         23    2    1    2    0    0  0.35527136788E-14  0.00000000000E+00 -0.35527136788E-14  0.91188000000E+02  0.91188000000E+02 0.  0.
    9900012    2    3    3    0    0  0.20791452574E+02 -0.42003718916E+01 -0.30097398380E+02  0.54367068271E+02  0.39999963737E+02 0.  0.
        -12    1    3    3    0    0 -0.20791452574E+02  0.42003718916E+01  0.30097398380E+02  0.36820931729E+02  0.00000000000E+00 0.  1.
         11    1    4    4    0    0  0.15218836712E+00  0.23932377647E+01 -0.17691426925E+01  0.29800359772E+01  0.51100000000E-03 0. -1.
        -11    1    4    4    0    0 -0.21251257578E+00  0.78340414228E+01  0.51592184618E+01  0.93826916184E+01  0.51100000000E-03 0.  1.
         12    1    4    4    0    0  0.20851776782E+02 -0.14427651079E+02 -0.33487474149E+02  0.42004340675E+02  0.00000000000E+00 0. -1.
</event>
<event>
 8    1  0.1210161E-006  0.9118800E+02  0.7816164E-02  0.1184000E+00
        -11   -1    0    0    0    0  0.00000000000E+00  0.00000000000E+00  0.45593999997E+02  0.45594000000E+02  0.51100000000E-03 0. -1.
         11   -1    0    0    0    0 -0.00000000000E+00 -0.00000000000E+00 -0.45593999997E+02  0.45594000000E+02  0.51100000000E-03 0.  1.
         23    2    1    2    0    0 -0.17763568394E-14  0.00000000000E+00  0.17763568394E-14  0.91188000000E+02  0.91188000000E+02 0.  0.
    9900012    2    3    3    0    0 -0.13378424994E+02 -0.32173564143E+02  0.11902130705E+02  0.54367065733E+02  0.39999957951E+02 0.  0.
        -12    1    3    3    0    0  0.13378424994E+02  0.32173564143E+02 -0.11902130705E+02  0.36820934267E+02  0.00000000000E+00 0.  1.
         11    1    4    4    0    0 -0.17454251000E+02 -0.91534159426E+01 -0.95768858121E+00  0.19732031550E+02  0.51100000000E-03 0. -1.
        -11    1    4    4    0    0  0.10361969520E+02 -0.32022676922E+01  0.74308344416E+01  0.13146947610E+02  0.51100000000E-03 0.  1.
        -12    1    4    4    0    0 -0.62861435138E+01 -0.19817880508E+02  0.54289848447E+01  0.21488086573E+02  0.00000000000E+00 0.  1.
</event>
<event>
 8    1  0.1210161E-006  0.9118800E+02  0.7816164E-02  0.1184000E+00
        -11   -1    0    0    0    0  0.00000000000E+00  0.00000000000E+00  0.45593999997E+02  0.45594000000E+02  0.51100000000E-03 0.  1.
         11   -1    0    0    0    0 -0.00000000000E+00 -0.00000000000E+00 -0.45593999997E+02  0.45594000000E+02  0.51100000000E-03 0. -1.
         23    2    1    2    0    0  0.71054273576E-14  0.17763568394E-14 -0.35527136788E-14  0.91188000000E+02  0.91188000000E+02 0.  0.
    9900012    2    3    3    0    0 -0.22582679560E+02 -0.15006469117E+02  0.24912001782E+02  0.54367090665E+02  0.40000014789E+02 0.  0.
         12    1    3    3    0    0  0.22582679560E+02  0.15006469117E+02 -0.24912001782E+02  0.36820909335E+02  0.00000000000E+00 0. -1.
         11    1    4    4    0    0 -0.13139003794E+01  0.77515211524E+01  0.40260683924E+01  0.88329859812E+01  0.51100000000E-03 0. -1.
        -11    1    4    4    0    0 -0.20209802304E+02 -0.57185307185E+01  0.19063678565E+02  0.28364794084E+02  0.51100000000E-03 0.  1.
         12    1    4    4    0    0 -0.10589768768E+01 -0.17039459551E+02  0.18222548240E+01  0.17169310600E+02  0.00000000000E+00 0. -1.
</event>
<event>
 8    1  0.1210161E-006  0.9118800E+02  0.7816164E-02  0.1184000E+00
        -11   -1    0    0    0    0  0.00000000000E+00  0.00000000000E+00  0.45593999997E+02  0.45594000000E+02  0.51100000000E-03 0.  1.
         11   -1    0    0    0    0 -0.00000000000E+00 -0.00000000000E+00 -0.45593999997E+02  0.45594000000E+02  0.51100000000E-03 0. -1.
         23    2    1    2    0    0  0.17763568394E-14  0.35527136788E-14  0.00000000000E+00  0.91188000000E+02  0.91188000000E+02 0.  0.
    9900012    2    3    3    0    0 -0.14562340632E+02  0.22520496481E+02  0.25229844451E+02  0.54367087770E+02  0.40000008189E+02 0.  0.
        -12    1    3    3    0    0  0.14562340632E+02 -0.22520496481E+02 -0.25229844451E+02  0.36820912230E+02  0.00000000000E+00 0.  1.
         11    1    4    4    0    0 -0.36530644235E+01 -0.95727609747E+01 -0.19012228889E+01  0.10421001924E+02  0.51100000000E-03 0. -1.
        -11    1    4    4    0    0 -0.11593695393E+02  0.30591928651E+02  0.26733758803E+02  0.42248949472E+02  0.51100000000E-03 0.  1.
         12    1    4    4    0    0  0.68441918458E+00  0.15013288042E+01  0.39730853726E+00  0.16971363741E+01  0.00000000000E+00 0. -1.
</event>
<event>
 8    1  0.1210161E-006  0.9118800E+02  0.7816164E-02  0.1184000E+00
        -11   -1    0    0    0    0  0.00000000000E+00  0.00000000000E+00  0.45593999997E+02  0.45594000000E+02  0.51100000000E-03 0. -1.
         11   -1    0    0    0    0 -0.00000000000E+00 -0.00000000000E+00 -0.45593999997E+02  0.45594000000E+02  0.51100000000E-03 0.  1.
         23    2    1    2    0    0 -0.17763568394E-14  0.00000000000E+00 -0.17763568394E-14  0.91188000000E+02  0.91188000000E+02 0.  0.
    9900012    2    3    3    0    0  0.87524850296E+01  0.33940193719E+02  0.11279912398E+02  0.54367093335E+02  0.40000020876E+02 0.  0.
        -12    1    3    3    0    0 -0.87524850296E+01 -0.33940193719E+02 -0.11279912398E+02  0.36820906665E+02  0.00000000000E+00 0.  1.
         11    1    4    4    0    0 -0.63909756546E+00  0.86134567405E+01  0.11523229943E+02  0.14400864950E+02  0.51100000000E-03 0. -1.
        -11    1    4    4    0    0  0.12328254002E+02  0.28532855209E+02  0.66789724062E+01  0.31791796832E+02  0.51100000000E-03 0.  1.
        -12    1    4    4    0    0 -0.29366714073E+01 -0.32061182303E+01 -0.69222899511E+01  0.81744315538E+01  0.00000000000E+00 0.  1.
</event>
<event>
 8    1  0.1210161E-006  0.9118800E+02  0.7816164E-02  0.1184000E+00
        -11   -1    0    0    0    0  0.00000000000E+00  0.00000000000E+00  0.45593999997E+02  0.45594000000E+02  0.51100000000E-03 0. -1.
         11   -1    0    0    0    0 -0.00000000000E+00 -0.00000000000E+00 -0.45593999997E+02  0.45594000000E+02  0.51100000000E-03 0.  1.
         23    2    1    2    0    0  0.88817841970E-15  0.00000000000E+00  0.00000000000E+00  0.91188000000E+02  0.91188000000E+02 0.  0.
    9900012    2    3    3    0    0  0.59991328089E+01 -0.17678199022E+02 -0.31737531677E+02  0.54367092460E+02  0.40000018880E+02 0.  0.
        -12    1    3    3    0    0 -0.59991328089E+01  0.17678199022E+02  0.31737531677E+02  0.36820907540E+02  0.00000000000E+00 0.  1.
         11    1    4    4    0    0  0.31733586230E+01  0.63620119367E+01 -0.11248220482E+02  0.13306684978E+02  0.51100000000E-03 0. -1.
        -11    1    4    4    0    0 -0.36746908716E+01  0.16805745494E+01 -0.12824236241E+02  0.13445769567E+02  0.51100000000E-03 0.  1.
         12    1    4    4    0    0  0.65004650575E+01 -0.25720785508E+02 -0.76650749550E+01  0.27614637915E+02  0.00000000000E+00 0. -1.
</event>
<event>
 8    1  0.1210161E-006  0.9118800E+02  0.7816164E-02  0.1184000E+00
        -11   -1    0    0    0    0  0.00000000000E+00  0.00000000000E+00  0.45593999997E+02  0.45594000000E+02  0.51100000000E-03 0. -1.
         11   -1    0    0    0    0 -0.00000000000E+00 -0.00000000000E+00 -0.45593999997E+02  0.45594000000E+02  0.51100000000E-03 0.  1.
         23    2    1    2    0    0  0.00000000000E+00  0.00000000000E+00  0.00000000000E+00  0.91188000000E+02  0.91188000000E+02 0.  0.
    9900012    2    3    3    0    0 -0.31570907275E+02 -0.44552183718E+01 -0.18417655625E+02  0.54367065797E+02  0.39999958097E+02 0.  0.
         12    1    3    3    0    0  0.31570907275E+02  0.44552183718E+01  0.18417655625E+02  0.36820934203E+02  0.00000000000E+00 0. -1.
         11    1    4    4    0    0 -0.15778801815E+02  0.12171986214E+02 -0.16470076303E+02  0.25853263794E+02  0.51100000000E-03 0. -1.
        -11    1    4    4    0    0 -0.15524285522E+02 -0.62573818150E+01  0.30269279984E+01  0.17009425667E+02  0.51100000000E-03 0.  1.
        -12    1    4    4    0    0 -0.26781993798E+00 -0.10369822770E+02 -0.49745073203E+01  0.11504376336E+02  0.00000000000E+00 0.  1.
</event>
<event>
 8    1  0.1210161E-006  0.9118800E+02  0.7816164E-02  0.1184000E+00
        -11   -1    0    0    0    0  0.00000000000E+00  0.00000000000E+00  0.45593999997E+02  0.45594000000E+02  0.51100000000E-03 0.  1.
         11   -1    0    0    0    0 -0.00000000000E+00 -0.00000000000E+00 -0.45593999997E+02  0.45594000000E+02  0.51100000000E-03 0. -1.
         23    2    1    2    0    0  0.88817841970E-15  0.35527136788E-14  0.00000000000E+00  0.91188000000E+02  0.91188000000E+02 0.  0.
    9900012    2    3    3    0    0  0.48863206235E+01 -0.21355392746E+02  0.29594775575E+02  0.54367086514E+02  0.40000005326E+02 0.  0.
         12    1    3    3    0    0 -0.48863206235E+01  0.21355392746E+02 -0.29594775575E+02  0.36820913486E+02  0.00000000000E+00 0. -1.
         11    1    4    4    0    0 -0.33057595918E+01  0.78996179234E+01  0.74792676109E+01  0.11369760511E+02  0.51100000000E-03 0. -1.
        -11    1    4    4    0    0  0.21745391743E+01  0.28350327318E+01  0.49665424646E+01  0.61182166948E+01  0.51100000000E-03 0.  1.
         12    1    4    4    0    0  0.60175410410E+01 -0.32090043401E+02  0.17148965500E+02  0.36879109309E+02  0.00000000000E+00 0. -1.
</event>
<event>
 8    1  0.1210161E-006  0.9118800E+02  0.7816164E-02  0.1184000E+00
        -11   -1    0    0    0    0  0.00000000000E+00  0.00000000000E+00  0.45593999997E+02  0.45594000000E+02  0.51100000000E-03 0.  1.
         11   -1    0    0    0    0 -0.00000000000E+00 -0.00000000000E+00 -0.45593999997E+02  0.45594000000E+02  0.51100000000E-03 0. -1.
         23    2    1    2    0    0 -0.88817841970E-15  0.00000000000E+00  0.35527136788E-14  0.91188000000E+02  0.91188000000E+02 0.  0.
    9900012    2    3    3    0    0 -0.42093973295E+01 -0.19589576757E+02 -0.30891895097E+02  0.54367085751E+02  0.40000003588E+02 0.  0.
        -12    1    3    3    0    0  0.42093973295E+01  0.19589576757E+02  0.30891895097E+02  0.36820914249E+02  0.00000000000E+00 0.  1.
         11    1    4    4    0    0 -0.21956346485E+01 -0.75594387117E+01 -0.83810009144E+01  0.11498134707E+02  0.51100000000E-03 0. -1.
        -11    1    4    4    0    0 -0.17805533141E+02 -0.58037732292E+01 -0.16189477415E+02  0.24755200935E+02  0.51100000000E-03 0.  1.
        -12    1    4    4    0    0  0.15791770460E+02 -0.62263648160E+01 -0.63214167677E+01  0.18113750109E+02  0.00000000000E+00 0.  1.
</event>
<event>
 8    1  0.1210161E-006  0.9118800E+02  0.7816164E-02  0.1184000E+00
        -11   -1    0    0    0    0  0.00000000000E+00  0.00000000000E+00  0.45593999997E+02  0.45594000000E+02  0.51100000000E-03 0.  1.
         11   -1    0    0    0    0 -0.00000000000E+00 -0.00000000000E+00 -0.45593999997E+02  0.45594000000E+02  0.51100000000E-03 0. -1.
         23    2    1    2    0    0 -0.17763568394E-14  0.71054273576E-14 -0.17763568394E-14  0.91188000000E+02  0.91188000000E+02 0.  0.
    9900012    2    3    3    0    0  0.66897976296E+01 -0.33053206582E+02  0.14782139425E+02  0.54367088772E+02  0.40000010474E+02 0.  0.
         12    1    3    3    0    0 -0.66897976296E+01  0.33053206582E+02 -0.14782139425E+02  0.36820911228E+02  0.00000000000E+00 0. -1.
         11    1    4    4    0    0 -0.10208199899E+02  0.13357716169E+01  0.85059363607E+01  0.13354496794E+02  0.51100000000E-03 0. -1.
        -11    1    4    4    0    0  0.47258181067E+00 -0.13696925372E+02  0.49113403814E+01  0.14558515131E+02  0.51100000000E-03 0.  1.
         12    1    4    4    0    0  0.16425415718E+02 -0.20692052827E+02  0.13648626825E+01  0.26454076847E+02  0.00000000000E+00 0. -1.
</event>
<event>
 8    1  0.1210161E-006  0.9118800E+02  0.7816164E-02  0.1184000E+00
        -11   -1    0    0    0    0  0.00000000000E+00  0.00000000000E+00  0.45593999997E+02  0.45594000000E+02  0.51100000000E-03 0.  1.
         11   -1    0    0    0    0 -0.00000000000E+00 -0.00000000000E+00 -0.45593999997E+02  0.45594000000E+02  0.51100000000E-03 0. -1.
         23    2    1    2    0    0  0.71054273576E-14  0.44408920985E-15  0.17763568394E-14  0.91188000000E+02  0.91188000000E+02 0.  0.
    9900012    2    3    3    0    0  0.35908782164E+02  0.19552048833E+01  0.79067666900E+01  0.54367076300E+02  0.39999982040E+02 0.  0.
         12    1    3    3    0    0 -0.35908782164E+02 -0.19552048833E+01 -0.79067666900E+01  0.36820923700E+02  0.00000000000E+00 0. -1.
         11    1    4    4    0    0  0.58335216114E+01  0.31199433454E+01  0.27170147356E+00  0.66210152410E+01  0.51100000000E-03 0. -1.
        -11    1    4    4    0    0  0.30380251103E+02  0.10108539821E+02 -0.31109475737E+01  0.32168621815E+02  0.51100000000E-03 0.  1.
         12    1    4    4    0    0 -0.30499055047E+00 -0.11273278283E+02  0.10746012790E+02  0.15577439243E+02  0.00000000000E+00 0. -1.
</event>
<event>
 8    1  0.1210161E-006  0.9118800E+02  0.7816164E-02  0.1184000E+00
        -11   -1    0    0    0    0  0.00000000000E+00  0.00000000000E+00  0.45593999997E+02  0.45594000000E+02  0.51100000000E-03 0.  1.
         11   -1    0    0    0    0 -0.00000000000E+00 -0.00000000000E+00 -0.45593999997E+02  0.45594000000E+02  0.51100000000E-03 0. -1.
         23    2    1    2    0    0  0.00000000000E+00  0.00000000000E+00  0.00000000000E+00  0.91188000000E+02  0.91188000000E+02 0.  0.
    9900012    2    3    3    0    0 -0.93184900074E+01  0.31138046855E+02 -0.17302066026E+02  0.54367167490E+02  0.40000189927E+02 0.  0.
        -12    1    3    3    0    0  0.93184900074E+01 -0.31138046855E+02  0.17302066026E+02  0.36820832510E+02  0.00000000000E+00 0.  1.
         11    1    4    4    0    0 -0.62784410097E+01  0.15104141941E+01 -0.28303318946E+01  0.70505993678E+01  0.51100000000E-03 0. -1.
        -11    1    4    4    0    0 -0.13179060373E+02  0.25367225784E+02  0.67966917727E+00  0.28594505185E+02  0.51100000000E-03 0.  1.
        -12    1    4    4    0    0  0.10139011375E+02  0.42604068764E+01 -0.15151403309E+02  0.18722062938E+02  0.00000000000E+00 0.  1.
</event>
<event>
 8    1  0.1210161E-006  0.9118800E+02  0.7816164E-02  0.1184000E+00
        -11   -1    0    0    0    0  0.00000000000E+00  0.00000000000E+00  0.45593999997E+02  0.45594000000E+02  0.51100000000E-03 0.  1.
         11   -1    0    0    0    0 -0.00000000000E+00 -0.00000000000E+00 -0.45593999997E+02  0.45594000000E+02  0.51100000000E-03 0. -1.
         23    2    1    2    0    0  0.00000000000E+00  0.35527136788E-14  0.35527136788E-14  0.91188000000E+02  0.91188000000E+02 0.  0.
    9900012    2    3    3    0    0  0.18503995125E+02 -0.10096116982E+02 -0.30190180138E+02  0.54367131047E+02  0.40000106847E+02 0.  0.
        -12    1    3    3    0    0 -0.18503995125E+02  0.10096116982E+02  0.30190180138E+02  0.36820868953E+02  0.00000000000E+00 0.  1.
         11    1    4    4    0    0 -0.30523037031E+01  0.12340018549E+01 -0.23371477741E+02  0.23602230626E+02  0.51100000000E-03 0.  1.
        -11    1    4    4    0    0  0.92511704377E+01  0.18543588137E+01 -0.84377954396E+01  0.12657772048E+02  0.51100000000E-03 0. -1.
        -12    1    4    4    0    0  0.12305128390E+02 -0.13184477651E+02  0.16190930424E+01  0.18107128373E+02  0.00000000000E+00 0.  1.
</event>
<event>
 8    1  0.1210161E-006  0.9118800E+02  0.7816164E-02  0.1184000E+00
        -11   -1    0    0    0    0  0.00000000000E+00  0.00000000000E+00  0.45593999997E+02  0.45594000000E+02  0.51100000000E-03 0.  1.
         11   -1    0    0    0    0 -0.00000000000E+00 -0.00000000000E+00 -0.45593999997E+02  0.45594000000E+02  0.51100000000E-03 0. -1.
         23    2    1    2    0    0  0.17763568394E-14  0.00000000000E+00 -0.35527136788E-14  0.91188000000E+02  0.91188000000E+02 0.  0.
    9900012    2    3    3    0    0 -0.99623226808E+01 -0.24678454009E+02  0.25446181810E+02  0.54367053052E+02  0.39999929042E+02 0.  0.
         12    1    3    3    0    0  0.99623226808E+01  0.24678454009E+02 -0.25446181810E+02  0.36820946948E+02  0.00000000000E+00 0. -1.
         11    1    4    4    0    0 -0.17670988661E+02 -0.74145383098E+01 -0.76985354481E+00  0.19178944011E+02  0.51100000000E-03 0. -1.
        -11    1    4    4    0    0 -0.56073674121E+00 -0.14641926378E+02  0.18307181537E+02  0.23448951572E+02  0.51100000000E-03 0.  1.
         12    1    4    4    0    0  0.82694027217E+01 -0.26219893207E+01  0.79088538176E+01  0.11739157469E+02  0.00000000000E+00 0. -1.
</event>
<event>
 8    1  0.1210161E-006  0.9118800E+02  0.7816164E-02  0.1184000E+00
        -11   -1    0    0    0    0  0.00000000000E+00  0.00000000000E+00  0.45593999997E+02  0.45594000000E+02  0.51100000000E-03 0. -1.
         11   -1    0    0    0    0 -0.00000000000E+00 -0.00000000000E+00 -0.45593999997E+02  0.45594000000E+02  0.51100000000E-03 0.  1.
         23    2    1    2    0    0  0.35527136788E-14  0.00000000000E+00 -0.35527136788E-14  0.91188000000E+02  0.91188000000E+02 0.  0.
    9900012    2    3    3    0    0 -0.14339006857E+02  0.29014628511E+02  0.17559171064E+02  0.54367078315E+02  0.39999986635E+02 0.  0.
        -12    1    3    3    0    0  0.14339006857E+02 -0.29014628511E+02 -0.17559171064E+02  0.36820921685E+02  0.00000000000E+00 0.  1.
         11    1    4    4    0    0  0.61254487057E+00  0.67999849526E+01  0.20143592661E+02  0.21269210895E+02  0.51100000000E-03 0. -1.
        -11    1    4    4    0    0 -0.36232139121E+01 -0.32440848429E+01 -0.19083099104E+01  0.52243097626E+01  0.51100000000E-03 0.  1.
        -12    1    4    4    0    0 -0.11328337815E+02  0.25458728401E+02 -0.67611168600E+00  0.27873557657E+02  0.00000000000E+00 0.  1.
</event>
<event>
 8    1  0.1210161E-006  0.9118800E+02  0.7816164E-02  0.1184000E+00
        -11   -1    0    0    0    0  0.00000000000E+00  0.00000000000E+00  0.45593999997E+02  0.45594000000E+02  0.51100000000E-03 0.  1.
         11   -1    0    0    0    0 -0.00000000000E+00 -0.00000000000E+00 -0.45593999997E+02  0.45594000000E+02  0.51100000000E-03 0. -1.
         23    2    1    2    0    0  0.17763568394E-14  0.00000000000E+00  0.22204460493E-14  0.91188000000E+02  0.91188000000E+02 0.  0.
    9900012    2    3    3    0    0  0.92123918949E+01  0.35605869351E+02  0.17708340185E+01  0.54367055556E+02  0.39999934750E+02 0.  0.
         12    1    3    3    0    0 -0.92123918949E+01 -0.35605869351E+02 -0.17708340185E+01  0.36820944444E+02  0.00000000000E+00 0. -1.
         11    1    4    4    0    0 -0.12398083944E+01 -0.95947205573E+00 -0.51977666913E+01  0.54290413812E+01  0.51100000000E-03 0. -1.
        -11    1    4    4    0    0  0.14621741418E+01  0.61736546710E+01 -0.10857545920E+02  0.12575303928E+02  0.51100000000E-03 0.  1.
        -12    1    4    4    0    0  0.89900261474E+01  0.30391686736E+02  0.17826146630E+02  0.36362710246E+02  0.00000000000E+00 0.  1.
</event>
<event>
 8    1  0.1210161E-006  0.9118800E+02  0.7816164E-02  0.1184000E+00
        -11   -1    0    0    0    0  0.00000000000E+00  0.00000000000E+00  0.45593999997E+02  0.45594000000E+02  0.51100000000E-03 0.  1.
         11   -1    0    0    0    0 -0.00000000000E+00 -0.00000000000E+00 -0.45593999997E+02  0.45594000000E+02  0.51100000000E-03 0. -1.
         23    2    1    2    0    0 -0.71054273576E-14 -0.44408920985E-15  0.00000000000E+00  0.91188000000E+02  0.91188000000E+02 0.  0.
    9900012    2    3    3    0    0 -0.33556012314E+02 -0.23546267156E+01 -0.14974380233E+02  0.54367050899E+02  0.39999924134E+02 0.  0.
        -12    1    3    3    0    0  0.33556012314E+02  0.23546267156E+01  0.14974380233E+02  0.36820949101E+02  0.00000000000E+00 0.  1.
         11    1    4    4    0    0 -0.16495652781E+02  0.66050531418E+01 -0.10445625693E+02  0.20611753541E+02  0.51100000000E-03 0. -1.
        -11    1    4    4    0    0  0.68781675498E+01 -0.59871385317E+01  0.42777191249E+00  0.91289652048E+01  0.51100000000E-03 0.  1.
        -12    1    4    4    0    0 -0.23938527083E+02 -0.29725413257E+01 -0.49565264532E+01  0.24626332153E+02  0.00000000000E+00 0.  1.
</event>
<event>
 8    1  0.1210161E-006  0.9118800E+02  0.7816164E-02  0.1184000E+00
        -11   -1    0    0    0    0  0.00000000000E+00  0.00000000000E+00  0.45593999997E+02  0.45594000000E+02  0.51100000000E-03 0.  1.
         11   -1    0    0    0    0 -0.00000000000E+00 -0.00000000000E+00 -0.45593999997E+02  0.45594000000E+02  0.51100000000E-03 0. -1.
         23    2    1    2    0    0  0.88817841970E-15 -0.35527136788E-14  0.00000000000E+00  0.91188000000E+02  0.91188000000E+02 0.  0.
    9900012    2    3    3    0    0  0.70259619964E+01 -0.22465536967E+02  0.28314473245E+02  0.54367165024E+02  0.40000184305E+02 0.  0.
         12    1    3    3    0    0 -0.70259619964E+01  0.22465536967E+02 -0.28314473245E+02  0.36820834976E+02  0.00000000000E+00 0. -1.
         11    1    4    4    0    0  0.52134413777E+01 -0.21648986721E+02 -0.10222713386E+01  0.22291335447E+02  0.51100000000E-03 0. -1.
        -11    1    4    4    0    0  0.46996541041E+01 -0.45032378042E+01  0.24475110013E+02  0.25325815087E+02  0.51100000000E-03 0.  1.
         12    1    4    4    0    0 -0.28871334854E+01  0.36866875586E+01  0.48616345706E+01  0.67500144900E+01  0.00000000000E+00 0. -1.
</event>
<event>
 8    1  0.1210161E-006  0.9118800E+02  0.7816164E-02  0.1184000E+00
        -11   -1    0    0    0    0  0.00000000000E+00  0.00000000000E+00  0.45593999997E+02  0.45594000000E+02  0.51100000000E-03 0.  1.
         11   -1    0    0    0    0 -0.00000000000E+00 -0.00000000000E+00 -0.45593999997E+02  0.45594000000E+02  0.51100000000E-03 0. -1.
         23    2    1    2    0    0 -0.17763568394E-14  0.00000000000E+00  0.00000000000E+00  0.91188000000E+02  0.91188000000E+02 0.  0.
    9900012    2    3    3    0    0 -0.15513131677E+02 -0.17525976093E+02  0.28424712540E+02  0.54367063355E+02  0.39999952530E+02 0.  0.
         12    1    3    3    0    0  0.15513131677E+02  0.17525976093E+02 -0.28424712540E+02  0.36820936645E+02  0.00000000000E+00 0. -1.
         11    1    4    4    0    0 -0.33252156020E+01 -0.16288631468E+02  0.23714240251E+02  0.28961038739E+02  0.51100000000E-03 0. -1.
        -11    1    4    4    0    0 -0.73405431108E+01  0.31020980894E+01  0.12767343236E+02  0.15050303628E+02  0.51100000000E-03 0.  1.
         12    1    4    4    0    0 -0.48473729644E+01 -0.43394427135E+01 -0.80568709469E+01  0.10355720988E+02  0.00000000000E+00 0. -1.
</event>
<event>
 8    1  0.1210161E-006  0.9118800E+02  0.7816164E-02  0.1184000E+00
        -11   -1    0    0    0    0  0.00000000000E+00  0.00000000000E+00  0.45593999997E+02  0.45594000000E+02  0.51100000000E-03 0. -1.
         11   -1    0    0    0    0 -0.00000000000E+00 -0.00000000000E+00 -0.45593999997E+02  0.45594000000E+02  0.51100000000E-03 0.  1.
         23    2    1    2    0    0 -0.44408920985E-14  0.00000000000E+00  0.35527136788E-14  0.91188000000E+02  0.91188000000E+02 0.  0.
    9900012    2    3    3    0    0 -0.37957098454E+01 -0.25714588883E+02  0.26079346775E+02  0.54367084438E+02  0.40000000593E+02 0.  0.
        -12    1    3    3    0    0  0.37957098454E+01  0.25714588883E+02 -0.26079346775E+02  0.36820915562E+02  0.00000000000E+00 0.  1.
         11    1    4    4    0    0  0.15431282654E+02 -0.16489321385E+02  0.38619367291E+01  0.22911498416E+02  0.51100000000E-03 0. -1.
        -11    1    4    4    0    0 -0.11108423018E+02 -0.25465473348E+01  0.14350104729E+02  0.18325050375E+02  0.51100000000E-03 0.  1.
         12    1    4    4    0    0 -0.81185694809E+01 -0.66787201627E+01  0.78673053168E+01  0.13130535647E+02  0.00000000000E+00 0. -1.
</event>
<event>
 8    1  0.1210161E-006  0.9118800E+02  0.7816164E-02  0.1184000E+00
        -11   -1    0    0    0    0  0.00000000000E+00  0.00000000000E+00  0.45593999997E+02  0.45594000000E+02  0.51100000000E-03 0. -1.
         11   -1    0    0    0    0 -0.00000000000E+00 -0.00000000000E+00 -0.45593999997E+02  0.45594000000E+02  0.51100000000E-03 0.  1.
         23    2    1    2    0    0  0.99920072216E-15  0.00000000000E+00  0.00000000000E+00  0.91188000000E+02  0.91188000000E+02 0.  0.
    9900012    2    3    3    0    0 -0.78860028721E+00 -0.13001985882E+02 -0.34439888389E+02  0.54367089643E+02  0.40000012459E+02 0.  0.
         12    1    3    3    0    0  0.78860028721E+00  0.13001985882E+02  0.34439888389E+02  0.36820910357E+02  0.00000000000E+00 0. -1.
         11    1    4    4    0    0 -0.75744378377E+01 -0.79310266714E+00 -0.16152117895E+02  0.17857548352E+02  0.51100000000E-03 0. -1.
        -11    1    4    4    0    0 -0.58075097188E+01  0.63048776107E+01 -0.85033962930E+01  0.12074203891E+02  0.51100000000E-03 0.  1.
         12    1    4    4    0    0  0.12593347269E+02 -0.18513760825E+02 -0.97843742011E+01  0.24435337400E+02  0.00000000000E+00 0. -1.
</event>
<event>
 8    1  0.1210161E-006  0.9118800E+02  0.7816164E-02  0.1184000E+00
        -11   -1    0    0    0    0  0.00000000000E+00  0.00000000000E+00  0.45593999997E+02  0.45594000000E+02  0.51100000000E-03 0.  1.
         11   -1    0    0    0    0 -0.00000000000E+00 -0.00000000000E+00 -0.45593999997E+02  0.45594000000E+02  0.51100000000E-03 0. -1.
         23    2    1    2    0    0 -0.35527136788E-14  0.00000000000E+00 -0.35527136788E-14  0.91188000000E+02  0.91188000000E+02 0.  0.
    9900012    2    3    3    0    0 -0.23947412849E+02  0.17584752394E+02 -0.21750346749E+02  0.54367086341E+02  0.40000004933E+02 0.  0.
        -12    1    3    3    0    0  0.23947412849E+02 -0.17584752394E+02  0.21750346749E+02  0.36820913659E+02  0.00000000000E+00 0.  1.
         11    1    4    4    0    0  0.82717173443E+01  0.43988267664E+01 -0.15041017390E+01  0.94885882537E+01  0.51100000000E-03 0. -1.
        -11    1    4    4    0    0 -0.39604622859E+01  0.39562874556E+01  0.36961527947E+01  0.67081307152E+01  0.51100000000E-03 0.  1.
         12    1    4    4    0    0 -0.28258667908E+02  0.92296381722E+01 -0.23942397805E+02  0.38170367373E+02  0.00000000000E+00 0. -1.
</event>
<event>
 8    1  0.1210161E-006  0.9118800E+02  0.7816164E-02  0.1184000E+00
        -11   -1    0    0    0    0  0.00000000000E+00  0.00000000000E+00  0.45593999997E+02  0.45594000000E+02  0.51100000000E-03 0.  1.
         11   -1    0    0    0    0 -0.00000000000E+00 -0.00000000000E+00 -0.45593999997E+02  0.45594000000E+02  0.51100000000E-03 0. -1.
         23    2    1    2    0    0  0.71054273576E-14  0.13322676296E-14  0.00000000000E+00  0.91188000000E+02  0.91188000000E+02 0.  0.
    9900012    2    3    3    0    0 -0.34270229642E+02 -0.37416955846E+01  0.12935645048E+02  0.54367084227E+02  0.40000000113E+02 0.  0.
         12    1    3    3    0    0  0.34270229642E+02  0.37416955846E+01 -0.12935645048E+02  0.36820915773E+02  0.00000000000E+00 0. -1.
         11    1    4    4    0    0 -0.79066809691E+01  0.27782299189E+01 -0.88560572683E+01  0.12192781308E+02  0.51100000000E-03 0. -1.
        -11    1    4    4    0    0 -0.17093567017E+02  0.13980705318E+01 -0.61232226111E-01  0.17150754625E+02  0.51100000000E-03 0.  1.
         12    1    4    4    0    0 -0.92699816556E+01 -0.79179960353E+01  0.21852934542E+02  0.25023548294E+02  0.00000000000E+00 0. -1.
</event>
<event>
 8    1  0.1210161E-006  0.9118800E+02  0.7816164E-02  0.1184000E+00
        -11   -1    0    0    0    0  0.00000000000E+00  0.00000000000E+00  0.45593999997E+02  0.45594000000E+02  0.51100000000E-03 0. -1.
         11   -1    0    0    0    0 -0.00000000000E+00 -0.00000000000E+00 -0.45593999997E+02  0.45594000000E+02  0.51100000000E-03 0.  1.
         23    2    1    2    0    0 -0.17763568394E-14 -0.44408920985E-15  0.71054273576E-14  0.91188000000E+02  0.91188000000E+02 0.  0.
    9900012    2    3    3    0    0 -0.14584809461E+02 -0.13481538161E+01  0.33782348616E+02  0.54367064872E+02  0.39999955988E+02 0.  0.
        -12    1    3    3    0    0  0.14584809461E+02  0.13481538161E+01 -0.33782348616E+02  0.36820935128E+02  0.00000000000E+00 0.  1.
         11    1    4    4    0    0  0.65322018138E+01 -0.70686329313E-01  0.94508542643E+00  0.66005942019E+01  0.51100000000E-03 0. -1.
        -11    1    4    4    0    0  0.47908417256E+01  0.58119452194E+01  0.99385229711E+01  0.12470168835E+02  0.51100000000E-03 0.  1.
        -12    1    4    4    0    0 -0.25907853001E+02 -0.70894127062E+01  0.22898740218E+02  0.35296301835E+02  0.00000000000E+00 0.  1.
</event>
<event>
 8    1  0.1210161E-006  0.9118800E+02  0.7816164E-02  0.1184000E+00
        -11   -1    0    0    0    0  0.00000000000E+00  0.00000000000E+00  0.45593999997E+02  0.45594000000E+02  0.51100000000E-03 0. -1.
         11   -1    0    0    0    0 -0.00000000000E+00 -0.00000000000E+00 -0.45593999997E+02  0.45594000000E+02  0.51100000000E-03 0.  1.
         23    2    1    2    0    0  0.00000000000E+00  0.00000000000E+00 -0.35527136788E-14  0.91188000000E+02  0.91188000000E+02 0.  0.
    9900012    2    3    3    0    0 -0.17792086745E+02 -0.10724729108E+02  0.30400695610E+02  0.54367075802E+02  0.39999980906E+02 0.  0.
        -12    1    3    3    0    0  0.17792086745E+02  0.10724729108E+02 -0.30400695610E+02  0.36820924198E+02  0.00000000000E+00 0.  1.
         11    1    4    4    0    0 -0.88817976481E+01 -0.14233081416E+02  0.16035099665E+02  0.23207571126E+02  0.51100000000E-03 0. -1.
        -11    1    4    4    0    0 -0.16161283032E+02 -0.33018825563E+00  0.16055173390E+02  0.22782991163E+02  0.51100000000E-03 0.  1.
        -12    1    4    4    0    0  0.72509939345E+01  0.38385405629E+01 -0.16895774439E+01  0.83765135128E+01  0.00000000000E+00 0.  1.
</event>
<event>
 8    1  0.1210161E-006  0.9118800E+02  0.7816164E-02  0.1184000E+00
        -11   -1    0    0    0    0  0.00000000000E+00  0.00000000000E+00  0.45593999997E+02  0.45594000000E+02  0.51100000000E-03 0.  1.
         11   -1    0    0    0    0 -0.00000000000E+00 -0.00000000000E+00 -0.45593999997E+02  0.45594000000E+02  0.51100000000E-03 0. -1.
         23    2    1    2    0    0  0.00000000000E+00  0.00000000000E+00  0.00000000000E+00  0.91188000000E+02  0.91188000000E+02 0.  0.
    9900012    2    3    3    0    0 -0.26953303293E+02  0.15449812372E+02  0.19763651008E+02  0.54367093413E+02  0.40000021053E+02 0.  0.
         12    1    3    3    0    0  0.26953303293E+02 -0.15449812372E+02 -0.19763651008E+02  0.36820906587E+02  0.00000000000E+00 0. -1.
         11    1    4    4    0    0 -0.14011951450E+02 -0.10263407433E+02  0.33921846709E+01  0.17696870703E+02  0.51100000000E-03 0. -1.
        -11    1    4    4    0    0 -0.20499492485E+01  0.20737610567E+02  0.10382464942E+02  0.23281889152E+02  0.51100000000E-03 0.  1.
        -12    1    4    4    0    0 -0.10891402595E+02  0.49756092378E+01  0.59890013949E+01  0.13388333559E+02  0.00000000000E+00 0.  1.
</event>
<event>
 8    1  0.1210161E-006  0.9118800E+02  0.7816164E-02  0.1184000E+00
        -11   -1    0    0    0    0  0.00000000000E+00  0.00000000000E+00  0.45593999997E+02  0.45594000000E+02  0.51100000000E-03 0.  1.
         11   -1    0    0    0    0 -0.00000000000E+00 -0.00000000000E+00 -0.45593999997E+02  0.45594000000E+02  0.51100000000E-03 0. -1.
         23    2    1    2    0    0 -0.35527136788E-14  0.00000000000E+00  0.00000000000E+00  0.91188000000E+02  0.91188000000E+02 0.  0.
    9900012    2    3    3    0    0  0.27320768405E+02 -0.82464611483E+01 -0.23266974225E+02  0.54367073922E+02  0.39999976619E+02 0.  0.
        -12    1    3    3    0    0 -0.27320768405E+02  0.82464611483E+01  0.23266974225E+02  0.36820926078E+02  0.00000000000E+00 0.  1.
         11    1    4    4    0    0 -0.33231646928E+01 -0.14069998876E+02 -0.54175650119E+01  0.15438856916E+02  0.51100000000E-03 0. -1.
        -11    1    4    4    0    0  0.63429294752E+01 -0.16823687833E+01  0.17812709342E+01  0.67997092182E+01  0.51100000000E-03 0.  1.
         12    1    4    4    0    0  0.24301003622E+02  0.75059065115E+01 -0.19630680147E+02  0.32128507787E+02  0.00000000000E+00 0. -1.
</event>
<event>
 8    1  0.1210161E-006  0.9118800E+02  0.7816164E-02  0.1184000E+00
        -11   -1    0    0    0    0  0.00000000000E+00  0.00000000000E+00  0.45593999997E+02  0.45594000000E+02  0.51100000000E-03 0.  1.
         11   -1    0    0    0    0 -0.00000000000E+00 -0.00000000000E+00 -0.45593999997E+02  0.45594000000E+02  0.51100000000E-03 0. -1.
         23    2    1    2    0    0  0.00000000000E+00  0.35527136788E-14 -0.22204460493E-15  0.91188000000E+02  0.91188000000E+02 0.  0.
    9900012    2    3    3    0    0  0.27110450544E+02  0.24869169491E+02  0.15269969012E+01  0.54367029896E+02  0.39999876253E+02 0.  0.
         12    1    3    3    0    0 -0.27110450544E+02 -0.24869169491E+02 -0.15269969012E+01  0.36820970104E+02  0.00000000000E+00 0. -1.
         11    1    4    4    0    0  0.17312939707E+02  0.72767542709E+00  0.55986685935E+01  0.18210230177E+02  0.51100000000E-03 0. -1.
        -11    1    4    4    0    0  0.13033690224E+02  0.26445683179E+02  0.12574494431E+01  0.29509869858E+02  0.51100000000E-03 0.  1.
         12    1    4    4    0    0 -0.32361793869E+01 -0.23041891146E+01 -0.53291211354E+01  0.66469298609E+01  0.00000000000E+00 0. -1.
</event>
<event>
 8    1  0.1210161E-006  0.9118800E+02  0.7816164E-02  0.1184000E+00
        -11   -1    0    0    0    0  0.00000000000E+00  0.00000000000E+00  0.45593999997E+02  0.45594000000E+02  0.51100000000E-03 0. -1.
         11   -1    0    0    0    0 -0.00000000000E+00 -0.00000000000E+00 -0.45593999997E+02  0.45594000000E+02  0.51100000000E-03 0.  1.
         23    2    1    2    0    0  0.00000000000E+00  0.35527136788E-14  0.00000000000E+00  0.91188000000E+02  0.91188000000E+02 0.  0.
    9900012    2    3    3    0    0  0.15043578277E+02  0.31727556890E+02  0.11083334528E+02  0.54366981304E+02  0.39999765478E+02 0.  0.
        -12    1    3    3    0    0 -0.15043578277E+02 -0.31727556890E+02 -0.11083334528E+02  0.36821018696E+02  0.00000000000E+00 0.  1.
         11    1    4    4    0    0 -0.85183536624E+01  0.13819669677E+02  0.15236541115E+02  0.22264271928E+02  0.51100000000E-03 0.  1.
        -11    1    4    4    0    0  0.79229565392E+01  0.62821957278E+01  0.41381268120E+01  0.10925352043E+02  0.51100000000E-03 0. -1.
        -12    1    4    4    0    0  0.15638975400E+02  0.11625691485E+02 -0.82913333995E+01  0.21177357333E+02  0.00000000000E+00 0.  1.
</event>
<event>
 8    1  0.1210161E-006  0.9118800E+02  0.7816164E-02  0.1184000E+00
        -11   -1    0    0    0    0  0.00000000000E+00  0.00000000000E+00  0.45593999997E+02  0.45594000000E+02  0.51100000000E-03 0.  1.
         11   -1    0    0    0    0 -0.00000000000E+00 -0.00000000000E+00 -0.45593999997E+02  0.45594000000E+02  0.51100000000E-03 0. -1.
         23    2    1    2    0    0 -0.35527136788E-14 -0.17763568394E-14  0.00000000000E+00  0.91188000000E+02  0.91188000000E+02 0.  0.
    9900012    2    3    3    0    0 -0.27117597807E+02 -0.10624605846E+02  0.22528481440E+02  0.54367097835E+02  0.40000031135E+02 0.  0.
         12    1    3    3    0    0  0.27117597807E+02  0.10624605846E+02 -0.22528481440E+02  0.36820902165E+02  0.00000000000E+00 0. -1.
         11    1    4    4    0    0  0.23163932708E+01  0.31361400825E+01  0.13645969286E+02  0.14192023479E+02  0.51100000000E-03 0. -1.
        -11    1    4    4    0    0 -0.20409792490E+02 -0.80508595101E+00  0.12540435180E+02  0.23968110222E+02  0.51100000000E-03 0.  1.
         12    1    4    4    0    0 -0.90241985880E+01 -0.12955659977E+02 -0.36579230254E+01  0.16206964135E+02  0.00000000000E+00 0. -1.
</event>
<event>
 8    1  0.1210161E-006  0.9118800E+02  0.7816164E-02  0.1184000E+00
        -11   -1    0    0    0    0  0.00000000000E+00  0.00000000000E+00  0.45593999997E+02  0.45594000000E+02  0.51100000000E-03 0. -1.
         11   -1    0    0    0    0 -0.00000000000E+00 -0.00000000000E+00 -0.45593999997E+02  0.45594000000E+02  0.51100000000E-03 0.  1.
         23    2    1    2    0    0  0.00000000000E+00  0.00000000000E+00  0.00000000000E+00  0.91188000000E+02  0.91188000000E+02 0.  0.
    9900012    2    3    3    0    0  0.14435699638E+02  0.14108176008E+02 -0.30795279005E+02  0.54367092036E+02  0.40000017914E+02 0.  0.
         12    1    3    3    0    0 -0.14435699638E+02 -0.14108176008E+02  0.30795279005E+02  0.36820907964E+02  0.00000000000E+00 0. -1.
         11    1    4    4    0    0  0.68462024663E+01 -0.14040099672E+01 -0.11368573933E+02  0.13344894369E+02  0.51100000000E-03 0.  1.
        -11    1    4    4    0    0  0.12629554097E+02 -0.54900701821E+01 -0.35655710079E+01  0.14225322638E+02  0.51100000000E-03 0. -1.
        -12    1    4    4    0    0 -0.50400569252E+01  0.21002256157E+02 -0.15861134064E+02  0.26796875028E+02  0.00000000000E+00 0.  1.
</event>
<event>
 8    1  0.1210161E-006  0.9118800E+02  0.7816164E-02  0.1184000E+00
        -11   -1    0    0    0    0  0.00000000000E+00  0.00000000000E+00  0.45593999997E+02  0.45594000000E+02  0.51100000000E-03 0.  1.
         11   -1    0    0    0    0 -0.00000000000E+00 -0.00000000000E+00 -0.45593999997E+02  0.45594000000E+02  0.51100000000E-03 0. -1.
         23    2    1    2    0    0  0.00000000000E+00  0.00000000000E+00  0.00000000000E+00  0.91188000000E+02  0.91188000000E+02 0.  0.
    9900012    2    3    3    0    0  0.11566904848E+02  0.34141411226E+02 -0.75066102327E+01  0.54367103142E+02  0.40000043233E+02 0.  0.
        -12    1    3    3    0    0 -0.11566904848E+02 -0.34141411226E+02  0.75066102327E+01  0.36820896858E+02  0.00000000000E+00 0.  1.
         11    1    4    4    0    0 -0.55210995854E+01  0.18819688960E+02 -0.10486493370E+02  0.22240273753E+02  0.51100000000E-03 0. -1.
        -11    1    4    4    0    0  0.53795123766E+00  0.92686467125E+01  0.95504601891E+01  0.13319477974E+02  0.51100000000E-03 0.  1.
         12    1    4    4    0    0  0.16550053196E+02  0.60530755537E+01 -0.65705770520E+01  0.18807351415E+02  0.00000000000E+00 0. -1.
</event>
<event>
 8    1  0.1210161E-006  0.9118800E+02  0.7816164E-02  0.1184000E+00
        -11   -1    0    0    0    0  0.00000000000E+00  0.00000000000E+00  0.45593999997E+02  0.45594000000E+02  0.51100000000E-03 0.  1.
         11   -1    0    0    0    0 -0.00000000000E+00 -0.00000000000E+00 -0.45593999997E+02  0.45594000000E+02  0.51100000000E-03 0. -1.
         23    2    1    2    0    0  0.00000000000E+00  0.18873791419E-14 -0.44408920985E-15  0.91188000000E+02  0.91188000000E+02 0.  0.
    9900012    2    3    3    0    0  0.36746668182E+02  0.61895586116E+00 -0.22536825012E+01  0.54367084562E+02  0.40000000876E+02 0.  0.
        -12    1    3    3    0    0 -0.36746668182E+02 -0.61895586116E+00  0.22536825012E+01  0.36820915438E+02  0.00000000000E+00 0.  1.
         11    1    4    4    0    0  0.11293955157E+02 -0.13584320360E+02 -0.10537821939E+02  0.20570193830E+02  0.51100000000E-03 0. -1.
        -11    1    4    4    0    0  0.26694668507E+01  0.41302939597E+01  0.73816973042E+01  0.88698836978E+01  0.51100000000E-03 0.  1.
         12    1    4    4    0    0  0.22783246175E+02  0.10072982261E+02  0.90244213351E+00  0.24927007034E+02  0.00000000000E+00 0. -1.
</event>
<event>
 8    1  0.1210161E-006  0.9118800E+02  0.7816164E-02  0.1184000E+00
        -11   -1    0    0    0    0  0.00000000000E+00  0.00000000000E+00  0.45593999997E+02  0.45594000000E+02  0.51100000000E-03 0.  1.
         11   -1    0    0    0    0 -0.00000000000E+00 -0.00000000000E+00 -0.45593999997E+02  0.45594000000E+02  0.51100000000E-03 0. -1.
         23    2    1    2    0    0  0.17763568394E-14  0.00000000000E+00  0.71054273576E-14  0.91188000000E+02  0.91188000000E+02 0.  0.
    9900012    2    3    3    0    0 -0.14793923593E+02  0.12439658815E+02 -0.31339661310E+02  0.54367086679E+02  0.40000005703E+02 0.  0.
        -12    1    3    3    0    0  0.14793923593E+02 -0.12439658815E+02  0.31339661310E+02  0.36820913321E+02  0.00000000000E+00 0.  1.
         11    1    4    4    0    0 -0.11533959867E+01  0.30616023087E+01 -0.23526763202E+02  0.23753153854E+02  0.51100000000E-03 0. -1.
        -11    1    4    4    0    0  0.15613555381E+01 -0.50688907189E+01 -0.80508046200E+01  0.96408993111E+01  0.51100000000E-03 0.  1.
        -12    1    4    4    0    0 -0.15201883145E+02  0.14446947225E+02  0.23790651188E+00  0.20973033514E+02  0.00000000000E+00 0.  1.
</event>
<event>
 8    1  0.1210161E-006  0.9118800E+02  0.7816164E-02  0.1184000E+00
        -11   -1    0    0    0    0  0.00000000000E+00  0.00000000000E+00  0.45593999997E+02  0.45594000000E+02  0.51100000000E-03 0. -1.
         11   -1    0    0    0    0 -0.00000000000E+00 -0.00000000000E+00 -0.45593999997E+02  0.45594000000E+02  0.51100000000E-03 0.  1.
         23    2    1    2    0    0 -0.35527136788E-14  0.00000000000E+00  0.00000000000E+00  0.91188000000E+02  0.91188000000E+02 0.  0.
    9900012    2    3    3    0    0  0.19114293063E+02  0.69564696527E+01  0.30692508806E+02  0.54367098788E+02  0.40000033306E+02 0.  0.
        -12    1    3    3    0    0 -0.19114293063E+02 -0.69564696527E+01 -0.30692508806E+02  0.36820901212E+02  0.00000000000E+00 0.  1.
         11    1    4    4    0    0  0.10225171517E+02 -0.82579311776E+01  0.13395535679E+02  0.18766670889E+02  0.51100000000E-03 0.  1.
        -11    1    4    4    0    0  0.23494371342E+01 -0.70720629518E+01  0.68904766985E+01  0.10149512236E+02  0.51100000000E-03 0. -1.
        -12    1    4    4    0    0  0.65396844118E+01  0.22286463782E+02  0.10406496428E+02  0.25450915662E+02  0.00000000000E+00 0.  1.
</event>
<event>
 8    1  0.1210161E-006  0.9118800E+02  0.7816164E-02  0.1184000E+00
        -11   -1    0    0    0    0  0.00000000000E+00  0.00000000000E+00  0.45593999997E+02  0.45594000000E+02  0.51100000000E-03 0.  1.
         11   -1    0    0    0    0 -0.00000000000E+00 -0.00000000000E+00 -0.45593999997E+02  0.45594000000E+02  0.51100000000E-03 0. -1.
         23    2    1    2    0    0 -0.17763568394E-14  0.44408920985E-15  0.00000000000E+00  0.91188000000E+02  0.91188000000E+02 0.  0.
    9900012    2    3    3    0    0 -0.11977822988E+02  0.21310454962E+01  0.34753009270E+02  0.54367065035E+02  0.39999956359E+02 0.  0.
         12    1    3    3    0    0  0.11977822988E+02 -0.21310454962E+01 -0.34753009270E+02  0.36820934965E+02  0.00000000000E+00 0. -1.
         11    1    4    4    0    0 -0.19920271677E+01 -0.87873163692E+01  0.25998165734E+02  0.27515263455E+02  0.51100000000E-03 0. -1.
        -11    1    4    4    0    0 -0.16149570463E+02  0.62550741789E+01  0.80274253930E+01  0.19088586585E+02  0.51100000000E-03 0.  1.
         12    1    4    4    0    0  0.61637746426E+01  0.46632876865E+01  0.72741814238E+00  0.77632149942E+01  0.00000000000E+00 0. -1.
</event>
<event>
 8    1  0.1210161E-006  0.9118800E+02  0.7816164E-02  0.1184000E+00
        -11   -1    0    0    0    0  0.00000000000E+00  0.00000000000E+00  0.45593999997E+02  0.45594000000E+02  0.51100000000E-03 0. -1.
         11   -1    0    0    0    0 -0.00000000000E+00 -0.00000000000E+00 -0.45593999997E+02  0.45594000000E+02  0.51100000000E-03 0.  1.
         23    2    1    2    0    0  0.00000000000E+00  0.00000000000E+00  0.71054273576E-14  0.91188000000E+02  0.91188000000E+02 0.  0.
    9900012    2    3    3    0    0  0.10275304084E+02 -0.22921473298E+01 -0.35283762610E+02  0.54367085871E+02  0.40000003860E+02 0.  0.
         12    1    3    3    0    0 -0.10275304084E+02  0.22921473298E+01  0.35283762610E+02  0.36820914129E+02  0.00000000000E+00 0. -1.
         11    1    4    4    0    0 -0.13787527128E+01 -0.15433790616E+01  0.48516441650E+01  0.52746022917E+01  0.51100000000E-03 0. -1.
        -11    1    4    4    0    0  0.96696346890E+01  0.69918726290E+00 -0.85189133050E+00  0.97322359685E+01  0.51100000000E-03 0.  1.
        -12    1    4    4    0    0  0.19844221073E+01 -0.14479555311E+01 -0.39283515444E+02  0.39360247611E+02  0.00000000000E+00 0.  1.
</event>
<event>
 8    1  0.1210161E-006  0.9118800E+02  0.7816164E-02  0.1184000E+00
        -11   -1    0    0    0    0  0.00000000000E+00  0.00000000000E+00  0.45593999997E+02  0.45594000000E+02  0.51100000000E-03 0.  1.
         11   -1    0    0    0    0 -0.00000000000E+00 -0.00000000000E+00 -0.45593999997E+02  0.45594000000E+02  0.51100000000E-03 0. -1.
         23    2    1    2    0    0  0.00000000000E+00 -0.35527136788E-14  0.35527136788E-14  0.91188000000E+02  0.91188000000E+02 0.  0.
    9900012    2    3    3    0    0 -0.67575411714E+01  0.17821566072E+02 -0.31504087576E+02  0.54367080485E+02  0.39999991582E+02 0.  0.
        -12    1    3    3    0    0  0.67575411714E+01 -0.17821566072E+02  0.31504087576E+02  0.36820919515E+02  0.00000000000E+00 0.  1.
         11    1    4    4    0    0 -0.20197329789E+02  0.84998994750E+01 -0.14563217254E+02  0.26310980954E+02  0.51100000000E-03 0. -1.
        -11    1    4    4    0    0  0.12620565521E+01 -0.33560880721E+01  0.80906269563E-01  0.35864550706E+01  0.51100000000E-03 0.  1.
         12    1    4    4    0    0  0.12177732066E+02  0.12677754669E+02 -0.17021776592E+02  0.24469644461E+02  0.00000000000E+00 0. -1.
</event>
<event>
 8    1  0.1210161E-006  0.9118800E+02  0.7816164E-02  0.1184000E+00
        -11   -1    0    0    0    0  0.00000000000E+00  0.00000000000E+00  0.45593999997E+02  0.45594000000E+02  0.51100000000E-03 0.  1.
         11   -1    0    0    0    0 -0.00000000000E+00 -0.00000000000E+00 -0.45593999997E+02  0.45594000000E+02  0.51100000000E-03 0. -1.
         23    2    1    2    0    0  0.00000000000E+00  0.00000000000E+00  0.00000000000E+00  0.91188000000E+02  0.91188000000E+02 0.  0.
    9900012    2    3    3    0    0  0.87052690610E+01 -0.15349092836E+02 -0.32317324995E+02  0.54367002524E+02  0.39999813853E+02 0.  0.
        -12    1    3    3    0    0 -0.87052690610E+01  0.15349092836E+02  0.32317324995E+02  0.36820997476E+02  0.00000000000E+00 0.  1.
         11    1    4    4    0    0  0.12800269427E+02 -0.58753796596E+00 -0.18803046008E+02  0.22754046622E+02  0.51100000000E-03 0. -1.
        -11    1    4    4    0    0  0.57658873375E+01  0.16844710594E+01  0.26191694280E+01  0.65530869285E+01  0.51100000000E-03 0.  1.
         12    1    4    4    0    0 -0.98608877036E+01 -0.16446025929E+02 -0.16133448415E+02  0.25059868973E+02  0.00000000000E+00 0. -1.
</event>
<event>
 8    1  0.1210161E-006  0.9118800E+02  0.7816164E-02  0.1184000E+00
        -11   -1    0    0    0    0  0.00000000000E+00  0.00000000000E+00  0.45593999997E+02  0.45594000000E+02  0.51100000000E-03 0.  1.
         11   -1    0    0    0    0 -0.00000000000E+00 -0.00000000000E+00 -0.45593999997E+02  0.45594000000E+02  0.51100000000E-03 0. -1.
         23    2    1    2    0    0  0.00000000000E+00  0.00000000000E+00  0.17763568394E-14  0.91188000000E+02  0.91188000000E+02 0.  0.
    9900012    2    3    3    0    0 -0.21164421021E+02 -0.27933719908E+02 -0.11294015938E+02  0.54367079030E+02  0.39999988265E+02 0.  0.
        -12    1    3    3    0    0  0.21164421021E+02  0.27933719908E+02  0.11294015938E+02  0.36820920970E+02  0.00000000000E+00 0.  1.
         11    1    4    4    0    0 -0.15394413812E+02 -0.22982987566E+02 -0.12155418540E+02  0.30215226198E+02  0.51100000000E-03 0. -1.
        -11    1    4    4    0    0  0.62100739397E+01  0.52537386273E+01 -0.13977333656E+01  0.82535111755E+01  0.51100000000E-03 0.  1.
        -12    1    4    4    0    0 -0.11980081149E+02 -0.10204470969E+02  0.22591359673E+01  0.15898341656E+02  0.00000000000E+00 0.  1.
</event>
<event>
 8    1  0.1210161E-006  0.9118800E+02  0.7816164E-02  0.1184000E+00
        -11   -1    0    0    0    0  0.00000000000E+00  0.00000000000E+00  0.45593999997E+02  0.45594000000E+02  0.51100000000E-03 0.  1.
         11   -1    0    0    0    0 -0.00000000000E+00 -0.00000000000E+00 -0.45593999997E+02  0.45594000000E+02  0.51100000000E-03 0. -1.
         23    2    1    2    0    0  0.00000000000E+00  0.00000000000E+00  0.35527136788E-14  0.91188000000E+02  0.91188000000E+02 0.  0.
    9900012    2    3    3    0    0 -0.18998123725E+02 -0.27069978554E+02  0.16188462036E+02  0.54367099046E+02  0.40000033896E+02 0.  0.
         12    1    3    3    0    0  0.18998123725E+02  0.27069978554E+02 -0.16188462036E+02  0.36820900954E+02  0.00000000000E+00 0. -1.
         11    1    4    4    0    0  0.82294388114E+00  0.36112180131E+01 -0.55794445301E+01  0.66968898524E+01  0.51100000000E-03 0. -1.
        -11    1    4    4    0    0 -0.21196221266E+02 -0.14143001469E+02  0.16062580336E+02  0.30121599788E+02  0.51100000000E-03 0.  1.
        -12    1    4    4    0    0  0.13751536596E+01 -0.16538195098E+02  0.57053262301E+01  0.17548609405E+02  0.00000000000E+00 0.  1.
</event>
<event>
 8    1  0.1210161E-006  0.9118800E+02  0.7816164E-02  0.1184000E+00
        -11   -1    0    0    0    0  0.00000000000E+00  0.00000000000E+00  0.45593999997E+02  0.45594000000E+02  0.51100000000E-03 0.  1.
         11   -1    0    0    0    0 -0.00000000000E+00 -0.00000000000E+00 -0.45593999997E+02  0.45594000000E+02  0.51100000000E-03 0. -1.
         23    2    1    2    0    0  0.00000000000E+00  0.35527136788E-14  0.00000000000E+00  0.91188000000E+02  0.91188000000E+02 0.  0.
    9900012    2    3    3    0    0  0.53830098292E+01  0.10344834211E+02 -0.34925445336E+02  0.54367093960E+02  0.40000022300E+02 0.  0.
        -12    1    3    3    0    0 -0.53830098292E+01 -0.10344834211E+02  0.34925445336E+02  0.36820906040E+02  0.00000000000E+00 0.  1.
         11    1    4    4    0    0 -0.11903010263E+02 -0.31431485291E+01 -0.21669143680E+02  0.24922135223E+02  0.51100000000E-03 0. -1.
        -11    1    4    4    0    0 -0.13704298948E+01  0.13574768614E+01  0.17501490783E+01  0.26045812683E+01  0.51100000000E-03 0.  1.
        -12    1    4    4    0    0  0.18656449987E+02  0.12130505879E+02 -0.15006450735E+02  0.26840377469E+02  0.00000000000E+00 0.  1.
</event>
<event>
 8    1  0.1210161E-006  0.9118800E+02  0.7816164E-02  0.1184000E+00
        -11   -1    0    0    0    0  0.00000000000E+00  0.00000000000E+00  0.45593999997E+02  0.45594000000E+02  0.51100000000E-03 0.  1.
         11   -1    0    0    0    0 -0.00000000000E+00 -0.00000000000E+00 -0.45593999997E+02  0.45594000000E+02  0.51100000000E-03 0. -1.
         23    2    1    2    0    0  0.00000000000E+00 -0.26645352591E-14  0.00000000000E+00  0.91188000000E+02  0.91188000000E+02 0.  0.
    9900012    2    3    3    0    0  0.27428635462E+02  0.67521803387E+01  0.23619000357E+02  0.54367093432E+02  0.40000021096E+02 0.  0.
         12    1    3    3    0    0 -0.27428635462E+02 -0.67521803387E+01 -0.23619000357E+02  0.36820906568E+02  0.00000000000E+00 0. -1.
         11    1    4    4    0    0 -0.91801791939E+00  0.12512694676E+02 -0.27466715255E+01  0.12843460970E+02  0.51100000000E-03 0. -1.
        -11    1    4    4    0    0  0.11339976694E+01 -0.46742373989E+01  0.32855640842E+01  0.58248929250E+01  0.51100000000E-03 0.  1.
        -12    1    4    4    0    0  0.27212655712E+02 -0.10862769387E+01  0.23080107798E+02  0.35698739536E+02  0.00000000000E+00 0.  1.
</event>
<event>
 8    1  0.1210161E-006  0.9118800E+02  0.7816164E-02  0.1184000E+00
        -11   -1    0    0    0    0  0.00000000000E+00  0.00000000000E+00  0.45593999997E+02  0.45594000000E+02  0.51100000000E-03 0.  1.
         11   -1    0    0    0    0 -0.00000000000E+00 -0.00000000000E+00 -0.45593999997E+02  0.45594000000E+02  0.51100000000E-03 0. -1.
         23    2    1    2    0    0  0.00000000000E+00  0.00000000000E+00  0.00000000000E+00  0.91188000000E+02  0.91188000000E+02 0.  0.
    9900012    2    3    3    0    0 -0.11936813000E+02  0.11024485223E+02  0.33041675069E+02  0.54367094656E+02  0.40000023887E+02 0.  0.
         12    1    3    3    0    0  0.11936813000E+02 -0.11024485223E+02 -0.33041675069E+02  0.36820905344E+02  0.00000000000E+00 0. -1.
         11    1    4    4    0    0  0.57101607991E+01 -0.13968249901E+01 -0.56755223535E+01  0.81712061931E+01  0.51100000000E-03 0. -1.
        -11    1    4    4    0    0 -0.14275573567E+02  0.73852088852E+01  0.15979776438E+02  0.22664654558E+02  0.51100000000E-03 0.  1.
         12    1    4    4    0    0 -0.33714002318E+01  0.50361013276E+01  0.22737420984E+02  0.23531233905E+02  0.00000000000E+00 0. -1.
</event>
<event>
 8    1  0.1210161E-006  0.9118800E+02  0.7816164E-02  0.1184000E+00
        -11   -1    0    0    0    0  0.00000000000E+00  0.00000000000E+00  0.45593999997E+02  0.45594000000E+02  0.51100000000E-03 0. -1.
         11   -1    0    0    0    0 -0.00000000000E+00 -0.00000000000E+00 -0.45593999997E+02  0.45594000000E+02  0.51100000000E-03 0.  1.
         23    2    1    2    0    0  0.00000000000E+00  0.00000000000E+00  0.00000000000E+00  0.91188000000E+02  0.91188000000E+02 0.  0.
    9900012    2    3    3    0    0  0.16287866839E+02  0.31106967249E+02  0.11083669766E+02  0.54367003910E+02  0.39999817013E+02 0.  0.
        -12    1    3    3    0    0 -0.16287866839E+02 -0.31106967249E+02 -0.11083669766E+02  0.36820996090E+02  0.00000000000E+00 0.  1.
         11    1    4    4    0    0  0.57524062008E+01  0.26717337540E+02  0.25458400851E+01  0.27447907102E+02  0.51100000000E-03 0. -1.
        -11    1    4    4    0    0  0.45320699187E+01  0.12459566079E+02 -0.68054061101E+00  0.13275676269E+02  0.51100000000E-03 0.  1.
        -12    1    4    4    0    0  0.60033907196E+01 -0.80699363694E+01  0.92183702920E+01  0.13643420538E+02  0.00000000000E+00 0.  1.
</event>
<event>
 8    1  0.1210161E-006  0.9118800E+02  0.7816164E-02  0.1184000E+00
        -11   -1    0    0    0    0  0.00000000000E+00  0.00000000000E+00  0.45593999997E+02  0.45594000000E+02  0.51100000000E-03 0.  1.
         11   -1    0    0    0    0 -0.00000000000E+00 -0.00000000000E+00 -0.45593999997E+02  0.45594000000E+02  0.51100000000E-03 0. -1.
         23    2    1    2    0    0 -0.17763568394E-14  0.00000000000E+00  0.00000000000E+00  0.91188000000E+02  0.91188000000E+02 0.  0.
    9900012    2    3    3    0    0  0.15627024639E+02  0.31335693347E+02 -0.11386441859E+02  0.54367073412E+02  0.39999975457E+02 0.  0.
        -12    1    3    3    0    0 -0.15627024639E+02 -0.31335693347E+02  0.11386441859E+02  0.36820926588E+02  0.00000000000E+00 0.  1.
         11    1    4    4    0    0 -0.73239778491E+01  0.87029688710E+01 -0.38194362037E+01  0.11998767098E+02  0.51100000000E-03 0. -1.
        -11    1    4    4    0    0  0.13870709828E+02  0.47059098097E+01  0.82355975339E+01  0.16803786635E+02  0.51100000000E-03 0.  1.
         12    1    4    4    0    0  0.90802926607E+01  0.17926814666E+02 -0.15802603189E+02  0.25564519679E+02  0.00000000000E+00 0. -1.
</event>
<event>
 8    1  0.1210161E-006  0.9118800E+02  0.7816164E-02  0.1184000E+00
        -11   -1    0    0    0    0  0.00000000000E+00  0.00000000000E+00  0.45593999997E+02  0.45594000000E+02  0.51100000000E-03 0.  1.
         11   -1    0    0    0    0 -0.00000000000E+00 -0.00000000000E+00 -0.45593999997E+02  0.45594000000E+02  0.51100000000E-03 0. -1.
         23    2    1    2    0    0  0.00000000000E+00  0.00000000000E+00  0.00000000000E+00  0.91188000000E+02  0.91188000000E+02 0.  0.
    9900012    2    3    3    0    0 -0.34592943695E+02  0.44576953037E+01 -0.11799893467E+02  0.54367078139E+02  0.39999986233E+02 0.  0.
        -12    1    3    3    0    0  0.34592943695E+02 -0.44576953037E+01  0.11799893467E+02  0.36820921861E+02  0.00000000000E+00 0.  1.
         11    1    4    4    0    0  0.67834598914E+01  0.80082476060E+00  0.95576752047E+00  0.68971110046E+01  0.51100000000E-03 0. -1.
        -11    1    4    4    0    0  0.13433300540E+01  0.25337679314E+01  0.15742235474E-01  0.28678848727E+01  0.51100000000E-03 0.  1.
         12    1    4    4    0    0 -0.42719733640E+02  0.11231026117E+01 -0.12771403223E+02  0.44602082261E+02  0.00000000000E+00 0. -1.
</event>
<event>
 8    1  0.1210161E-006  0.9118800E+02  0.7816164E-02  0.1184000E+00
        -11   -1    0    0    0    0  0.00000000000E+00  0.00000000000E+00  0.45593999997E+02  0.45594000000E+02  0.51100000000E-03 0.  1.
         11   -1    0    0    0    0 -0.00000000000E+00 -0.00000000000E+00 -0.45593999997E+02  0.45594000000E+02  0.51100000000E-03 0. -1.
         23    2    1    2    0    0  0.71054273576E-14  0.17763568394E-14 -0.88817841970E-15  0.91188000000E+02  0.91188000000E+02 0.  0.
    9900012    2    3    3    0    0 -0.34569605857E+02  0.11755633398E+02  0.47475315319E+01  0.54366924224E+02  0.39999635351E+02 0.  0.
        -12    1    3    3    0    0  0.34569605857E+02 -0.11755633398E+02 -0.47475315319E+01  0.36821075776E+02  0.00000000000E+00 0.  1.
         11    1    4    4    0    0 -0.13870970533E+02  0.42710567729E+01 -0.48327905558E+01  0.15297111306E+02  0.51100000000E-03 0. -1.
        -11    1    4    4    0    0 -0.12376299020E+02 -0.89978482163E+01  0.13253984179E+02  0.20243570506E+02  0.51100000000E-03 0.  1.
        -12    1    4    4    0    0 -0.83223363035E+01  0.16482424841E+02 -0.36736620910E+01  0.18826242412E+02  0.00000000000E+00 0.  1.
</event>
<event>
 8    1  0.1210161E-006  0.9118800E+02  0.7816164E-02  0.1184000E+00
        -11   -1    0    0    0    0  0.00000000000E+00  0.00000000000E+00  0.45593999997E+02  0.45594000000E+02  0.51100000000E-03 0.  1.
         11   -1    0    0    0    0 -0.00000000000E+00 -0.00000000000E+00 -0.45593999997E+02  0.45594000000E+02  0.51100000000E-03 0. -1.
         23    2    1    2    0    0  0.71054273576E-14  0.00000000000E+00  0.00000000000E+00  0.91188000000E+02  0.91188000000E+02 0.  0.
    9900012    2    3    3    0    0 -0.33857625219E+02 -0.89944446465E+01  0.11337558013E+02  0.54367095046E+02  0.40000024775E+02 0.  0.
         12    1    3    3    0    0  0.33857625219E+02  0.89944446465E+01 -0.11337558013E+02  0.36820904954E+02  0.00000000000E+00 0. -1.
         11    1    4    4    0    0 -0.11412930431E+02 -0.40430599081E+01 -0.55521480132E+01  0.13320197531E+02  0.51100000000E-03 0. -1.
        -11    1    4    4    0    0  0.39398485677E+01  0.72930673578E+01  0.44870586791E+01  0.94257590714E+01  0.51100000000E-03 0.  1.
        -12    1    4    4    0    0 -0.26384543356E+02 -0.12244452096E+02  0.12402647347E+02  0.31621138444E+02  0.00000000000E+00 0.  1.
</event>
<event>
 8    1  0.1210161E-006  0.9118800E+02  0.7816164E-02  0.1184000E+00
        -11   -1    0    0    0    0  0.00000000000E+00  0.00000000000E+00  0.45593999997E+02  0.45594000000E+02  0.51100000000E-03 0.  1.
         11   -1    0    0    0    0 -0.00000000000E+00 -0.00000000000E+00 -0.45593999997E+02  0.45594000000E+02  0.51100000000E-03 0. -1.
         23    2    1    2    0    0  0.00000000000E+00  0.00000000000E+00  0.00000000000E+00  0.91188000000E+02  0.91188000000E+02 0.  0.
    9900012    2    3    3    0    0 -0.11301793788E+02  0.16735222068E+02 -0.30789285322E+02  0.54367105238E+02  0.40000048010E+02 0.  0.
        -12    1    3    3    0    0  0.11301793788E+02 -0.16735222068E+02  0.30789285322E+02  0.36820894762E+02  0.00000000000E+00 0.  1.
         11    1    4    4    0    0 -0.10858424451E+02  0.93189510504E+01 -0.13375638795E+02  0.19587137200E+02  0.51100000000E-03 0. -1.
        -11    1    4    4    0    0  0.98747868309E+01  0.13821249061E+02 -0.57274148183E+01  0.17926004054E+02  0.51100000000E-03 0.  1.
        -12    1    4    4    0    0 -0.10318156168E+02 -0.64049780439E+01 -0.11686231708E+02  0.16853963985E+02  0.00000000000E+00 0.  1.
</event>
<event>
 8    1  0.1210161E-006  0.9118800E+02  0.7816164E-02  0.1184000E+00
        -11   -1    0    0    0    0  0.00000000000E+00  0.00000000000E+00  0.45593999997E+02  0.45594000000E+02  0.51100000000E-03 0. -1.
         11   -1    0    0    0    0 -0.00000000000E+00 -0.00000000000E+00 -0.45593999997E+02  0.45594000000E+02  0.51100000000E-03 0.  1.
         23    2    1    2    0    0 -0.71054273576E-14  0.00000000000E+00  0.00000000000E+00  0.91188000000E+02  0.91188000000E+02 0.  0.
    9900012    2    3    3    0    0  0.31969781476E+02 -0.15895615665E+01  0.18198518817E+02  0.54367085824E+02  0.40000003754E+02 0.  0.
        -12    1    3    3    0    0 -0.31969781476E+02  0.15895615665E+01 -0.18198518817E+02  0.36820914176E+02  0.00000000000E+00 0.  1.
         11    1    4    4    0    0  0.50309984315E+01 -0.33399074041E+01  0.21276354324E+02  0.22116717213E+02  0.51100000000E-03 0. -1.
        -11    1    4    4    0    0  0.22446731760E+02  0.39518414797E+01  0.44398697396E+01  0.23220363075E+02  0.51100000000E-03 0.  1.
         12    1    4    4    0    0  0.44920512848E+01 -0.22014956420E+01 -0.75177052469E+01  0.90300055363E+01  0.00000000000E+00 0. -1.
</event>
<event>
 8    1  0.1210161E-006  0.9118800E+02  0.7816164E-02  0.1184000E+00
        -11   -1    0    0    0    0  0.00000000000E+00  0.00000000000E+00  0.45593999997E+02  0.45594000000E+02  0.51100000000E-03 0.  1.
         11   -1    0    0    0    0 -0.00000000000E+00 -0.00000000000E+00 -0.45593999997E+02  0.45594000000E+02  0.51100000000E-03 0. -1.
         23    2    1    2    0    0  0.00000000000E+00  0.00000000000E+00 -0.33306690739E-15  0.91188000000E+02  0.91188000000E+02 0.  0.
    9900012    2    3    3    0    0  0.35829339144E+02  0.84534735816E+01 -0.75941529058E+00  0.54367089220E+02  0.40000011496E+02 0.  0.
         12    1    3    3    0    0 -0.35829339144E+02 -0.84534735816E+01  0.75941529058E+00  0.36820910780E+02  0.00000000000E+00 0. -1.
         11    1    4    4    0    0  0.15914314964E+01 -0.11413911722E+02  0.28190116328E+01  0.11864099707E+02  0.51100000000E-03 0. -1.
        -11    1    4    4    0    0  0.31980535439E+02  0.22297139227E+02 -0.38477587855E+01  0.39175532066E+02  0.51100000000E-03 0.  1.
        -12    1    4    4    0    0  0.22573722080E+01 -0.24297539233E+01  0.26933186208E+00  0.33274574475E+01  0.00000000000E+00 0.  1.
</event>
<event>
 8    1  0.1210161E-006  0.9118800E+02  0.7816164E-02  0.1184000E+00
        -11   -1    0    0    0    0  0.00000000000E+00  0.00000000000E+00  0.45593999997E+02  0.45594000000E+02  0.51100000000E-03 0.  1.
         11   -1    0    0    0    0 -0.00000000000E+00 -0.00000000000E+00 -0.45593999997E+02  0.45594000000E+02  0.51100000000E-03 0. -1.
         23    2    1    2    0    0 -0.35527136788E-14  0.00000000000E+00  0.00000000000E+00  0.91188000000E+02  0.91188000000E+02 0.  0.
    9900012    2    3    3    0    0 -0.31578577942E+02 -0.17314516790E+02 -0.76668370466E+01  0.54367089272E+02  0.40000011614E+02 0.  0.
        -12    1    3    3    0    0  0.31578577942E+02  0.17314516790E+02  0.76668370466E+01  0.36820910728E+02  0.00000000000E+00 0.  1.
         11    1    4    4    0    0 -0.24204101876E+02 -0.11963309588E+02 -0.14850297073E+02  0.30813806115E+02  0.51100000000E-03 0. -1.
        -11    1    4    4    0    0 -0.49740172987E+01  0.57187598923E+01 -0.31622512007E+01  0.82124841377E+01  0.51100000000E-03 0.  1.
        -12    1    4    4    0    0 -0.24004587679E+01 -0.11069967094E+02  0.10345711227E+02  0.15340799019E+02  0.00000000000E+00 0.  1.
</event>
<event>
 8    1  0.1210161E-006  0.9118800E+02  0.7816164E-02  0.1184000E+00
        -11   -1    0    0    0    0  0.00000000000E+00  0.00000000000E+00  0.45593999997E+02  0.45594000000E+02  0.51100000000E-03 0.  1.
         11   -1    0    0    0    0 -0.00000000000E+00 -0.00000000000E+00 -0.45593999997E+02  0.45594000000E+02  0.51100000000E-03 0. -1.
         23    2    1    2    0    0  0.00000000000E+00 -0.88817841970E-15 -0.71054273576E-14  0.91188000000E+02  0.91188000000E+02 0.  0.
    9900012    2    3    3    0    0  0.62433408387E+01  0.71480806007E+01  0.35576753481E+02  0.54367085435E+02  0.40000002867E+02 0.  0.
         12    1    3    3    0    0 -0.62433408387E+01 -0.71480806007E+01 -0.35576753481E+02  0.36820914565E+02  0.00000000000E+00 0. -1.
         11    1    4    4    0    0 -0.50364354768E+01  0.87616729778E+00  0.94011149810E+01  0.10701136136E+02  0.51100000000E-03 0. -1.
        -11    1    4    4    0    0 -0.11518168003E+02  0.12954591201E+01  0.79134930911E+01  0.14034592322E+02  0.51100000000E-03 0.  1.
         12    1    4    4    0    0  0.22797944319E+02  0.49764541828E+01  0.18262145409E+02  0.29631356978E+02  0.00000000000E+00 0. -1.
</event>
<event>
 8    1  0.1210161E-006  0.9118800E+02  0.7816164E-02  0.1184000E+00
        -11   -1    0    0    0    0  0.00000000000E+00  0.00000000000E+00  0.45593999997E+02  0.45594000000E+02  0.51100000000E-03 0.  1.
         11   -1    0    0    0    0 -0.00000000000E+00 -0.00000000000E+00 -0.45593999997E+02  0.45594000000E+02  0.51100000000E-03 0. -1.
         23    2    1    2    0    0  0.00000000000E+00 -0.71054273576E-14  0.35527136788E-14  0.91188000000E+02  0.91188000000E+02 0.  0.
    9900012    2    3    3    0    0  0.35036577039E+01 -0.25679779149E+02  0.26154406070E+02  0.54367087039E+02  0.40000006522E+02 0.  0.
         12    1    3    3    0    0 -0.35036577039E+01  0.25679779149E+02 -0.26154406070E+02  0.36820912961E+02  0.00000000000E+00 0. -1.
         11    1    4    4    0    0 -0.10296524692E+02  0.46727867324E+01  0.26524565647E+01  0.11614167325E+02  0.51100000000E-03 0.  1.
        -11    1    4    4    0    0  0.81017856802E+01 -0.62052601991E+01  0.32012380170E+01  0.10695424744E+02  0.51100000000E-03 0. -1.
        -12    1    4    4    0    0  0.56983967154E+01 -0.24147305682E+02  0.20300711488E+02  0.32057494970E+02  0.00000000000E+00 0.  1.
</event>
<event>
 8    1  0.1210161E-006  0.9118800E+02  0.7816164E-02  0.1184000E+00
        -11   -1    0    0    0    0  0.00000000000E+00  0.00000000000E+00  0.45593999997E+02  0.45594000000E+02  0.51100000000E-03 0.  1.
         11   -1    0    0    0    0 -0.00000000000E+00 -0.00000000000E+00 -0.45593999997E+02  0.45594000000E+02  0.51100000000E-03 0. -1.
         23    2    1    2    0    0 -0.71054273576E-14  0.00000000000E+00  0.17763568394E-14  0.91188000000E+02  0.91188000000E+02 0.  0.
    9900012    2    3    3    0    0  0.32824726931E+02  0.14160737037E+02 -0.88199453956E+01  0.54367073772E+02  0.39999976278E+02 0.  0.
        -12    1    3    3    0    0 -0.32824726931E+02 -0.14160737037E+02  0.88199453956E+01  0.36820926228E+02  0.00000000000E+00 0.  1.
         11    1    4    4    0    0 -0.14818681852E+01  0.11165521840E+01 -0.10252924244E+02  0.10419456700E+02  0.51100000000E-03 0. -1.
        -11    1    4    4    0    0  0.15123511186E+02  0.11148653428E+02 -0.10254393135E+02  0.21404804196E+02  0.51100000000E-03 0.  1.
        -12    1    4    4    0    0  0.19183083930E+02  0.18955314256E+01  0.11687371984E+02  0.22542812876E+02  0.00000000000E+00 0.  1.
</event>
<event>
 8    1  0.1210161E-006  0.9118800E+02  0.7816164E-02  0.1184000E+00
        -11   -1    0    0    0    0  0.00000000000E+00  0.00000000000E+00  0.45593999997E+02  0.45594000000E+02  0.51100000000E-03 0. -1.
         11   -1    0    0    0    0 -0.00000000000E+00 -0.00000000000E+00 -0.45593999997E+02  0.45594000000E+02  0.51100000000E-03 0.  1.
         23    2    1    2    0    0 -0.11102230246E-14  0.00000000000E+00  0.71054273576E-14  0.91188000000E+02  0.91188000000E+02 0.  0.
    9900012    2    3    3    0    0 -0.14403583611E+01  0.17994282497E+02 -0.32092157732E+02  0.54367144188E+02  0.40000136806E+02 0.  0.
         12    1    3    3    0    0  0.14403583611E+01 -0.17994282497E+02  0.32092157732E+02  0.36820855812E+02  0.00000000000E+00 0. -1.
         11    1    4    4    0    0  0.92875454725E+00 -0.34625258880E+01 -0.14311980076E+00  0.35877784313E+01  0.51100000000E-03 0. -1.
        -11    1    4    4    0    0 -0.69547231860E+01  0.15057330775E+02  0.12754553080E+01  0.16634848096E+02  0.51100000000E-03 0.  1.
        -12    1    4    4    0    0  0.45856102776E+01  0.63994776103E+01 -0.33224493240E+02  0.34144517661E+02  0.00000000000E+00 0.  1.
</event>
<event>
 8    1  0.1210161E-006  0.9118800E+02  0.7816164E-02  0.1184000E+00
        -11   -1    0    0    0    0  0.00000000000E+00  0.00000000000E+00  0.45593999997E+02  0.45594000000E+02  0.51100000000E-03 0. -1.
         11   -1    0    0    0    0 -0.00000000000E+00 -0.00000000000E+00 -0.45593999997E+02  0.45594000000E+02  0.51100000000E-03 0.  1.
         23    2    1    2    0    0  0.00000000000E+00 -0.35527136788E-14  0.00000000000E+00  0.91188000000E+02  0.91188000000E+02 0.  0.
    9900012    2    3    3    0    0  0.16522959730E+02 -0.22692449535E+02 -0.23829051329E+02  0.54367093556E+02  0.40000021380E+02 0.  0.
        -12    1    3    3    0    0 -0.16522959730E+02  0.22692449535E+02  0.23829051329E+02  0.36820906444E+02  0.00000000000E+00 0.  1.
         11    1    4    4    0    0  0.99255822529E+01  0.41229703717E+01 -0.27716589254E+01  0.11099466708E+02  0.51100000000E-03 0. -1.
        -11    1    4    4    0    0  0.18415962940E+01 -0.19142626846E-01 -0.15350614491E+02  0.15460698847E+02  0.51100000000E-03 0.  1.
         12    1    4    4    0    0  0.47557811829E+01 -0.26796277279E+02 -0.57067779127E+01  0.27806928001E+02  0.00000000000E+00 0. -1.
</event>
<event>
 8    1  0.1210161E-006  0.9118800E+02  0.7816164E-02  0.1184000E+00
        -11   -1    0    0    0    0  0.00000000000E+00  0.00000000000E+00  0.45593999997E+02  0.45594000000E+02  0.51100000000E-03 0. -1.
         11   -1    0    0    0    0 -0.00000000000E+00 -0.00000000000E+00 -0.45593999997E+02  0.45594000000E+02  0.51100000000E-03 0.  1.
         23    2    1    2    0    0  0.00000000000E+00 -0.35527136788E-14  0.00000000000E+00  0.91188000000E+02  0.91188000000E+02 0.  0.
    9900012    2    3    3    0    0 -0.91776962616E+01  0.29954305114E+02 -0.19346560035E+02  0.54367083543E+02  0.39999998554E+02 0.  0.
         12    1    3    3    0    0  0.91776962616E+01 -0.29954305114E+02  0.19346560035E+02  0.36820916457E+02  0.00000000000E+00 0. -1.
         11    1    4    4    0    0  0.36546857862E+01 -0.83557075109E+00  0.68285041334E+01  0.77899535067E+01  0.51100000000E-03 0. -1.
        -11    1    4    4    0    0  0.35233345943E+01  0.16268152404E+01  0.35101040112E+00  0.38966168727E+01  0.51100000000E-03 0.  1.
         12    1    4    4    0    0 -0.16355716642E+02  0.29163060625E+02 -0.26526074569E+02  0.42680513164E+02  0.00000000000E+00 0. -1.
</event>
<event>
 8    1  0.1210161E-006  0.9118800E+02  0.7816164E-02  0.1184000E+00
        -11   -1    0    0    0    0  0.00000000000E+00  0.00000000000E+00  0.45593999997E+02  0.45594000000E+02  0.51100000000E-03 0. -1.
         11   -1    0    0    0    0 -0.00000000000E+00 -0.00000000000E+00 -0.45593999997E+02  0.45594000000E+02  0.51100000000E-03 0.  1.
         23    2    1    2    0    0 -0.88817841970E-15 -0.71054273576E-14  0.71054273576E-14  0.91188000000E+02  0.91188000000E+02 0.  0.
    9900012    2    3    3    0    0 -0.18090999917E+01  0.17716227479E+02 -0.32227950642E+02  0.54367104282E+02  0.40000045832E+02 0.  0.
         12    1    3    3    0    0  0.18090999917E+01 -0.17716227479E+02  0.32227950642E+02  0.36820895718E+02  0.00000000000E+00 0. -1.
         11    1    4    4    0    0 -0.74687157680E+01  0.23943928980E+02 -0.12300493551E+02  0.27935561424E+02  0.51100000000E-03 0. -1.
        -11    1    4    4    0    0 -0.47164563797E+01 -0.16360761282E+01 -0.23685907397E+01  0.55255703988E+01  0.51100000000E-03 0.  1.
        -12    1    4    4    0    0  0.10376072156E+02 -0.45916253724E+01 -0.17558866351E+02  0.20905972459E+02  0.00000000000E+00 0.  1.
</event>
<event>
 8    1  0.1210161E-006  0.9118800E+02  0.7816164E-02  0.1184000E+00
        -11   -1    0    0    0    0  0.00000000000E+00  0.00000000000E+00  0.45593999997E+02  0.45594000000E+02  0.51100000000E-03 0. -1.
         11   -1    0    0    0    0 -0.00000000000E+00 -0.00000000000E+00 -0.45593999997E+02  0.45594000000E+02  0.51100000000E-03 0.  1.
         23    2    1    2    0    0 -0.66613381478E-15  0.71054273576E-14  0.00000000000E+00  0.91188000000E+02  0.91188000000E+02 0.  0.
    9900012    2    3    3    0    0  0.10571324903E+01 -0.25328373012E+02 -0.26704627281E+02  0.54367066732E+02  0.39999960228E+02 0.  0.
         12    1    3    3    0    0 -0.10571324903E+01  0.25328373012E+02  0.26704627281E+02  0.36820933268E+02  0.00000000000E+00 0. -1.
         11    1    4    4    0    0 -0.13811550743E+01 -0.11638422511E+02 -0.10476367218E+02  0.15719883531E+02  0.51100000000E-03 0. -1.
        -11    1    4    4    0    0  0.10344520356E+02 -0.21003359607E+02 -0.69248116601E+01  0.24415225433E+02  0.51100000000E-03 0.  1.
         12    1    4    4    0    0 -0.79062327911E+01  0.73134091059E+01 -0.93034484037E+01  0.14231957768E+02  0.00000000000E+00 0. -1.
</event>
<event>
 8    1  0.1210161E-006  0.9118800E+02  0.7816164E-02  0.1184000E+00
        -11   -1    0    0    0    0  0.00000000000E+00  0.00000000000E+00  0.45593999997E+02  0.45594000000E+02  0.51100000000E-03 0. -1.
         11   -1    0    0    0    0 -0.00000000000E+00 -0.00000000000E+00 -0.45593999997E+02  0.45594000000E+02  0.51100000000E-03 0.  1.
         23    2    1    2    0    0 -0.17763568394E-14  0.00000000000E+00  0.00000000000E+00  0.91188000000E+02  0.91188000000E+02 0.  0.
    9900012    2    3    3    0    0  0.15730527719E+02 -0.26863443714E+02 -0.19664343724E+02  0.54367074908E+02  0.39999978869E+02 0.  0.
         12    1    3    3    0    0 -0.15730527719E+02  0.26863443714E+02  0.19664343724E+02  0.36820925092E+02  0.00000000000E+00 0. -1.
         11    1    4    4    0    0 -0.67642124420E+01  0.10971794926E+01  0.68712915038E-01  0.68529624634E+01  0.51100000000E-03 0. -1.
        -11    1    4    4    0    0 -0.25730126010E+01 -0.14248764252E+02 -0.46686546425E+01  0.15213284096E+02  0.51100000000E-03 0.  1.
        -12    1    4    4    0    0  0.25067752762E+02 -0.13711858955E+02 -0.15064401996E+02  0.32300828349E+02  0.00000000000E+00 0.  1.
</event>
<event>
 8    1  0.1210161E-006  0.9118800E+02  0.7816164E-02  0.1184000E+00
        -11   -1    0    0    0    0  0.00000000000E+00  0.00000000000E+00  0.45593999997E+02  0.45594000000E+02  0.51100000000E-03 0. -1.
         11   -1    0    0    0    0 -0.00000000000E+00 -0.00000000000E+00 -0.45593999997E+02  0.45594000000E+02  0.51100000000E-03 0.  1.
         23    2    1    2    0    0  0.00000000000E+00  0.35527136788E-14  0.00000000000E+00  0.91188000000E+02  0.91188000000E+02 0.  0.
    9900012    2    3    3    0    0 -0.20383032073E+02  0.16185738309E+02  0.26045050449E+02  0.54366935730E+02  0.39999661581E+02 0.  0.
        -12    1    3    3    0    0  0.20383032073E+02 -0.16185738309E+02 -0.26045050449E+02  0.36821064270E+02  0.00000000000E+00 0.  1.
         11    1    4    4    0    0  0.87845301971E-01 -0.84645644226E+01 -0.27992592476E+01  0.89158521891E+01  0.51100000000E-03 0. -1.
        -11    1    4    4    0    0 -0.63158496663E+01  0.12035448743E+02  0.39418983773E+01  0.14152050966E+02  0.51100000000E-03 0.  1.
         12    1    4    4    0    0 -0.14155027709E+02  0.12614853988E+02  0.24902411320E+02  0.31299032575E+02  0.00000000000E+00 0. -1.
</event>
<event>
 8    1  0.1210161E-006  0.9118800E+02  0.7816164E-02  0.1184000E+00
        -11   -1    0    0    0    0  0.00000000000E+00  0.00000000000E+00  0.45593999997E+02  0.45594000000E+02  0.51100000000E-03 0.  1.
         11   -1    0    0    0    0 -0.00000000000E+00 -0.00000000000E+00 -0.45593999997E+02  0.45594000000E+02  0.51100000000E-03 0. -1.
         23    2    1    2    0    0  0.00000000000E+00 -0.49960036108E-15  0.00000000000E+00  0.91188000000E+02  0.91188000000E+02 0.  0.
    9900012    2    3    3    0    0 -0.67689175549E+01 -0.42008210261E+00  0.36190959674E+02  0.54367078284E+02  0.39999986565E+02 0.  0.
         12    1    3    3    0    0  0.67689175549E+01  0.42008210261E+00 -0.36190959674E+02  0.36820921716E+02  0.00000000000E+00 0. -1.
         11    1    4    4    0    0 -0.33774999826E+00 -0.12640756922E+01 -0.34467039116E+01  0.36866964253E+01  0.51100000000E-03 0. -1.
        -11    1    4    4    0    0  0.22493337275E+01 -0.47644225936E+01  0.39994018935E+02  0.40339568363E+02  0.51100000000E-03 0.  1.
        -12    1    4    4    0    0 -0.86805012842E+01  0.56084161832E+01 -0.35635534882E+00  0.10340813496E+02  0.00000000000E+00 0.  1.
</event>
<event>
 8    1  0.1210161E-006  0.9118800E+02  0.7816164E-02  0.1184000E+00
        -11   -1    0    0    0    0  0.00000000000E+00  0.00000000000E+00  0.45593999997E+02  0.45594000000E+02  0.51100000000E-03 0. -1.
         11   -1    0    0    0    0 -0.00000000000E+00 -0.00000000000E+00 -0.45593999997E+02  0.45594000000E+02  0.51100000000E-03 0.  1.
         23    2    1    2    0    0  0.00000000000E+00  0.00000000000E+00  0.00000000000E+00  0.91188000000E+02  0.91188000000E+02 0.  0.
    9900012    2    3    3    0    0  0.33571810517E+02  0.32131597400E+01  0.14777988081E+02  0.54367084902E+02  0.40000001652E+02 0.  0.
        -12    1    3    3    0    0 -0.33571810517E+02 -0.32131597400E+01 -0.14777988081E+02  0.36820915098E+02  0.00000000000E+00 0.  1.
         11    1    4    4    0    0  0.22383113862E+02  0.39728000685E+01  0.34502758813E+01  0.22993288814E+02  0.51100000000E-03 0. -1.
        -11    1    4    4    0    0  0.86941501405E+01 -0.10499331385E+02 -0.29150213309E+01  0.13939926679E+02  0.51100000000E-03 0.  1.
         12    1    4    4    0    0  0.24945465142E+01  0.97396910561E+01  0.14242733531E+02  0.17433869410E+02  0.00000000000E+00 0. -1.
</event>
<event>
 8    1  0.1210161E-006  0.9118800E+02  0.7816164E-02  0.1184000E+00
        -11   -1    0    0    0    0  0.00000000000E+00  0.00000000000E+00  0.45593999997E+02  0.45594000000E+02  0.51100000000E-03 0.  1.
         11   -1    0    0    0    0 -0.00000000000E+00 -0.00000000000E+00 -0.45593999997E+02  0.45594000000E+02  0.51100000000E-03 0. -1.
         23    2    1    2    0    0 -0.35527136788E-14  0.00000000000E+00  0.00000000000E+00  0.91188000000E+02  0.91188000000E+02 0.  0.
    9900012    2    3    3    0    0 -0.25594978598E+02 -0.24417786815E+02  0.10219959888E+02  0.54367098022E+02  0.40000031561E+02 0.  0.
         12    1    3    3    0    0  0.25594978598E+02  0.24417786815E+02 -0.10219959888E+02  0.36820901978E+02  0.00000000000E+00 0. -1.
         11    1    4    4    0    0 -0.14099529335E+02 -0.73769540631E+01 -0.45529079253E+01  0.16551288456E+02  0.51100000000E-03 0. -1.
        -11    1    4    4    0    0 -0.27819960583E+01  0.34073955846E+01  0.14954187203E+02  0.15587737549E+02  0.51100000000E-03 0.  1.
        -12    1    4    4    0    0 -0.87134532045E+01 -0.20448228336E+02 -0.18131938977E+00  0.22228072016E+02  0.00000000000E+00 0.  1.
</event>
<event>
 8    1  0.1210161E-006  0.9118800E+02  0.7816164E-02  0.1184000E+00
        -11   -1    0    0    0    0  0.00000000000E+00  0.00000000000E+00  0.45593999997E+02  0.45594000000E+02  0.51100000000E-03 0.  1.
         11   -1    0    0    0    0 -0.00000000000E+00 -0.00000000000E+00 -0.45593999997E+02  0.45594000000E+02  0.51100000000E-03 0. -1.
         23    2    1    2    0    0 -0.22204460493E-15  0.00000000000E+00  0.13322676296E-14  0.91188000000E+02  0.91188000000E+02 0.  0.
    9900012    2    3    3    0    0  0.13514748451E+01 -0.36663022938E+02 -0.31266999398E+01  0.54367082198E+02  0.39999995488E+02 0.  0.
         12    1    3    3    0    0 -0.13514748451E+01  0.36663022938E+02  0.31266999398E+01  0.36820917802E+02  0.00000000000E+00 0. -1.
         11    1    4    4    0    0 -0.19923077682E+00 -0.16539726858E+02 -0.11266464350E+02  0.20013382439E+02  0.51100000000E-03 0. -1.
        -11    1    4    4    0    0 -0.74735495313E+01 -0.19398709166E+02  0.12550294667E+02  0.24283199056E+02  0.51100000000E-03 0.  1.
        -12    1    4    4    0    0  0.90242551532E+01 -0.72458691427E+00 -0.44105302569E+01  0.10070500703E+02  0.00000000000E+00 0.  1.
</event>
<event>
 8    1  0.1210161E-006  0.9118800E+02  0.7816164E-02  0.1184000E+00
        -11   -1    0    0    0    0  0.00000000000E+00  0.00000000000E+00  0.45593999997E+02  0.45594000000E+02  0.51100000000E-03 0.  1.
         11   -1    0    0    0    0 -0.00000000000E+00 -0.00000000000E+00 -0.45593999997E+02  0.45594000000E+02  0.51100000000E-03 0. -1.
         23    2    1    2    0    0  0.17763568394E-14 -0.71054273576E-14 -0.88817841970E-15  0.91188000000E+02  0.91188000000E+02 0.  0.
    9900012    2    3    3    0    0 -0.13680209327E+02  0.33306371012E+02 -0.77018274569E+01  0.54367073567E+02  0.39999975810E+02 0.  0.
         12    1    3    3    0    0  0.13680209327E+02 -0.33306371012E+02  0.77018274569E+01  0.36820926433E+02  0.00000000000E+00 0. -1.
         11    1    4    4    0    0 -0.45781133741E+01  0.20162849236E+02  0.14053818957E+02  0.25000188777E+02  0.51100000000E-03 0. -1.
        -11    1    4    4    0    0 -0.50354199504E+01  0.14310726401E+02 -0.14605683213E+02  0.21058925106E+02  0.51100000000E-03 0.  1.
         12    1    4    4    0    0 -0.40666760030E+01 -0.11672046247E+01 -0.71499632001E+01  0.83079596840E+01  0.00000000000E+00 0. -1.
</event>
<event>
 8    1  0.1210161E-006  0.9118800E+02  0.7816164E-02  0.1184000E+00
        -11   -1    0    0    0    0  0.00000000000E+00  0.00000000000E+00  0.45593999997E+02  0.45594000000E+02  0.51100000000E-03 0. -1.
         11   -1    0    0    0    0 -0.00000000000E+00 -0.00000000000E+00 -0.45593999997E+02  0.45594000000E+02  0.51100000000E-03 0.  1.
         23    2    1    2    0    0  0.88817841970E-15 -0.17763568394E-14  0.00000000000E+00  0.91188000000E+02  0.91188000000E+02 0.  0.
    9900012    2    3    3    0    0 -0.36082983554E+01 -0.14905205991E+02 -0.33475231488E+02  0.54367134912E+02  0.40000115658E+02 0.  0.
         12    1    3    3    0    0  0.36082983554E+01  0.14905205991E+02  0.33475231488E+02  0.36820865088E+02  0.00000000000E+00 0. -1.
         11    1    4    4    0    0  0.13634352072E+02 -0.98046861688E+01 -0.14306760994E+02  0.22061523920E+02  0.51100000000E-03 0. -1.
        -11    1    4    4    0    0 -0.96203170229E+00 -0.57412349845E+01  0.14766152351E+01  0.60056370984E+01  0.51100000000E-03 0.  1.
        -12    1    4    4    0    0 -0.16280618725E+02  0.64071516200E+00 -0.20645085729E+02  0.26299973893E+02  0.00000000000E+00 0.  1.
</event>
<event>
 8    1  0.1210161E-006  0.9118800E+02  0.7816164E-02  0.1184000E+00
        -11   -1    0    0    0    0  0.00000000000E+00  0.00000000000E+00  0.45593999997E+02  0.45594000000E+02  0.51100000000E-03 0. -1.
         11   -1    0    0    0    0 -0.00000000000E+00 -0.00000000000E+00 -0.45593999997E+02  0.45594000000E+02  0.51100000000E-03 0.  1.
         23    2    1    2    0    0  0.00000000000E+00 -0.35527136788E-14  0.35527136788E-14  0.91188000000E+02  0.91188000000E+02 0.  0.
    9900012    2    3    3    0    0 -0.68893871496E+01 -0.30346138814E+02  0.19683168266E+02  0.54367096844E+02  0.40000028876E+02 0.  0.
        -12    1    3    3    0    0  0.68893871496E+01  0.30346138814E+02 -0.19683168266E+02  0.36820903156E+02  0.00000000000E+00 0.  1.
         11    1    4    4    0    0  0.75946326432E+01 -0.10447550615E+02 -0.31072873654E+01  0.13284765480E+02  0.51100000000E-03 0. -1.
        -11    1    4    4    0    0 -0.45581360223E+01 -0.23032955138E+02  0.18193226128E+02  0.29703318057E+02  0.51100000000E-03 0.  1.
        -12    1    4    4    0    0 -0.99258837705E+01  0.31343669391E+01  0.45972295029E+01  0.11379013307E+02  0.00000000000E+00 0.  1.
</event>
<event>
 8    1  0.1210161E-006  0.9118800E+02  0.7816164E-02  0.1184000E+00
        -11   -1    0    0    0    0  0.00000000000E+00  0.00000000000E+00  0.45593999997E+02  0.45594000000E+02  0.51100000000E-03 0. -1.
         11   -1    0    0    0    0 -0.00000000000E+00 -0.00000000000E+00 -0.45593999997E+02  0.45594000000E+02  0.51100000000E-03 0.  1.
         23    2    1    2    0    0  0.00000000000E+00  0.17763568394E-14  0.71054273576E-14  0.91188000000E+02  0.91188000000E+02 0.  0.
    9900012    2    3    3    0    0 -0.15533784416E+02  0.85748023241E+01  0.32263840128E+02  0.54367067462E+02  0.39999961892E+02 0.  0.
        -12    1    3    3    0    0  0.15533784416E+02 -0.85748023241E+01 -0.32263840128E+02  0.36820932538E+02  0.00000000000E+00 0.  1.
         11    1    4    4    0    0  0.25881965976E+01 -0.49164449202E+01  0.20374278099E+02  0.21118271724E+02  0.51100000000E-03 0. -1.
        -11    1    4    4    0    0 -0.11600143865E+00 -0.51374632793E+01  0.17929423080E+01  0.54425754621E+01  0.51100000000E-03 0.  1.
         12    1    4    4    0    0 -0.18005979575E+02  0.18628710524E+02  0.10096619721E+02  0.27806220276E+02  0.00000000000E+00 0. -1.
</event>
<event>
 8    1  0.1210161E-006  0.9118800E+02  0.7816164E-02  0.1184000E+00
        -11   -1    0    0    0    0  0.00000000000E+00  0.00000000000E+00  0.45593999997E+02  0.45594000000E+02  0.51100000000E-03 0.  1.
         11   -1    0    0    0    0 -0.00000000000E+00 -0.00000000000E+00 -0.45593999997E+02  0.45594000000E+02  0.51100000000E-03 0. -1.
         23    2    1    2    0    0  0.17763568394E-14  0.17763568394E-14  0.00000000000E+00  0.91188000000E+02  0.91188000000E+02 0.  0.
    9900012    2    3    3    0    0 -0.14799799693E+02 -0.15980037778E+02  0.29688130182E+02  0.54367071820E+02  0.39999971828E+02 0.  0.
         12    1    3    3    0    0  0.14799799693E+02  0.15980037778E+02 -0.29688130182E+02  0.36820928180E+02  0.00000000000E+00 0. -1.
         11    1    4    4    0    0 -0.28215629052E+01  0.66424403218E+01  0.16858382596E+02  0.18338164976E+02  0.51100000000E-03 0. -1.
        -11    1    4    4    0    0 -0.12778534077E+02 -0.19772208466E+02  0.18293831396E+02  0.29814349368E+02  0.51100000000E-03 0.  1.
         12    1    4    4    0    0  0.80029728946E+00 -0.28502696334E+01 -0.54640838107E+01  0.62145574762E+01  0.00000000000E+00 0. -1.
</event>
<event>
 8    1  0.1210161E-006  0.9118800E+02  0.7816164E-02  0.1184000E+00
        -11   -1    0    0    0    0  0.00000000000E+00  0.00000000000E+00  0.45593999997E+02  0.45594000000E+02  0.51100000000E-03 0.  1.
         11   -1    0    0    0    0 -0.00000000000E+00 -0.00000000000E+00 -0.45593999997E+02  0.45594000000E+02  0.51100000000E-03 0. -1.
         23    2    1    2    0    0 -0.17763568394E-14 -0.35527136788E-14 -0.10658141036E-13  0.91188000000E+02  0.91188000000E+02 0.  0.
    9900012    2    3    3    0    0 -0.12526611388E+02 -0.17022373084E+02 -0.30151300979E+02  0.54367107439E+02  0.40000053028E+02 0.  0.
        -12    1    3    3    0    0  0.12526611388E+02  0.17022373084E+02  0.30151300979E+02  0.36820892561E+02  0.00000000000E+00 0.  1.
         11    1    4    4    0    0 -0.15435190598E+02 -0.82821691315E+01 -0.25638766448E+02  0.31051341027E+02  0.51100000000E-03 0. -1.
        -11    1    4    4    0    0  0.60927234523E+01  0.30037221241E+01  0.45221083160E+01  0.81604589054E+01  0.51100000000E-03 0.  1.
        -12    1    4    4    0    0 -0.31841442427E+01 -0.11743926077E+02 -0.90346428466E+01  0.15155307507E+02  0.00000000000E+00 0.  1.
</event>
<event>
 8    1  0.1210161E-006  0.9118800E+02  0.7816164E-02  0.1184000E+00
        -11   -1    0    0    0    0  0.00000000000E+00  0.00000000000E+00  0.45593999997E+02  0.45594000000E+02  0.51100000000E-03 0. -1.
         11   -1    0    0    0    0 -0.00000000000E+00 -0.00000000000E+00 -0.45593999997E+02  0.45594000000E+02  0.51100000000E-03 0.  1.
         23    2    1    2    0    0  0.00000000000E+00  0.00000000000E+00 -0.35527136788E-14  0.91188000000E+02  0.91188000000E+02 0.  0.
    9900012    2    3    3    0    0  0.23076145708E+02  0.20959992322E+02 -0.19594661342E+02  0.54367074808E+02  0.39999978639E+02 0.  0.
         12    1    3    3    0    0 -0.23076145708E+02 -0.20959992322E+02  0.19594661342E+02  0.36820925192E+02  0.00000000000E+00 0. -1.
         11    1    4    4    0    0  0.55591685197E+01 -0.17317081559E+01 -0.13586993627E+02  0.14782068997E+02  0.51100000000E-03 0. -1.
        -11    1    4    4    0    0  0.12003344145E+02  0.16464895021E+02 -0.16483976195E+02  0.26208672423E+02  0.51100000000E-03 0.  1.
         12    1    4    4    0    0  0.55136330435E+01  0.62268054565E+01  0.10476308479E+02  0.13376333387E+02  0.00000000000E+00 0. -1.
</event>
<event>
 8    1  0.1210161E-006  0.9118800E+02  0.7816164E-02  0.1184000E+00
        -11   -1    0    0    0    0  0.00000000000E+00  0.00000000000E+00  0.45593999997E+02  0.45594000000E+02  0.51100000000E-03 0. -1.
         11   -1    0    0    0    0 -0.00000000000E+00 -0.00000000000E+00 -0.45593999997E+02  0.45594000000E+02  0.51100000000E-03 0.  1.
         23    2    1    2    0    0  0.35527136788E-14  0.00000000000E+00  0.00000000000E+00  0.91188000000E+02  0.91188000000E+02 0.  0.
    9900012    2    3    3    0    0  0.65454421881E+01  0.11291676924E+02  0.34430151918E+02  0.54367080100E+02  0.39999990704E+02 0.  0.
        -12    1    3    3    0    0 -0.65454421881E+01 -0.11291676924E+02 -0.34430151918E+02  0.36820919900E+02  0.00000000000E+00 0.  1.
         11    1    4    4    0    0  0.21398783633E+00  0.16788502637E+02  0.20916155889E+02  0.26821356957E+02  0.51100000000E-03 0. -1.
        -11    1    4    4    0    0 -0.74626142670E+01 -0.67177184890E+01  0.70144800858E+01  0.12248317620E+02  0.51100000000E-03 0.  1.
        -12    1    4    4    0    0  0.13794068619E+02  0.12208927761E+01  0.64995159428E+01  0.15297405523E+02  0.00000000000E+00 0.  1.
</event>
<event>
 8    1  0.1210161E-006  0.9118800E+02  0.7816164E-02  0.1184000E+00
        -11   -1    0    0    0    0  0.00000000000E+00  0.00000000000E+00  0.45593999997E+02  0.45594000000E+02  0.51100000000E-03 0. -1.
         11   -1    0    0    0    0 -0.00000000000E+00 -0.00000000000E+00 -0.45593999997E+02  0.45594000000E+02  0.51100000000E-03 0.  1.
         23    2    1    2    0    0  0.35527136788E-14  0.35527136788E-14  0.35527136788E-14  0.91188000000E+02  0.91188000000E+02 0.  0.
    9900012    2    3    3    0    0  0.12488002417E+02  0.30656316856E+02 -0.16125152702E+02  0.54367075009E+02  0.39999979098E+02 0.  0.
         12    1    3    3    0    0 -0.12488002417E+02 -0.30656316856E+02  0.16125152702E+02  0.36820924991E+02  0.00000000000E+00 0. -1.
         11    1    4    4    0    0  0.59647417622E+01  0.90221434468E+01  0.90596629883E+01  0.14108675005E+02  0.51100000000E-03 0. -1.
        -11    1    4    4    0    0 -0.60445739163E+01  0.15263773782E+02 -0.87254041559E+01  0.18591727780E+02  0.51100000000E-03 0.  1.
        -12    1    4    4    0    0  0.12567834572E+02  0.63703996271E+01 -0.16459411534E+02  0.21666672224E+02  0.00000000000E+00 0.  1.
</event>
<event>
 8    1  0.1210161E-006  0.9118800E+02  0.7816164E-02  0.1184000E+00
        -11   -1    0    0    0    0  0.00000000000E+00  0.00000000000E+00  0.45593999997E+02  0.45594000000E+02  0.51100000000E-03 0. -1.
         11   -1    0    0    0    0 -0.00000000000E+00 -0.00000000000E+00 -0.45593999997E+02  0.45594000000E+02  0.51100000000E-03 0.  1.
         23    2    1    2    0    0  0.00000000000E+00  0.00000000000E+00 -0.35527136788E-14  0.91188000000E+02  0.91188000000E+02 0.  0.
    9900012    2    3    3    0    0  0.11156596098E+02 -0.16161340833E+02 -0.31146760383E+02  0.54367092130E+02  0.40000018129E+02 0.  0.
         12    1    3    3    0    0 -0.11156596098E+02  0.16161340833E+02  0.31146760383E+02  0.36820907870E+02  0.00000000000E+00 0. -1.
         11    1    4    4    0    0  0.15609389904E+02  0.72175980394E+00 -0.12570460171E+02  0.20054686723E+02  0.51100000000E-03 0. -1.
        -11    1    4    4    0    0 -0.16117631889E+01  0.36054819238E+01 -0.11960300813E+02  0.12595478407E+02  0.51100000000E-03 0.  1.
        -12    1    4    4    0    0 -0.28410306172E+01 -0.20488582560E+02 -0.66159993987E+01  0.21716927001E+02  0.00000000000E+00 0.  1.
</event>
<event>
 8    1  0.1210161E-006  0.9118800E+02  0.7816164E-02  0.1184000E+00
        -11   -1    0    0    0    0  0.00000000000E+00  0.00000000000E+00  0.45593999997E+02  0.45594000000E+02  0.51100000000E-03 0. -1.
         11   -1    0    0    0    0 -0.00000000000E+00 -0.00000000000E+00 -0.45593999997E+02  0.45594000000E+02  0.51100000000E-03 0.  1.
         23    2    1    2    0    0  0.00000000000E+00  0.00000000000E+00  0.00000000000E+00  0.91188000000E+02  0.91188000000E+02 0.  0.
    9900012    2    3    3    0    0  0.16673830514E+02  0.19503395875E+02 -0.26407967989E+02  0.54367084097E+02  0.39999999815E+02 0.  0.
         12    1    3    3    0    0 -0.16673830514E+02 -0.19503395875E+02  0.26407967989E+02  0.36820915903E+02  0.00000000000E+00 0. -1.
         11    1    4    4    0    0  0.48705571397E+01  0.14798163462E+02 -0.17727633108E+02  0.23600358992E+02  0.51100000000E-03 0. -1.
        -11    1    4    4    0    0  0.12977006561E+02  0.94118435375E+01 -0.15565537183E+02  0.22344382876E+02  0.51100000000E-03 0.  1.
         12    1    4    4    0    0 -0.11737331871E+01 -0.47066111243E+01  0.68852023020E+01  0.84223422283E+01  0.00000000000E+00 0. -1.
</event>
<event>
 8    1  0.1210161E-006  0.9118800E+02  0.7816164E-02  0.1184000E+00
        -11   -1    0    0    0    0  0.00000000000E+00  0.00000000000E+00  0.45593999997E+02  0.45594000000E+02  0.51100000000E-03 0. -1.
         11   -1    0    0    0    0 -0.00000000000E+00 -0.00000000000E+00 -0.45593999997E+02  0.45594000000E+02  0.51100000000E-03 0.  1.
         23    2    1    2    0    0  0.66613381478E-15  0.35527136788E-14  0.00000000000E+00  0.91188000000E+02  0.91188000000E+02 0.  0.
    9900012    2    3    3    0    0 -0.16051000077E+01  0.10081931909E+02  0.35377411138E+02  0.54367042437E+02  0.39999904843E+02 0.  0.
        -12    1    3    3    0    0  0.16051000077E+01 -0.10081931909E+02 -0.35377411138E+02  0.36820957563E+02  0.00000000000E+00 0.  1.
         11    1    4    4    0    0  0.76262902200E+01 -0.82707302264E+01  0.46906048661E+01  0.12188808607E+02  0.51100000000E-03 0. -1.
        -11    1    4    4    0    0  0.43701786285E+01  0.42898330263E+00  0.34586584930E+00  0.44047827830E+01  0.51100000000E-03 0.  1.
         12    1    4    4    0    0 -0.13601568856E+02  0.17923678833E+02  0.30340940422E+02  0.37773451047E+02  0.00000000000E+00 0. -1.
</event>
<event>
 8    1  0.1210161E-006  0.9118800E+02  0.7816164E-02  0.1184000E+00
        -11   -1    0    0    0    0  0.00000000000E+00  0.00000000000E+00  0.45593999997E+02  0.45594000000E+02  0.51100000000E-03 0.  1.
         11   -1    0    0    0    0 -0.00000000000E+00 -0.00000000000E+00 -0.45593999997E+02  0.45594000000E+02  0.51100000000E-03 0. -1.
         23    2    1    2    0    0  0.35527136788E-14  0.35527136788E-14  0.35527136788E-14  0.91188000000E+02  0.91188000000E+02 0.  0.
    9900012    2    3    3    0    0 -0.17839416623E+02 -0.17386926941E+02  0.27115111799E+02  0.54367091514E+02  0.40000016724E+02 0.  0.
         12    1    3    3    0    0  0.17839416623E+02  0.17386926941E+02 -0.27115111799E+02  0.36820908486E+02  0.00000000000E+00 0. -1.
         11    1    4    4    0    0 -0.61981424046E+01 -0.71973926819E+01 -0.48504046586E+01  0.10665170242E+02  0.51100000000E-03 0. -1.
        -11    1    4    4    0    0 -0.12004095595E+02 -0.16727584482E+02  0.14876154489E+02  0.25400991443E+02  0.51100000000E-03 0.  1.
         12    1    4    4    0    0  0.36282137691E+00  0.65380502231E+01  0.17089361969E+02  0.18300929828E+02  0.00000000000E+00 0. -1.
</event>
<event>
 8    1  0.1210161E-006  0.9118800E+02  0.7816164E-02  0.1184000E+00
        -11   -1    0    0    0    0  0.00000000000E+00  0.00000000000E+00  0.45593999997E+02  0.45594000000E+02  0.51100000000E-03 0. -1.
         11   -1    0    0    0    0 -0.00000000000E+00 -0.00000000000E+00 -0.45593999997E+02  0.45594000000E+02  0.51100000000E-03 0.  1.
         23    2    1    2    0    0  0.00000000000E+00  0.55511151231E-15  0.00000000000E+00  0.91188000000E+02  0.91188000000E+02 0.  0.
    9900012    2    3    3    0    0 -0.34401920530E+02 -0.57343818443E+00 -0.13113312128E+02  0.54367083085E+02  0.39999997508E+02 0.  0.
         12    1    3    3    0    0  0.34401920530E+02  0.57343818443E+00  0.13113312128E+02  0.36820916915E+02  0.00000000000E+00 0. -1.
         11    1    4    4    0    0  0.35495626368E+00  0.11896220475E+02 -0.26895987176E+01  0.12201639114E+02  0.51100000000E-03 0. -1.
        -11    1    4    4    0    0 -0.19300640237E+01  0.36669242791E+01 -0.21267087592E+01  0.46577216761E+01  0.51100000000E-03 0.  1.
        -12    1    4    4    0    0 -0.32826812770E+02 -0.16136582939E+02 -0.82970046514E+01  0.37507722295E+02  0.00000000000E+00 0.  1.
</event>
<event>
 8    1  0.1210161E-006  0.9118800E+02  0.7816164E-02  0.1184000E+00
        -11   -1    0    0    0    0  0.00000000000E+00  0.00000000000E+00  0.45593999997E+02  0.45594000000E+02  0.51100000000E-03 0. -1.
         11   -1    0    0    0    0 -0.00000000000E+00 -0.00000000000E+00 -0.45593999997E+02  0.45594000000E+02  0.51100000000E-03 0.  1.
         23    2    1    2    0    0  0.35527136788E-14  0.00000000000E+00  0.00000000000E+00  0.91188000000E+02  0.91188000000E+02 0.  0.
    9900012    2    3    3    0    0  0.16160585189E+02  0.20930366217E+02  0.25622957831E+02  0.54367072368E+02  0.39999973078E+02 0.  0.
        -12    1    3    3    0    0 -0.16160585189E+02 -0.20930366217E+02 -0.25622957831E+02  0.36820927632E+02  0.00000000000E+00 0.  1.
         11    1    4    4    0    0  0.20952089345E+02  0.11101056996E+02  0.14615247796E+02  0.27853706805E+02  0.51100000000E-03 0. -1.
        -11    1    4    4    0    0  0.54839763141E+00  0.13953280412E+02  0.43444054833E+00  0.13970809320E+02  0.51100000000E-03 0.  1.
         12    1    4    4    0    0 -0.53399017877E+01 -0.41239711909E+01  0.10573269487E+02  0.12542556244E+02  0.00000000000E+00 0. -1.
</event>
<event>
 8    1  0.1210161E-006  0.9118800E+02  0.7816164E-02  0.1184000E+00
        -11   -1    0    0    0    0  0.00000000000E+00  0.00000000000E+00  0.45593999997E+02  0.45594000000E+02  0.51100000000E-03 0. -1.
         11   -1    0    0    0    0 -0.00000000000E+00 -0.00000000000E+00 -0.45593999997E+02  0.45594000000E+02  0.51100000000E-03 0.  1.
         23    2    1    2    0    0  0.00000000000E+00 -0.17763568394E-14  0.35527136788E-14  0.91188000000E+02  0.91188000000E+02 0.  0.
    9900012    2    3    3    0    0  0.18805379271E+02  0.40670021103E+01 -0.31394380804E+02  0.54366947031E+02  0.39999687346E+02 0.  0.
         12    1    3    3    0    0 -0.18805379271E+02 -0.40670021103E+01  0.31394380804E+02  0.36821052969E+02  0.00000000000E+00 0. -1.
         11    1    4    4    0    0  0.11578046568E+02 -0.26976238920E+01 -0.10979572591E+01  0.11938754014E+02  0.51100000000E-03 0. -1.
        -11    1    4    4    0    0  0.76033028094E-01 -0.10430841197E+02 -0.68229009881E+01  0.12464357474E+02  0.51100000000E-03 0.  1.
        -12    1    4    4    0    0  0.71512996745E+01  0.17195467199E+02 -0.23473522556E+02  0.29963835543E+02  0.00000000000E+00 0.  1.
</event>
<event>
 8    1  0.1210161E-006  0.9118800E+02  0.7816164E-02  0.1184000E+00
        -11   -1    0    0    0    0  0.00000000000E+00  0.00000000000E+00  0.45593999997E+02  0.45594000000E+02  0.51100000000E-03 0.  1.
         11   -1    0    0    0    0 -0.00000000000E+00 -0.00000000000E+00 -0.45593999997E+02  0.45594000000E+02  0.51100000000E-03 0. -1.
         23    2    1    2    0    0  0.00000000000E+00  0.17763568394E-14  0.00000000000E+00  0.91188000000E+02  0.91188000000E+02 0.  0.
    9900012    2    3    3    0    0 -0.72810518257E+01  0.73452152178E+01  0.35338579996E+02  0.54367066573E+02  0.39999959867E+02 0.  0.
         12    1    3    3    0    0  0.72810518257E+01 -0.73452152178E+01 -0.35338579996E+02  0.36820933427E+02  0.00000000000E+00 0. -1.
         11    1    4    4    0    0  0.28777637869E+01  0.16115173443E+02  0.13186066916E+02  0.21020292588E+02  0.51100000000E-03 0. -1.
        -11    1    4    4    0    0  0.53545958983E+01 -0.56482380881E+01  0.26277667049E+01  0.82145875642E+01  0.51100000000E-03 0.  1.
         12    1    4    4    0    0 -0.15513411511E+02 -0.31217201369E+01  0.19524746375E+02  0.25132186422E+02  0.00000000000E+00 0. -1.
</event>
<event>
 8    1  0.1210161E-006  0.9118800E+02  0.7816164E-02  0.1184000E+00
        -11   -1    0    0    0    0  0.00000000000E+00  0.00000000000E+00  0.45593999997E+02  0.45594000000E+02  0.51100000000E-03 0. -1.
         11   -1    0    0    0    0 -0.00000000000E+00 -0.00000000000E+00 -0.45593999997E+02  0.45594000000E+02  0.51100000000E-03 0.  1.
         23    2    1    2    0    0  0.00000000000E+00  0.00000000000E+00  0.00000000000E+00  0.91188000000E+02  0.91188000000E+02 0.  0.
    9900012    2    3    3    0    0 -0.22759206808E+02 -0.22980818063E+02 -0.17597831234E+02  0.54367039155E+02  0.39999897363E+02 0.  0.
         12    1    3    3    0    0  0.22759206808E+02  0.22980818063E+02  0.17597831234E+02  0.36820960845E+02  0.00000000000E+00 0. -1.
         11    1    4    4    0    0 -0.29329172214E+01 -0.15469369203E+01  0.14437056053E+01  0.36165319574E+01  0.51100000000E-03 0. -1.
        -11    1    4    4    0    0 -0.54671082774E+01 -0.28704536761E+02 -0.18622219695E+02  0.34650061619E+02  0.51100000000E-03 0.  1.
        -12    1    4    4    0    0 -0.14359181309E+02  0.72706556179E+01 -0.41931714437E+00  0.16100445579E+02  0.00000000000E+00 0.  1.
</event>
<event>
 8    1  0.1210161E-006  0.9118800E+02  0.7816164E-02  0.1184000E+00
        -11   -1    0    0    0    0  0.00000000000E+00  0.00000000000E+00  0.45593999997E+02  0.45594000000E+02  0.51100000000E-03 0. -1.
         11   -1    0    0    0    0 -0.00000000000E+00 -0.00000000000E+00 -0.45593999997E+02  0.45594000000E+02  0.51100000000E-03 0.  1.
         23    2    1    2    0    0  0.00000000000E+00  0.00000000000E+00  0.00000000000E+00  0.91188000000E+02  0.91188000000E+02 0.  0.
    9900012    2    3    3    0    0 -0.19215028537E+02  0.18107082811E+02  0.25665062710E+02  0.54367092712E+02  0.40000019455E+02 0.  0.
        -12    1    3    3    0    0  0.19215028537E+02 -0.18107082811E+02 -0.25665062710E+02  0.36820907288E+02  0.00000000000E+00 0.  1.
         11    1    4    4    0    0 -0.13328136956E+02  0.17920967480E+02  0.21455493642E+02  0.30969961540E+02  0.51100000000E-03 0. -1.
        -11    1    4    4    0    0 -0.11535424430E+02  0.34006271327E+01  0.92503031133E+01  0.15172290190E+02  0.51100000000E-03 0.  1.
        -12    1    4    4    0    0  0.56485328483E+01 -0.32145118011E+01 -0.50407340450E+01  0.82248409815E+01  0.00000000000E+00 0.  1.
</event>
<event>
 8    1  0.1210161E-006  0.9118800E+02  0.7816164E-02  0.1184000E+00
        -11   -1    0    0    0    0  0.00000000000E+00  0.00000000000E+00  0.45593999997E+02  0.45594000000E+02  0.51100000000E-03 0.  1.
         11   -1    0    0    0    0 -0.00000000000E+00 -0.00000000000E+00 -0.45593999997E+02  0.45594000000E+02  0.51100000000E-03 0. -1.
         23    2    1    2    0    0 -0.17763568394E-14  0.00000000000E+00 -0.17763568394E-14  0.91188000000E+02  0.91188000000E+02 0.  0.
    9900012    2    3    3    0    0 -0.14761893257E+02  0.30228213418E+02 -0.14970688807E+02  0.54367083358E+02  0.39999998132E+02 0.  0.
        -12    1    3    3    0    0  0.14761893257E+02 -0.30228213418E+02  0.14970688807E+02  0.36820916642E+02  0.00000000000E+00 0.  1.
         11    1    4    4    0    0 -0.15038734210E+02  0.38668851433E+02 -0.10035674899E+02  0.42686746991E+02  0.51100000000E-03 0. -1.
        -11    1    4    4    0    0 -0.17939866795E+01 -0.34608188171E+01  0.60941015819E+00  0.39455083441E+01  0.51100000000E-03 0.  1.
         12    1    4    4    0    0  0.20708276328E+01 -0.49798191973E+01 -0.55444240658E+01  0.77348280230E+01  0.00000000000E+00 0. -1.
</event>
<event>
 8    1  0.1210161E-006  0.9118800E+02  0.7816164E-02  0.1184000E+00
        -11   -1    0    0    0    0  0.00000000000E+00  0.00000000000E+00  0.45593999997E+02  0.45594000000E+02  0.51100000000E-03 0. -1.
         11   -1    0    0    0    0 -0.00000000000E+00 -0.00000000000E+00 -0.45593999997E+02  0.45594000000E+02  0.51100000000E-03 0.  1.
         23    2    1    2    0    0  0.00000000000E+00  0.35527136788E-14  0.00000000000E+00  0.91188000000E+02  0.91188000000E+02 0.  0.
    9900012    2    3    3    0    0 -0.19012507862E+02  0.23746226147E+02 -0.20746584471E+02  0.54367089112E+02  0.40000011249E+02 0.  0.
         12    1    3    3    0    0  0.19012507862E+02 -0.23746226147E+02  0.20746584471E+02  0.36820910888E+02  0.00000000000E+00 0. -1.
         11    1    4    4    0    0  0.84612108582E+01  0.46779795236E+01 -0.44439109191E+00  0.96784846600E+01  0.51100000000E-03 0. -1.
        -11    1    4    4    0    0 -0.76357250032E+01  0.14937713834E+02 -0.11646749248E+01  0.16816541227E+02  0.51100000000E-03 0.  1.
        -12    1    4    4    0    0 -0.19837993717E+02  0.41305327899E+01 -0.19137518454E+02  0.27872063225E+02  0.00000000000E+00 0.  1.
</event>
<event>
 8    1  0.1210161E-006  0.9118800E+02  0.7816164E-02  0.1184000E+00
        -11   -1    0    0    0    0  0.00000000000E+00  0.00000000000E+00  0.45593999997E+02  0.45594000000E+02  0.51100000000E-03 0. -1.
         11   -1    0    0    0    0 -0.00000000000E+00 -0.00000000000E+00 -0.45593999997E+02  0.45594000000E+02  0.51100000000E-03 0.  1.
         23    2    1    2    0    0  0.00000000000E+00  0.00000000000E+00  0.00000000000E+00  0.91188000000E+02  0.91188000000E+02 0.  0.
    9900012    2    3    3    0    0 -0.13207109138E+02 -0.21001657886E+02 -0.27208161884E+02  0.54367062494E+02  0.39999950567E+02 0.  0.
         12    1    3    3    0    0  0.13207109138E+02  0.21001657886E+02  0.27208161884E+02  0.36820937506E+02  0.00000000000E+00 0. -1.
         11    1    4    4    0    0 -0.56982727444E+01 -0.12137299045E+02  0.39060831163E+01  0.13965737573E+02  0.51100000000E-03 0. -1.
        -11    1    4    4    0    0 -0.14731466506E+01 -0.72781779109E+01 -0.33044818674E+02  0.33868895409E+02  0.51100000000E-03 0.  1.
         12    1    4    4    0    0 -0.60356897434E+01 -0.15861809299E+01  0.19305736736E+01  0.65324295121E+01  0.00000000000E+00 0. -1.
</event>
<event>
 8    1  0.1210161E-006  0.9118800E+02  0.7816164E-02  0.1184000E+00
        -11   -1    0    0    0    0  0.00000000000E+00  0.00000000000E+00  0.45593999997E+02  0.45594000000E+02  0.51100000000E-03 0.  1.
         11   -1    0    0    0    0 -0.00000000000E+00 -0.00000000000E+00 -0.45593999997E+02  0.45594000000E+02  0.51100000000E-03 0. -1.
         23    2    1    2    0    0 -0.35527136788E-14 -0.88817841970E-15  0.35527136788E-14  0.91188000000E+02  0.91188000000E+02 0.  0.
    9900012    2    3    3    0    0 -0.29991186698E+02 -0.40252233391E+01  0.20978720364E+02  0.54367076457E+02  0.39999982398E+02 0.  0.
        -12    1    3    3    0    0  0.29991186698E+02  0.40252233391E+01 -0.20978720364E+02  0.36820923543E+02  0.00000000000E+00 0.  1.
         11    1    4    4    0    0 -0.13090542411E+02 -0.61281773230E+01  0.21445940808E+01  0.14612191552E+02  0.51100000000E-03 0. -1.
        -11    1    4    4    0    0 -0.10608874440E+02 -0.49475485802E+00 -0.72095822206E+01  0.12836318605E+02  0.51100000000E-03 0.  1.
        -12    1    4    4    0    0 -0.62917698464E+01  0.25977088419E+01  0.26043708504E+02  0.26918566300E+02  0.00000000000E+00 0.  1.
</event>
<event>
 8    1  0.1210161E-006  0.9118800E+02  0.7816164E-02  0.1184000E+00
        -11   -1    0    0    0    0  0.00000000000E+00  0.00000000000E+00  0.45593999997E+02  0.45594000000E+02  0.51100000000E-03 0.  1.
         11   -1    0    0    0    0 -0.00000000000E+00 -0.00000000000E+00 -0.45593999997E+02  0.45594000000E+02  0.51100000000E-03 0. -1.
         23    2    1    2    0    0  0.00000000000E+00 -0.22724877535E-15  0.35527136788E-14  0.91188000000E+02  0.91188000000E+02 0.  0.
    9900012    2    3    3    0    0 -0.32377282704E+02  0.95622763404E-02 -0.17535445629E+02  0.54367076870E+02  0.39999983340E+02 0.  0.
        -12    1    3    3    0    0  0.32377282704E+02 -0.95622763404E-02  0.17535445629E+02  0.36820923130E+02  0.00000000000E+00 0.  1.
         11    1    4    4    0    0 -0.93754843028E-01  0.76883257356E+01 -0.16462812423E+02  0.18169846882E+02  0.51100000000E-03 0.  1.
        -11    1    4    4    0    0 -0.32250625493E+02 -0.96218720354E+01 -0.25561947998E+01  0.33752294711E+02  0.51100000000E-03 0. -1.
         12    1    4    4    0    0 -0.32902367898E-01  0.19431085762E+01  0.14835615936E+01  0.24449352766E+01  0.00000000000E+00 0. -1.
</event>
<event>
 8    1  0.1210161E-006  0.9118800E+02  0.7816164E-02  0.1184000E+00
        -11   -1    0    0    0    0  0.00000000000E+00  0.00000000000E+00  0.45593999997E+02  0.45594000000E+02  0.51100000000E-03 0. -1.
         11   -1    0    0    0    0 -0.00000000000E+00 -0.00000000000E+00 -0.45593999997E+02  0.45594000000E+02  0.51100000000E-03 0.  1.
         23    2    1    2    0    0 -0.35527136788E-14  0.00000000000E+00  0.35527136788E-14  0.91188000000E+02  0.91188000000E+02 0.  0.
    9900012    2    3    3    0    0  0.16040257826E+02 -0.93965126618E+01 -0.31783566387E+02  0.54367089995E+02  0.40000013261E+02 0.  0.
         12    1    3    3    0    0 -0.16040257826E+02  0.93965126618E+01  0.31783566387E+02  0.36820910005E+02  0.00000000000E+00 0. -1.
         11    1    4    4    0    0 -0.67150380782E+01 -0.10332060097E+02 -0.12770443855E+01  0.12388464185E+02  0.51100000000E-03 0. -1.
        -11    1    4    4    0    0  0.22055114141E+02 -0.13684880114E+01 -0.32186874870E+02  0.39042230128E+02  0.51100000000E-03 0.  1.
        -12    1    4    4    0    0  0.70018176359E+00  0.23040354466E+01  0.16803528683E+01  0.29363956823E+01  0.00000000000E+00 0.  1.
</event>
<event>
 8    1  0.1210161E-006  0.9118800E+02  0.7816164E-02  0.1184000E+00
        -11   -1    0    0    0    0  0.00000000000E+00  0.00000000000E+00  0.45593999997E+02  0.45594000000E+02  0.51100000000E-03 0.  1.
         11   -1    0    0    0    0 -0.00000000000E+00 -0.00000000000E+00 -0.45593999997E+02  0.45594000000E+02  0.51100000000E-03 0. -1.
         23    2    1    2    0    0  0.17763568394E-14  0.00000000000E+00  0.35527136788E-14  0.91188000000E+02  0.91188000000E+02 0.  0.
    9900012    2    3    3    0    0 -0.10378339809E+02 -0.18623356277E+02  0.30020672954E+02  0.54367080120E+02  0.39999990749E+02 0.  0.
         12    1    3    3    0    0  0.10378339809E+02  0.18623356277E+02 -0.30020672954E+02  0.36820919880E+02  0.00000000000E+00 0. -1.
         11    1    4    4    0    0  0.11650889387E+01 -0.16127225325E+02 -0.10451852099E+01  0.16203000997E+02  0.51100000000E-03 0. -1.
        -11    1    4    4    0    0 -0.30154508567E+01  0.12035506638E+01  0.28271400727E+02  0.28457223642E+02  0.51100000000E-03 0.  1.
        -12    1    4    4    0    0 -0.85279778910E+01 -0.36996816156E+01  0.27944574372E+01  0.97068554812E+01  0.00000000000E+00 0.  1.
</event>
<event>
 8    1  0.1210161E-006  0.9118800E+02  0.7816164E-02  0.1184000E+00
        -11   -1    0    0    0    0  0.00000000000E+00  0.00000000000E+00  0.45593999997E+02  0.45594000000E+02  0.51100000000E-03 0.  1.
         11   -1    0    0    0    0 -0.00000000000E+00 -0.00000000000E+00 -0.45593999997E+02  0.45594000000E+02  0.51100000000E-03 0. -1.
         23    2    1    2    0    0  0.00000000000E+00 -0.44408920985E-15  0.00000000000E+00  0.91188000000E+02  0.91188000000E+02 0.  0.
    9900012    2    3    3    0    0 -0.32355076445E+02  0.27459291024E+01 -0.17360498660E+02  0.54367109026E+02  0.40000056648E+02 0.  0.
        -12    1    3    3    0    0  0.32355076445E+02 -0.27459291024E+01  0.17360498660E+02  0.36820890974E+02  0.00000000000E+00 0.  1.
         11    1    4    4    0    0 -0.99170023990E+01  0.11282170147E+02 -0.16255270791E+02  0.22132964749E+02  0.51100000000E-03 0. -1.
        -11    1    4    4    0    0 -0.25759548170E+02 -0.10265569306E+02 -0.32487344079E+01  0.27919357275E+02  0.51100000000E-03 0.  1.
        -12    1    4    4    0    0  0.33214741247E+01  0.17293282613E+01  0.21435065395E+01  0.43147870030E+01  0.00000000000E+00 0.  1.
</event>
<event>
 8    1  0.1210161E-006  0.9118800E+02  0.7816164E-02  0.1184000E+00
        -11   -1    0    0    0    0  0.00000000000E+00  0.00000000000E+00  0.45593999997E+02  0.45594000000E+02  0.51100000000E-03 0.  1.
         11   -1    0    0    0    0 -0.00000000000E+00 -0.00000000000E+00 -0.45593999997E+02  0.45594000000E+02  0.51100000000E-03 0. -1.
         23    2    1    2    0    0  0.00000000000E+00  0.00000000000E+00  0.00000000000E+00  0.91188000000E+02  0.91188000000E+02 0.  0.
    9900012    2    3    3    0    0  0.17991964883E+02  0.31045286406E+02  0.82619157066E+01  0.54367083939E+02  0.39999999457E+02 0.  0.
        -12    1    3    3    0    0 -0.17991964883E+02 -0.31045286406E+02 -0.82619157066E+01  0.36820916061E+02  0.00000000000E+00 0.  1.
         11    1    4    4    0    0  0.14078264516E+02  0.17186192100E+02  0.25423598368E+01  0.22361268400E+02  0.51100000000E-03 0. -1.
        -11    1    4    4    0    0  0.10554410705E+02  0.15830629729E+02 -0.46021236479E+01  0.19575085320E+02  0.51100000000E-03 0.  1.
        -12    1    4    4    0    0 -0.66407103376E+01 -0.19715354232E+01  0.10321679518E+02  0.12430730219E+02  0.00000000000E+00 0.  1.
</event>
<event>
 8    1  0.1210161E-006  0.9118800E+02  0.7816164E-02  0.1184000E+00
        -11   -1    0    0    0    0  0.00000000000E+00  0.00000000000E+00  0.45593999997E+02  0.45594000000E+02  0.51100000000E-03 0. -1.
         11   -1    0    0    0    0 -0.00000000000E+00 -0.00000000000E+00 -0.45593999997E+02  0.45594000000E+02  0.51100000000E-03 0.  1.
         23    2    1    2    0    0  0.00000000000E+00  0.00000000000E+00  0.17763568394E-14  0.91188000000E+02  0.91188000000E+02 0.  0.
    9900012    2    3    3    0    0 -0.12760425128E+02  0.32246531208E+02 -0.12373876450E+02  0.54367081451E+02  0.39999993784E+02 0.  0.
         12    1    3    3    0    0  0.12760425128E+02 -0.32246531208E+02  0.12373876450E+02  0.36820918549E+02  0.00000000000E+00 0. -1.
         11    1    4    4    0    0 -0.38902899648E+00 -0.83728988404E+01 -0.41537653772E+01  0.93547071372E+01  0.51100000000E-03 0. -1.
        -11    1    4    4    0    0 -0.64540340364E+01  0.72552859215E+01 -0.51423488255E+01  0.10988060832E+02  0.51100000000E-03 0.  1.
         12    1    4    4    0    0 -0.59173620951E+01  0.33364144127E+02 -0.30777622475E+01  0.34024313482E+02  0.00000000000E+00 0. -1.
</event>
<event>
 8    1  0.1210161E-006  0.9118800E+02  0.7816164E-02  0.1184000E+00
        -11   -1    0    0    0    0  0.00000000000E+00  0.00000000000E+00  0.45593999997E+02  0.45594000000E+02  0.51100000000E-03 0.  1.
         11   -1    0    0    0    0 -0.00000000000E+00 -0.00000000000E+00 -0.45593999997E+02  0.45594000000E+02  0.51100000000E-03 0. -1.
         23    2    1    2    0    0  0.00000000000E+00  0.88817841970E-15 -0.17763568394E-14  0.91188000000E+02  0.91188000000E+02 0.  0.
    9900012    2    3    3    0    0  0.32632096559E+02  0.72336587235E+01 -0.15446573827E+02  0.54367133805E+02  0.40000113135E+02 0.  0.
        -12    1    3    3    0    0 -0.32632096559E+02 -0.72336587235E+01  0.15446573827E+02  0.36820866195E+02  0.00000000000E+00 0.  1.
         11    1    4    4    0    0  0.20324688167E+02 -0.50959390995E+01 -0.15633174498E+02  0.26143023726E+02  0.51100000000E-03 0. -1.
        -11    1    4    4    0    0  0.17523596084E+02  0.73636432366E+01 -0.46252306899E+01  0.19562525926E+02  0.51100000000E-03 0.  1.
        -12    1    4    4    0    0 -0.52161876917E+01  0.49659545864E+01  0.48118313609E+01  0.86615841527E+01  0.00000000000E+00 0.  1.
</event>
<event>
 8    1  0.1210161E-006  0.9118800E+02  0.7816164E-02  0.1184000E+00
        -11   -1    0    0    0    0  0.00000000000E+00  0.00000000000E+00  0.45593999997E+02  0.45594000000E+02  0.51100000000E-03 0. -1.
         11   -1    0    0    0    0 -0.00000000000E+00 -0.00000000000E+00 -0.45593999997E+02  0.45594000000E+02  0.51100000000E-03 0.  1.
         23    2    1    2    0    0  0.35527136788E-14 -0.17763568394E-14  0.00000000000E+00  0.91188000000E+02  0.91188000000E+02 0.  0.
    9900012    2    3    3    0    0 -0.17462956863E+02  0.13384485305E+02  0.29524239859E+02  0.54367081373E+02  0.39999993605E+02 0.  0.
        -12    1    3    3    0    0  0.17462956863E+02 -0.13384485305E+02 -0.29524239859E+02  0.36820918627E+02  0.00000000000E+00 0.  1.
         11    1    4    4    0    0  0.10896408664E+00  0.12808534226E+02  0.98599037157E+01  0.16164409168E+02  0.51100000000E-03 0. -1.
        -11    1    4    4    0    0 -0.70781522069E+01 -0.13307419097E+01  0.25183892578E+02  0.26193502216E+02  0.51100000000E-03 0.  1.
        -12    1    4    4    0    0 -0.10493768743E+02  0.19066929890E+01 -0.55195564348E+01  0.12009169989E+02  0.00000000000E+00 0.  1.
</event>
<event>
 8    1  0.1210161E-006  0.9118800E+02  0.7816164E-02  0.1184000E+00
        -11   -1    0    0    0    0  0.00000000000E+00  0.00000000000E+00  0.45593999997E+02  0.45594000000E+02  0.51100000000E-03 0. -1.
         11   -1    0    0    0    0 -0.00000000000E+00 -0.00000000000E+00 -0.45593999997E+02  0.45594000000E+02  0.51100000000E-03 0.  1.
         23    2    1    2    0    0  0.35527136788E-14  0.00000000000E+00  0.00000000000E+00  0.91188000000E+02  0.91188000000E+02 0.  0.
    9900012    2    3    3    0    0  0.18049104860E+02  0.19401325044E+02 -0.25565579500E+02  0.54367075855E+02  0.39999981027E+02 0.  0.
         12    1    3    3    0    0 -0.18049104860E+02 -0.19401325044E+02  0.25565579500E+02  0.36820924145E+02  0.00000000000E+00 0. -1.
         11    1    4    4    0    0  0.90450696921E+00 -0.11815767385E+01 -0.11337495743E+02  0.11434730711E+02  0.51100000000E-03 0. -1.
        -11    1    4    4    0    0  0.21522408186E+01  0.20671377227E+02 -0.17975716696E+02  0.27478434599E+02  0.51100000000E-03 0.  1.
         12    1    4    4    0    0  0.14992357072E+02 -0.88475444428E-01  0.37476329395E+01  0.15453910545E+02  0.00000000000E+00 0. -1.
</event>
<event>
 8    1  0.1210161E-006  0.9118800E+02  0.7816164E-02  0.1184000E+00
        -11   -1    0    0    0    0  0.00000000000E+00  0.00000000000E+00  0.45593999997E+02  0.45594000000E+02  0.51100000000E-03 0. -1.
         11   -1    0    0    0    0 -0.00000000000E+00 -0.00000000000E+00 -0.45593999997E+02  0.45594000000E+02  0.51100000000E-03 0.  1.
         23    2    1    2    0    0  0.00000000000E+00  0.00000000000E+00  0.00000000000E+00  0.91188000000E+02  0.91188000000E+02 0.  0.
    9900012    2    3    3    0    0  0.16218174925E+01  0.34828458273E+02 -0.11837479418E+02  0.54367113039E+02  0.40000065794E+02 0.  0.
         12    1    3    3    0    0 -0.16218174925E+01 -0.34828458273E+02  0.11837479418E+02  0.36820886961E+02  0.00000000000E+00 0. -1.
         11    1    4    4    0    0  0.56609040748E+01  0.59164765028E+01 -0.69084606863E+01  0.10713419551E+02  0.51100000000E-03 0. -1.
        -11    1    4    4    0    0 -0.30577114157E+00  0.34363710780E+02 -0.94582363597E+01  0.35642900413E+02  0.51100000000E-03 0.  1.
        -12    1    4    4    0    0 -0.37333154408E+01 -0.54517290094E+01  0.45292176283E+01  0.80107930754E+01  0.00000000000E+00 0.  1.
</event>
<event>
 8    1  0.1210161E-006  0.9118800E+02  0.7816164E-02  0.1184000E+00
        -11   -1    0    0    0    0  0.00000000000E+00  0.00000000000E+00  0.45593999997E+02  0.45594000000E+02  0.51100000000E-03 0. -1.
         11   -1    0    0    0    0 -0.00000000000E+00 -0.00000000000E+00 -0.45593999997E+02  0.45594000000E+02  0.51100000000E-03 0.  1.
         23    2    1    2    0    0  0.00000000000E+00  0.00000000000E+00  0.00000000000E+00  0.91188000000E+02  0.91188000000E+02 0.  0.
    9900012    2    3    3    0    0 -0.26483882157E+02  0.10581104128E+02  0.23290066695E+02  0.54367041494E+02  0.39999902693E+02 0.  0.
        -12    1    3    3    0    0  0.26483882157E+02 -0.10581104128E+02 -0.23290066695E+02  0.36820958506E+02  0.00000000000E+00 0.  1.
         11    1    4    4    0    0 -0.22748955169E+02  0.17720008549E+02  0.34795881886E+01  0.29045157918E+02  0.51100000000E-03 0.  1.
        -11    1    4    4    0    0  0.46537762337E+01 -0.35466201352E+01  0.40701295258E+01  0.71275593463E+01  0.51100000000E-03 0. -1.
         12    1    4    4    0    0 -0.83887032218E+01 -0.35922842863E+01  0.15740348981E+02  0.18194324229E+02  0.00000000000E+00 0. -1.
</event>
<event>
 8    1  0.1210161E-006  0.9118800E+02  0.7816164E-02  0.1184000E+00
        -11   -1    0    0    0    0  0.00000000000E+00  0.00000000000E+00  0.45593999997E+02  0.45594000000E+02  0.51100000000E-03 0. -1.
         11   -1    0    0    0    0 -0.00000000000E+00 -0.00000000000E+00 -0.45593999997E+02  0.45594000000E+02  0.51100000000E-03 0.  1.
         23    2    1    2    0    0 -0.44408920985E-15 -0.17763568394E-14  0.00000000000E+00  0.91188000000E+02  0.91188000000E+02 0.  0.
    9900012    2    3    3    0    0 -0.34747843198E+01  0.77260378593E+01  0.35833138710E+02  0.54367087234E+02  0.40000006968E+02 0.  0.
        -12    1    3    3    0    0  0.34747843198E+01 -0.77260378593E+01 -0.35833138710E+02  0.36820912766E+02  0.00000000000E+00 0.  1.
         11    1    4    4    0    0 -0.71620531444E+01  0.98829030648E+00  0.17115361941E+02  0.18579756124E+02  0.51100000000E-03 0. -1.
        -11    1    4    4    0    0  0.29964219815E+01  0.10582085169E+02  0.25606414191E+02  0.27868396423E+02  0.51100000000E-03 0.  1.
        -12    1    4    4    0    0  0.69084684312E+00 -0.38443376163E+01 -0.68886374215E+01  0.79189346880E+01  0.00000000000E+00 0.  1.
</event>
<event>
 8    1  0.1210161E-006  0.9118800E+02  0.7816164E-02  0.1184000E+00
        -11   -1    0    0    0    0  0.00000000000E+00  0.00000000000E+00  0.45593999997E+02  0.45594000000E+02  0.51100000000E-03 0.  1.
         11   -1    0    0    0    0 -0.00000000000E+00 -0.00000000000E+00 -0.45593999997E+02  0.45594000000E+02  0.51100000000E-03 0. -1.
         23    2    1    2    0    0 -0.35527136788E-14  0.00000000000E+00  0.00000000000E+00  0.91188000000E+02  0.91188000000E+02 0.  0.
    9900012    2    3    3    0    0  0.26222413619E+02 -0.24216783941E+02  0.90394405314E+01  0.54367094449E+02  0.40000023416E+02 0.  0.
         12    1    3    3    0    0 -0.26222413619E+02  0.24216783941E+02 -0.90394405314E+01  0.36820905551E+02  0.00000000000E+00 0. -1.
         11    1    4    4    0    0 -0.45208452945E+01 -0.13782119610E+01 -0.13746157377E+01  0.49221010832E+01  0.51100000000E-03 0. -1.
        -11    1    4    4    0    0 -0.16397271932E+01 -0.10783776793E+02  0.10135632222E+02  0.14889915647E+02  0.51100000000E-03 0.  1.
         12    1    4    4    0    0  0.32382986107E+02 -0.12054795187E+02  0.27842404759E+00  0.34555077719E+02  0.00000000000E+00 0. -1.
</event>
<event>
 8    1  0.1210161E-006  0.9118800E+02  0.7816164E-02  0.1184000E+00
        -11   -1    0    0    0    0  0.00000000000E+00  0.00000000000E+00  0.45593999997E+02  0.45594000000E+02  0.51100000000E-03 0.  1.
         11   -1    0    0    0    0 -0.00000000000E+00 -0.00000000000E+00 -0.45593999997E+02  0.45594000000E+02  0.51100000000E-03 0. -1.
         23    2    1    2    0    0 -0.71054273576E-14  0.00000000000E+00  0.17763568394E-14  0.91188000000E+02  0.91188000000E+02 0.  0.
    9900012    2    3    3    0    0  0.34190377708E+02  0.10809455153E+02  0.83637882675E+01  0.54367092858E+02  0.40000019789E+02 0.  0.
         12    1    3    3    0    0 -0.34190377708E+02 -0.10809455153E+02 -0.83637882675E+01  0.36820907142E+02  0.00000000000E+00 0. -1.
         11    1    4    4    0    0  0.23361216149E+01  0.17611847979E+01 -0.91341336897E+01  0.95912269609E+01  0.51100000000E-03 0. -1.
        -11    1    4    4    0    0 -0.34527735010E+01  0.43870000537E+01  0.19100792229E+01  0.59004929641E+01  0.51100000000E-03 0.  1.
        -12    1    4    4    0    0  0.35307029594E+02  0.46612703018E+01  0.15587842734E+02  0.38875372933E+02  0.00000000000E+00 0.  1.
</event>
<event>
 8    1  0.1210161E-006  0.9118800E+02  0.7816164E-02  0.1184000E+00
        -11   -1    0    0    0    0  0.00000000000E+00  0.00000000000E+00  0.45593999997E+02  0.45594000000E+02  0.51100000000E-03 0. -1.
         11   -1    0    0    0    0 -0.00000000000E+00 -0.00000000000E+00 -0.45593999997E+02  0.45594000000E+02  0.51100000000E-03 0.  1.
         23    2    1    2    0    0  0.00000000000E+00  0.00000000000E+00  0.17763568394E-14  0.91188000000E+02  0.91188000000E+02 0.  0.
    9900012    2    3    3    0    0  0.28132570889E+02  0.21887957736E+02  0.92336165816E+01  0.54367028885E+02  0.39999873949E+02 0.  0.
         12    1    3    3    0    0 -0.28132570889E+02 -0.21887957736E+02 -0.92336165816E+01  0.36820971115E+02  0.00000000000E+00 0. -1.
         11    1    4    4    0    0  0.18223335322E+02  0.22578132203E+02  0.73296820582E+01  0.29926346977E+02  0.51100000000E-03 0.  1.
        -11    1    4    4    0    0  0.10261343713E+02  0.59288505845E+00  0.11112100036E+02  0.15136890531E+02  0.51100000000E-03 0. -1.
         12    1    4    4    0    0 -0.35210814577E+00 -0.12830595253E+01 -0.92081655123E+01  0.93037913774E+01  0.00000000000E+00 0. -1.
</event>
<event>
 8    1  0.1210161E-006  0.9118800E+02  0.7816164E-02  0.1184000E+00
        -11   -1    0    0    0    0  0.00000000000E+00  0.00000000000E+00  0.45593999997E+02  0.45594000000E+02  0.51100000000E-03 0. -1.
         11   -1    0    0    0    0 -0.00000000000E+00 -0.00000000000E+00 -0.45593999997E+02  0.45594000000E+02  0.51100000000E-03 0.  1.
         23    2    1    2    0    0  0.17763568394E-14  0.00000000000E+00 -0.35527136788E-14  0.91188000000E+02  0.91188000000E+02 0.  0.
    9900012    2    3    3    0    0  0.14368543481E+02 -0.23546300749E+02  0.24390505411E+02  0.54367081015E+02  0.39999992789E+02 0.  0.
        -12    1    3    3    0    0 -0.14368543481E+02  0.23546300749E+02 -0.24390505411E+02  0.36820918985E+02  0.00000000000E+00 0.  1.
         11    1    4    4    0    0  0.37130742777E+01 -0.10216442405E+02 -0.32904353590E+01  0.11357358017E+02  0.51100000000E-03 0. -1.
        -11    1    4    4    0    0  0.15740404522E+02 -0.13020443382E+02  0.68205598862E+01  0.21536302324E+02  0.51100000000E-03 0.  1.
         12    1    4    4    0    0 -0.50849353191E+01 -0.30941496193E+00  0.20860380884E+02  0.21473420674E+02  0.00000000000E+00 0. -1.
</event>
<event>
 8    1  0.1210161E-006  0.9118800E+02  0.7816164E-02  0.1184000E+00
        -11   -1    0    0    0    0  0.00000000000E+00  0.00000000000E+00  0.45593999997E+02  0.45594000000E+02  0.51100000000E-03 0.  1.
         11   -1    0    0    0    0 -0.00000000000E+00 -0.00000000000E+00 -0.45593999997E+02  0.45594000000E+02  0.51100000000E-03 0. -1.
         23    2    1    2    0    0  0.00000000000E+00  0.00000000000E+00  0.00000000000E+00  0.91188000000E+02  0.91188000000E+02 0.  0.
    9900012    2    3    3    0    0 -0.13659880562E+02  0.34189593405E+02  0.50878126276E+00  0.54367088923E+02  0.40000010818E+02 0.  0.
        -12    1    3    3    0    0  0.13659880562E+02 -0.34189593405E+02 -0.50878126276E+00  0.36820911077E+02  0.00000000000E+00 0.  1.
         11    1    4    4    0    0 -0.24254237935E+02  0.20224602757E+02  0.56650413829E+01  0.32084190945E+02  0.51100000000E-03 0. -1.
        -11    1    4    4    0    0  0.70941040431E+01 -0.17580252380E+00 -0.20695935973E+01  0.73919169788E+01  0.51100000000E-03 0.  1.
         12    1    4    4    0    0  0.35002533301E+01  0.14140793172E+02 -0.30866665228E+01  0.14890980999E+02  0.00000000000E+00 0. -1.
</event>
<event>
 8    1  0.1210161E-006  0.9118800E+02  0.7816164E-02  0.1184000E+00
        -11   -1    0    0    0    0  0.00000000000E+00  0.00000000000E+00  0.45593999997E+02  0.45594000000E+02  0.51100000000E-03 0. -1.
         11   -1    0    0    0    0 -0.00000000000E+00 -0.00000000000E+00 -0.45593999997E+02  0.45594000000E+02  0.51100000000E-03 0.  1.
         23    2    1    2    0    0  0.00000000000E+00  0.88817841970E-15  0.00000000000E+00  0.91188000000E+02  0.91188000000E+02 0.  0.
    9900012    2    3    3    0    0  0.28887480030E+02  0.41972867377E+01  0.22442711748E+02  0.54367095217E+02  0.40000025165E+02 0.  0.
        -12    1    3    3    0    0 -0.28887480030E+02 -0.41972867377E+01 -0.22442711748E+02  0.36820904783E+02  0.00000000000E+00 0.  1.
         11    1    4    4    0    0  0.12561957839E+02 -0.10773012903E+02  0.50605688249E+00  0.16556469599E+02  0.51100000000E-03 0. -1.
        -11    1    4    4    0    0 -0.40234880987E+01  0.75882914164E+00 -0.77531022415E+00  0.41671794239E+01  0.51100000000E-03 0.  1.
         12    1    4    4    0    0  0.20349010289E+02  0.14211470499E+02  0.22711965090E+02  0.33643446193E+02  0.00000000000E+00 0. -1.
</event>
<event>
 8    1  0.1210161E-006  0.9118800E+02  0.7816164E-02  0.1184000E+00
        -11   -1    0    0    0    0  0.00000000000E+00  0.00000000000E+00  0.45593999997E+02  0.45594000000E+02  0.51100000000E-03 0.  1.
         11   -1    0    0    0    0 -0.00000000000E+00 -0.00000000000E+00 -0.45593999997E+02  0.45594000000E+02  0.51100000000E-03 0. -1.
         23    2    1    2    0    0  0.35527136788E-14  0.17763568394E-14 -0.35527136788E-14  0.91188000000E+02  0.91188000000E+02 0.  0.
    9900012    2    3    3    0    0 -0.24315158023E+02  0.11682102218E+02 -0.25061550560E+02  0.54367085585E+02  0.40000003207E+02 0.  0.
        -12    1    3    3    0    0  0.24315158023E+02 -0.11682102218E+02  0.25061550560E+02  0.36820914415E+02  0.00000000000E+00 0.  1.
         11    1    4    4    0    0  0.64369228685E+01 -0.45683796025E+01 -0.27727007301E+01  0.83661184433E+01  0.51100000000E-03 0. -1.
        -11    1    4    4    0    0  0.10898439414E+01  0.58093094214E+01 -0.70178643164E+01  0.91753068393E+01  0.51100000000E-03 0.  1.
         12    1    4    4    0    0 -0.31841924833E+02  0.10441172399E+02 -0.15270985513E+02  0.36825660302E+02  0.00000000000E+00 0. -1.
</event>
<event>
 8    1  0.1210161E-006  0.9118800E+02  0.7816164E-02  0.1184000E+00
        -11   -1    0    0    0    0  0.00000000000E+00  0.00000000000E+00  0.45593999997E+02  0.45594000000E+02  0.51100000000E-03 0. -1.
         11   -1    0    0    0    0 -0.00000000000E+00 -0.00000000000E+00 -0.45593999997E+02  0.45594000000E+02  0.51100000000E-03 0.  1.
         23    2    1    2    0    0  0.00000000000E+00  0.44408920985E-15  0.00000000000E+00  0.91188000000E+02  0.91188000000E+02 0.  0.
    9900012    2    3    3    0    0  0.51157760264E+01  0.27695036981E+01  0.36358471833E+02  0.54367084896E+02  0.40000001637E+02 0.  0.
        -12    1    3    3    0    0 -0.51157760264E+01 -0.27695036981E+01 -0.36358471833E+02  0.36820915104E+02  0.00000000000E+00 0.  1.
         11    1    4    4    0    0 -0.82743416178E+01  0.88605804033E+01  0.26083569181E+02  0.28763295982E+02  0.51100000000E-03 0. -1.
        -11    1    4    4    0    0  0.16128765548E+02 -0.55614555190E+01  0.13193202780E+02  0.21566813985E+02  0.51100000000E-03 0.  1.
         12    1    4    4    0    0 -0.27386479039E+01 -0.52962118622E+00 -0.29183001275E+01  0.40369749289E+01  0.00000000000E+00 0. -1.
</event>
<event>
 8    1  0.1210161E-006  0.9118800E+02  0.7816164E-02  0.1184000E+00
        -11   -1    0    0    0    0  0.00000000000E+00  0.00000000000E+00  0.45593999997E+02  0.45594000000E+02  0.51100000000E-03 0. -1.
         11   -1    0    0    0    0 -0.00000000000E+00 -0.00000000000E+00 -0.45593999997E+02  0.45594000000E+02  0.51100000000E-03 0.  1.
         23    2    1    2    0    0  0.00000000000E+00  0.00000000000E+00 -0.35527136788E-14  0.91188000000E+02  0.91188000000E+02 0.  0.
    9900012    2    3    3    0    0  0.21298402143E+02 -0.84112726935E+01  0.28834143649E+02  0.54367091781E+02  0.40000017332E+02 0.  0.
        -12    1    3    3    0    0 -0.21298402143E+02  0.84112726935E+01 -0.28834143649E+02  0.36820908219E+02  0.00000000000E+00 0.  1.
         11    1    4    4    0    0  0.70053154497E+01  0.45300859955E+01  0.16802804680E+02  0.18759807277E+02  0.51100000000E-03 0. -1.
        -11    1    4    4    0    0  0.23919784591E+01  0.62770798919E+01  0.11110804558E+02  0.12983576976E+02  0.51100000000E-03 0.  1.
         12    1    4    4    0    0  0.11901108234E+02 -0.19218438581E+02  0.92053441058E+00  0.22623707527E+02  0.00000000000E+00 0. -1.
</event>
<event>
 8    1  0.1210161E-006  0.9118800E+02  0.7816164E-02  0.1184000E+00
        -11   -1    0    0    0    0  0.00000000000E+00  0.00000000000E+00  0.45593999997E+02  0.45594000000E+02  0.51100000000E-03 0.  1.
         11   -1    0    0    0    0 -0.00000000000E+00 -0.00000000000E+00 -0.45593999997E+02  0.45594000000E+02  0.51100000000E-03 0. -1.
         23    2    1    2    0    0 -0.35527136788E-14 -0.35527136788E-14  0.35527136788E-14  0.91188000000E+02  0.91188000000E+02 0.  0.
    9900012    2    3    3    0    0 -0.16499732105E+02 -0.26926762927E+02  0.18933768616E+02  0.54367091330E+02  0.40000016305E+02 0.  0.
         12    1    3    3    0    0  0.16499732105E+02  0.26926762927E+02 -0.18933768616E+02  0.36820908670E+02  0.00000000000E+00 0. -1.
         11    1    4    4    0    0 -0.11549637316E+02 -0.80668528863E+01 -0.75332528592E+01  0.15975548082E+02  0.51100000000E-03 0. -1.
        -11    1    4    4    0    0 -0.73744900458E+00 -0.19452126443E+02  0.11018924206E+02  0.22368409535E+02  0.51100000000E-03 0.  1.
         12    1    4    4    0    0 -0.42126457849E+01  0.59221640220E+00  0.15448097269E+02  0.16023133714E+02  0.00000000000E+00 0. -1.
</event>
<event>
 8    1  0.1210161E-006  0.9118800E+02  0.7816164E-02  0.1184000E+00
        -11   -1    0    0    0    0  0.00000000000E+00  0.00000000000E+00  0.45593999997E+02  0.45594000000E+02  0.51100000000E-03 0.  1.
         11   -1    0    0    0    0 -0.00000000000E+00 -0.00000000000E+00 -0.45593999997E+02  0.45594000000E+02  0.51100000000E-03 0. -1.
         23    2    1    2    0    0  0.00000000000E+00  0.00000000000E+00  0.00000000000E+00  0.91188000000E+02  0.91188000000E+02 0.  0.
    9900012    2    3    3    0    0 -0.70306458078E+01  0.79147594669E+01  0.35266218484E+02  0.54367087952E+02  0.40000008604E+02 0.  0.
         12    1    3    3    0    0  0.70306458078E+01 -0.79147594669E+01 -0.35266218484E+02  0.36820912048E+02  0.00000000000E+00 0. -1.
         11    1    4    4    0    0 -0.15222943203E+02 -0.99610484109E+00  0.20442546830E+02  0.25507409625E+02  0.51100000000E-03 0. -1.
        -11    1    4    4    0    0  0.48220678321E+01  0.82995181546E+01 -0.35013219771E+01  0.10217318417E+02  0.51100000000E-03 0.  1.
        -12    1    4    4    0    0  0.33702295636E+01  0.61134615340E+00  0.18324993632E+02  0.18642359910E+02  0.00000000000E+00 0.  1.
</event>
<event>
 8    1  0.1210161E-006  0.9118800E+02  0.7816164E-02  0.1184000E+00
        -11   -1    0    0    0    0  0.00000000000E+00  0.00000000000E+00  0.45593999997E+02  0.45594000000E+02  0.51100000000E-03 0.  1.
         11   -1    0    0    0    0 -0.00000000000E+00 -0.00000000000E+00 -0.45593999997E+02  0.45594000000E+02  0.51100000000E-03 0. -1.
         23    2    1    2    0    0 -0.35527136788E-14  0.00000000000E+00 -0.17763568394E-14  0.91188000000E+02  0.91188000000E+02 0.  0.
    9900012    2    3    3    0    0  0.30011018045E+02 -0.17230559387E+02  0.12578740678E+02  0.54367107861E+02  0.40000053991E+02 0.  0.
         12    1    3    3    0    0 -0.30011018045E+02  0.17230559387E+02 -0.12578740678E+02  0.36820892139E+02  0.00000000000E+00 0. -1.
         11    1    4    4    0    0 -0.67637097327E+01 -0.32702515001E+01 -0.59436402885E+01  0.95796228716E+01  0.51100000000E-03 0. -1.
        -11    1    4    4    0    0  0.24722893011E+02 -0.11746453021E+02  0.76870629491E+01  0.28430468418E+02  0.51100000000E-03 0.  1.
         12    1    4    4    0    0  0.12051834766E+02 -0.22138548662E+01  0.10835318017E+02  0.16357016572E+02  0.00000000000E+00 0. -1.
</event>
<event>
 8    1  0.1210161E-006  0.9118800E+02  0.7816164E-02  0.1184000E+00
        -11   -1    0    0    0    0  0.00000000000E+00  0.00000000000E+00  0.45593999997E+02  0.45594000000E+02  0.51100000000E-03 0.  1.
         11   -1    0    0    0    0 -0.00000000000E+00 -0.00000000000E+00 -0.45593999997E+02  0.45594000000E+02  0.51100000000E-03 0. -1.
         23    2    1    2    0    0  0.88817841970E-15  0.71054273576E-14  0.17763568394E-14  0.91188000000E+02  0.91188000000E+02 0.  0.
    9900012    2    3    3    0    0 -0.70900504317E+01  0.34130459307E+02  0.11858421128E+02  0.54367092634E+02  0.40000019277E+02 0.  0.
         12    1    3    3    0    0  0.70900504317E+01 -0.34130459307E+02 -0.11858421128E+02  0.36820907366E+02  0.00000000000E+00 0. -1.
         11    1    4    4    0    0  0.82059324563E+01  0.15142129478E+02 -0.45060019471E+01  0.17802400580E+02  0.51100000000E-03 0. -1.
        -11    1    4    4    0    0 -0.74368559257E+00  0.27080430106E+01  0.14365303642E+02  0.14637230414E+02  0.51100000000E-03 0.  1.
        -12    1    4    4    0    0 -0.14552297296E+02  0.16280286819E+02  0.19991194336E+01  0.21927461640E+02  0.00000000000E+00 0.  1.
</event>
<event>
 8    1  0.1210161E-006  0.9118800E+02  0.7816164E-02  0.1184000E+00
        -11   -1    0    0    0    0  0.00000000000E+00  0.00000000000E+00  0.45593999997E+02  0.45594000000E+02  0.51100000000E-03 0.  1.
         11   -1    0    0    0    0 -0.00000000000E+00 -0.00000000000E+00 -0.45593999997E+02  0.45594000000E+02  0.51100000000E-03 0. -1.
         23    2    1    2    0    0  0.66613381478E-15 -0.17763568394E-14  0.00000000000E+00  0.91188000000E+02  0.91188000000E+02 0.  0.
    9900012    2    3    3    0    0 -0.11089673230E+01 -0.91899772130E+01  0.35638389036E+02  0.54367078464E+02  0.39999986974E+02 0.  0.
         12    1    3    3    0    0  0.11089673230E+01  0.91899772130E+01 -0.35638389036E+02  0.36820921536E+02  0.00000000000E+00 0. -1.
         11    1    4    4    0    0  0.82251551366E+01 -0.14448868432E+02  0.91915641295E+01  0.18997574250E+02  0.51100000000E-03 0. -1.
        -11    1    4    4    0    0  0.62073808821E+00 -0.55641925580E+01  0.59789177343E+00  0.56305443281E+01  0.51100000000E-03 0.  1.
         12    1    4    4    0    0 -0.99548605478E+01  0.10823083777E+02  0.25848933133E+02  0.29738959886E+02  0.00000000000E+00 0. -1.
</event>
<event>
 8    1  0.1210161E-006  0.9118800E+02  0.7816164E-02  0.1184000E+00
        -11   -1    0    0    0    0  0.00000000000E+00  0.00000000000E+00  0.45593999997E+02  0.45594000000E+02  0.51100000000E-03 0. -1.
         11   -1    0    0    0    0 -0.00000000000E+00 -0.00000000000E+00 -0.45593999997E+02  0.45594000000E+02  0.51100000000E-03 0.  1.
         23    2    1    2    0    0  0.00000000000E+00  0.00000000000E+00  0.00000000000E+00  0.91188000000E+02  0.91188000000E+02 0.  0.
    9900012    2    3    3    0    0 -0.14087827748E+02 -0.22811497917E+02  0.25237764591E+02  0.54367135135E+02  0.40000116166E+02 0.  0.
        -12    1    3    3    0    0  0.14087827748E+02  0.22811497917E+02 -0.25237764591E+02  0.36820864865E+02  0.00000000000E+00 0.  1.
         11    1    4    4    0    0  0.26697319238E+00 -0.70361617759E+01  0.18104017603E+02  0.19425094617E+02  0.51100000000E-03 0. -1.
        -11    1    4    4    0    0 -0.19530984690E+02 -0.19556464748E+02  0.70811530312E+01  0.28531691239E+02  0.51100000000E-03 0.  1.
        -12    1    4    4    0    0  0.51761837503E+01  0.37811286071E+01  0.52593956747E-01  0.64103492795E+01  0.00000000000E+00 0.  1.
</event>
<event>
 8    1  0.1210161E-006  0.9118800E+02  0.7816164E-02  0.1184000E+00
        -11   -1    0    0    0    0  0.00000000000E+00  0.00000000000E+00  0.45593999997E+02  0.45594000000E+02  0.51100000000E-03 0.  1.
         11   -1    0    0    0    0 -0.00000000000E+00 -0.00000000000E+00 -0.45593999997E+02  0.45594000000E+02  0.51100000000E-03 0. -1.
         23    2    1    2    0    0  0.88817841970E-15  0.00000000000E+00  0.00000000000E+00  0.91188000000E+02  0.91188000000E+02 0.  0.
    9900012    2    3    3    0    0  0.10321295486E+01 -0.32651018071E+02  0.16988987979E+02  0.54367082235E+02  0.39999995571E+02 0.  0.
         12    1    3    3    0    0 -0.10321295486E+01  0.32651018071E+02 -0.16988987979E+02  0.36820917765E+02  0.00000000000E+00 0. -1.
         11    1    4    4    0    0 -0.23481971127E+00 -0.41969182259E+01 -0.33110677675E+01  0.53509282292E+01  0.51100000000E-03 0. -1.
        -11    1    4    4    0    0 -0.37635841458E+01 -0.35330060367E+02  0.13121801332E+02  0.37875577905E+02  0.51100000000E-03 0.  1.
        -12    1    4    4    0    0  0.50305334057E+01  0.68759605213E+01  0.71782544142E+01  0.11140576101E+02  0.00000000000E+00 0.  1.
</event>
<event>
 8    1  0.1210161E-006  0.9118800E+02  0.7816164E-02  0.1184000E+00
        -11   -1    0    0    0    0  0.00000000000E+00  0.00000000000E+00  0.45593999997E+02  0.45594000000E+02  0.51100000000E-03 0.  1.
         11   -1    0    0    0    0 -0.00000000000E+00 -0.00000000000E+00 -0.45593999997E+02  0.45594000000E+02  0.51100000000E-03 0. -1.
         23    2    1    2    0    0  0.71054273576E-14 -0.13322676296E-14  0.22204460493E-15  0.91188000000E+02  0.91188000000E+02 0.  0.
    9900012    2    3    3    0    0 -0.36778701414E+02 -0.48934560071E+00 -0.16934055683E+01  0.54367082585E+02  0.39999996370E+02 0.  0.
        -12    1    3    3    0    0  0.36778701414E+02  0.48934560071E+00  0.16934055683E+01  0.36820917415E+02  0.00000000000E+00 0.  1.
         11    1    4    4    0    0  0.62672950789E+01  0.56421004697E+01  0.55402556020E+01  0.10089931502E+02  0.51100000000E-03 0. -1.
        -11    1    4    4    0    0 -0.24313983396E+02 -0.23521174757E+01 -0.58465304519E+01  0.25117407585E+02  0.51100000000E-03 0.  1.
         12    1    4    4    0    0 -0.18732013098E+02 -0.37793285947E+01 -0.13871307184E+01  0.19159743499E+02  0.00000000000E+00 0. -1.
</event>
<event>
 8    1  0.1210161E-006  0.9118800E+02  0.7816164E-02  0.1184000E+00
        -11   -1    0    0    0    0  0.00000000000E+00  0.00000000000E+00  0.45593999997E+02  0.45594000000E+02  0.51100000000E-03 0.  1.
         11   -1    0    0    0    0 -0.00000000000E+00 -0.00000000000E+00 -0.45593999997E+02  0.45594000000E+02  0.51100000000E-03 0. -1.
         23    2    1    2    0    0  0.00000000000E+00  0.00000000000E+00  0.00000000000E+00  0.91188000000E+02  0.91188000000E+02 0.  0.
    9900012    2    3    3    0    0 -0.20631089879E+02 -0.29746629095E+02  0.67289848924E+01  0.54367040618E+02  0.39999900697E+02 0.  0.
         12    1    3    3    0    0  0.20631089879E+02  0.29746629095E+02 -0.67289848924E+01  0.36820959382E+02  0.00000000000E+00 0. -1.
         11    1    4    4    0    0 -0.12860859409E+02 -0.59094495017E+01  0.31515557429E+01  0.14500193172E+02  0.51100000000E-03 0. -1.
        -11    1    4    4    0    0 -0.13828118449E+02 -0.11650931935E+02 -0.99833136295E+01  0.20654966136E+02  0.51100000000E-03 0.  1.
         12    1    4    4    0    0  0.60578879794E+01 -0.12186247658E+02  0.13560742779E+02  0.19211881310E+02  0.00000000000E+00 0. -1.
</event>
<event>
 8    1  0.1210161E-006  0.9118800E+02  0.7816164E-02  0.1184000E+00
        -11   -1    0    0    0    0  0.00000000000E+00  0.00000000000E+00  0.45593999997E+02  0.45594000000E+02  0.51100000000E-03 0.  1.
         11   -1    0    0    0    0 -0.00000000000E+00 -0.00000000000E+00 -0.45593999997E+02  0.45594000000E+02  0.51100000000E-03 0. -1.
         23    2    1    2    0    0  0.00000000000E+00 -0.35527136788E-14  0.88817841970E-15  0.91188000000E+02  0.91188000000E+02 0.  0.
    9900012    2    3    3    0    0 -0.27705756574E+02 -0.23781403287E+02  0.47555632858E+01  0.54367089205E+02  0.40000011460E+02 0.  0.
         12    1    3    3    0    0  0.27705756574E+02  0.23781403287E+02 -0.47555632858E+01  0.36820910795E+02  0.00000000000E+00 0. -1.
         11    1    4    4    0    0 -0.16348338672E+02  0.51923065121E+01 -0.49469329700E+00  0.17160214042E+02  0.51100000000E-03 0. -1.
        -11    1    4    4    0    0 -0.12338453169E+02 -0.22153917446E+02  0.11555863297E+02  0.27867031805E+02  0.51100000000E-03 0.  1.
        -12    1    4    4    0    0  0.98103526661E+00 -0.68197923531E+01 -0.63056067140E+01  0.93398433587E+01  0.00000000000E+00 0.  1.
</event>
<event>
 8    1  0.1210161E-006  0.9118800E+02  0.7816164E-02  0.1184000E+00
        -11   -1    0    0    0    0  0.00000000000E+00  0.00000000000E+00  0.45593999997E+02  0.45594000000E+02  0.51100000000E-03 0.  1.
         11   -1    0    0    0    0 -0.00000000000E+00 -0.00000000000E+00 -0.45593999997E+02  0.45594000000E+02  0.51100000000E-03 0. -1.
         23    2    1    2    0    0  0.55511151231E-16  0.35527136788E-14  0.00000000000E+00  0.91188000000E+02  0.91188000000E+02 0.  0.
    9900012    2    3    3    0    0  0.28747781076E+00  0.18139972266E+02  0.32041201301E+02  0.54367084502E+02  0.40000000739E+02 0.  0.
         12    1    3    3    0    0 -0.28747781076E+00 -0.18139972266E+02 -0.32041201301E+02  0.36820915498E+02  0.00000000000E+00 0. -1.
         11    1    4    4    0    0  0.11313249346E+02  0.23151606477E+02  0.20866583010E+02  0.33157213092E+02  0.51100000000E-03 0. -1.
        -11    1    4    4    0    0 -0.65836196943E+01  0.16962929482E+01 -0.73408762652E+00  0.68381534751E+01  0.51100000000E-03 0.  1.
        -12    1    4    4    0    0 -0.44421518413E+01 -0.67079271596E+01  0.11908705918E+02  0.14371717935E+02  0.00000000000E+00 0.  1.
</event>
<event>
 8    1  0.1210161E-006  0.9118800E+02  0.7816164E-02  0.1184000E+00
        -11   -1    0    0    0    0  0.00000000000E+00  0.00000000000E+00  0.45593999997E+02  0.45594000000E+02  0.51100000000E-03 0. -1.
         11   -1    0    0    0    0 -0.00000000000E+00 -0.00000000000E+00 -0.45593999997E+02  0.45594000000E+02  0.51100000000E-03 0.  1.
         23    2    1    2    0    0 -0.35527136788E-14  0.00000000000E+00  0.00000000000E+00  0.91188000000E+02  0.91188000000E+02 0.  0.
    9900012    2    3    3    0    0 -0.28843443899E+02  0.20114168458E+02  0.10920317712E+02  0.54367117778E+02  0.40000076598E+02 0.  0.
        -12    1    3    3    0    0  0.28843443899E+02 -0.20114168458E+02 -0.10920317712E+02  0.36820882222E+02  0.00000000000E+00 0.  1.
         11    1    4    4    0    0 -0.51477540366E+01  0.88317435977E+01  0.53653490936E+01  0.11544957243E+02  0.51100000000E-03 0. -1.
        -11    1    4    4    0    0 -0.72183974806E+01  0.19386834077E+02 -0.54779051640E+01  0.21400047732E+02  0.51100000000E-03 0.  1.
        -12    1    4    4    0    0 -0.16477292382E+02 -0.81044092167E+01  0.11032873782E+02  0.21422112802E+02  0.00000000000E+00 0.  1.
</event>
<event>
 8    1  0.1210161E-006  0.9118800E+02  0.7816164E-02  0.1184000E+00
        -11   -1    0    0    0    0  0.00000000000E+00  0.00000000000E+00  0.45593999997E+02  0.45594000000E+02  0.51100000000E-03 0.  1.
         11   -1    0    0    0    0 -0.00000000000E+00 -0.00000000000E+00 -0.45593999997E+02  0.45594000000E+02  0.51100000000E-03 0. -1.
         23    2    1    2    0    0  0.00000000000E+00 -0.17763568394E-14  0.00000000000E+00  0.91188000000E+02  0.91188000000E+02 0.  0.
    9900012    2    3    3    0    0 -0.14465826515E+02 -0.15321513184E+02  0.30195773404E+02  0.54366896887E+02  0.39999573030E+02 0.  0.
         12    1    3    3    0    0  0.14465826515E+02  0.15321513184E+02 -0.30195773404E+02  0.36821103113E+02  0.00000000000E+00 0. -1.
         11    1    4    4    0    0 -0.42993833480E+01 -0.16941855790E+01  0.18517364274E+02  0.19085275525E+02  0.51100000000E-03 0. -1.
        -11    1    4    4    0    0 -0.10955070363E+02 -0.82671280910E+01  0.20653687285E+02  0.24797858219E+02  0.51100000000E-03 0.  1.
         12    1    4    4    0    0  0.78862719598E+00 -0.53601995138E+01 -0.89752781546E+01  0.10483763143E+02  0.00000000000E+00 0. -1.
</event>
<event>
 8    1  0.1210161E-006  0.9118800E+02  0.7816164E-02  0.1184000E+00
        -11   -1    0    0    0    0  0.00000000000E+00  0.00000000000E+00  0.45593999997E+02  0.45594000000E+02  0.51100000000E-03 0.  1.
         11   -1    0    0    0    0 -0.00000000000E+00 -0.00000000000E+00 -0.45593999997E+02  0.45594000000E+02  0.51100000000E-03 0. -1.
         23    2    1    2    0    0  0.00000000000E+00  0.00000000000E+00  0.27755575616E-16  0.91188000000E+02  0.91188000000E+02 0.  0.
    9900012    2    3    3    0    0  0.34303456368E+02 -0.13379404749E+02 -0.21222662180E+00  0.54367073472E+02  0.39999975594E+02 0.  0.
        -12    1    3    3    0    0 -0.34303456368E+02  0.13379404749E+02  0.21222662180E+00  0.36820926528E+02  0.00000000000E+00 0.  1.
         11    1    4    4    0    0  0.96227539636E+01 -0.28660832221E+01 -0.13405517341E+02  0.16748723006E+02  0.51100000000E-03 0. -1.
        -11    1    4    4    0    0  0.60731462643E+01 -0.14429919715E+02  0.92962129053E+01  0.18207835213E+02  0.51100000000E-03 0.  1.
        -12    1    4    4    0    0  0.18607556140E+02  0.39165981874E+01  0.38970778144E+01  0.19410515252E+02  0.00000000000E+00 0.  1.
</event>
<event>
 8    1  0.1210161E-006  0.9118800E+02  0.7816164E-02  0.1184000E+00
        -11   -1    0    0    0    0  0.00000000000E+00  0.00000000000E+00  0.45593999997E+02  0.45594000000E+02  0.51100000000E-03 0.  1.
         11   -1    0    0    0    0 -0.00000000000E+00 -0.00000000000E+00 -0.45593999997E+02  0.45594000000E+02  0.51100000000E-03 0. -1.
         23    2    1    2    0    0  0.00000000000E+00 -0.22204460493E-15  0.22204460493E-14  0.91188000000E+02  0.91188000000E+02 0.  0.
    9900012    2    3    3    0    0 -0.36651783277E+02 -0.49993809861E-01 -0.35248572299E+01  0.54367077480E+02  0.39999984731E+02 0.  0.
        -12    1    3    3    0    0  0.36651783277E+02  0.49993809861E-01  0.35248572299E+01  0.36820922520E+02  0.00000000000E+00 0.  1.
         11    1    4    4    0    0 -0.84096514732E+01 -0.14454050602E+01  0.34851487234E+01  0.92172498922E+01  0.51100000000E-03 0. -1.
        -11    1    4    4    0    0 -0.22651400764E+02  0.18026941696E+01  0.11742266972E+02  0.25577656201E+02  0.51100000000E-03 0.  1.
         12    1    4    4    0    0 -0.55907310392E+01 -0.40728291920E+00 -0.18752272925E+02  0.19572171386E+02  0.00000000000E+00 0. -1.
</event>
<event>
 8    1  0.1210161E-006  0.9118800E+02  0.7816164E-02  0.1184000E+00
        -11   -1    0    0    0    0  0.00000000000E+00  0.00000000000E+00  0.45593999997E+02  0.45594000000E+02  0.51100000000E-03 0.  1.
         11   -1    0    0    0    0 -0.00000000000E+00 -0.00000000000E+00 -0.45593999997E+02  0.45594000000E+02  0.51100000000E-03 0. -1.
         23    2    1    2    0    0  0.66613381478E-15  0.00000000000E+00  0.00000000000E+00  0.91188000000E+02  0.91188000000E+02 0.  0.
    9900012    2    3    3    0    0  0.10311715739E+01 -0.36799403456E+02 -0.72053013661E+00  0.54367101407E+02  0.40000039276E+02 0.  0.
         12    1    3    3    0    0 -0.10311715739E+01  0.36799403456E+02  0.72053013661E+00  0.36820898593E+02  0.00000000000E+00 0. -1.
         11    1    4    4    0    0 -0.89447126400E+01  0.16049376162E+00  0.58744086134E-01  0.89463452643E+01  0.51100000000E-03 0. -1.
        -11    1    4    4    0    0 -0.21359695894E+01 -0.18468051406E+02 -0.10411503406E+02  0.21307995970E+02  0.51100000000E-03 0.  1.
        -12    1    4    4    0    0  0.12111853803E+02 -0.18491845812E+02  0.96322291834E+01  0.24112760173E+02  0.00000000000E+00 0.  1.
</event>
<event>
 8    1  0.1210161E-006  0.9118800E+02  0.7816164E-02  0.1184000E+00
        -11   -1    0    0    0    0  0.00000000000E+00  0.00000000000E+00  0.45593999997E+02  0.45594000000E+02  0.51100000000E-03 0. -1.
         11   -1    0    0    0    0 -0.00000000000E+00 -0.00000000000E+00 -0.45593999997E+02  0.45594000000E+02  0.51100000000E-03 0.  1.
         23    2    1    2    0    0 -0.71054273576E-14  0.17763568394E-14  0.00000000000E+00  0.91188000000E+02  0.91188000000E+02 0.  0.
    9900012    2    3    3    0    0 -0.32988080761E+02  0.15734460391E+02 -0.44714047605E+01  0.54367079634E+02  0.39999989641E+02 0.  0.
         12    1    3    3    0    0  0.32988080761E+02 -0.15734460391E+02  0.44714047605E+01  0.36820920366E+02  0.00000000000E+00 0. -1.
         11    1    4    4    0    0 -0.11879799640E+02  0.48706620576E+00  0.10610089270E+02  0.15935522193E+02  0.51100000000E-03 0. -1.
        -11    1    4    4    0    0 -0.19075214012E+02  0.29001003588E+00 -0.34772575935E+01  0.19391730610E+02  0.51100000000E-03 0.  1.
         12    1    4    4    0    0 -0.20330671088E+01  0.14957384150E+02 -0.11604236437E+02  0.19039826831E+02  0.00000000000E+00 0. -1.
</event>
<event>
 8    1  0.1210161E-006  0.9118800E+02  0.7816164E-02  0.1184000E+00
        -11   -1    0    0    0    0  0.00000000000E+00  0.00000000000E+00  0.45593999997E+02  0.45594000000E+02  0.51100000000E-03 0.  1.
         11   -1    0    0    0    0 -0.00000000000E+00 -0.00000000000E+00 -0.45593999997E+02  0.45594000000E+02  0.51100000000E-03 0. -1.
         23    2    1    2    0    0  0.00000000000E+00  0.35527136788E-14  0.00000000000E+00  0.91188000000E+02  0.91188000000E+02 0.  0.
    9900012    2    3    3    0    0  0.60123316216E+01 -0.16480269254E+02 -0.32373353264E+02  0.54367062915E+02  0.39999951528E+02 0.  0.
        -12    1    3    3    0    0 -0.60123316216E+01  0.16480269254E+02  0.32373353264E+02  0.36820937085E+02  0.00000000000E+00 0.  1.
         11    1    4    4    0    0  0.10199418830E+02 -0.84369173957E+00 -0.11016735446E+02  0.15036901954E+02  0.51100000000E-03 0. -1.
        -11    1    4    4    0    0  0.28492352723E+01 -0.18958527565E+02 -0.24351547125E+02  0.30992608098E+02  0.51100000000E-03 0.  1.
        -12    1    4    4    0    0 -0.70363224804E+01  0.33219500511E+01  0.29949293073E+01  0.83375528632E+01  0.00000000000E+00 0.  1.
</event>
<event>
 8    1  0.1210161E-006  0.9118800E+02  0.7816164E-02  0.1184000E+00
        -11   -1    0    0    0    0  0.00000000000E+00  0.00000000000E+00  0.45593999997E+02  0.45594000000E+02  0.51100000000E-03 0.  1.
         11   -1    0    0    0    0 -0.00000000000E+00 -0.00000000000E+00 -0.45593999997E+02  0.45594000000E+02  0.51100000000E-03 0. -1.
         23    2    1    2    0    0  0.00000000000E+00  0.88817841970E-15 -0.35527136788E-14  0.91188000000E+02  0.91188000000E+02 0.  0.
    9900012    2    3    3    0    0 -0.22662032294E+02 -0.56071490577E+01  0.28474045792E+02  0.54367094090E+02  0.40000022597E+02 0.  0.
         12    1    3    3    0    0  0.22662032294E+02  0.56071490577E+01 -0.28474045792E+02  0.36820905910E+02  0.00000000000E+00 0. -1.
         11    1    4    4    0    0 -0.11215121092E+02 -0.18069697445E+02  0.18580515312E+02  0.28240546319E+02  0.51100000000E-03 0. -1.
        -11    1    4    4    0    0 -0.83681959513E+01  0.83418604400E+01 -0.30459999765E+01  0.12202108637E+02  0.51100000000E-03 0.  1.
        -12    1    4    4    0    0 -0.30787152511E+01  0.41206879471E+01  0.12939530457E+02  0.13924439134E+02  0.00000000000E+00 0.  1.
</event>
<event>
 8    1  0.1210161E-006  0.9118800E+02  0.7816164E-02  0.1184000E+00
        -11   -1    0    0    0    0  0.00000000000E+00  0.00000000000E+00  0.45593999997E+02  0.45594000000E+02  0.51100000000E-03 0.  1.
         11   -1    0    0    0    0 -0.00000000000E+00 -0.00000000000E+00 -0.45593999997E+02  0.45594000000E+02  0.51100000000E-03 0. -1.
         23    2    1    2    0    0 -0.14210854715E-13  0.17763568394E-14  0.71054273576E-14  0.91188000000E+02  0.91188000000E+02 0.  0.
    9900012    2    3    3    0    0  0.27412983082E+02 -0.14057161110E+02 -0.20167001966E+02  0.54367036023E+02  0.39999890221E+02 0.  0.
        -12    1    3    3    0    0 -0.27412983082E+02  0.14057161110E+02  0.20167001966E+02  0.36820963977E+02  0.00000000000E+00 0.  1.
         11    1    4    4    0    0 -0.28160940327E+01  0.37238845078E+01 -0.49721274480E+01  0.68205390585E+01  0.51100000000E-03 0. -1.
        -11    1    4    4    0    0 -0.17851468086E+01 -0.61681483192E+01  0.48344596409E+01  0.80377113096E+01  0.51100000000E-03 0.  1.
        -12    1    4    4    0    0  0.32014223923E+02 -0.11612897299E+02 -0.20029334159E+02  0.39508785655E+02  0.00000000000E+00 0.  1.
</event>
<event>
 8    1  0.1210161E-006  0.9118800E+02  0.7816164E-02  0.1184000E+00
        -11   -1    0    0    0    0  0.00000000000E+00  0.00000000000E+00  0.45593999997E+02  0.45594000000E+02  0.51100000000E-03 0.  1.
         11   -1    0    0    0    0 -0.00000000000E+00 -0.00000000000E+00 -0.45593999997E+02  0.45594000000E+02  0.51100000000E-03 0. -1.
         23    2    1    2    0    0 -0.88817841970E-15  0.00000000000E+00  0.88817841970E-15  0.91188000000E+02  0.91188000000E+02 0.  0.
    9900012    2    3    3    0    0 -0.60373268005E+01  0.36250926900E+02  0.22804305478E+01  0.54367090458E+02  0.40000014317E+02 0.  0.
         12    1    3    3    0    0  0.60373268005E+01 -0.36250926900E+02 -0.22804305478E+01  0.36820909542E+02  0.00000000000E+00 0. -1.
         11    1    4    4    0    0 -0.42123085920E+01 -0.43750356745E+01 -0.51166793080E+01  0.79413404554E+01  0.51100000000E-03 0. -1.
        -11    1    4    4    0    0 -0.51173484065E+01  0.30027247361E+02  0.13987422581E+02  0.33518216383E+02  0.51100000000E-03 0.  1.
        -12    1    4    4    0    0  0.32923301980E+01  0.10598715213E+02 -0.65903127252E+01  0.12907533619E+02  0.00000000000E+00 0.  1.
</event>
<event>
 8    1  0.1210161E-006  0.9118800E+02  0.7816164E-02  0.1184000E+00
        -11   -1    0    0    0    0  0.00000000000E+00  0.00000000000E+00  0.45593999997E+02  0.45594000000E+02  0.51100000000E-03 0. -1.
         11   -1    0    0    0    0 -0.00000000000E+00 -0.00000000000E+00 -0.45593999997E+02  0.45594000000E+02  0.51100000000E-03 0.  1.
         23    2    1    2    0    0  0.71054273576E-14  0.44408920985E-15 -0.44408920985E-15  0.91188000000E+02  0.91188000000E+02 0.  0.
    9900012    2    3    3    0    0  0.36667030282E+02  0.20071967504E+01 -0.26981195233E+01  0.54367084783E+02  0.40000001379E+02 0.  0.
         12    1    3    3    0    0 -0.36667030282E+02 -0.20071967504E+01  0.26981195233E+01  0.36820915217E+02  0.00000000000E+00 0. -1.
         11    1    4    4    0    0 -0.53766203990E+01 -0.18518461244E+01  0.38177653262E+01  0.68492856073E+01  0.51100000000E-03 0. -1.
        -11    1    4    4    0    0  0.39481673045E+02  0.39865505885E+01  0.87743310659E+00  0.39692127445E+02  0.51100000000E-03 0.  1.
        -12    1    4    4    0    0  0.25619776361E+01 -0.12750771376E+00 -0.73933179561E+01  0.78256717299E+01  0.00000000000E+00 0.  1.
</event>
<event>
 8    1  0.1210161E-006  0.9118800E+02  0.7816164E-02  0.1184000E+00
        -11   -1    0    0    0    0  0.00000000000E+00  0.00000000000E+00  0.45593999997E+02  0.45594000000E+02  0.51100000000E-03 0.  1.
         11   -1    0    0    0    0 -0.00000000000E+00 -0.00000000000E+00 -0.45593999997E+02  0.45594000000E+02  0.51100000000E-03 0. -1.
         23    2    1    2    0    0  0.00000000000E+00 -0.13322676296E-14 -0.55511151231E-15  0.91188000000E+02  0.91188000000E+02 0.  0.
    9900012    2    3    3    0    0 -0.36759222865E+02  0.20609891685E+01 -0.53927794962E+00  0.54367096117E+02  0.40000027219E+02 0.  0.
         12    1    3    3    0    0  0.36759222865E+02 -0.20609891685E+01  0.53927794962E+00  0.36820903883E+02  0.00000000000E+00 0. -1.
         11    1    4    4    0    0 -0.16619152103E+02  0.14110415483E+02  0.86985837189E+01  0.23472652187E+02  0.51100000000E-03 0. -1.
        -11    1    4    4    0    0 -0.17595937241E+02 -0.90601240526E+01  0.11145222876E+01  0.19822840751E+02  0.51100000000E-03 0.  1.
        -12    1    4    4    0    0 -0.25441335218E+01 -0.29893022622E+01 -0.10352383956E+02  0.11071603180E+02  0.00000000000E+00 0.  1.
</event>
<event>
 8    1  0.1210161E-006  0.9118800E+02  0.7816164E-02  0.1184000E+00
        -11   -1    0    0    0    0  0.00000000000E+00  0.00000000000E+00  0.45593999997E+02  0.45594000000E+02  0.51100000000E-03 0.  1.
         11   -1    0    0    0    0 -0.00000000000E+00 -0.00000000000E+00 -0.45593999997E+02  0.45594000000E+02  0.51100000000E-03 0. -1.
         23    2    1    2    0    0  0.35527136788E-14  0.00000000000E+00  0.35527136788E-14  0.91188000000E+02  0.91188000000E+02 0.  0.
    9900012    2    3    3    0    0 -0.22525232565E+02  0.60575107775E+01 -0.28490339536E+02  0.54367095804E+02  0.40000026504E+02 0.  0.
        -12    1    3    3    0    0  0.22525232565E+02 -0.60575107775E+01  0.28490339536E+02  0.36820904196E+02  0.00000000000E+00 0.  1.
         11    1    4    4    0    0  0.10821734958E+01  0.45323329390E+01  0.10042987757E+00  0.46608183580E+01  0.51100000000E-03 0. -1.
        -11    1    4    4    0    0 -0.30519594853E+02  0.25359231175E+01 -0.14298798693E+02  0.33798405589E+02  0.51100000000E-03 0.  1.
         12    1    4    4    0    0  0.69121887921E+01 -0.10107452790E+01 -0.14291970721E+02  0.15907871857E+02  0.00000000000E+00 0. -1.
</event>
<event>
 8    1  0.1210161E-006  0.9118800E+02  0.7816164E-02  0.1184000E+00
        -11   -1    0    0    0    0  0.00000000000E+00  0.00000000000E+00  0.45593999997E+02  0.45594000000E+02  0.51100000000E-03 0.  1.
         11   -1    0    0    0    0 -0.00000000000E+00 -0.00000000000E+00 -0.45593999997E+02  0.45594000000E+02  0.51100000000E-03 0. -1.
         23    2    1    2    0    0 -0.12628786905E-14  0.17763568394E-14  0.00000000000E+00  0.91188000000E+02  0.91188000000E+02 0.  0.
    9900012    2    3    3    0    0 -0.20132785026E-01 -0.67815219446E+01 -0.36191032076E+02  0.54367078666E+02  0.39999987434E+02 0.  0.
        -12    1    3    3    0    0  0.20132785026E-01  0.67815219446E+01  0.36191032076E+02  0.36820921334E+02  0.00000000000E+00 0.  1.
         11    1    4    4    0    0 -0.11824007183E+02 -0.83968539122E+01 -0.17630804436E+02  0.22828919528E+02  0.51100000000E-03 0. -1.
        -11    1    4    4    0    0  0.36177641829E+01  0.11291374603E+02 -0.13294029872E+02  0.17813326153E+02  0.51100000000E-03 0.  1.
        -12    1    4    4    0    0  0.81861102153E+01 -0.96760426355E+01 -0.52661977667E+01  0.13724832985E+02  0.00000000000E+00 0.  1.
</event>
<event>
 8    1  0.1210161E-006  0.9118800E+02  0.7816164E-02  0.1184000E+00
        -11   -1    0    0    0    0  0.00000000000E+00  0.00000000000E+00  0.45593999997E+02  0.45594000000E+02  0.51100000000E-03 0.  1.
         11   -1    0    0    0    0 -0.00000000000E+00 -0.00000000000E+00 -0.45593999997E+02  0.45594000000E+02  0.51100000000E-03 0. -1.
         23    2    1    2    0    0  0.88817841970E-15 -0.17763568394E-14  0.71054273576E-14  0.91188000000E+02  0.91188000000E+02 0.  0.
    9900012    2    3    3    0    0  0.50312591932E+01  0.12103983620E+02 -0.34408723378E+02  0.54367078867E+02  0.39999987893E+02 0.  0.
        -12    1    3    3    0    0 -0.50312591932E+01 -0.12103983620E+02  0.34408723378E+02  0.36820921133E+02  0.00000000000E+00 0.  1.
         11    1    4    4    0    0 -0.20553284155E+01  0.13640007641E+02 -0.12360117458E+02  0.18521519570E+02  0.51100000000E-03 0. -1.
        -11    1    4    4    0    0 -0.78897115476E+01  0.72439029286E+01 -0.10471884878E+02  0.14979387541E+02  0.51100000000E-03 0.  1.
        -12    1    4    4    0    0  0.14976299156E+02 -0.87799269496E+01 -0.11576721042E+02  0.20866171756E+02  0.00000000000E+00 0.  1.
</event>
<event>
 8    1  0.1210161E-006  0.9118800E+02  0.7816164E-02  0.1184000E+00
        -11   -1    0    0    0    0  0.00000000000E+00  0.00000000000E+00  0.45593999997E+02  0.45594000000E+02  0.51100000000E-03 0.  1.
         11   -1    0    0    0    0 -0.00000000000E+00 -0.00000000000E+00 -0.45593999997E+02  0.45594000000E+02  0.51100000000E-03 0. -1.
         23    2    1    2    0    0  0.00000000000E+00 -0.35527136788E-14  0.00000000000E+00  0.91188000000E+02  0.91188000000E+02 0.  0.
    9900012    2    3    3    0    0  0.19963084159E+02  0.23065139425E+02  0.20621623548E+02  0.54367126252E+02  0.40000095916E+02 0.  0.
         12    1    3    3    0    0 -0.19963084159E+02 -0.23065139425E+02 -0.20621623548E+02  0.36820873748E+02  0.00000000000E+00 0. -1.
         11    1    4    4    0    0  0.91635504823E+01  0.10805358613E+02 -0.33810107951E+01  0.14565633060E+02  0.51100000000E-03 0. -1.
        -11    1    4    4    0    0  0.10603874432E+02 -0.18794176826E+01  0.23270993226E+02  0.25642025852E+02  0.51100000000E-03 0.  1.
        -12    1    4    4    0    0  0.19565924477E+00  0.14139198495E+02  0.73164111692E+00  0.14159467340E+02  0.00000000000E+00 0.  1.
</event>
<event>
 8    1  0.1210161E-006  0.9118800E+02  0.7816164E-02  0.1184000E+00
        -11   -1    0    0    0    0  0.00000000000E+00  0.00000000000E+00  0.45593999997E+02  0.45594000000E+02  0.51100000000E-03 0.  1.
         11   -1    0    0    0    0 -0.00000000000E+00 -0.00000000000E+00 -0.45593999997E+02  0.45594000000E+02  0.51100000000E-03 0. -1.
         23    2    1    2    0    0  0.00000000000E+00  0.00000000000E+00  0.00000000000E+00  0.91188000000E+02  0.91188000000E+02 0.  0.
    9900012    2    3    3    0    0 -0.48624719866E+01  0.15190030467E+02 -0.33187383877E+02  0.54367039828E+02  0.39999898895E+02 0.  0.
        -12    1    3    3    0    0  0.48624719866E+01 -0.15190030467E+02  0.33187383877E+02  0.36820960172E+02  0.00000000000E+00 0.  1.
         11    1    4    4    0    0  0.37967546356E+01  0.99144616760E+01 -0.27061454406E+02  0.29069472148E+02  0.51100000000E-03 0. -1.
        -11    1    4    4    0    0 -0.32808266645E+01  0.75341218570E+01  0.70888250093E+01  0.10852569098E+02  0.51100000000E-03 0.  1.
        -12    1    4    4    0    0 -0.53783999577E+01 -0.22585530660E+01 -0.13214754480E+02  0.14444998582E+02  0.00000000000E+00 0.  1.
</event>
<event>
 8    1  0.1210161E-006  0.9118800E+02  0.7816164E-02  0.1184000E+00
        -11   -1    0    0    0    0  0.00000000000E+00  0.00000000000E+00  0.45593999997E+02  0.45594000000E+02  0.51100000000E-03 0. -1.
         11   -1    0    0    0    0 -0.00000000000E+00 -0.00000000000E+00 -0.45593999997E+02  0.45594000000E+02  0.51100000000E-03 0.  1.
         23    2    1    2    0    0  0.00000000000E+00 -0.35527136788E-14 -0.35527136788E-14  0.91188000000E+02  0.91188000000E+02 0.  0.
    9900012    2    3    3    0    0  0.30060980449E+01 -0.27785970605E+02 -0.23972563161E+02  0.54367074259E+02  0.39999977389E+02 0.  0.
         12    1    3    3    0    0 -0.30060980449E+01  0.27785970605E+02  0.23972563161E+02  0.36820925741E+02  0.00000000000E+00 0. -1.
         11    1    4    4    0    0  0.53640553014E+01  0.79040429220E+00  0.90793632204E+00  0.54974700406E+01  0.51100000000E-03 0. -1.
        -11    1    4    4    0    0  0.42572407858E+00 -0.14822543860E+02 -0.30373600162E+02  0.33800068558E+02  0.51100000000E-03 0.  1.
         12    1    4    4    0    0 -0.27836813350E+01 -0.13753831036E+02  0.54931006787E+01  0.15069535660E+02  0.00000000000E+00 0. -1.
</event>
<event>
 8    1  0.1210161E-006  0.9118800E+02  0.7816164E-02  0.1184000E+00
        -11   -1    0    0    0    0  0.00000000000E+00  0.00000000000E+00  0.45593999997E+02  0.45594000000E+02  0.51100000000E-03 0. -1.
         11   -1    0    0    0    0 -0.00000000000E+00 -0.00000000000E+00 -0.45593999997E+02  0.45594000000E+02  0.51100000000E-03 0.  1.
         23    2    1    2    0    0 -0.10547118734E-14 -0.35527136788E-14  0.35527136788E-14  0.91188000000E+02  0.91188000000E+02 0.  0.
    9900012    2    3    3    0    0 -0.43385544982E+00  0.19964536289E+02 -0.30935544099E+02  0.54367097940E+02  0.40000031374E+02 0.  0.
         12    1    3    3    0    0  0.43385544982E+00 -0.19964536289E+02  0.30935544099E+02  0.36820902060E+02  0.00000000000E+00 0. -1.
         11    1    4    4    0    0  0.66790921369E+01  0.80286157550E+01 -0.17802697480E+01  0.10594258037E+02  0.51100000000E-03 0. -1.
        -11    1    4    4    0    0  0.10229264508E+02 -0.13026491113E+01 -0.58794757975E+01  0.11870256232E+02  0.51100000000E-03 0.  1.
         12    1    4    4    0    0 -0.17342212095E+02  0.13238569645E+02 -0.23275798554E+02  0.31902583672E+02  0.00000000000E+00 0. -1.
</event>
<event>
 8    1  0.1210161E-006  0.9118800E+02  0.7816164E-02  0.1184000E+00
        -11   -1    0    0    0    0  0.00000000000E+00  0.00000000000E+00  0.45593999997E+02  0.45594000000E+02  0.51100000000E-03 0. -1.
         11   -1    0    0    0    0 -0.00000000000E+00 -0.00000000000E+00 -0.45593999997E+02  0.45594000000E+02  0.51100000000E-03 0.  1.
         23    2    1    2    0    0  0.44408920985E-15  0.00000000000E+00 -0.71054273576E-14  0.91188000000E+02  0.91188000000E+02 0.  0.
    9900012    2    3    3    0    0  0.17298849561E+01  0.12143312953E+02 -0.34717793287E+02  0.54367112963E+02  0.40000065623E+02 0.  0.
         12    1    3    3    0    0 -0.17298849561E+01 -0.12143312953E+02  0.34717793287E+02  0.36820887037E+02  0.00000000000E+00 0. -1.
         11    1    4    4    0    0  0.26740422616E+01  0.78435657955E+01 -0.61236363654E+01  0.10303928814E+02  0.51100000000E-03 0. -1.
        -11    1    4    4    0    0 -0.13354066534E+02  0.12000354083E+02 -0.20909502474E+02  0.27559878176E+02  0.51100000000E-03 0.  1.
        -12    1    4    4    0    0  0.12409909229E+02 -0.77006069248E+01 -0.76846544480E+01  0.16503305974E+02  0.00000000000E+00 0.  1.
</event>
<event>
 8    1  0.1210161E-006  0.9118800E+02  0.7816164E-02  0.1184000E+00
        -11   -1    0    0    0    0  0.00000000000E+00  0.00000000000E+00  0.45593999997E+02  0.45594000000E+02  0.51100000000E-03 0.  1.
         11   -1    0    0    0    0 -0.00000000000E+00 -0.00000000000E+00 -0.45593999997E+02  0.45594000000E+02  0.51100000000E-03 0. -1.
         23    2    1    2    0    0  0.00000000000E+00  0.00000000000E+00  0.00000000000E+00  0.91188000000E+02  0.91188000000E+02 0.  0.
    9900012    2    3    3    0    0 -0.35292472683E+02  0.61709042291E+01 -0.84935985495E+01  0.54367083343E+02  0.39999998098E+02 0.  0.
        -12    1    3    3    0    0  0.35292472683E+02 -0.61709042291E+01  0.84935985495E+01  0.36820916657E+02  0.00000000000E+00 0.  1.
         11    1    4    4    0    0 -0.28296239840E+02  0.73009151208E+00 -0.43743520889E+01  0.28641668582E+02  0.51100000000E-03 0. -1.
        -11    1    4    4    0    0 -0.85816794408E+01  0.17499460624E+01  0.86677920439E+01  0.12322262472E+02  0.51100000000E-03 0.  1.
         12    1    4    4    0    0  0.15854465976E+01  0.36908666546E+01 -0.12787038505E+02  0.13403152289E+02  0.00000000000E+00 0. -1.
</event>
<event>
 8    1  0.1210161E-006  0.9118800E+02  0.7816164E-02  0.1184000E+00
        -11   -1    0    0    0    0  0.00000000000E+00  0.00000000000E+00  0.45593999997E+02  0.45594000000E+02  0.51100000000E-03 0. -1.
         11   -1    0    0    0    0 -0.00000000000E+00 -0.00000000000E+00 -0.45593999997E+02  0.45594000000E+02  0.51100000000E-03 0.  1.
         23    2    1    2    0    0  0.00000000000E+00  0.00000000000E+00  0.00000000000E+00  0.91188000000E+02  0.91188000000E+02 0.  0.
    9900012    2    3    3    0    0  0.79654986161E+01 -0.46291244083E+01  0.35649713548E+02  0.54367081529E+02  0.39999993961E+02 0.  0.
        -12    1    3    3    0    0 -0.79654986161E+01  0.46291244083E+01 -0.35649713548E+02  0.36820918471E+02  0.00000000000E+00 0.  1.
         11    1    4    4    0    0 -0.24722911643E+01 -0.13670718729E+02  0.14417966464E+02  0.20021951238E+02  0.51100000000E-03 0. -1.
        -11    1    4    4    0    0  0.12731066665E+02  0.75565710790E+00  0.15246256001E+01  0.12844281201E+02  0.51100000000E-03 0.  1.
        -12    1    4    4    0    0 -0.22932768847E+01  0.82859372125E+01  0.19707121484E+02  0.21500849089E+02  0.00000000000E+00 0.  1.
</event>
<event>
 8    1  0.1210161E-006  0.9118800E+02  0.7816164E-02  0.1184000E+00
        -11   -1    0    0    0    0  0.00000000000E+00  0.00000000000E+00  0.45593999997E+02  0.45594000000E+02  0.51100000000E-03 0.  1.
         11   -1    0    0    0    0 -0.00000000000E+00 -0.00000000000E+00 -0.45593999997E+02  0.45594000000E+02  0.51100000000E-03 0. -1.
         23    2    1    2    0    0 -0.35527136788E-14 -0.44408920985E-15  0.00000000000E+00  0.91188000000E+02  0.91188000000E+02 0.  0.
    9900012    2    3    3    0    0 -0.31893814470E+02 -0.35429708860E+01 -0.18055751137E+02  0.54367106566E+02  0.40000051039E+02 0.  0.
        -12    1    3    3    0    0  0.31893814470E+02  0.35429708860E+01  0.18055751137E+02  0.36820893434E+02  0.00000000000E+00 0.  1.
         11    1    4    4    0    0  0.13713094707E+01  0.23703866172E-01 -0.78785888718E+01  0.79970753660E+01  0.51100000000E-03 0. -1.
        -11    1    4    4    0    0  0.22498203866E+01 -0.58383289867E+01 -0.87461634666E+01  0.10753750638E+02  0.51100000000E-03 0.  1.
         12    1    4    4    0    0 -0.35514944327E+02  0.22716542346E+01 -0.14309987984E+01  0.35616280563E+02  0.00000000000E+00 0. -1.
</event>
<event>
 8    1  0.1210161E-006  0.9118800E+02  0.7816164E-02  0.1184000E+00
        -11   -1    0    0    0    0  0.00000000000E+00  0.00000000000E+00  0.45593999997E+02  0.45594000000E+02  0.51100000000E-03 0. -1.
         11   -1    0    0    0    0 -0.00000000000E+00 -0.00000000000E+00 -0.45593999997E+02  0.45594000000E+02  0.51100000000E-03 0.  1.
         23    2    1    2    0    0 -0.44408920985E-15  0.00000000000E+00  0.71054273576E-14  0.91188000000E+02  0.91188000000E+02 0.  0.
    9900012    2    3    3    0    0 -0.39716363654E+01 -0.14566172622E+02 -0.33583226301E+02  0.54367077021E+02  0.39999983684E+02 0.  0.
         12    1    3    3    0    0  0.39716363654E+01  0.14566172622E+02  0.33583226301E+02  0.36820922979E+02  0.00000000000E+00 0. -1.
         11    1    4    4    0    0  0.23307228365E+01  0.47708569002E+01 -0.66282344948E+01  0.84927520440E+01  0.51100000000E-03 0. -1.
        -11    1    4    4    0    0  0.11657823981E+01 -0.20522141951E+02 -0.31078786315E+02  0.37261351531E+02  0.51100000000E-03 0.  1.
         12    1    4    4    0    0 -0.74681415999E+01  0.11851124287E+01  0.41237945089E+01  0.86129734458E+01  0.00000000000E+00 0. -1.
</event>
<event>
 8    1  0.1210161E-006  0.9118800E+02  0.7816164E-02  0.1184000E+00
        -11   -1    0    0    0    0  0.00000000000E+00  0.00000000000E+00  0.45593999997E+02  0.45594000000E+02  0.51100000000E-03 0.  1.
         11   -1    0    0    0    0 -0.00000000000E+00 -0.00000000000E+00 -0.45593999997E+02  0.45594000000E+02  0.51100000000E-03 0. -1.
         23    2    1    2    0    0  0.00000000000E+00  0.00000000000E+00  0.00000000000E+00  0.91188000000E+02  0.91188000000E+02 0.  0.
    9900012    2    3    3    0    0 -0.28558539235E+02  0.22180949723E+02  0.69422809162E+01  0.54367082600E+02  0.39999996403E+02 0.  0.
         12    1    3    3    0    0  0.28558539235E+02 -0.22180949723E+02 -0.69422809162E+01  0.36820917400E+02  0.00000000000E+00 0. -1.
         11    1    4    4    0    0 -0.16696234955E+02  0.29930146973E+01  0.17761659284E+01  0.17055121351E+02  0.51100000000E-03 0. -1.
        -11    1    4    4    0    0 -0.20891911629E+02  0.75677343038E+01  0.25666574322E+01  0.22368064392E+02  0.51100000000E-03 0.  1.
         12    1    4    4    0    0  0.90296073484E+01  0.11620200722E+02  0.25994575555E+01  0.14943896857E+02  0.00000000000E+00 0. -1.
</event>
<event>
 8    1  0.1210161E-006  0.9118800E+02  0.7816164E-02  0.1184000E+00
        -11   -1    0    0    0    0  0.00000000000E+00  0.00000000000E+00  0.45593999997E+02  0.45594000000E+02  0.51100000000E-03 0.  1.
         11   -1    0    0    0    0 -0.00000000000E+00 -0.00000000000E+00 -0.45593999997E+02  0.45594000000E+02  0.51100000000E-03 0. -1.
         23    2    1    2    0    0 -0.44408920985E-15  0.00000000000E+00  0.71054273576E-14  0.91188000000E+02  0.91188000000E+02 0.  0.
    9900012    2    3    3    0    0 -0.31839728401E+01 -0.94425874419E+01  0.35446849332E+02  0.54367091969E+02  0.40000017763E+02 0.  0.
         12    1    3    3    0    0  0.31839728401E+01  0.94425874419E+01 -0.35446849332E+02  0.36820908031E+02  0.00000000000E+00 0. -1.
         11    1    4    4    0    0 -0.12559295304E+02 -0.56841900044E+01  0.15083878647E+02  0.20434512714E+02  0.51100000000E-03 0. -1.
        -11    1    4    4    0    0 -0.70480266467E+01  0.48920603814E+01  0.66191818678E+01  0.10836074162E+02  0.51100000000E-03 0.  1.
         12    1    4    4    0    0  0.16423349111E+02 -0.86504578188E+01  0.13743788817E+02  0.23096505093E+02  0.00000000000E+00 0. -1.
</event>
<event>
 8    1  0.1210161E-006  0.9118800E+02  0.7816164E-02  0.1184000E+00
        -11   -1    0    0    0    0  0.00000000000E+00  0.00000000000E+00  0.45593999997E+02  0.45594000000E+02  0.51100000000E-03 0.  1.
         11   -1    0    0    0    0 -0.00000000000E+00 -0.00000000000E+00 -0.45593999997E+02  0.45594000000E+02  0.51100000000E-03 0. -1.
         23    2    1    2    0    0  0.00000000000E+00 -0.17763568394E-14  0.00000000000E+00  0.91188000000E+02  0.91188000000E+02 0.  0.
    9900012    2    3    3    0    0  0.29057354224E+02 -0.11565494683E+02  0.19434243897E+02  0.54367077448E+02  0.39999984657E+02 0.  0.
         12    1    3    3    0    0 -0.29057354224E+02  0.11565494683E+02 -0.19434243897E+02  0.36820922552E+02  0.00000000000E+00 0. -1.
         11    1    4    4    0    0  0.12956399412E+02 -0.16790188085E+02  0.74248330884E+01  0.22470132360E+02  0.51100000000E-03 0. -1.
        -11    1    4    4    0    0  0.14116365486E+02 -0.77854254959E+01  0.44676297654E+01  0.16728548672E+02  0.51100000000E-03 0.  1.
         12    1    4    4    0    0  0.19845893256E+01  0.13010118897E+02  0.75417810436E+01  0.15168396415E+02  0.00000000000E+00 0. -1.
</event>
<event>
 8    1  0.1210161E-006  0.9118800E+02  0.7816164E-02  0.1184000E+00
        -11   -1    0    0    0    0  0.00000000000E+00  0.00000000000E+00  0.45593999997E+02  0.45594000000E+02  0.51100000000E-03 0.  1.
         11   -1    0    0    0    0 -0.00000000000E+00 -0.00000000000E+00 -0.45593999997E+02  0.45594000000E+02  0.51100000000E-03 0. -1.
         23    2    1    2    0    0 -0.35527136788E-14  0.00000000000E+00  0.00000000000E+00  0.91188000000E+02  0.91188000000E+02 0.  0.
    9900012    2    3    3    0    0  0.24949587027E+02  0.18175582158E+02  0.20073530889E+02  0.54367077660E+02  0.39999985142E+02 0.  0.
         12    1    3    3    0    0 -0.24949587027E+02 -0.18175582158E+02 -0.20073530889E+02  0.36820922340E+02  0.00000000000E+00 0. -1.
         11    1    4    4    0    0 -0.80891744420E+01  0.46788927139E+01 -0.50027867372E+01  0.10599747902E+02  0.51100000000E-03 0. -1.
        -11    1    4    4    0    0  0.36060474025E+01  0.10033006207E+01  0.39618392532E+01  0.54503541659E+01  0.51100000000E-03 0.  1.
         12    1    4    4    0    0  0.29432714066E+02  0.12493388824E+02  0.21114478373E+02  0.38316975593E+02  0.00000000000E+00 0. -1.
</event>
<event>
 8    1  0.1210161E-006  0.9118800E+02  0.7816164E-02  0.1184000E+00
        -11   -1    0    0    0    0  0.00000000000E+00  0.00000000000E+00  0.45593999997E+02  0.45594000000E+02  0.51100000000E-03 0.  1.
         11   -1    0    0    0    0 -0.00000000000E+00 -0.00000000000E+00 -0.45593999997E+02  0.45594000000E+02  0.51100000000E-03 0. -1.
         23    2    1    2    0    0  0.00000000000E+00  0.00000000000E+00  0.00000000000E+00  0.91188000000E+02  0.91188000000E+02 0.  0.
    9900012    2    3    3    0    0  0.21157442709E+02 -0.28636890954E+02  0.93846369356E+01  0.54367077742E+02  0.39999985329E+02 0.  0.
         12    1    3    3    0    0 -0.21157442709E+02  0.28636890954E+02 -0.93846369356E+01  0.36820922258E+02  0.00000000000E+00 0. -1.
         11    1    4    4    0    0  0.88991384165E+01 -0.86630883902E+01  0.19609258412E+02  0.23211350256E+02  0.51100000000E-03 0.  1.
        -11    1    4    4    0    0  0.74645507663E+01  0.13280546037E+01 -0.30555355527E+01  0.81743222929E+01  0.51100000000E-03 0. -1.
        -12    1    4    4    0    0  0.47937535257E+01 -0.21301857168E+02 -0.71690859232E+01  0.22981405193E+02  0.00000000000E+00 0.  1.
</event>
<event>
 8    1  0.1210161E-006  0.9118800E+02  0.7816164E-02  0.1184000E+00
        -11   -1    0    0    0    0  0.00000000000E+00  0.00000000000E+00  0.45593999997E+02  0.45594000000E+02  0.51100000000E-03 0.  1.
         11   -1    0    0    0    0 -0.00000000000E+00 -0.00000000000E+00 -0.45593999997E+02  0.45594000000E+02  0.51100000000E-03 0. -1.
         23    2    1    2    0    0  0.53290705182E-14  0.35527136788E-14  0.00000000000E+00  0.91188000000E+02  0.91188000000E+02 0.  0.
    9900012    2    3    3    0    0 -0.62709900212E+01 -0.25327757627E+02 -0.25979982915E+02  0.54367080206E+02  0.39999990945E+02 0.  0.
        -12    1    3    3    0    0  0.62709900212E+01  0.25327757627E+02  0.25979982915E+02  0.36820919794E+02  0.00000000000E+00 0.  1.
         11    1    4    4    0    0 -0.10869309809E+02 -0.81464016299E+01 -0.99305434961E+01  0.16826213169E+02  0.51100000000E-03 0. -1.
        -11    1    4    4    0    0  0.10139567129E+02 -0.34444885225E+01 -0.19576805556E+02  0.22314269847E+02  0.51100000000E-03 0.  1.
        -12    1    4    4    0    0 -0.55412473417E+01 -0.13736867475E+02  0.35273661375E+01  0.15226597190E+02  0.00000000000E+00 0.  1.
</event>
<event>
 8    1  0.1210161E-006  0.9118800E+02  0.7816164E-02  0.1184000E+00
        -11   -1    0    0    0    0  0.00000000000E+00  0.00000000000E+00  0.45593999997E+02  0.45594000000E+02  0.51100000000E-03 0.  1.
         11   -1    0    0    0    0 -0.00000000000E+00 -0.00000000000E+00 -0.45593999997E+02  0.45594000000E+02  0.51100000000E-03 0. -1.
         23    2    1    2    0    0  0.00000000000E+00  0.00000000000E+00  0.00000000000E+00  0.91188000000E+02  0.91188000000E+02 0.  0.
    9900012    2    3    3    0    0  0.61588890459E+01 -0.31688732785E+02 -0.17710792481E+02  0.54367083796E+02  0.39999999130E+02 0.  0.
        -12    1    3    3    0    0 -0.61588890459E+01  0.31688732785E+02  0.17710792481E+02  0.36820916204E+02  0.00000000000E+00 0.  1.
         11    1    4    4    0    0  0.53326849072E+01 -0.42710394564E+01 -0.88541371057E+01  0.11183695745E+02  0.51100000000E-03 0. -1.
        -11    1    4    4    0    0 -0.61763169770E+01  0.48194209758E+01 -0.63769267069E+01  0.10101430811E+02  0.51100000000E-03 0.  1.
        -12    1    4    4    0    0  0.70025211156E+01 -0.32237114304E+02 -0.24797286684E+01  0.33081957241E+02  0.00000000000E+00 0.  1.
</event>
<event>
 8    1  0.1210161E-006  0.9118800E+02  0.7816164E-02  0.1184000E+00
        -11   -1    0    0    0    0  0.00000000000E+00  0.00000000000E+00  0.45593999997E+02  0.45594000000E+02  0.51100000000E-03 0.  1.
         11   -1    0    0    0    0 -0.00000000000E+00 -0.00000000000E+00 -0.45593999997E+02  0.45594000000E+02  0.51100000000E-03 0. -1.
         23    2    1    2    0    0  0.00000000000E+00  0.00000000000E+00  0.17763568394E-14  0.91188000000E+02  0.91188000000E+02 0.  0.
    9900012    2    3    3    0    0  0.30408008625E+02  0.16832540378E+02 -0.12157338788E+02  0.54367050928E+02  0.39999924201E+02 0.  0.
        -12    1    3    3    0    0 -0.30408008625E+02 -0.16832540378E+02  0.12157338788E+02  0.36820949072E+02  0.00000000000E+00 0.  1.
         11    1    4    4    0    0  0.11562316788E+02  0.46244214757E+01 -0.21985938828E+02  0.25267646307E+02  0.51100000000E-03 0. -1.
        -11    1    4    4    0    0  0.65356621369E+01  0.79170144200E+01 -0.31152440655E+01  0.10728408211E+02  0.51100000000E-03 0.  1.
        -12    1    4    4    0    0  0.12310029700E+02  0.42911044824E+01  0.12943844105E+02  0.18370996410E+02  0.00000000000E+00 0.  1.
</event>
<event>
 8    1  0.1210161E-006  0.9118800E+02  0.7816164E-02  0.1184000E+00
        -11   -1    0    0    0    0  0.00000000000E+00  0.00000000000E+00  0.45593999997E+02  0.45594000000E+02  0.51100000000E-03 0. -1.
         11   -1    0    0    0    0 -0.00000000000E+00 -0.00000000000E+00 -0.45593999997E+02  0.45594000000E+02  0.51100000000E-03 0.  1.
         23    2    1    2    0    0 -0.35527136788E-14  0.17763568394E-14  0.00000000000E+00  0.91188000000E+02  0.91188000000E+02 0.  0.
    9900012    2    3    3    0    0  0.29254948801E+02 -0.92697292589E+01  0.20346899498E+02  0.54367133239E+02  0.40000111844E+02 0.  0.
        -12    1    3    3    0    0 -0.29254948801E+02  0.92697292589E+01 -0.20346899498E+02  0.36820866761E+02  0.00000000000E+00 0.  1.
         11    1    4    4    0    0  0.16178413441E+02 -0.32825740342E+01 -0.25944559824E+01  0.16710701836E+02  0.51100000000E-03 0. -1.
        -11    1    4    4    0    0  0.95153945939E+01  0.65091205343E+01  0.27763971209E+00  0.11532062629E+02  0.51100000000E-03 0.  1.
        -12    1    4    4    0    0  0.35611407666E+01 -0.12496275759E+02  0.22663715768E+02  0.26124368773E+02  0.00000000000E+00 0.  1.
</event>
<event>
 8    1  0.1210161E-006  0.9118800E+02  0.7816164E-02  0.1184000E+00
        -11   -1    0    0    0    0  0.00000000000E+00  0.00000000000E+00  0.45593999997E+02  0.45594000000E+02  0.51100000000E-03 0. -1.
         11   -1    0    0    0    0 -0.00000000000E+00 -0.00000000000E+00 -0.45593999997E+02  0.45594000000E+02  0.51100000000E-03 0.  1.
         23    2    1    2    0    0  0.00000000000E+00  0.00000000000E+00 -0.35527136788E-14  0.91188000000E+02  0.91188000000E+02 0.  0.
    9900012    2    3    3    0    0  0.77344794935E+01 -0.20977417084E+02  0.29255871428E+02  0.54367079132E+02  0.39999988496E+02 0.  0.
        -12    1    3    3    0    0 -0.77344794935E+01  0.20977417084E+02 -0.29255871428E+02  0.36820920868E+02  0.00000000000E+00 0.  1.
         11    1    4    4    0    0  0.65870939426E+01 -0.10754312458E+02  0.12455596966E+02  0.17725319153E+02  0.51100000000E-03 0. -1.
        -11    1    4    4    0    0  0.41916145157E+01 -0.20065455594E+02  0.52415607901E+01  0.21158121378E+02  0.51100000000E-03 0.  1.
         12    1    4    4    0    0 -0.30442289648E+01  0.98423509675E+01  0.11558713673E+02  0.15483638601E+02  0.00000000000E+00 0. -1.
</event>
<event>
 8    1  0.1210161E-006  0.9118800E+02  0.7816164E-02  0.1184000E+00
        -11   -1    0    0    0    0  0.00000000000E+00  0.00000000000E+00  0.45593999997E+02  0.45594000000E+02  0.51100000000E-03 0.  1.
         11   -1    0    0    0    0 -0.00000000000E+00 -0.00000000000E+00 -0.45593999997E+02  0.45594000000E+02  0.51100000000E-03 0. -1.
         23    2    1    2    0    0  0.00000000000E+00  0.00000000000E+00  0.00000000000E+00  0.91188000000E+02  0.91188000000E+02 0.  0.
    9900012    2    3    3    0    0 -0.80794009874E+01 -0.94342459231E+01  0.34662633889E+02  0.54367083328E+02  0.39999998062E+02 0.  0.
         12    1    3    3    0    0  0.80794009874E+01  0.94342459231E+01 -0.34662633889E+02  0.36820916672E+02  0.00000000000E+00 0. -1.
         11    1    4    4    0    0  0.70702146932E+01 -0.16723019734E+02  0.20167293893E+02  0.27136084243E+02  0.51100000000E-03 0. -1.
        -11    1    4    4    0    0 -0.12457395423E+01 -0.27750965753E+01  0.85362954905E+01  0.90620841407E+01  0.51100000000E-03 0.  1.
         12    1    4    4    0    0 -0.13903876138E+02  0.10063870386E+02  0.59590445061E+01  0.18168914944E+02  0.00000000000E+00 0. -1.
</event>
<event>
 8    1  0.1210161E-006  0.9118800E+02  0.7816164E-02  0.1184000E+00
        -11   -1    0    0    0    0  0.00000000000E+00  0.00000000000E+00  0.45593999997E+02  0.45594000000E+02  0.51100000000E-03 0.  1.
         11   -1    0    0    0    0 -0.00000000000E+00 -0.00000000000E+00 -0.45593999997E+02  0.45594000000E+02  0.51100000000E-03 0. -1.
         23    2    1    2    0    0  0.00000000000E+00  0.00000000000E+00  0.00000000000E+00  0.91188000000E+02  0.91188000000E+02 0.  0.
    9900012    2    3    3    0    0 -0.34901320470E+02 -0.11185123611E+02  0.35457047996E+01  0.54367065964E+02  0.39999958479E+02 0.  0.
        -12    1    3    3    0    0  0.34901320470E+02  0.11185123611E+02 -0.35457047996E+01  0.36820934036E+02  0.00000000000E+00 0.  1.
         11    1    4    4    0    0  0.11141275665E+01 -0.15558430414E+02 -0.23868170061E+01  0.15779826769E+02  0.51100000000E-03 0. -1.
        -11    1    4    4    0    0 -0.18783153417E+02  0.60633953294E+01 -0.13924211893E+01  0.19786623063E+02  0.51100000000E-03 0.  1.
        -12    1    4    4    0    0 -0.17232294620E+02 -0.16900885270E+01  0.73249429950E+01  0.18800616133E+02  0.00000000000E+00 0.  1.
</event>
<event>
 8    1  0.1210161E-006  0.9118800E+02  0.7816164E-02  0.1184000E+00
        -11   -1    0    0    0    0  0.00000000000E+00  0.00000000000E+00  0.45593999997E+02  0.45594000000E+02  0.51100000000E-03 0.  1.
         11   -1    0    0    0    0 -0.00000000000E+00 -0.00000000000E+00 -0.45593999997E+02  0.45594000000E+02  0.51100000000E-03 0. -1.
         23    2    1    2    0    0  0.35527136788E-14  0.00000000000E+00  0.17763568394E-14  0.91188000000E+02  0.91188000000E+02 0.  0.
    9900012    2    3    3    0    0 -0.30920652535E+02  0.16316153565E+02 -0.11553182315E+02  0.54367086894E+02  0.40000006191E+02 0.  0.
        -12    1    3    3    0    0  0.30920652535E+02 -0.16316153565E+02  0.11553182315E+02  0.36820913106E+02  0.00000000000E+00 0.  1.
         11    1    4    4    0    0 -0.10312741266E+02  0.77603201211E+01  0.12790578504E+02  0.18170693425E+02  0.51100000000E-03 0. -1.
        -11    1    4    4    0    0 -0.60832164117E+00  0.34652719232E+01 -0.11174423393E+02  0.11715199664E+02  0.51100000000E-03 0.  1.
         12    1    4    4    0    0 -0.19999589628E+02  0.50905615212E+01 -0.13169337426E+02  0.24481193805E+02  0.00000000000E+00 0. -1.
</event>
<event>
 8    1  0.1210161E-006  0.9118800E+02  0.7816164E-02  0.1184000E+00
        -11   -1    0    0    0    0  0.00000000000E+00  0.00000000000E+00  0.45593999997E+02  0.45594000000E+02  0.51100000000E-03 0. -1.
         11   -1    0    0    0    0 -0.00000000000E+00 -0.00000000000E+00 -0.45593999997E+02  0.45594000000E+02  0.51100000000E-03 0.  1.
         23    2    1    2    0    0  0.71054273576E-14  0.35527136788E-14  0.35527136788E-14  0.91188000000E+02  0.91188000000E+02 0.  0.
    9900012    2    3    3    0    0  0.23401867269E+02  0.20179432292E+02  0.20023062250E+02  0.54367083374E+02  0.39999998167E+02 0.  0.
        -12    1    3    3    0    0 -0.23401867269E+02 -0.20179432292E+02 -0.20023062250E+02  0.36820916626E+02  0.00000000000E+00 0.  1.
         11    1    4    4    0    0 -0.48017946034E+01  0.12841440161E+02  0.21474151583E+01  0.13877002880E+02  0.51100000000E-03 0. -1.
        -11    1    4    4    0    0  0.10613385202E+02  0.32390776850E+01 -0.42904134995E+01  0.11897193701E+02  0.51100000000E-03 0.  1.
         12    1    4    4    0    0  0.17590276670E+02  0.40989144464E+01  0.22166060592E+02  0.28592886792E+02  0.00000000000E+00 0. -1.
</event>
<event>
 8    1  0.1210161E-006  0.9118800E+02  0.7816164E-02  0.1184000E+00
        -11   -1    0    0    0    0  0.00000000000E+00  0.00000000000E+00  0.45593999997E+02  0.45594000000E+02  0.51100000000E-03 0.  1.
         11   -1    0    0    0    0 -0.00000000000E+00 -0.00000000000E+00 -0.45593999997E+02  0.45594000000E+02  0.51100000000E-03 0. -1.
         23    2    1    2    0    0  0.35527136788E-14  0.88817841970E-15  0.00000000000E+00  0.91188000000E+02  0.91188000000E+02 0.  0.
    9900012    2    3    3    0    0  0.28464346847E+02 -0.25774679056E+01 -0.23214554332E+02  0.54367110343E+02  0.40000059650E+02 0.  0.
         12    1    3    3    0    0 -0.28464346847E+02  0.25774679056E+01  0.23214554332E+02  0.36820889657E+02  0.00000000000E+00 0. -1.
         11    1    4    4    0    0  0.59749463902E+01  0.67534815236E+01  0.41500607925E+01  0.99263539075E+01  0.51100000000E-03 0. -1.
        -11    1    4    4    0    0  0.24013435173E+02  0.11803473301E+01 -0.15967166819E+02  0.28861543707E+02  0.51100000000E-03 0.  1.
         12    1    4    4    0    0 -0.15240347162E+01 -0.10511296759E+02 -0.11397448306E+02  0.15579212729E+02  0.00000000000E+00 0. -1.
</event>
<event>
 8    1  0.1210161E-006  0.9118800E+02  0.7816164E-02  0.1184000E+00
        -11   -1    0    0    0    0  0.00000000000E+00  0.00000000000E+00  0.45593999997E+02  0.45594000000E+02  0.51100000000E-03 0. -1.
         11   -1    0    0    0    0 -0.00000000000E+00 -0.00000000000E+00 -0.45593999997E+02  0.45594000000E+02  0.51100000000E-03 0.  1.
         23    2    1    2    0    0  0.00000000000E+00 -0.35527136788E-14  0.00000000000E+00  0.91188000000E+02  0.91188000000E+02 0.  0.
    9900012    2    3    3    0    0  0.63391380359E+01  0.27963282740E+02 -0.23100851323E+02  0.54367093106E+02  0.40000020354E+02 0.  0.
        -12    1    3    3    0    0 -0.63391380359E+01 -0.27963282740E+02  0.23100851323E+02  0.36820906894E+02  0.00000000000E+00 0.  1.
         11    1    4    4    0    0  0.52312794313E+01  0.17433797935E+02 -0.81812397808E+01  0.19955858276E+02  0.51100000000E-03 0. -1.
        -11    1    4    4    0    0 -0.79777551938E+01  0.17640080856E+02 -0.10743771763E+02  0.22141491876E+02  0.51100000000E-03 0.  1.
        -12    1    4    4    0    0  0.90856137984E+01 -0.71105960511E+01 -0.41758397789E+01  0.12269742954E+02  0.00000000000E+00 0.  1.
</event>
<event>
 8    1  0.1210161E-006  0.9118800E+02  0.7816164E-02  0.1184000E+00
        -11   -1    0    0    0    0  0.00000000000E+00  0.00000000000E+00  0.45593999997E+02  0.45594000000E+02  0.51100000000E-03 0. -1.
         11   -1    0    0    0    0 -0.00000000000E+00 -0.00000000000E+00 -0.45593999997E+02  0.45594000000E+02  0.51100000000E-03 0.  1.
         23    2    1    2    0    0 -0.71054273576E-14  0.00000000000E+00 -0.88817841970E-15  0.91188000000E+02  0.91188000000E+02 0.  0.
    9900012    2    3    3    0    0  0.34858822511E+02 -0.10974511017E+02  0.44946469141E+01  0.54367092219E+02  0.40000018331E+02 0.  0.
        -12    1    3    3    0    0 -0.34858822511E+02  0.10974511017E+02 -0.44946469141E+01  0.36820907781E+02  0.00000000000E+00 0.  1.
         11    1    4    4    0    0  0.77842960630E+01 -0.11131924931E+02  0.95382237453E+01  0.16597973682E+02  0.51100000000E-03 0. -1.
        -11    1    4    4    0    0  0.14949631049E+02  0.12146441456E+02 -0.72380535943E+01  0.20577097187E+02  0.51100000000E-03 0.  1.
         12    1    4    4    0    0  0.12124895399E+02 -0.11989027542E+02  0.21944767631E+01  0.17192021350E+02  0.00000000000E+00 0. -1.
</event>
<event>
 8    1  0.1210161E-006  0.9118800E+02  0.7816164E-02  0.1184000E+00
        -11   -1    0    0    0    0  0.00000000000E+00  0.00000000000E+00  0.45593999997E+02  0.45594000000E+02  0.51100000000E-03 0. -1.
         11   -1    0    0    0    0 -0.00000000000E+00 -0.00000000000E+00 -0.45593999997E+02  0.45594000000E+02  0.51100000000E-03 0.  1.
         23    2    1    2    0    0  0.88817841970E-15  0.00000000000E+00  0.00000000000E+00  0.91188000000E+02  0.91188000000E+02 0.  0.
    9900012    2    3    3    0    0 -0.77054015502E+01 -0.30461388740E+02 -0.19196642345E+02  0.54367075319E+02  0.39999979804E+02 0.  0.
         12    1    3    3    0    0  0.77054015502E+01  0.30461388740E+02  0.19196642345E+02  0.36820924681E+02  0.00000000000E+00 0. -1.
         11    1    4    4    0    0  0.55246019930E+01 -0.21126459217E+02 -0.26271165426E+01  0.21994323081E+02  0.51100000000E-03 0. -1.
        -11    1    4    4    0    0 -0.12550776960E+02  0.34581389892E+01 -0.23421945711E+01  0.13227494216E+02  0.51100000000E-03 0.  1.
        -12    1    4    4    0    0 -0.67922658295E+00 -0.12793068513E+02 -0.14227331232E+02  0.19145258021E+02  0.00000000000E+00 0.  1.
</event>
<event>
 8    1  0.1210161E-006  0.9118800E+02  0.7816164E-02  0.1184000E+00
        -11   -1    0    0    0    0  0.00000000000E+00  0.00000000000E+00  0.45593999997E+02  0.45594000000E+02  0.51100000000E-03 0. -1.
         11   -1    0    0    0    0 -0.00000000000E+00 -0.00000000000E+00 -0.45593999997E+02  0.45594000000E+02  0.51100000000E-03 0.  1.
         23    2    1    2    0    0  0.55511151231E-16  0.17763568394E-14 -0.71054273576E-14  0.91188000000E+02  0.91188000000E+02 0.  0.
    9900012    2    3    3    0    0  0.15115695539E+00  0.12934437673E+02  0.34474002974E+02  0.54367090079E+02  0.40000013453E+02 0.  0.
        -12    1    3    3    0    0 -0.15115695539E+00 -0.12934437673E+02 -0.34474002974E+02  0.36820909921E+02  0.00000000000E+00 0.  1.
         11    1    4    4    0    0 -0.20772315509E+01 -0.26025006987E+01 -0.34584875822E+01  0.48009413057E+01  0.51100000000E-03 0.  1.
        -11    1    4    4    0    0  0.66048617878E+00 -0.81431978738E+01  0.10016634792E+02  0.12925977194E+02  0.51100000000E-03 0. -1.
         12    1    4    4    0    0  0.15679023275E+01  0.23680136246E+02  0.27915855765E+02  0.36640171580E+02  0.00000000000E+00 0. -1.
</event>
<event>
 8    1  0.1210161E-006  0.9118800E+02  0.7816164E-02  0.1184000E+00
        -11   -1    0    0    0    0  0.00000000000E+00  0.00000000000E+00  0.45593999997E+02  0.45594000000E+02  0.51100000000E-03 0. -1.
         11   -1    0    0    0    0 -0.00000000000E+00 -0.00000000000E+00 -0.45593999997E+02  0.45594000000E+02  0.51100000000E-03 0.  1.
         23    2    1    2    0    0 -0.35527136788E-14  0.00000000000E+00 -0.71054273576E-14  0.91188000000E+02  0.91188000000E+02 0.  0.
    9900012    2    3    3    0    0  0.12964494384E+02  0.11065087286E+02  0.32638411167E+02  0.54367079930E+02  0.39999990316E+02 0.  0.
        -12    1    3    3    0    0 -0.12964494384E+02 -0.11065087286E+02 -0.32638411167E+02  0.36820920070E+02  0.00000000000E+00 0.  1.
         11    1    4    4    0    0  0.22443680950E+02  0.14376370271E+02  0.31462448105E+02  0.41234505912E+02  0.51100000000E-03 0. -1.
        -11    1    4    4    0    0 -0.86457267966E+00  0.19921633434E+01 -0.15349924966E+01  0.26593989793E+01  0.51100000000E-03 0.  1.
         12    1    4    4    0    0 -0.86146138857E+01 -0.53034463278E+01  0.27109555586E+01  0.10473175039E+02  0.00000000000E+00 0. -1.
</event>
<event>
 8    1  0.1210161E-006  0.9118800E+02  0.7816164E-02  0.1184000E+00
        -11   -1    0    0    0    0  0.00000000000E+00  0.00000000000E+00  0.45593999997E+02  0.45594000000E+02  0.51100000000E-03 0.  1.
         11   -1    0    0    0    0 -0.00000000000E+00 -0.00000000000E+00 -0.45593999997E+02  0.45594000000E+02  0.51100000000E-03 0. -1.
         23    2    1    2    0    0 -0.17763568394E-14 -0.35527136788E-14  0.00000000000E+00  0.91188000000E+02  0.91188000000E+02 0.  0.
    9900012    2    3    3    0    0 -0.14613342621E+02 -0.28600693679E+02 -0.18006392349E+02  0.54367087098E+02  0.40000006658E+02 0.  0.
        -12    1    3    3    0    0  0.14613342621E+02  0.28600693679E+02  0.18006392349E+02  0.36820912902E+02  0.00000000000E+00 0.  1.
         11    1    4    4    0    0 -0.12060218912E+02 -0.19195039146E+02 -0.37448944091E+01  0.22976567246E+02  0.51100000000E-03 0. -1.
        -11    1    4    4    0    0  0.86712257977E+01 -0.31119363695E+01 -0.15942268466E+02  0.18412773525E+02  0.51100000000E-03 0.  1.
        -12    1    4    4    0    0 -0.11224349507E+02 -0.62937181633E+01  0.16807705254E+01  0.12977746327E+02  0.00000000000E+00 0.  1.
</event>
<event>
 8    1  0.1210161E-006  0.9118800E+02  0.7816164E-02  0.1184000E+00
        -11   -1    0    0    0    0  0.00000000000E+00  0.00000000000E+00  0.45593999997E+02  0.45594000000E+02  0.51100000000E-03 0. -1.
         11   -1    0    0    0    0 -0.00000000000E+00 -0.00000000000E+00 -0.45593999997E+02  0.45594000000E+02  0.51100000000E-03 0.  1.
         23    2    1    2    0    0  0.00000000000E+00  0.00000000000E+00 -0.10658141036E-13  0.91188000000E+02  0.91188000000E+02 0.  0.
    9900012    2    3    3    0    0 -0.13444501976E+02  0.15929966497E+02 -0.30352292161E+02  0.54367080601E+02  0.39999991847E+02 0.  0.
         12    1    3    3    0    0  0.13444501976E+02 -0.15929966497E+02  0.30352292161E+02  0.36820919399E+02  0.00000000000E+00 0. -1.
         11    1    4    4    0    0  0.91062638578E+01  0.14038175050E+01 -0.13147053475E+01  0.93071582906E+01  0.51100000000E-03 0. -1.
        -11    1    4    4    0    0  0.37560585472E+01  0.31300495245E+01 -0.84567501862E+01  0.97684087654E+01  0.51100000000E-03 0.  1.
         12    1    4    4    0    0 -0.26306824380E+02  0.11396099467E+02 -0.20580836627E+02  0.35291513545E+02  0.00000000000E+00 0. -1.
</event>
<event>
 8    1  0.1210161E-006  0.9118800E+02  0.7816164E-02  0.1184000E+00
        -11   -1    0    0    0    0  0.00000000000E+00  0.00000000000E+00  0.45593999997E+02  0.45594000000E+02  0.51100000000E-03 0.  1.
         11   -1    0    0    0    0 -0.00000000000E+00 -0.00000000000E+00 -0.45593999997E+02  0.45594000000E+02  0.51100000000E-03 0. -1.
         23    2    1    2    0    0  0.71054273576E-14  0.00000000000E+00  0.00000000000E+00  0.91188000000E+02  0.91188000000E+02 0.  0.
    9900012    2    3    3    0    0  0.28822255029E+02  0.70184961790E+01  0.21812790750E+02  0.54367088634E+02  0.40000010158E+02 0.  0.
         12    1    3    3    0    0 -0.28822255029E+02 -0.70184961790E+01 -0.21812790750E+02  0.36820911366E+02  0.00000000000E+00 0. -1.
         11    1    4    4    0    0  0.27604873284E+02 -0.13296477580E+01  0.66679255810E+01  0.28429882589E+02  0.51100000000E-03 0.  1.
        -11    1    4    4    0    0 -0.34634626435E+01  0.49470962466E+01  0.18353227252E+02  0.19321239235E+02  0.51100000000E-03 0. -1.
        -12    1    4    4    0    0  0.46808443880E+01  0.34010476905E+01 -0.32083620828E+01  0.66159668101E+01  0.00000000000E+00 0.  1.
</event>
<event>
 8    1  0.1210161E-006  0.9118800E+02  0.7816164E-02  0.1184000E+00
        -11   -1    0    0    0    0  0.00000000000E+00  0.00000000000E+00  0.45593999997E+02  0.45594000000E+02  0.51100000000E-03 0. -1.
         11   -1    0    0    0    0 -0.00000000000E+00 -0.00000000000E+00 -0.45593999997E+02  0.45594000000E+02  0.51100000000E-03 0.  1.
         23    2    1    2    0    0  0.88817841970E-15  0.00000000000E+00  0.00000000000E+00  0.91188000000E+02  0.91188000000E+02 0.  0.
    9900012    2    3    3    0    0 -0.62961301520E+01  0.12707367942E+02  0.33980275138E+02  0.54367115255E+02  0.40000070847E+02 0.  0.
        -12    1    3    3    0    0  0.62961301520E+01 -0.12707367942E+02 -0.33980275138E+02  0.36820884745E+02  0.00000000000E+00 0.  1.
         11    1    4    4    0    0 -0.94466607857E+01  0.54576836085E+01  0.36867294058E+02  0.38447666792E+02  0.51100000000E-03 0. -1.
        -11    1    4    4    0    0  0.61305800966E+01  0.82562821079E+01 -0.56494760032E+01  0.11733149021E+02  0.51100000000E-03 0.  1.
        -12    1    4    4    0    0 -0.29800494629E+01 -0.10065977741E+01  0.27624570840E+01  0.41862994424E+01  0.00000000000E+00 0.  1.
</event>
<event>
 8    1  0.1210161E-006  0.9118800E+02  0.7816164E-02  0.1184000E+00
        -11   -1    0    0    0    0  0.00000000000E+00  0.00000000000E+00  0.45593999997E+02  0.45594000000E+02  0.51100000000E-03 0.  1.
         11   -1    0    0    0    0 -0.00000000000E+00 -0.00000000000E+00 -0.45593999997E+02  0.45594000000E+02  0.51100000000E-03 0. -1.
         23    2    1    2    0    0  0.00000000000E+00  0.71054273576E-14  0.13322676296E-14  0.91188000000E+02  0.91188000000E+02 0.  0.
    9900012    2    3    3    0    0  0.16819996953E+02  0.32727847934E+02 -0.13250556979E+01  0.54367080667E+02  0.39999991997E+02 0.  0.
        -12    1    3    3    0    0 -0.16819996953E+02 -0.32727847934E+02  0.13250556979E+01  0.36820919333E+02  0.00000000000E+00 0.  1.
         11    1    4    4    0    0  0.22558334691E+01  0.21494315470E+02  0.18280016542E+01  0.21689536013E+02  0.51100000000E-03 0. -1.
        -11    1    4    4    0    0  0.98172549683E+01  0.35371042758E+01  0.11456162344E+02  0.15496233661E+02  0.51100000000E-03 0.  1.
        -12    1    4    4    0    0  0.47469085152E+01  0.76964281888E+01 -0.14609219696E+02  0.17181310993E+02  0.00000000000E+00 0.  1.
</event>
<event>
 8    1  0.1210161E-006  0.9118800E+02  0.7816164E-02  0.1184000E+00
        -11   -1    0    0    0    0  0.00000000000E+00  0.00000000000E+00  0.45593999997E+02  0.45594000000E+02  0.51100000000E-03 0. -1.
         11   -1    0    0    0    0 -0.00000000000E+00 -0.00000000000E+00 -0.45593999997E+02  0.45594000000E+02  0.51100000000E-03 0.  1.
         23    2    1    2    0    0  0.00000000000E+00 -0.88817841970E-15 -0.71054273576E-14  0.91188000000E+02  0.91188000000E+02 0.  0.
    9900012    2    3    3    0    0  0.12919251269E+02  0.74839063136E+01  0.33658025188E+02  0.54367101496E+02  0.40000039480E+02 0.  0.
        -12    1    3    3    0    0 -0.12919251269E+02 -0.74839063136E+01 -0.33658025188E+02  0.36820898504E+02  0.00000000000E+00 0.  1.
         11    1    4    4    0    0 -0.10086465609E+00 -0.28813727768E+01  0.19946421620E+02  0.20153714756E+02  0.51100000000E-03 0. -1.
        -11    1    4    4    0    0  0.13445102008E+02  0.15722929450E+02  0.13473294258E+01  0.20731535769E+02  0.51100000000E-03 0.  1.
        -12    1    4    4    0    0 -0.42498608251E+00 -0.53576503596E+01  0.12364274143E+02  0.13481850972E+02  0.00000000000E+00 0.  1.
</event>
<event>
 8    1  0.1210161E-006  0.9118800E+02  0.7816164E-02  0.1184000E+00
        -11   -1    0    0    0    0  0.00000000000E+00  0.00000000000E+00  0.45593999997E+02  0.45594000000E+02  0.51100000000E-03 0. -1.
         11   -1    0    0    0    0 -0.00000000000E+00 -0.00000000000E+00 -0.45593999997E+02  0.45594000000E+02  0.51100000000E-03 0.  1.
         23    2    1    2    0    0  0.00000000000E+00  0.00000000000E+00  0.35527136788E-14  0.91188000000E+02  0.91188000000E+02 0.  0.
    9900012    2    3    3    0    0 -0.14687873291E+02 -0.16513891837E+02 -0.29450581759E+02  0.54367095457E+02  0.40000025713E+02 0.  0.
         12    1    3    3    0    0  0.14687873291E+02  0.16513891837E+02  0.29450581759E+02  0.36820904543E+02  0.00000000000E+00 0. -1.
         11    1    4    4    0    0 -0.44997624923E+00 -0.10260219042E+02 -0.52765012091E+01  0.11546256480E+02  0.51100000000E-03 0. -1.
        -11    1    4    4    0    0 -0.36397420310E+01 -0.14064301397E+02  0.84190773422E+00  0.14552013769E+02  0.51100000000E-03 0.  1.
        -12    1    4    4    0    0 -0.10598155011E+02  0.78106286026E+01 -0.25015988284E+02  0.28268825208E+02  0.00000000000E+00 0.  1.
</event>
<event>
 8    1  0.1210161E-006  0.9118800E+02  0.7816164E-02  0.1184000E+00
        -11   -1    0    0    0    0  0.00000000000E+00  0.00000000000E+00  0.45593999997E+02  0.45594000000E+02  0.51100000000E-03 0. -1.
         11   -1    0    0    0    0 -0.00000000000E+00 -0.00000000000E+00 -0.45593999997E+02  0.45594000000E+02  0.51100000000E-03 0.  1.
         23    2    1    2    0    0  0.00000000000E+00  0.00000000000E+00  0.00000000000E+00  0.91188000000E+02  0.91188000000E+02 0.  0.
    9900012    2    3    3    0    0  0.43382884749E+01  0.17817772361E+02  0.31929412990E+02  0.54367066108E+02  0.39999958806E+02 0.  0.
        -12    1    3    3    0    0 -0.43382884749E+01 -0.17817772361E+02 -0.31929412990E+02  0.36820933892E+02  0.00000000000E+00 0.  1.
         11    1    4    4    0    0 -0.59491003352E+01  0.28968575794E+01  0.27455000730E+02  0.28241116196E+02  0.51100000000E-03 0. -1.
        -11    1    4    4    0    0  0.11121165911E+02  0.22086927511E+01  0.67343739605E+01  0.13187511053E+02  0.51100000000E-03 0.  1.
         12    1    4    4    0    0 -0.83377710061E+00  0.12712222030E+02 -0.22599617004E+01  0.12938438858E+02  0.00000000000E+00 0. -1.
</event>
<event>
 8    1  0.1210161E-006  0.9118800E+02  0.7816164E-02  0.1184000E+00
        -11   -1    0    0    0    0  0.00000000000E+00  0.00000000000E+00  0.45593999997E+02  0.45594000000E+02  0.51100000000E-03 0. -1.
         11   -1    0    0    0    0 -0.00000000000E+00 -0.00000000000E+00 -0.45593999997E+02  0.45594000000E+02  0.51100000000E-03 0.  1.
         23    2    1    2    0    0  0.88817841970E-15  0.00000000000E+00  0.00000000000E+00  0.91188000000E+02  0.91188000000E+02 0.  0.
    9900012    2    3    3    0    0 -0.37620044701E+01 -0.23329933201E+02 -0.28237249828E+02  0.54367072002E+02  0.39999972242E+02 0.  0.
         12    1    3    3    0    0  0.37620044701E+01  0.23329933201E+02  0.28237249828E+02  0.36820927998E+02  0.00000000000E+00 0. -1.
         11    1    4    4    0    0  0.36780332847E+01  0.35458219676E+01 -0.46089438152E+00  0.51296399641E+01  0.51100000000E-03 0. -1.
        -11    1    4    4    0    0 -0.18597130429E+02 -0.20970288788E+02 -0.19395960494E+02  0.34085327574E+02  0.51100000000E-03 0.  1.
        -12    1    4    4    0    0  0.11157092675E+02 -0.59054663810E+01 -0.83803949522E+01  0.15152104464E+02  0.00000000000E+00 0.  1.
</event>
<event>
 8    1  0.1210161E-006  0.9118800E+02  0.7816164E-02  0.1184000E+00
        -11   -1    0    0    0    0  0.00000000000E+00  0.00000000000E+00  0.45593999997E+02  0.45594000000E+02  0.51100000000E-03 0.  1.
         11   -1    0    0    0    0 -0.00000000000E+00 -0.00000000000E+00 -0.45593999997E+02  0.45594000000E+02  0.51100000000E-03 0. -1.
         23    2    1    2    0    0  0.35527136788E-14  0.35527136788E-14  0.88817841970E-15  0.91188000000E+02  0.91188000000E+02 0.  0.
    9900012    2    3    3    0    0 -0.27609784508E+02 -0.23107583575E+02 -0.77149965038E+01  0.54367057721E+02  0.39999939688E+02 0.  0.
        -12    1    3    3    0    0  0.27609784508E+02  0.23107583575E+02  0.77149965038E+01  0.36820942279E+02  0.00000000000E+00 0.  1.
         11    1    4    4    0    0 -0.48528635717E+01 -0.44385310923E+01 -0.46281546671E-01  0.65767001867E+01  0.51100000000E-03 0. -1.
        -11    1    4    4    0    0 -0.17986438898E+02  0.15622185784E+01  0.98856178613E+01  0.20583438777E+02  0.51100000000E-03 0.  1.
         12    1    4    4    0    0 -0.47704820383E+01 -0.20231271061E+02 -0.17554332818E+02  0.27206918758E+02  0.00000000000E+00 0. -1.
</event>
<event>
 8    1  0.1210161E-006  0.9118800E+02  0.7816164E-02  0.1184000E+00
        -11   -1    0    0    0    0  0.00000000000E+00  0.00000000000E+00  0.45593999997E+02  0.45594000000E+02  0.51100000000E-03 0.  1.
         11   -1    0    0    0    0 -0.00000000000E+00 -0.00000000000E+00 -0.45593999997E+02  0.45594000000E+02  0.51100000000E-03 0. -1.
         23    2    1    2    0    0 -0.35527136788E-14  0.00000000000E+00  0.00000000000E+00  0.91188000000E+02  0.91188000000E+02 0.  0.
    9900012    2    3    3    0    0  0.19531519993E+02  0.25175132114E+02  0.18452988372E+02  0.54367077551E+02  0.39999984892E+02 0.  0.
        -12    1    3    3    0    0 -0.19531519993E+02 -0.25175132114E+02 -0.18452988372E+02  0.36820922449E+02  0.00000000000E+00 0.  1.
         11    1    4    4    0    0 -0.46100532535E+00  0.14551177260E+02  0.20994324084E+02  0.25548207952E+02  0.51100000000E-03 0. -1.
        -11    1    4    4    0    0 -0.31260033143E+01 -0.22656426193E+00  0.15939062289E+00  0.31382532909E+01  0.51100000000E-03 0.  1.
         12    1    4    4    0    0  0.23118528632E+02  0.10850519116E+02 -0.27007263351E+01  0.25680616308E+02  0.00000000000E+00 0. -1.
</event>
<event>
 8    1  0.1210161E-006  0.9118800E+02  0.7816164E-02  0.1184000E+00
        -11   -1    0    0    0    0  0.00000000000E+00  0.00000000000E+00  0.45593999997E+02  0.45594000000E+02  0.51100000000E-03 0. -1.
         11   -1    0    0    0    0 -0.00000000000E+00 -0.00000000000E+00 -0.45593999997E+02  0.45594000000E+02  0.51100000000E-03 0.  1.
         23    2    1    2    0    0  0.00000000000E+00  0.00000000000E+00  0.00000000000E+00  0.91188000000E+02  0.91188000000E+02 0.  0.
    9900012    2    3    3    0    0 -0.26394442366E+02 -0.97701433235E+01  0.23741500116E+02  0.54367066876E+02  0.39999960556E+02 0.  0.
        -12    1    3    3    0    0  0.26394442366E+02  0.97701433235E+01 -0.23741500116E+02  0.36820933124E+02  0.00000000000E+00 0.  1.
         11    1    4    4    0    0 -0.25648451713E+02 -0.12122466367E+02  0.30457096706E+02  0.41622493993E+02  0.51100000000E-03 0. -1.
        -11    1    4    4    0    0 -0.21277386952E+01  0.61812415064E+01 -0.53615813534E+01  0.84546776038E+01  0.51100000000E-03 0.  1.
         12    1    4    4    0    0  0.13817480427E+01 -0.38289184626E+01 -0.13540152364E+01  0.42898952793E+01  0.00000000000E+00 0. -1.
</event>
<event>
 8    1  0.1210161E-006  0.9118800E+02  0.7816164E-02  0.1184000E+00
        -11   -1    0    0    0    0  0.00000000000E+00  0.00000000000E+00  0.45593999997E+02  0.45594000000E+02  0.51100000000E-03 0. -1.
         11   -1    0    0    0    0 -0.00000000000E+00 -0.00000000000E+00 -0.45593999997E+02  0.45594000000E+02  0.51100000000E-03 0.  1.
         23    2    1    2    0    0 -0.17763568394E-14 -0.71054273576E-14  0.35527136788E-14  0.91188000000E+02  0.91188000000E+02 0.  0.
    9900012    2    3    3    0    0  0.11819566792E+02  0.19937914156E+02 -0.28610490551E+02  0.54367044694E+02  0.39999909989E+02 0.  0.
        -12    1    3    3    0    0 -0.11819566792E+02 -0.19937914156E+02  0.28610490551E+02  0.36820955306E+02  0.00000000000E+00 0.  1.
         11    1    4    4    0    0  0.31495561029E+01 -0.71987067071E+01  0.34500857859E+01  0.85816183842E+01  0.51100000000E-03 0. -1.
        -11    1    4    4    0    0  0.67045655468E+01  0.17724025987E+01 -0.96409223438E+01  0.11876026021E+02  0.51100000000E-03 0.  1.
        -12    1    4    4    0    0  0.19654451426E+01  0.25364218265E+02 -0.22419653994E+02  0.33909400289E+02  0.00000000000E+00 0.  1.
</event>
<event>
 8    1  0.1210161E-006  0.9118800E+02  0.7816164E-02  0.1184000E+00
        -11   -1    0    0    0    0  0.00000000000E+00  0.00000000000E+00  0.45593999997E+02  0.45594000000E+02  0.51100000000E-03 0. -1.
         11   -1    0    0    0    0 -0.00000000000E+00 -0.00000000000E+00 -0.45593999997E+02  0.45594000000E+02  0.51100000000E-03 0.  1.
         23    2    1    2    0    0  0.00000000000E+00  0.44408920985E-15 -0.17763568394E-14  0.91188000000E+02  0.91188000000E+02 0.  0.
    9900012    2    3    3    0    0 -0.34203791741E+02  0.39267058157E+01 -0.13056096492E+02  0.54367081440E+02  0.39999993759E+02 0.  0.
         12    1    3    3    0    0  0.34203791741E+02 -0.39267058157E+01  0.13056096492E+02  0.36820918560E+02  0.00000000000E+00 0. -1.
         11    1    4    4    0    0  0.48575217307E+01  0.40571089546E+01 -0.55926787499E+01  0.84459283856E+01  0.51100000000E-03 0. -1.
        -11    1    4    4    0    0 -0.38107877609E+02 -0.50700111928E+01 -0.10742118184E+02  0.39916268021E+02  0.51100000000E-03 0.  1.
         12    1    4    4    0    0 -0.95343586193E+00  0.49396080539E+01  0.32787004429E+01  0.60048850333E+01  0.00000000000E+00 0. -1.
</event>
<event>
 8    1  0.1210161E-006  0.9118800E+02  0.7816164E-02  0.1184000E+00
        -11   -1    0    0    0    0  0.00000000000E+00  0.00000000000E+00  0.45593999997E+02  0.45594000000E+02  0.51100000000E-03 0.  1.
         11   -1    0    0    0    0 -0.00000000000E+00 -0.00000000000E+00 -0.45593999997E+02  0.45594000000E+02  0.51100000000E-03 0. -1.
         23    2    1    2    0    0  0.00000000000E+00  0.00000000000E+00  0.00000000000E+00  0.91188000000E+02  0.91188000000E+02 0.  0.
    9900012    2    3    3    0    0 -0.27238193872E+02 -0.16986215793E+02  0.18036913766E+02  0.54367068580E+02  0.39999964443E+02 0.  0.
         12    1    3    3    0    0  0.27238193872E+02  0.16986215793E+02 -0.18036913766E+02  0.36820931420E+02  0.00000000000E+00 0. -1.
         11    1    4    4    0    0 -0.31023010588E+01  0.51244920648E+01 -0.32336120536E+01  0.68074178626E+01  0.51100000000E-03 0. -1.
        -11    1    4    4    0    0 -0.24794846166E+02 -0.78744621278E+01  0.20786913021E+02  0.33299959511E+02  0.51100000000E-03 0.  1.
         12    1    4    4    0    0  0.65895335194E+00 -0.14236245730E+02  0.48361279851E+00  0.14259691207E+02  0.00000000000E+00 0. -1.
</event>
<event>
 8    1  0.1210161E-006  0.9118800E+02  0.7816164E-02  0.1184000E+00
        -11   -1    0    0    0    0  0.00000000000E+00  0.00000000000E+00  0.45593999997E+02  0.45594000000E+02  0.51100000000E-03 0.  1.
         11   -1    0    0    0    0 -0.00000000000E+00 -0.00000000000E+00 -0.45593999997E+02  0.45594000000E+02  0.51100000000E-03 0. -1.
         23    2    1    2    0    0 -0.88817841970E-15  0.00000000000E+00  0.00000000000E+00  0.91188000000E+02  0.91188000000E+02 0.  0.
    9900012    2    3    3    0    0  0.36680833449E+01  0.34757123072E+02 -0.11587361939E+02  0.54367090229E+02  0.40000013795E+02 0.  0.
        -12    1    3    3    0    0 -0.36680833449E+01 -0.34757123072E+02  0.11587361939E+02  0.36820909771E+02  0.00000000000E+00 0.  1.
         11    1    4    4    0    0  0.10586620068E+02  0.17904449395E+02 -0.96821455100E+01  0.22943185798E+02  0.51100000000E-03 0. -1.
        -11    1    4    4    0    0 -0.12934108397E+02  0.65072294465E+01 -0.94379904255E+01  0.17283253705E+02  0.51100000000E-03 0.  1.
        -12    1    4    4    0    0  0.60155716740E+01  0.10345444230E+02  0.75327739960E+01  0.14140650726E+02  0.00000000000E+00 0.  1.
</event>
<event>
 8    1  0.1210161E-006  0.9118800E+02  0.7816164E-02  0.1184000E+00
        -11   -1    0    0    0    0  0.00000000000E+00  0.00000000000E+00  0.45593999997E+02  0.45594000000E+02  0.51100000000E-03 0.  1.
         11   -1    0    0    0    0 -0.00000000000E+00 -0.00000000000E+00 -0.45593999997E+02  0.45594000000E+02  0.51100000000E-03 0. -1.
         23    2    1    2    0    0  0.17763568394E-14  0.35527136788E-14 -0.35527136788E-14  0.91188000000E+02  0.91188000000E+02 0.  0.
    9900012    2    3    3    0    0  0.10593888733E+02  0.20608979542E+02 -0.28614980931E+02  0.54367113944E+02  0.40000067859E+02 0.  0.
        -12    1    3    3    0    0 -0.10593888733E+02 -0.20608979542E+02  0.28614980931E+02  0.36820886056E+02  0.00000000000E+00 0.  1.
         11    1    4    4    0    0  0.18607252362E+01  0.27096184389E+01 -0.40010460812E+01  0.51780981542E+01  0.51100000000E-03 0.  1.
        -11    1    4    4    0    0  0.52640216804E+01 -0.91060384554E+00 -0.29064065194E+02  0.29550956151E+02  0.51100000000E-03 0. -1.
        -12    1    4    4    0    0  0.34691418166E+01  0.18809964948E+02  0.44501303441E+01  0.19638059639E+02  0.00000000000E+00 0.  1.
</event>
<event>
 8    1  0.1210161E-006  0.9118800E+02  0.7816164E-02  0.1184000E+00
        -11   -1    0    0    0    0  0.00000000000E+00  0.00000000000E+00  0.45593999997E+02  0.45594000000E+02  0.51100000000E-03 0.  1.
         11   -1    0    0    0    0 -0.00000000000E+00 -0.00000000000E+00 -0.45593999997E+02  0.45594000000E+02  0.51100000000E-03 0. -1.
         23    2    1    2    0    0  0.00000000000E+00 -0.88817841970E-15  0.00000000000E+00  0.91188000000E+02  0.91188000000E+02 0.  0.
    9900012    2    3    3    0    0  0.15086825504E+02  0.70079921890E+01  0.32848973443E+02  0.54367091340E+02  0.40000016327E+02 0.  0.
         12    1    3    3    0    0 -0.15086825504E+02 -0.70079921890E+01 -0.32848973443E+02  0.36820908660E+02  0.00000000000E+00 0. -1.
         11    1    4    4    0    0  0.59799553966E+01  0.12245037363E+01  0.45914102613E+01  0.76380838169E+01  0.51100000000E-03 0. -1.
        -11    1    4    4    0    0  0.22596778784E+02  0.16139671522E+01  0.20829286370E+02  0.30774640084E+02  0.51100000000E-03 0.  1.
         12    1    4    4    0    0 -0.13489908677E+02  0.41695213006E+01  0.74282768115E+01  0.15954367439E+02  0.00000000000E+00 0. -1.
</event>
<event>
 8    1  0.1210161E-006  0.9118800E+02  0.7816164E-02  0.1184000E+00
        -11   -1    0    0    0    0  0.00000000000E+00  0.00000000000E+00  0.45593999997E+02  0.45594000000E+02  0.51100000000E-03 0.  1.
         11   -1    0    0    0    0 -0.00000000000E+00 -0.00000000000E+00 -0.45593999997E+02  0.45594000000E+02  0.51100000000E-03 0. -1.
         23    2    1    2    0    0  0.35527136788E-14  0.35527136788E-14 -0.17763568394E-14  0.91188000000E+02  0.91188000000E+02 0.  0.
    9900012    2    3    3    0    0 -0.26712836250E+02 -0.20948840491E+02 -0.14260108441E+02  0.54367078893E+02  0.39999987952E+02 0.  0.
        -12    1    3    3    0    0  0.26712836250E+02  0.20948840491E+02  0.14260108441E+02  0.36820921107E+02  0.00000000000E+00 0.  1.
         11    1    4    4    0    0 -0.65267270680E+01 -0.14972135135E+01  0.11717308505E+02  0.13495745011E+02  0.51100000000E-03 0. -1.
        -11    1    4    4    0    0 -0.12295410057E+02 -0.11524158613E+02 -0.58381337892E+01  0.17834437099E+02  0.51100000000E-03 0.  1.
         12    1    4    4    0    0 -0.78906991242E+01 -0.79274683642E+01 -0.20139283157E+02  0.23036896784E+02  0.00000000000E+00 0. -1.
</event>
<event>
 8    1  0.1210161E-006  0.9118800E+02  0.7816164E-02  0.1184000E+00
        -11   -1    0    0    0    0  0.00000000000E+00  0.00000000000E+00  0.45593999997E+02  0.45594000000E+02  0.51100000000E-03 0.  1.
         11   -1    0    0    0    0 -0.00000000000E+00 -0.00000000000E+00 -0.45593999997E+02  0.45594000000E+02  0.51100000000E-03 0. -1.
         23    2    1    2    0    0  0.88817841970E-15 -0.88817841970E-15  0.00000000000E+00  0.91188000000E+02  0.91188000000E+02 0.  0.
    9900012    2    3    3    0    0 -0.54702224930E+01  0.47311011612E+01  0.36103635285E+02  0.54367093804E+02  0.40000021944E+02 0.  0.
         12    1    3    3    0    0  0.54702224930E+01 -0.47311011612E+01 -0.36103635285E+02  0.36820906196E+02  0.00000000000E+00 0. -1.
         11    1    4    4    0    0 -0.10091915459E+02 -0.10906776081E+02  0.61730151875E+00  0.14872309287E+02  0.51100000000E-03 0. -1.
        -11    1    4    4    0    0 -0.13326362320E-01  0.23105968840E+01  0.16649042580E+01  0.28479715591E+01  0.51100000000E-03 0.  1.
        -12    1    4    4    0    0  0.46350193279E+01  0.13327280359E+02  0.33821429508E+02  0.36646812957E+02  0.00000000000E+00 0.  1.
</event>
<event>
 8    1  0.1210161E-006  0.9118800E+02  0.7816164E-02  0.1184000E+00
        -11   -1    0    0    0    0  0.00000000000E+00  0.00000000000E+00  0.45593999997E+02  0.45594000000E+02  0.51100000000E-03 0. -1.
         11   -1    0    0    0    0 -0.00000000000E+00 -0.00000000000E+00 -0.45593999997E+02  0.45594000000E+02  0.51100000000E-03 0.  1.
         23    2    1    2    0    0 -0.88817841970E-15 -0.22204460493E-15  0.00000000000E+00  0.91188000000E+02  0.91188000000E+02 0.  0.
    9900012    2    3    3    0    0 -0.66487131031E+01  0.16920209518E+01  0.36176122420E+02  0.54367079939E+02  0.39999990337E+02 0.  0.
        -12    1    3    3    0    0  0.66487131031E+01 -0.16920209518E+01 -0.36176122420E+02  0.36820920061E+02  0.00000000000E+00 0.  1.
         11    1    4    4    0    0  0.72831276330E+01 -0.31888314563E+01  0.79671752474E+01  0.11255597535E+02  0.51100000000E-03 0.  1.
        -11    1    4    4    0    0 -0.19459692783E+02 -0.51654767016E+01  0.12628803078E+02  0.23766540770E+02  0.51100000000E-03 0. -1.
         12    1    4    4    0    0  0.55278520464E+01  0.10046329110E+02  0.15580144094E+02  0.19344941634E+02  0.00000000000E+00 0. -1.
</event>
<event>
 8    1  0.1210161E-006  0.9118800E+02  0.7816164E-02  0.1184000E+00
        -11   -1    0    0    0    0  0.00000000000E+00  0.00000000000E+00  0.45593999997E+02  0.45594000000E+02  0.51100000000E-03 0.  1.
         11   -1    0    0    0    0 -0.00000000000E+00 -0.00000000000E+00 -0.45593999997E+02  0.45594000000E+02  0.51100000000E-03 0. -1.
         23    2    1    2    0    0  0.00000000000E+00 -0.35527136788E-14  0.00000000000E+00  0.91188000000E+02  0.91188000000E+02 0.  0.
    9900012    2    3    3    0    0 -0.27646833506E+02 -0.16251919838E+02  0.18091740006E+02  0.54367036436E+02  0.39999891164E+02 0.  0.
         12    1    3    3    0    0  0.27646833506E+02  0.16251919838E+02 -0.18091740006E+02  0.36820963564E+02  0.00000000000E+00 0. -1.
         11    1    4    4    0    0 -0.39199847799E+01 -0.21847669426E+02  0.25648502099E+01  0.22344247512E+02  0.51100000000E-03 0. -1.
        -11    1    4    4    0    0 -0.86455555166E+01 -0.36949831271E+01  0.17062192996E+01  0.95556117051E+01  0.51100000000E-03 0.  1.
         12    1    4    4    0    0 -0.15081293209E+02  0.92907327147E+01  0.13820670496E+02  0.22467177219E+02  0.00000000000E+00 0. -1.
</event>
<event>
 8    1  0.1210161E-006  0.9118800E+02  0.7816164E-02  0.1184000E+00
        -11   -1    0    0    0    0  0.00000000000E+00  0.00000000000E+00  0.45593999997E+02  0.45594000000E+02  0.51100000000E-03 0.  1.
         11   -1    0    0    0    0 -0.00000000000E+00 -0.00000000000E+00 -0.45593999997E+02  0.45594000000E+02  0.51100000000E-03 0. -1.
         23    2    1    2    0    0  0.00000000000E+00  0.00000000000E+00  0.35527136788E-14  0.91188000000E+02  0.91188000000E+02 0.  0.
    9900012    2    3    3    0    0  0.24335575857E+02 -0.25465484559E+02  0.10726941397E+02  0.54367103380E+02  0.40000043776E+02 0.  0.
         12    1    3    3    0    0 -0.24335575857E+02  0.25465484559E+02 -0.10726941397E+02  0.36820896620E+02  0.00000000000E+00 0. -1.
         11    1    4    4    0    0  0.10689818307E+02 -0.12693321541E+02  0.23608043432E+02  0.28857102109E+02  0.51100000000E-03 0. -1.
        -11    1    4    4    0    0  0.52662655759E+01 -0.88843073209E+01 -0.87976400136E+00  0.10365252271E+02  0.51100000000E-03 0.  1.
         12    1    4    4    0    0  0.83794919739E+01 -0.38878556976E+01 -0.12001338034E+02  0.15144749000E+02  0.00000000000E+00 0. -1.
</event>
<event>
 8    1  0.1210161E-006  0.9118800E+02  0.7816164E-02  0.1184000E+00
        -11   -1    0    0    0    0  0.00000000000E+00  0.00000000000E+00  0.45593999997E+02  0.45594000000E+02  0.51100000000E-03 0. -1.
         11   -1    0    0    0    0 -0.00000000000E+00 -0.00000000000E+00 -0.45593999997E+02  0.45594000000E+02  0.51100000000E-03 0.  1.
         23    2    1    2    0    0  0.71054273576E-14 -0.35527136788E-14  0.17763568394E-14  0.91188000000E+02  0.91188000000E+02 0.  0.
    9900012    2    3    3    0    0 -0.17081023468E+02  0.29053225214E+02 -0.14830034624E+02  0.54367065941E+02  0.39999958426E+02 0.  0.
         12    1    3    3    0    0  0.17081023468E+02 -0.29053225214E+02  0.14830034624E+02  0.36820934059E+02  0.00000000000E+00 0. -1.
         11    1    4    4    0    0 -0.82411720934E+01  0.31471707719E+02 -0.18295743316E+02  0.37324516447E+02  0.51100000000E-03 0.  1.
        -11    1    4    4    0    0  0.27206788008E+01 -0.30319628480E+01  0.36420979423E+01  0.54644093488E+01  0.51100000000E-03 0. -1.
        -12    1    4    4    0    0 -0.11560530175E+02  0.61348034247E+00 -0.17638924970E+00  0.11578140145E+02  0.00000000000E+00 0.  1.
</event>
<event>
 8    1  0.1210161E-006  0.9118800E+02  0.7816164E-02  0.1184000E+00
        -11   -1    0    0    0    0  0.00000000000E+00  0.00000000000E+00  0.45593999997E+02  0.45594000000E+02  0.51100000000E-03 0. -1.
         11   -1    0    0    0    0 -0.00000000000E+00 -0.00000000000E+00 -0.45593999997E+02  0.45594000000E+02  0.51100000000E-03 0.  1.
         23    2    1    2    0    0  0.00000000000E+00  0.00000000000E+00  0.00000000000E+00  0.91188000000E+02  0.91188000000E+02 0.  0.
    9900012    2    3    3    0    0 -0.20118780916E+02  0.13798387399E+02 -0.27579330211E+02  0.54367078023E+02  0.39999985968E+02 0.  0.
         12    1    3    3    0    0  0.20118780916E+02 -0.13798387399E+02  0.27579330211E+02  0.36820921977E+02  0.00000000000E+00 0. -1.
         11    1    4    4    0    0  0.39931280635E+01 -0.49466659441E+00  0.38693190201E+01  0.55822393994E+01  0.51100000000E-03 0. -1.
        -11    1    4    4    0    0 -0.11466896054E+02  0.75548376663E+01 -0.31601147168E+02  0.34455736531E+02  0.51100000000E-03 0.  1.
         12    1    4    4    0    0 -0.12645012926E+02  0.67382163273E+01  0.15249793675E+00  0.14329102093E+02  0.00000000000E+00 0. -1.
</event>
<event>
 8    1  0.1210161E-006  0.9118800E+02  0.7816164E-02  0.1184000E+00
        -11   -1    0    0    0    0  0.00000000000E+00  0.00000000000E+00  0.45593999997E+02  0.45594000000E+02  0.51100000000E-03 0.  1.
         11   -1    0    0    0    0 -0.00000000000E+00 -0.00000000000E+00 -0.45593999997E+02  0.45594000000E+02  0.51100000000E-03 0. -1.
         23    2    1    2    0    0  0.00000000000E+00  0.00000000000E+00  0.00000000000E+00  0.91188000000E+02  0.91188000000E+02 0.  0.
    9900012    2    3    3    0    0 -0.12821940495E+02  0.22026355521E+02 -0.26574745609E+02  0.54367087467E+02  0.40000007498E+02 0.  0.
        -12    1    3    3    0    0  0.12821940495E+02 -0.22026355521E+02  0.26574745609E+02  0.36820912533E+02  0.00000000000E+00 0.  1.
         11    1    4    4    0    0  0.99499411800E+01  0.61125761906E+01 -0.57806880253E+01  0.13030014255E+02  0.51100000000E-03 0. -1.
        -11    1    4    4    0    0 -0.41999069219E+01  0.89785418680E+01  0.30096675409E+01  0.10359127917E+02  0.51100000000E-03 0.  1.
         12    1    4    4    0    0 -0.18571974753E+02  0.69352374621E+01 -0.23803725125E+02  0.30977945295E+02  0.00000000000E+00 0. -1.
</event>
<event>
 8    1  0.1210161E-006  0.9118800E+02  0.7816164E-02  0.1184000E+00
        -11   -1    0    0    0    0  0.00000000000E+00  0.00000000000E+00  0.45593999997E+02  0.45594000000E+02  0.51100000000E-03 0. -1.
         11   -1    0    0    0    0 -0.00000000000E+00 -0.00000000000E+00 -0.45593999997E+02  0.45594000000E+02  0.51100000000E-03 0.  1.
         23    2    1    2    0    0  0.35527136788E-14  0.00000000000E+00  0.35527136788E-14  0.91188000000E+02  0.91188000000E+02 0.  0.
    9900012    2    3    3    0    0 -0.13954912253E+02 -0.27202647494E+02 -0.20519630568E+02  0.54367097711E+02  0.40000030853E+02 0.  0.
         12    1    3    3    0    0  0.13954912253E+02  0.27202647494E+02  0.20519630568E+02  0.36820902289E+02  0.00000000000E+00 0. -1.
         11    1    4    4    0    0  0.82539177064E+01 -0.73221972116E+01 -0.89495369188E+00  0.11069899362E+02  0.51100000000E-03 0. -1.
        -11    1    4    4    0    0  0.30075479872E+01 -0.88784844107E+01 -0.11027214403E+02  0.14473157502E+02  0.51100000000E-03 0.  1.
        -12    1    4    4    0    0 -0.25216377947E+02 -0.11001965872E+02 -0.85974624730E+01  0.28824040847E+02  0.00000000000E+00 0.  1.
</event>
<event>
 8    1  0.1210161E-006  0.9118800E+02  0.7816164E-02  0.1184000E+00
        -11   -1    0    0    0    0  0.00000000000E+00  0.00000000000E+00  0.45593999997E+02  0.45594000000E+02  0.51100000000E-03 0.  1.
         11   -1    0    0    0    0 -0.00000000000E+00 -0.00000000000E+00 -0.45593999997E+02  0.45594000000E+02  0.51100000000E-03 0. -1.
         23    2    1    2    0    0  0.00000000000E+00  0.00000000000E+00 -0.35527136788E-14  0.91188000000E+02  0.91188000000E+02 0.  0.
    9900012    2    3    3    0    0  0.26782593743E+02 -0.89290528440E+01  0.23637651215E+02  0.54367165310E+02  0.40000184958E+02 0.  0.
         12    1    3    3    0    0 -0.26782593743E+02  0.89290528440E+01 -0.23637651215E+02  0.36820834690E+02  0.00000000000E+00 0. -1.
         11    1    4    4    0    0  0.26162985888E+01 -0.15784782095E+02  0.50388394482E+01  0.16774810500E+02  0.51100000000E-03 0. -1.
        -11    1    4    4    0    0  0.21042895399E+02  0.94597982301E+01  0.52818209773E+01  0.23668309243E+02  0.51100000000E-03 0.  1.
         12    1    4    4    0    0  0.31233997556E+01 -0.26040689795E+01  0.13316990789E+02  0.13924045567E+02  0.00000000000E+00 0. -1.
</event>
<event>
 8    1  0.1210161E-006  0.9118800E+02  0.7816164E-02  0.1184000E+00
        -11   -1    0    0    0    0  0.00000000000E+00  0.00000000000E+00  0.45593999997E+02  0.45594000000E+02  0.51100000000E-03 0.  1.
         11   -1    0    0    0    0 -0.00000000000E+00 -0.00000000000E+00 -0.45593999997E+02  0.45594000000E+02  0.51100000000E-03 0. -1.
         23    2    1    2    0    0 -0.71054273576E-14  0.00000000000E+00  0.00000000000E+00  0.91188000000E+02  0.91188000000E+02 0.  0.
    9900012    2    3    3    0    0  0.35465070737E+02 -0.57538107542E+01 -0.80561850244E+01  0.54367086136E+02  0.40000004465E+02 0.  0.
         12    1    3    3    0    0 -0.35465070737E+02  0.57538107542E+01  0.80561850244E+01  0.36820913864E+02  0.00000000000E+00 0. -1.
         11    1    4    4    0    0  0.43265425639E+01 -0.64229584691E+01 -0.94755487061E+01  0.12237621893E+02  0.51100000000E-03 0. -1.
        -11    1    4    4    0    0  0.44911799103E+01 -0.37446388713E+01 -0.10956134770E+02  0.12418933393E+02  0.51100000000E-03 0.  1.
        -12    1    4    4    0    0  0.26647348263E+02  0.44137865862E+01  0.12375498452E+02  0.29710530850E+02  0.00000000000E+00 0.  1.
</event>
<event>
 8    1  0.1210161E-006  0.9118800E+02  0.7816164E-02  0.1184000E+00
        -11   -1    0    0    0    0  0.00000000000E+00  0.00000000000E+00  0.45593999997E+02  0.45594000000E+02  0.51100000000E-03 0.  1.
         11   -1    0    0    0    0 -0.00000000000E+00 -0.00000000000E+00 -0.45593999997E+02  0.45594000000E+02  0.51100000000E-03 0. -1.
         23    2    1    2    0    0  0.00000000000E+00  0.00000000000E+00  0.00000000000E+00  0.91188000000E+02  0.91188000000E+02 0.  0.
    9900012    2    3    3    0    0  0.16329959812E+02 -0.18297052661E+02  0.27465085296E+02  0.54367073425E+02  0.39999975486E+02 0.  0.
         12    1    3    3    0    0 -0.16329959812E+02  0.18297052661E+02 -0.27465085296E+02  0.36820926575E+02  0.00000000000E+00 0. -1.
         11    1    4    4    0    0  0.14011553518E+02  0.77243988170E+01  0.20101231543E+02  0.25691428120E+02  0.51100000000E-03 0. -1.
        -11    1    4    4    0    0  0.34462405356E+01 -0.13965430056E+02  0.81656184158E+01  0.16540469608E+02  0.51100000000E-03 0.  1.
         12    1    4    4    0    0 -0.11278342410E+01 -0.12056021422E+02 -0.80176466285E+00  0.12135175696E+02  0.00000000000E+00 0. -1.
</event>
<event>
 8    1  0.1210161E-006  0.9118800E+02  0.7816164E-02  0.1184000E+00
        -11   -1    0    0    0    0  0.00000000000E+00  0.00000000000E+00  0.45593999997E+02  0.45594000000E+02  0.51100000000E-03 0. -1.
         11   -1    0    0    0    0 -0.00000000000E+00 -0.00000000000E+00 -0.45593999997E+02  0.45594000000E+02  0.51100000000E-03 0.  1.
         23    2    1    2    0    0  0.00000000000E+00 -0.17763568394E-14 -0.35527136788E-14  0.91188000000E+02  0.91188000000E+02 0.  0.
    9900012    2    3    3    0    0  0.30128511260E+02 -0.91788260366E+01 -0.19073577744E+02  0.54367090097E+02  0.40000013493E+02 0.  0.
         12    1    3    3    0    0 -0.30128511260E+02  0.91788260366E+01  0.19073577744E+02  0.36820909903E+02  0.00000000000E+00 0. -1.
         11    1    4    4    0    0  0.95366053904E+00 -0.49021179347E+01 -0.16240402713E+01  0.52514508218E+01  0.51100000000E-03 0.  1.
        -11    1    4    4    0    0  0.12668754742E+02  0.14121534239E+02 -0.19655009138E+00  0.18972446025E+02  0.51100000000E-03 0. -1.
         12    1    4    4    0    0  0.16506095978E+02 -0.18398242341E+02 -0.17252987382E+02  0.30143193250E+02  0.00000000000E+00 0. -1.
</event>
<event>
 8    1  0.1210161E-006  0.9118800E+02  0.7816164E-02  0.1184000E+00
        -11   -1    0    0    0    0  0.00000000000E+00  0.00000000000E+00  0.45593999997E+02  0.45594000000E+02  0.51100000000E-03 0. -1.
         11   -1    0    0    0    0 -0.00000000000E+00 -0.00000000000E+00 -0.45593999997E+02  0.45594000000E+02  0.51100000000E-03 0.  1.
         23    2    1    2    0    0 -0.17763568394E-14  0.00000000000E+00  0.00000000000E+00  0.91188000000E+02  0.91188000000E+02 0.  0.
    9900012    2    3    3    0    0  0.56251579673E+01 -0.47510897779E+01  0.36077175681E+02  0.54367111074E+02  0.40000061314E+02 0.  0.
        -12    1    3    3    0    0 -0.56251579673E+01  0.47510897779E+01 -0.36077175681E+02  0.36820888926E+02  0.00000000000E+00 0.  1.
         11    1    4    4    0    0  0.20115735121E+02  0.48030284456E+01  0.14143307515E+02  0.25054840440E+02  0.51100000000E-03 0. -1.
        -11    1    4    4    0    0 -0.16519676565E-01 -0.35381201444E+01  0.24384921538E+01  0.42970700833E+01  0.51100000000E-03 0.  1.
        -12    1    4    4    0    0 -0.14474057478E+02 -0.60159980791E+01  0.19495376012E+02  0.25015200551E+02  0.00000000000E+00 0.  1.
</event>
<event>
 8    1  0.1210161E-006  0.9118800E+02  0.7816164E-02  0.1184000E+00
        -11   -1    0    0    0    0  0.00000000000E+00  0.00000000000E+00  0.45593999997E+02  0.45594000000E+02  0.51100000000E-03 0.  1.
         11   -1    0    0    0    0 -0.00000000000E+00 -0.00000000000E+00 -0.45593999997E+02  0.45594000000E+02  0.51100000000E-03 0. -1.
         23    2    1    2    0    0  0.00000000000E+00  0.00000000000E+00  0.00000000000E+00  0.91188000000E+02  0.91188000000E+02 0.  0.
    9900012    2    3    3    0    0 -0.46375819939E+01 -0.34972003913E+02 -0.10546655351E+02  0.54367079811E+02  0.39999990046E+02 0.  0.
        -12    1    3    3    0    0  0.46375819939E+01  0.34972003913E+02  0.10546655351E+02  0.36820920189E+02  0.00000000000E+00 0.  1.
         11    1    4    4    0    0  0.56060178732E+01 -0.11167909882E+02  0.75692909710E+00  0.12518889305E+02  0.51100000000E-03 0. -1.
        -11    1    4    4    0    0 -0.93727239339E+01 -0.26865505227E+02  0.16577434716E+01  0.28501779571E+02  0.51100000000E-03 0.  1.
         12    1    4    4    0    0 -0.87087593313E+00  0.30614111954E+01 -0.12961327920E+02  0.13346410935E+02  0.00000000000E+00 0. -1.
</event>
<event>
 8    1  0.1210161E-006  0.9118800E+02  0.7816164E-02  0.1184000E+00
        -11   -1    0    0    0    0  0.00000000000E+00  0.00000000000E+00  0.45593999997E+02  0.45594000000E+02  0.51100000000E-03 0.  1.
         11   -1    0    0    0    0 -0.00000000000E+00 -0.00000000000E+00 -0.45593999997E+02  0.45594000000E+02  0.51100000000E-03 0. -1.
         23    2    1    2    0    0  0.00000000000E+00  0.00000000000E+00  0.00000000000E+00  0.91188000000E+02  0.91188000000E+02 0.  0.
    9900012    2    3    3    0    0 -0.89824267413E+01  0.15082244327E+02 -0.32366978561E+02  0.54367090379E+02  0.40000014137E+02 0.  0.
        -12    1    3    3    0    0  0.89824267413E+01 -0.15082244327E+02  0.32366978561E+02  0.36820909621E+02  0.00000000000E+00 0.  1.
         11    1    4    4    0    0  0.23444936276E+01  0.13993988042E+01 -0.15015939540E+01  0.31160475040E+01  0.51100000000E-03 0. -1.
        -11    1    4    4    0    0  0.96812121937E+01  0.16340113918E+02 -0.19489308414E+02  0.27213201486E+02  0.51100000000E-03 0.  1.
         12    1    4    4    0    0 -0.21008132563E+02 -0.26572683954E+01 -0.11376076193E+02  0.24037841389E+02  0.00000000000E+00 0. -1.
</event>
<event>
 8    1  0.1210161E-006  0.9118800E+02  0.7816164E-02  0.1184000E+00
        -11   -1    0    0    0    0  0.00000000000E+00  0.00000000000E+00  0.45593999997E+02  0.45594000000E+02  0.51100000000E-03 0.  1.
         11   -1    0    0    0    0 -0.00000000000E+00 -0.00000000000E+00 -0.45593999997E+02  0.45594000000E+02  0.51100000000E-03 0. -1.
         23    2    1    2    0    0  0.71054273576E-14  0.00000000000E+00  0.35527136788E-14  0.91188000000E+02  0.91188000000E+02 0.  0.
    9900012    2    3    3    0    0  0.35428583871E+02 -0.79303091929E+01  0.61406274440E+01  0.54367059430E+02  0.39999943583E+02 0.  0.
        -12    1    3    3    0    0 -0.35428583871E+02  0.79303091929E+01 -0.61406274440E+01  0.36820940570E+02  0.00000000000E+00 0.  1.
         11    1    4    4    0    0  0.27299345647E+02 -0.10193614503E+02  0.17068850146E+02  0.33771433120E+02  0.51100000000E-03 0. -1.
        -11    1    4    4    0    0  0.10471230072E+00 -0.27286298396E+01  0.28116444033E+01  0.39194042888E+01  0.51100000000E-03 0.  1.
         12    1    4    4    0    0  0.80245259241E+01  0.49919351498E+01 -0.13739867106E+02  0.16676222022E+02  0.00000000000E+00 0. -1.
</event>
<event>
 8    1  0.1210161E-006  0.9118800E+02  0.7816164E-02  0.1184000E+00
        -11   -1    0    0    0    0  0.00000000000E+00  0.00000000000E+00  0.45593999997E+02  0.45594000000E+02  0.51100000000E-03 0.  1.
         11   -1    0    0    0    0 -0.00000000000E+00 -0.00000000000E+00 -0.45593999997E+02  0.45594000000E+02  0.51100000000E-03 0. -1.
         23    2    1    2    0    0  0.00000000000E+00  0.44408920985E-15 -0.11102230246E-14  0.91188000000E+02  0.91188000000E+02 0.  0.
    9900012    2    3    3    0    0  0.36706765816E+02 -0.25683564235E+01  0.13405492992E+01  0.54367079536E+02  0.39999989419E+02 0.  0.
         12    1    3    3    0    0 -0.36706765816E+02  0.25683564235E+01 -0.13405492992E+01  0.36820920464E+02  0.00000000000E+00 0. -1.
         11    1    4    4    0    0  0.27515392653E+02 -0.14153275351E+02  0.92346601935E+01  0.32290725993E+02  0.51100000000E-03 0. -1.
        -11    1    4    4    0    0  0.76161930352E+01  0.11472404529E+02  0.25792997438E+00  0.13772762619E+02  0.51100000000E-03 0.  1.
         12    1    4    4    0    0  0.15751801281E+01  0.11251439904E+00 -0.81520408686E+01  0.83035909250E+01  0.00000000000E+00 0. -1.
</event>
<event>
 8    1  0.1210161E-006  0.9118800E+02  0.7816164E-02  0.1184000E+00
        -11   -1    0    0    0    0  0.00000000000E+00  0.00000000000E+00  0.45593999997E+02  0.45594000000E+02  0.51100000000E-03 0. -1.
         11   -1    0    0    0    0 -0.00000000000E+00 -0.00000000000E+00 -0.45593999997E+02  0.45594000000E+02  0.51100000000E-03 0.  1.
         23    2    1    2    0    0  0.55511151231E-16  0.00000000000E+00  0.00000000000E+00  0.91188000000E+02  0.91188000000E+02 0.  0.
    9900012    2    3    3    0    0  0.25996612158E+00 -0.34445068868E+02 -0.13009286981E+02  0.54367192031E+02  0.40000245873E+02 0.  0.
         12    1    3    3    0    0 -0.25996612158E+00  0.34445068868E+02  0.13009286981E+02  0.36820807969E+02  0.00000000000E+00 0. -1.
         11    1    4    4    0    0  0.39258556395E+01 -0.12323162064E+00 -0.90504904401E+01  0.98660481451E+01  0.51100000000E-03 0. -1.
        -11    1    4    4    0    0 -0.41054874298E+01 -0.39064972889E+02 -0.19413024311E+01  0.39328053463E+02  0.51100000000E-03 0.  1.
        -12    1    4    4    0    0  0.43959791184E+00  0.47431356415E+01 -0.20174941102E+01  0.51730904228E+01  0.00000000000E+00 0.  1.
</event>
<event>
 8    1  0.1210161E-006  0.9118800E+02  0.7816164E-02  0.1184000E+00
        -11   -1    0    0    0    0  0.00000000000E+00  0.00000000000E+00  0.45593999997E+02  0.45594000000E+02  0.51100000000E-03 0.  1.
         11   -1    0    0    0    0 -0.00000000000E+00 -0.00000000000E+00 -0.45593999997E+02  0.45594000000E+02  0.51100000000E-03 0. -1.
         23    2    1    2    0    0 -0.17763568394E-14  0.00000000000E+00 -0.17763568394E-14  0.91188000000E+02  0.91188000000E+02 0.  0.
    9900012    2    3    3    0    0 -0.13802962263E+02 -0.30862732349E+02  0.14585951147E+02  0.54367082220E+02  0.39999995537E+02 0.  0.
        -12    1    3    3    0    0  0.13802962263E+02  0.30862732349E+02 -0.14585951147E+02  0.36820917780E+02  0.00000000000E+00 0.  1.
         11    1    4    4    0    0  0.10901538793E+02 -0.83954903657E+01  0.46464572526E+01  0.14522994588E+02  0.51100000000E-03 0. -1.
        -11    1    4    4    0    0 -0.12282157363E+02 -0.20105557479E+02  0.12895253466E+02  0.26858376594E+02  0.51100000000E-03 0.  1.
        -12    1    4    4    0    0 -0.12422343693E+02 -0.23616845042E+01 -0.29557595714E+01  0.12985711038E+02  0.00000000000E+00 0.  1.
</event>
<event>
 8    1  0.1210161E-006  0.9118800E+02  0.7816164E-02  0.1184000E+00
        -11   -1    0    0    0    0  0.00000000000E+00  0.00000000000E+00  0.45593999997E+02  0.45594000000E+02  0.51100000000E-03 0.  1.
         11   -1    0    0    0    0 -0.00000000000E+00 -0.00000000000E+00 -0.45593999997E+02  0.45594000000E+02  0.51100000000E-03 0. -1.
         23    2    1    2    0    0  0.22204460493E-15 -0.71054273576E-14  0.99920072216E-15  0.91188000000E+02  0.91188000000E+02 0.  0.
    9900012    2    3    3    0    0 -0.45519318411E+00  0.36816135296E+02 -0.38257625903E+00  0.54367063245E+02  0.39999952279E+02 0.  0.
         12    1    3    3    0    0  0.45519318411E+00 -0.36816135296E+02  0.38257625903E+00  0.36820936755E+02  0.00000000000E+00 0. -1.
         11    1    4    4    0    0  0.29403237710E+01  0.58689514936E+01 -0.13960072447E+02  0.15426396808E+02  0.51100000000E-03 0. -1.
        -11    1    4    4    0    0  0.26107123905E+01  0.26150348557E+02  0.38783648579E+01  0.26564981895E+02  0.51100000000E-03 0.  1.
        -12    1    4    4    0    0 -0.60062293457E+01  0.47968352449E+01  0.96991313297E+01  0.12375684541E+02  0.00000000000E+00 0.  1.
</event>
<event>
 8    1  0.1210161E-006  0.9118800E+02  0.7816164E-02  0.1184000E+00
        -11   -1    0    0    0    0  0.00000000000E+00  0.00000000000E+00  0.45593999997E+02  0.45594000000E+02  0.51100000000E-03 0.  1.
         11   -1    0    0    0    0 -0.00000000000E+00 -0.00000000000E+00 -0.45593999997E+02  0.45594000000E+02  0.51100000000E-03 0. -1.
         23    2    1    2    0    0  0.35527136788E-14 -0.35527136788E-14 -0.88817841970E-15  0.91188000000E+02  0.91188000000E+02 0.  0.
    9900012    2    3    3    0    0 -0.31711463218E+02  0.17444280373E+02  0.67719713786E+01  0.54367089996E+02  0.40000013264E+02 0.  0.
        -12    1    3    3    0    0  0.31711463218E+02 -0.17444280373E+02 -0.67719713786E+01  0.36820910004E+02  0.00000000000E+00 0.  1.
         11    1    4    4    0    0 -0.12253798640E+02 -0.37563285506E+01  0.60377364025E+01  0.14167563179E+02  0.51100000000E-03 0. -1.
        -11    1    4    4    0    0  0.89157057385E-01 -0.30889049566E+01  0.76616272055E+01  0.82613445945E+01  0.51100000000E-03 0.  1.
         12    1    4    4    0    0 -0.19546821635E+02  0.24289513880E+02 -0.69273922293E+01  0.31938182222E+02  0.00000000000E+00 0. -1.
</event>
<event>
 8    1  0.1210161E-006  0.9118800E+02  0.7816164E-02  0.1184000E+00
        -11   -1    0    0    0    0  0.00000000000E+00  0.00000000000E+00  0.45593999997E+02  0.45594000000E+02  0.51100000000E-03 0.  1.
         11   -1    0    0    0    0 -0.00000000000E+00 -0.00000000000E+00 -0.45593999997E+02  0.45594000000E+02  0.51100000000E-03 0. -1.
         23    2    1    2    0    0  0.35527136788E-14  0.35527136788E-14  0.00000000000E+00  0.91188000000E+02  0.91188000000E+02 0.  0.
    9900012    2    3    3    0    0  0.17960322492E+02  0.22900860616E+02 -0.22555639519E+02  0.54367089160E+02  0.40000011359E+02 0.  0.
        -12    1    3    3    0    0 -0.17960322492E+02 -0.22900860616E+02  0.22555639519E+02  0.36820910840E+02  0.00000000000E+00 0.  1.
         11    1    4    4    0    0 -0.44358287000E+00  0.24153793245E+00  0.25465388986E+01  0.25961446336E+01  0.51100000000E-03 0. -1.
        -11    1    4    4    0    0  0.12291172873E+02  0.37677440528E+01  0.65331944712E+01  0.14420522047E+02  0.51100000000E-03 0.  1.
         12    1    4    4    0    0  0.61127324884E+01  0.18891578631E+02 -0.31635372889E+02  0.37350422480E+02  0.00000000000E+00 0. -1.
</event>
<event>
 8    1  0.1210161E-006  0.9118800E+02  0.7816164E-02  0.1184000E+00
        -11   -1    0    0    0    0  0.00000000000E+00  0.00000000000E+00  0.45593999997E+02  0.45594000000E+02  0.51100000000E-03 0.  1.
         11   -1    0    0    0    0 -0.00000000000E+00 -0.00000000000E+00 -0.45593999997E+02  0.45594000000E+02  0.51100000000E-03 0. -1.
         23    2    1    2    0    0 -0.17763568394E-14  0.00000000000E+00 -0.88817841970E-15  0.91188000000E+02  0.91188000000E+02 0.  0.
    9900012    2    3    3    0    0 -0.13557706339E+02 -0.33904232157E+02 -0.47404034489E+01  0.54367084963E+02  0.40000001790E+02 0.  0.
         12    1    3    3    0    0  0.13557706339E+02  0.33904232157E+02  0.47404034489E+01  0.36820915037E+02  0.00000000000E+00 0. -1.
         11    1    4    4    0    0 -0.14940123334E+02 -0.26187131222E+02  0.67822515257E+01  0.30902622266E+02  0.51100000000E-03 0. -1.
        -11    1    4    4    0    0 -0.19377056290E+01 -0.12632334587E+02 -0.30791887675E+01  0.13145797198E+02  0.51100000000E-03 0.  1.
        -12    1    4    4    0    0  0.33201226247E+01  0.49152336524E+01 -0.84434662071E+01  0.10318665500E+02  0.00000000000E+00 0.  1.
</event>
<event>
 8    1  0.1210161E-006  0.9118800E+02  0.7816164E-02  0.1184000E+00
        -11   -1    0    0    0    0  0.00000000000E+00  0.00000000000E+00  0.45593999997E+02  0.45594000000E+02  0.51100000000E-03 0.  1.
         11   -1    0    0    0    0 -0.00000000000E+00 -0.00000000000E+00 -0.45593999997E+02  0.45594000000E+02  0.51100000000E-03 0. -1.
         23    2    1    2    0    0  0.00000000000E+00  0.17763568394E-14 -0.35527136788E-14  0.91188000000E+02  0.91188000000E+02 0.  0.
    9900012    2    3    3    0    0 -0.33707279694E+02 -0.10194975293E+02 -0.10754626575E+02  0.54367079067E+02  0.39999988349E+02 0.  0.
        -12    1    3    3    0    0  0.33707279694E+02  0.10194975293E+02  0.10754626575E+02  0.36820920933E+02  0.00000000000E+00 0.  1.
         11    1    4    4    0    0 -0.24509406428E+02 -0.58174791327E+01 -0.24570418792E+02  0.35188912271E+02  0.51100000000E-03 0. -1.
        -11    1    4    4    0    0 -0.10292844134E+02 -0.18756043308E+01  0.11882796290E+02  0.15832289156E+02  0.51100000000E-03 0.  1.
         12    1    4    4    0    0  0.10949708684E+01 -0.25018918295E+01  0.19329959271E+01  0.33458776402E+01  0.00000000000E+00 0. -1.
</event>
<event>
 8    1  0.1210161E-006  0.9118800E+02  0.7816164E-02  0.1184000E+00
        -11   -1    0    0    0    0  0.00000000000E+00  0.00000000000E+00  0.45593999997E+02  0.45594000000E+02  0.51100000000E-03 0.  1.
         11   -1    0    0    0    0 -0.00000000000E+00 -0.00000000000E+00 -0.45593999997E+02  0.45594000000E+02  0.51100000000E-03 0. -1.
         23    2    1    2    0    0  0.00000000000E+00  0.00000000000E+00 -0.44408920985E-15  0.91188000000E+02  0.91188000000E+02 0.  0.
    9900012    2    3    3    0    0  0.36315271773E+02  0.51437341499E+01 -0.32451759433E+01  0.54366971608E+02  0.39999743374E+02 0.  0.
         12    1    3    3    0    0 -0.36315271773E+02 -0.51437341499E+01  0.32451759433E+01  0.36821028392E+02  0.00000000000E+00 0. -1.
         11    1    4    4    0    0  0.35336956466E+02  0.39424471482E+01  0.87077142853E+01  0.36606934727E+02  0.51100000000E-03 0. -1.
        -11    1    4    4    0    0  0.43701383857E+01  0.58176040798E+01 -0.79165051314E+01  0.10752380225E+02  0.51100000000E-03 0.  1.
         12    1    4    4    0    0 -0.33918230784E+01 -0.46163170781E+01 -0.40363850972E+01  0.70076566564E+01  0.00000000000E+00 0. -1.
</event>
<event>
 8    1  0.1210161E-006  0.9118800E+02  0.7816164E-02  0.1184000E+00
        -11   -1    0    0    0    0  0.00000000000E+00  0.00000000000E+00  0.45593999997E+02  0.45594000000E+02  0.51100000000E-03 0.  1.
         11   -1    0    0    0    0 -0.00000000000E+00 -0.00000000000E+00 -0.45593999997E+02  0.45594000000E+02  0.51100000000E-03 0. -1.
         23    2    1    2    0    0  0.35527136788E-14 -0.17763568394E-14  0.00000000000E+00  0.91188000000E+02  0.91188000000E+02 0.  0.
    9900012    2    3    3    0    0 -0.30359401966E+02 -0.13283515364E+02  0.16051072847E+02  0.54367054769E+02  0.39999932957E+02 0.  0.
         12    1    3    3    0    0  0.30359401966E+02  0.13283515364E+02 -0.16051072847E+02  0.36820945231E+02  0.00000000000E+00 0. -1.
         11    1    4    4    0    0 -0.15263585203E+01 -0.16132279425E+02  0.25366675884E+01  0.16401673466E+02  0.51100000000E-03 0. -1.
        -11    1    4    4    0    0 -0.31759964202E+02  0.14416291176E+01  0.13893244753E+02  0.34695761566E+02  0.51100000000E-03 0.  1.
         12    1    4    4    0    0  0.29269207564E+01  0.14071349428E+01 -0.37883949410E+00  0.32696197368E+01  0.00000000000E+00 0. -1.
</event>
<event>
 8    1  0.1210161E-006  0.9118800E+02  0.7816164E-02  0.1184000E+00
        -11   -1    0    0    0    0  0.00000000000E+00  0.00000000000E+00  0.45593999997E+02  0.45594000000E+02  0.51100000000E-03 0.  1.
         11   -1    0    0    0    0 -0.00000000000E+00 -0.00000000000E+00 -0.45593999997E+02  0.45594000000E+02  0.51100000000E-03 0. -1.
         23    2    1    2    0    0  0.00000000000E+00  0.00000000000E+00  0.35527136788E-14  0.91188000000E+02  0.91188000000E+02 0.  0.
    9900012    2    3    3    0    0  0.26305531527E+02 -0.14904309073E+02 -0.21015715094E+02  0.54367086123E+02  0.40000004434E+02 0.  0.
         12    1    3    3    0    0 -0.26305531527E+02  0.14904309073E+02  0.21015715094E+02  0.36820913877E+02  0.00000000000E+00 0. -1.
         11    1    4    4    0    0  0.15417855987E+02 -0.17976538544E+02 -0.17940838223E+02  0.29710939023E+02  0.51100000000E-03 0. -1.
        -11    1    4    4    0    0  0.34224759476E+01  0.68205775886E+01 -0.10836245034E+02  0.13253596756E+02  0.51100000000E-03 0.  1.
        -12    1    4    4    0    0  0.74651995928E+01 -0.37483481172E+01  0.77613681636E+01  0.11402550344E+02  0.00000000000E+00 0.  1.
</event>
<event>
 8    1  0.1210161E-006  0.9118800E+02  0.7816164E-02  0.1184000E+00
        -11   -1    0    0    0    0  0.00000000000E+00  0.00000000000E+00  0.45593999997E+02  0.45594000000E+02  0.51100000000E-03 0.  1.
         11   -1    0    0    0    0 -0.00000000000E+00 -0.00000000000E+00 -0.45593999997E+02  0.45594000000E+02  0.51100000000E-03 0. -1.
         23    2    1    2    0    0  0.00000000000E+00  0.88817841970E-15  0.17763568394E-14  0.91188000000E+02  0.91188000000E+02 0.  0.
    9900012    2    3    3    0    0 -0.34895348474E+02 -0.46913944231E+01  0.10774308106E+02  0.54367078747E+02  0.39999987620E+02 0.  0.
         12    1    3    3    0    0  0.34895348474E+02  0.46913944231E+01 -0.10774308106E+02  0.36820921253E+02  0.00000000000E+00 0. -1.
         11    1    4    4    0    0 -0.22341743626E+02 -0.93775178479E+01  0.12406017755E+02  0.27221326676E+02  0.51100000000E-03 0. -1.
        -11    1    4    4    0    0 -0.10499482853E+02  0.13992945541E+02 -0.11109979814E+00  0.17494399347E+02  0.51100000000E-03 0.  1.
         12    1    4    4    0    0 -0.20541219959E+01 -0.93068221163E+01 -0.15206098512E+01  0.96513527237E+01  0.00000000000E+00 0. -1.
</event>
<event>
 8    1  0.1210161E-006  0.9118800E+02  0.7816164E-02  0.1184000E+00
        -11   -1    0    0    0    0  0.00000000000E+00  0.00000000000E+00  0.45593999997E+02  0.45594000000E+02  0.51100000000E-03 0. -1.
         11   -1    0    0    0    0 -0.00000000000E+00 -0.00000000000E+00 -0.45593999997E+02  0.45594000000E+02  0.51100000000E-03 0.  1.
         23    2    1    2    0    0 -0.35527136788E-14  0.22204460493E-15  0.35527136788E-14  0.91188000000E+02  0.91188000000E+02 0.  0.
    9900012    2    3    3    0    0  0.23957205899E+02  0.14632847211E+01  0.27922932987E+02  0.54367094209E+02  0.40000022868E+02 0.  0.
        -12    1    3    3    0    0 -0.23957205899E+02 -0.14632847211E+01 -0.27922932987E+02  0.36820905791E+02  0.00000000000E+00 0.  1.
         11    1    4    4    0    0  0.27087264316E+02 -0.66932055828E+00  0.15517053891E+02  0.31224138736E+02  0.51100000000E-03 0. -1.
        -11    1    4    4    0    0 -0.26305289580E+01 -0.11026100702E+01  0.17146387636E+02  0.17382003359E+02  0.51100000000E-03 0.  1.
        -12    1    4    4    0    0 -0.49952945840E+00  0.32352153495E+01 -0.47405085394E+01  0.57609521131E+01  0.00000000000E+00 0.  1.
</event>
<event>
 8    1  0.1210161E-006  0.9118800E+02  0.7816164E-02  0.1184000E+00
        -11   -1    0    0    0    0  0.00000000000E+00  0.00000000000E+00  0.45593999997E+02  0.45594000000E+02  0.51100000000E-03 0.  1.
         11   -1    0    0    0    0 -0.00000000000E+00 -0.00000000000E+00 -0.45593999997E+02  0.45594000000E+02  0.51100000000E-03 0. -1.
         23    2    1    2    0    0  0.71054273576E-14  0.35527136788E-14  0.71054273576E-14  0.91188000000E+02  0.91188000000E+02 0.  0.
    9900012    2    3    3    0    0 -0.19074269238E+02 -0.20106577737E+02 -0.24242055655E+02  0.54367089126E+02  0.40000011279E+02 0.  0.
        -12    1    3    3    0    0  0.19074269238E+02  0.20106577737E+02  0.24242055655E+02  0.36820910874E+02  0.00000000000E+00 0.  1.
         11    1    4    4    0    0 -0.20368722214E+02 -0.21186211257E+02 -0.24670133533E+02  0.38371289799E+02  0.51100000000E-03 0. -1.
        -11    1    4    4    0    0 -0.22767790269E+01 -0.61361515611E+01 -0.30558417870E+01  0.72231743718E+01  0.51100000000E-03 0.  1.
        -12    1    4    4    0    0  0.35712320026E+01  0.72157850817E+01  0.34839196649E+01  0.87726249545E+01  0.00000000000E+00 0.  1.
</event>
<event>
 8    1  0.1210161E-006  0.9118800E+02  0.7816164E-02  0.1184000E+00
        -11   -1    0    0    0    0  0.00000000000E+00  0.00000000000E+00  0.45593999997E+02  0.45594000000E+02  0.51100000000E-03 0.  1.
         11   -1    0    0    0    0 -0.00000000000E+00 -0.00000000000E+00 -0.45593999997E+02  0.45594000000E+02  0.51100000000E-03 0. -1.
         23    2    1    2    0    0  0.00000000000E+00  0.00000000000E+00  0.22204460493E-15  0.91188000000E+02  0.91188000000E+02 0.  0.
    9900012    2    3    3    0    0  0.34990306406E+02 -0.11289837345E+02  0.19993538872E+01  0.54367090375E+02  0.40000014128E+02 0.  0.
         12    1    3    3    0    0 -0.34990306406E+02  0.11289837345E+02 -0.19993538872E+01  0.36820909625E+02  0.00000000000E+00 0. -1.
         11    1    4    4    0    0  0.11651081899E+02  0.10385939370E+02  0.70938698677E+01  0.17144632862E+02  0.51100000000E-03 0. -1.
        -11    1    4    4    0    0  0.19171818046E+02 -0.23211859443E+02  0.46174225136E+00  0.30109171894E+02  0.51100000000E-03 0.  1.
        -12    1    4    4    0    0  0.41674064609E+01  0.15360827285E+01 -0.55562582319E+01  0.71132856191E+01  0.00000000000E+00 0.  1.
</event>
<event>
 8    1  0.1210161E-006  0.9118800E+02  0.7816164E-02  0.1184000E+00
        -11   -1    0    0    0    0  0.00000000000E+00  0.00000000000E+00  0.45593999997E+02  0.45594000000E+02  0.51100000000E-03 0. -1.
         11   -1    0    0    0    0 -0.00000000000E+00 -0.00000000000E+00 -0.45593999997E+02  0.45594000000E+02  0.51100000000E-03 0.  1.
         23    2    1    2    0    0 -0.35527136788E-14 -0.33306690739E-15  0.00000000000E+00  0.91188000000E+02  0.91188000000E+02 0.  0.
    9900012    2    3    3    0    0  0.20420515911E+02  0.43515521609E+00  0.30636467205E+02  0.54367082671E+02  0.39999996566E+02 0.  0.
        -12    1    3    3    0    0 -0.20420515911E+02 -0.43515521609E+00 -0.30636467205E+02  0.36820917329E+02  0.00000000000E+00 0.  1.
         11    1    4    4    0    0 -0.68814671630E+01 -0.21307038543E+01  0.15154682155E+01  0.73614627217E+01  0.51100000000E-03 0. -1.
        -11    1    4    4    0    0  0.13144272887E+01  0.45175598363E+01 -0.30473437593E+01  0.56055660035E+01  0.51100000000E-03 0.  1.
         12    1    4    4    0    0  0.25987555785E+02 -0.19517007659E+01  0.32168342749E+02  0.41400053946E+02  0.00000000000E+00 0. -1.
</event>
<event>
 8    1  0.1210161E-006  0.9118800E+02  0.7816164E-02  0.1184000E+00
        -11   -1    0    0    0    0  0.00000000000E+00  0.00000000000E+00  0.45593999997E+02  0.45594000000E+02  0.51100000000E-03 0. -1.
         11   -1    0    0    0    0 -0.00000000000E+00 -0.00000000000E+00 -0.45593999997E+02  0.45594000000E+02  0.51100000000E-03 0.  1.
         23    2    1    2    0    0  0.22204460493E-15  0.00000000000E+00  0.00000000000E+00  0.91188000000E+02  0.91188000000E+02 0.  0.
    9900012    2    3    3    0    0  0.18849029125E+01  0.21226278273E+02 -0.30027857377E+02  0.54367082481E+02  0.39999996131E+02 0.  0.
         12    1    3    3    0    0 -0.18849029125E+01 -0.21226278273E+02  0.30027857377E+02  0.36820917519E+02  0.00000000000E+00 0. -1.
         11    1    4    4    0    0  0.39943112897E+01  0.13603830646E+02  0.65552385995E+01  0.15620175552E+02  0.51100000000E-03 0. -1.
        -11    1    4    4    0    0 -0.61144789840E+01  0.50201562614E+01 -0.20661482668E+02  0.22124323457E+02  0.51100000000E-03 0.  1.
         12    1    4    4    0    0  0.40050706068E+01  0.26022913657E+01 -0.15921613309E+02  0.16622583471E+02  0.00000000000E+00 0. -1.
</event>
<event>
 8    1  0.1210161E-006  0.9118800E+02  0.7816164E-02  0.1184000E+00
        -11   -1    0    0    0    0  0.00000000000E+00  0.00000000000E+00  0.45593999997E+02  0.45594000000E+02  0.51100000000E-03 0.  1.
         11   -1    0    0    0    0 -0.00000000000E+00 -0.00000000000E+00 -0.45593999997E+02  0.45594000000E+02  0.51100000000E-03 0. -1.
         23    2    1    2    0    0  0.00000000000E+00  0.00000000000E+00  0.17763568394E-14  0.91188000000E+02  0.91188000000E+02 0.  0.
    9900012    2    3    3    0    0  0.36028171980E+02  0.74065703346E+01  0.17010321958E+01  0.54367082427E+02  0.39999996009E+02 0.  0.
         12    1    3    3    0    0 -0.36028171980E+02 -0.74065703346E+01 -0.17010321958E+01  0.36820917573E+02  0.00000000000E+00 0. -1.
         11    1    4    4    0    0  0.10715323536E+02 -0.23511042451E+00 -0.38578504170E+01  0.11391068672E+02  0.51100000000E-03 0. -1.
        -11    1    4    4    0    0  0.15466727783E+02  0.12801090634E+02 -0.11105894515E+02  0.22944029353E+02  0.51100000000E-03 0.  1.
         12    1    4    4    0    0  0.98461206614E+01 -0.51594098750E+01  0.16664777128E+02  0.20031984401E+02  0.00000000000E+00 0. -1.
</event>
<event>
 8    1  0.1210161E-006  0.9118800E+02  0.7816164E-02  0.1184000E+00
        -11   -1    0    0    0    0  0.00000000000E+00  0.00000000000E+00  0.45593999997E+02  0.45594000000E+02  0.51100000000E-03 0.  1.
         11   -1    0    0    0    0 -0.00000000000E+00 -0.00000000000E+00 -0.45593999997E+02  0.45594000000E+02  0.51100000000E-03 0. -1.
         23    2    1    2    0    0 -0.35527136788E-14 -0.17763568394E-14  0.00000000000E+00  0.91188000000E+02  0.91188000000E+02 0.  0.
    9900012    2    3    3    0    0 -0.27046426440E+02  0.11203196526E+02 -0.22332930922E+02  0.54367073897E+02  0.39999976563E+02 0.  0.
        -12    1    3    3    0    0  0.27046426440E+02 -0.11203196526E+02  0.22332930922E+02  0.36820926103E+02  0.00000000000E+00 0.  1.
         11    1    4    4    0    0 -0.26978957271E+02  0.82796121032E+01 -0.82860563836E+01  0.29412154676E+02  0.51100000000E-03 0. -1.
        -11    1    4    4    0    0 -0.61935747070E+01  0.30074330854E+01  0.24884738116E+01  0.73210329590E+01  0.51100000000E-03 0.  1.
         12    1    4    4    0    0  0.61261055384E+01 -0.83848663121E-01 -0.16535348349E+02  0.17633886262E+02  0.00000000000E+00 0. -1.
</event>
<event>
 8    1  0.1210161E-006  0.9118800E+02  0.7816164E-02  0.1184000E+00
        -11   -1    0    0    0    0  0.00000000000E+00  0.00000000000E+00  0.45593999997E+02  0.45594000000E+02  0.51100000000E-03 0.  1.
         11   -1    0    0    0    0 -0.00000000000E+00 -0.00000000000E+00 -0.45593999997E+02  0.45594000000E+02  0.51100000000E-03 0. -1.
         23    2    1    2    0    0  0.35527136788E-14  0.00000000000E+00  0.00000000000E+00  0.91188000000E+02  0.91188000000E+02 0.  0.
    9900012    2    3    3    0    0  0.27797466284E+02 -0.23692678084E+02  0.46621585992E+01  0.54367111236E+02  0.40000061684E+02 0.  0.
         12    1    3    3    0    0 -0.27797466284E+02  0.23692678084E+02 -0.46621585992E+01  0.36820888764E+02  0.00000000000E+00 0. -1.
         11    1    4    4    0    0  0.82287721972E+01 -0.72106968235E+01 -0.72422224250E+01  0.13120847018E+02  0.51100000000E-03 0. -1.
        -11    1    4    4    0    0  0.27696480979E+02 -0.12810195351E+02  0.10128512299E+02  0.32152494852E+02  0.51100000000E-03 0.  1.
         12    1    4    4    0    0 -0.81277868928E+01 -0.36717859101E+01  0.17758687251E+01  0.90937693655E+01  0.00000000000E+00 0. -1.
</event>
<event>
 8    1  0.1210161E-006  0.9118800E+02  0.7816164E-02  0.1184000E+00
        -11   -1    0    0    0    0  0.00000000000E+00  0.00000000000E+00  0.45593999997E+02  0.45594000000E+02  0.51100000000E-03 0. -1.
         11   -1    0    0    0    0 -0.00000000000E+00 -0.00000000000E+00 -0.45593999997E+02  0.45594000000E+02  0.51100000000E-03 0.  1.
         23    2    1    2    0    0  0.00000000000E+00 -0.35527136788E-14  0.00000000000E+00  0.91188000000E+02  0.91188000000E+02 0.  0.
    9900012    2    3    3    0    0  0.10497781588E+02  0.30034934842E+02 -0.18533176400E+02  0.54367090768E+02  0.40000015023E+02 0.  0.
         12    1    3    3    0    0 -0.10497781588E+02 -0.30034934842E+02  0.18533176400E+02  0.36820909232E+02  0.00000000000E+00 0. -1.
         11    1    4    4    0    0 -0.55224066646E+01  0.13129748715E+00  0.47690978304E+00  0.55445159935E+01  0.51100000000E-03 0. -1.
        -11    1    4    4    0    0 -0.79923631949E+01  0.34426465974E+01 -0.85908460416E+00  0.87445818455E+01  0.51100000000E-03 0.  1.
        -12    1    4    4    0    0  0.24012551448E+02  0.26460990757E+02 -0.18151001579E+02  0.40077992929E+02  0.00000000000E+00 0.  1.
</event>
<event>
 8    1  0.1210161E-006  0.9118800E+02  0.7816164E-02  0.1184000E+00
        -11   -1    0    0    0    0  0.00000000000E+00  0.00000000000E+00  0.45593999997E+02  0.45594000000E+02  0.51100000000E-03 0.  1.
         11   -1    0    0    0    0 -0.00000000000E+00 -0.00000000000E+00 -0.45593999997E+02  0.45594000000E+02  0.51100000000E-03 0. -1.
         23    2    1    2    0    0  0.00000000000E+00 -0.71054273576E-14  0.17763568394E-14  0.91188000000E+02  0.91188000000E+02 0.  0.
    9900012    2    3    3    0    0 -0.58892705477E+01  0.34041140004E+02 -0.12739485311E+02  0.54367119968E+02  0.40000081590E+02 0.  0.
        -12    1    3    3    0    0  0.58892705477E+01 -0.34041140004E+02  0.12739485311E+02  0.36820880032E+02  0.00000000000E+00 0.  1.
         11    1    4    4    0    0 -0.84616268303E+01  0.24168975928E+02 -0.14775665789E+02  0.29564485887E+02  0.51100000000E-03 0. -1.
        -11    1    4    4    0    0  0.66449180726E+01 -0.43374524576E+00 -0.76091446975E+01  0.10111486262E+02  0.51100000000E-03 0.  1.
        -12    1    4    4    0    0 -0.40725617900E+01  0.10305909322E+02  0.96453251754E+01  0.14691147819E+02  0.00000000000E+00 0.  1.
</event>
<event>
 8    1  0.1210161E-006  0.9118800E+02  0.7816164E-02  0.1184000E+00
        -11   -1    0    0    0    0  0.00000000000E+00  0.00000000000E+00  0.45593999997E+02  0.45594000000E+02  0.51100000000E-03 0. -1.
         11   -1    0    0    0    0 -0.00000000000E+00 -0.00000000000E+00 -0.45593999997E+02  0.45594000000E+02  0.51100000000E-03 0.  1.
         23    2    1    2    0    0  0.35527136788E-14 -0.88817841970E-15  0.00000000000E+00  0.91188000000E+02  0.91188000000E+02 0.  0.
    9900012    2    3    3    0    0 -0.17341904248E+02  0.55050627560E+01  0.32011452686E+02  0.54367075759E+02  0.39999980808E+02 0.  0.
        -12    1    3    3    0    0  0.17341904248E+02 -0.55050627560E+01 -0.32011452686E+02  0.36820924241E+02  0.00000000000E+00 0.  1.
         11    1    4    4    0    0  0.65611167781E+01  0.85655737600E+01  0.19136262415E+02  0.21968473927E+02  0.51100000000E-03 0. -1.
        -11    1    4    4    0    0 -0.72130215681E+00 -0.24412377024E+01 -0.32684286975E+01  0.41427701762E+01  0.51100000000E-03 0.  1.
        -12    1    4    4    0    0 -0.23181718869E+02 -0.61927330155E+00  0.16143618968E+02  0.28255831656E+02  0.00000000000E+00 0.  1.
</event>
<event>
 8    1  0.1210161E-006  0.9118800E+02  0.7816164E-02  0.1184000E+00
        -11   -1    0    0    0    0  0.00000000000E+00  0.00000000000E+00  0.45593999997E+02  0.45594000000E+02  0.51100000000E-03 0.  1.
         11   -1    0    0    0    0 -0.00000000000E+00 -0.00000000000E+00 -0.45593999997E+02  0.45594000000E+02  0.51100000000E-03 0. -1.
         23    2    1    2    0    0  0.00000000000E+00  0.00000000000E+00  0.23314683517E-14  0.91188000000E+02  0.91188000000E+02 0.  0.
    9900012    2    3    3    0    0  0.22604488287E+02 -0.29064026106E+02  0.31541323335E+00  0.54367082172E+02  0.39999995428E+02 0.  0.
         12    1    3    3    0    0 -0.22604488287E+02  0.29064026106E+02 -0.31541323335E+00  0.36820917828E+02  0.00000000000E+00 0. -1.
         11    1    4    4    0    0  0.95281938275E+01 -0.27212828489E+02 -0.71573322556E+01  0.29707775367E+02  0.51100000000E-03 0. -1.
        -11    1    4    4    0    0  0.56813168496E+01 -0.95603045667E+01  0.83996270601E+01  0.13936660990E+02  0.51100000000E-03 0.  1.
         12    1    4    4    0    0  0.73949776095E+01  0.77091069502E+01 -0.92688157110E+00  0.10722645814E+02  0.00000000000E+00 0. -1.
</event>
<event>
 8    1  0.1210161E-006  0.9118800E+02  0.7816164E-02  0.1184000E+00
        -11   -1    0    0    0    0  0.00000000000E+00  0.00000000000E+00  0.45593999997E+02  0.45594000000E+02  0.51100000000E-03 0.  1.
         11   -1    0    0    0    0 -0.00000000000E+00 -0.00000000000E+00 -0.45593999997E+02  0.45594000000E+02  0.51100000000E-03 0. -1.
         23    2    1    2    0    0 -0.35527136788E-14  0.44408920985E-15  0.35527136788E-14  0.91188000000E+02  0.91188000000E+02 0.  0.
    9900012    2    3    3    0    0 -0.23176047282E+02 -0.25120517380E+01 -0.28501574827E+02  0.54367091005E+02  0.40000015564E+02 0.  0.
        -12    1    3    3    0    0  0.23176047282E+02  0.25120517380E+01  0.28501574827E+02  0.36820908995E+02  0.00000000000E+00 0.  1.
         11    1    4    4    0    0 -0.17520142077E+02  0.83392747795E+01 -0.27579135941E+02  0.33721026405E+02  0.51100000000E-03 0. -1.
        -11    1    4    4    0    0  0.17382619489E+01 -0.70831838211E-01  0.57228179762E+01  0.59814059887E+01  0.51100000000E-03 0.  1.
        -12    1    4    4    0    0 -0.73941671540E+01 -0.10780494679E+02 -0.66452568623E+01  0.14664658612E+02  0.00000000000E+00 0.  1.
</event>
<event>
 8    1  0.1210161E-006  0.9118800E+02  0.7816164E-02  0.1184000E+00
        -11   -1    0    0    0    0  0.00000000000E+00  0.00000000000E+00  0.45593999997E+02  0.45594000000E+02  0.51100000000E-03 0.  1.
         11   -1    0    0    0    0 -0.00000000000E+00 -0.00000000000E+00 -0.45593999997E+02  0.45594000000E+02  0.51100000000E-03 0. -1.
         23    2    1    2    0    0  0.00000000000E+00  0.00000000000E+00 -0.17763568394E-14  0.91188000000E+02  0.91188000000E+02 0.  0.
    9900012    2    3    3    0    0  0.26138270106E+02 -0.21408229017E+02 -0.14637617564E+02  0.54367064627E+02  0.39999955431E+02 0.  0.
        -12    1    3    3    0    0 -0.26138270106E+02  0.21408229017E+02  0.14637617564E+02  0.36820935373E+02  0.00000000000E+00 0.  1.
         11    1    4    4    0    0  0.61289386332E+01 -0.16787622241E+02  0.13407398034E+01  0.17921655413E+02  0.51100000000E-03 0. -1.
        -11    1    4    4    0    0  0.19886069466E+02 -0.11673280714E+02 -0.53208022099E+01  0.23664999004E+02  0.51100000000E-03 0.  1.
        -12    1    4    4    0    0  0.12326200727E+00  0.70526739385E+01 -0.10657555158E+02  0.12780410210E+02  0.00000000000E+00 0.  1.
</event>
<event>
 8    1  0.1210161E-006  0.9118800E+02  0.7816164E-02  0.1184000E+00
        -11   -1    0    0    0    0  0.00000000000E+00  0.00000000000E+00  0.45593999997E+02  0.45594000000E+02  0.51100000000E-03 0. -1.
         11   -1    0    0    0    0 -0.00000000000E+00 -0.00000000000E+00 -0.45593999997E+02  0.45594000000E+02  0.51100000000E-03 0.  1.
         23    2    1    2    0    0  0.88817841970E-15 -0.17763568394E-14  0.00000000000E+00  0.91188000000E+02  0.91188000000E+02 0.  0.
    9900012    2    3    3    0    0  0.30396822754E+01  0.15205917172E+02 -0.33396392800E+02  0.54367100535E+02  0.40000037290E+02 0.  0.
         12    1    3    3    0    0 -0.30396822754E+01 -0.15205917172E+02  0.33396392800E+02  0.36820899465E+02  0.00000000000E+00 0. -1.
         11    1    4    4    0    0  0.45472758549E+01 -0.21214051445E+01 -0.28754937808E+02  0.29189459161E+02  0.51100000000E-03 0. -1.
        -11    1    4    4    0    0 -0.79269577836E+01  0.45539789084E+01  0.20878229663E+01  0.93773337682E+01  0.51100000000E-03 0.  1.
         12    1    4    4    0    0  0.64193642041E+01  0.12773343408E+02 -0.67292779576E+01  0.15800307606E+02  0.00000000000E+00 0. -1.
</event>
<event>
 8    1  0.1210161E-006  0.9118800E+02  0.7816164E-02  0.1184000E+00
        -11   -1    0    0    0    0  0.00000000000E+00  0.00000000000E+00  0.45593999997E+02  0.45594000000E+02  0.51100000000E-03 0.  1.
         11   -1    0    0    0    0 -0.00000000000E+00 -0.00000000000E+00 -0.45593999997E+02  0.45594000000E+02  0.51100000000E-03 0. -1.
         23    2    1    2    0    0  0.00000000000E+00  0.19984014443E-14  0.00000000000E+00  0.91188000000E+02  0.91188000000E+02 0.  0.
    9900012    2    3    3    0    0 -0.27844593958E+02 -0.12717466352E+01  0.24059381397E+02  0.54366911132E+02  0.39999605507E+02 0.  0.
        -12    1    3    3    0    0  0.27844593958E+02  0.12717466352E+01 -0.24059381397E+02  0.36821088868E+02  0.00000000000E+00 0.  1.
         11    1    4    4    0    0 -0.73493427194E+01  0.11282843531E+02  0.13955354248E+02  0.19392454950E+02  0.51100000000E-03 0. -1.
        -11    1    4    4    0    0 -0.16226750078E+02 -0.99576871240E+01 -0.44798644179E+01  0.19558428782E+02  0.51100000000E-03 0.  1.
        -12    1    4    4    0    0 -0.42685011607E+01 -0.25969030421E+01  0.14583891567E+02  0.15416027401E+02  0.00000000000E+00 0.  1.
</event>
<event>
 8    1  0.1210161E-006  0.9118800E+02  0.7816164E-02  0.1184000E+00
        -11   -1    0    0    0    0  0.00000000000E+00  0.00000000000E+00  0.45593999997E+02  0.45594000000E+02  0.51100000000E-03 0. -1.
         11   -1    0    0    0    0 -0.00000000000E+00 -0.00000000000E+00 -0.45593999997E+02  0.45594000000E+02  0.51100000000E-03 0.  1.
         23    2    1    2    0    0  0.00000000000E+00  0.22204460493E-15  0.35527136788E-14  0.91188000000E+02  0.91188000000E+02 0.  0.
    9900012    2    3    3    0    0  0.32821270264E+02  0.12133624627E+01 -0.16645474488E+02  0.54367084053E+02  0.39999999717E+02 0.  0.
         12    1    3    3    0    0 -0.32821270264E+02 -0.12133624627E+01  0.16645474488E+02  0.36820915947E+02  0.00000000000E+00 0. -1.
         11    1    4    4    0    0  0.15957527761E+01 -0.17335590857E+01  0.82572334060E+01  0.85868246639E+01  0.51100000000E-03 0. -1.
        -11    1    4    4    0    0  0.29474876830E+02 -0.53042552235E+01 -0.20186391521E+02  0.36116393654E+02  0.51100000000E-03 0.  1.
         12    1    4    4    0    0  0.17506406578E+01  0.82511767718E+01 -0.47163163729E+01  0.96638657359E+01  0.00000000000E+00 0. -1.
</event>
<event>
 8    1  0.1210161E-006  0.9118800E+02  0.7816164E-02  0.1184000E+00
        -11   -1    0    0    0    0  0.00000000000E+00  0.00000000000E+00  0.45593999997E+02  0.45594000000E+02  0.51100000000E-03 0. -1.
         11   -1    0    0    0    0 -0.00000000000E+00 -0.00000000000E+00 -0.45593999997E+02  0.45594000000E+02  0.51100000000E-03 0.  1.
         23    2    1    2    0    0 -0.35527136788E-14  0.00000000000E+00  0.35527136788E-14  0.91188000000E+02  0.91188000000E+02 0.  0.
    9900012    2    3    3    0    0 -0.30568755025E+02 -0.98887647619E+01 -0.17987302645E+02  0.54367088703E+02  0.40000010317E+02 0.  0.
         12    1    3    3    0    0  0.30568755025E+02  0.98887647619E+01  0.17987302645E+02  0.36820911297E+02  0.00000000000E+00 0. -1.
         11    1    4    4    0    0 -0.56271329331E+01 -0.14769428108E+02  0.43087866132E+01  0.16381888597E+02  0.51100000000E-03 0. -1.
        -11    1    4    4    0    0 -0.94126261127E+01  0.54621498778E+01 -0.91627444037E-01  0.10883060575E+02  0.51100000000E-03 0.  1.
         12    1    4    4    0    0 -0.15528995979E+02 -0.58148653209E+00 -0.22204461814E+02  0.27102139531E+02  0.00000000000E+00 0. -1.
</event>
<event>
 8    1  0.1210161E-006  0.9118800E+02  0.7816164E-02  0.1184000E+00
        -11   -1    0    0    0    0  0.00000000000E+00  0.00000000000E+00  0.45593999997E+02  0.45594000000E+02  0.51100000000E-03 0.  1.
         11   -1    0    0    0    0 -0.00000000000E+00 -0.00000000000E+00 -0.45593999997E+02  0.45594000000E+02  0.51100000000E-03 0. -1.
         23    2    1    2    0    0  0.00000000000E+00  0.00000000000E+00  0.35527136788E-14  0.91188000000E+02  0.91188000000E+02 0.  0.
    9900012    2    3    3    0    0 -0.14051735386E+02 -0.26781759043E+02  0.21001580015E+02  0.54367078665E+02  0.39999987433E+02 0.  0.
         12    1    3    3    0    0  0.14051735386E+02  0.26781759043E+02 -0.21001580015E+02  0.36820921335E+02  0.00000000000E+00 0. -1.
         11    1    4    4    0    0  0.94273465325E+00 -0.13972144923E+02  0.98602955996E+01  0.17127025776E+02  0.51100000000E-03 0. -1.
        -11    1    4    4    0    0 -0.96106006316E+01 -0.57185795313E+01  0.21100785862E+02  0.23881142364E+02  0.51100000000E-03 0.  1.
        -12    1    4    4    0    0 -0.53838694079E+01 -0.70910345895E+01 -0.99595014463E+01  0.13358910525E+02  0.00000000000E+00 0.  1.
</event>
<event>
 8    1  0.1210161E-006  0.9118800E+02  0.7816164E-02  0.1184000E+00
        -11   -1    0    0    0    0  0.00000000000E+00  0.00000000000E+00  0.45593999997E+02  0.45594000000E+02  0.51100000000E-03 0.  1.
         11   -1    0    0    0    0 -0.00000000000E+00 -0.00000000000E+00 -0.45593999997E+02  0.45594000000E+02  0.51100000000E-03 0. -1.
         23    2    1    2    0    0  0.00000000000E+00  0.00000000000E+00  0.00000000000E+00  0.91188000000E+02  0.91188000000E+02 0.  0.
    9900012    2    3    3    0    0  0.22477938281E+02  0.16856448416E+02  0.23798766971E+02  0.54367097351E+02  0.40000030031E+02 0.  0.
         12    1    3    3    0    0 -0.22477938281E+02 -0.16856448416E+02 -0.23798766971E+02  0.36820902649E+02  0.00000000000E+00 0. -1.
         11    1    4    4    0    0  0.18843770348E+01 -0.55477270360E+00  0.49300846649E+01  0.53070127780E+01  0.51100000000E-03 0. -1.
        -11    1    4    4    0    0  0.18141329797E+02 -0.27044438467E+01  0.21904109928E+02  0.28569422383E+02  0.51100000000E-03 0.  1.
         12    1    4    4    0    0  0.24522314492E+01  0.20115664967E+02 -0.30354276224E+01  0.20490662190E+02  0.00000000000E+00 0. -1.
</event>
<event>
 8    1  0.1210161E-006  0.9118800E+02  0.7816164E-02  0.1184000E+00
        -11   -1    0    0    0    0  0.00000000000E+00  0.00000000000E+00  0.45593999997E+02  0.45594000000E+02  0.51100000000E-03 0.  1.
         11   -1    0    0    0    0 -0.00000000000E+00 -0.00000000000E+00 -0.45593999997E+02  0.45594000000E+02  0.51100000000E-03 0. -1.
         23    2    1    2    0    0  0.00000000000E+00  0.00000000000E+00  0.00000000000E+00  0.91188000000E+02  0.91188000000E+02 0.  0.
    9900012    2    3    3    0    0 -0.31977332815E+01  0.31446114280E+02 -0.18886414898E+02  0.54367078377E+02  0.39999986776E+02 0.  0.
        -12    1    3    3    0    0  0.31977332815E+01 -0.31446114280E+02  0.18886414898E+02  0.36820921623E+02  0.00000000000E+00 0.  1.
         11    1    4    4    0    0  0.59670645267E+00  0.14956607477E+02 -0.83236673778E+01  0.17127159855E+02  0.51100000000E-03 0. -1.
        -11    1    4    4    0    0  0.61098248742E+00 -0.91284854788E+01  0.85861463137E-01  0.91493124982E+01  0.51100000000E-03 0.  1.
        -12    1    4    4    0    0 -0.44054222216E+01  0.25617992282E+02 -0.10648608984E+02  0.28090606024E+02  0.00000000000E+00 0.  1.
</event>
<event>
 8    1  0.1210161E-006  0.9118800E+02  0.7816164E-02  0.1184000E+00
        -11   -1    0    0    0    0  0.00000000000E+00  0.00000000000E+00  0.45593999997E+02  0.45594000000E+02  0.51100000000E-03 0.  1.
         11   -1    0    0    0    0 -0.00000000000E+00 -0.00000000000E+00 -0.45593999997E+02  0.45594000000E+02  0.51100000000E-03 0. -1.
         23    2    1    2    0    0  0.00000000000E+00 -0.44408920985E-15 -0.71054273576E-14  0.91188000000E+02  0.91188000000E+02 0.  0.
    9900012    2    3    3    0    0 -0.21741574637E+02 -0.34256997742E+01 -0.29518519262E+02  0.54367157179E+02  0.40000166421E+02 0.  0.
        -12    1    3    3    0    0  0.21741574637E+02  0.34256997742E+01  0.29518519262E+02  0.36820842821E+02  0.00000000000E+00 0.  1.
         11    1    4    4    0    0 -0.11811584271E+02 -0.14584233006E+01 -0.11702182574E+01  0.11958676036E+02  0.51100000000E-03 0. -1.
        -11    1    4    4    0    0 -0.63104824324E+01  0.11359080721E+02 -0.26894181283E+01  0.13269659886E+02  0.51100000000E-03 0.  1.
         12    1    4    4    0    0 -0.36195079335E+01 -0.13326357195E+02 -0.25658882876E+02  0.29138821256E+02  0.00000000000E+00 0. -1.
</event>
<event>
 8    1  0.1210161E-006  0.9118800E+02  0.7816164E-02  0.1184000E+00
        -11   -1    0    0    0    0  0.00000000000E+00  0.00000000000E+00  0.45593999997E+02  0.45594000000E+02  0.51100000000E-03 0. -1.
         11   -1    0    0    0    0 -0.00000000000E+00 -0.00000000000E+00 -0.45593999997E+02  0.45594000000E+02  0.51100000000E-03 0.  1.
         23    2    1    2    0    0  0.17763568394E-14  0.00000000000E+00  0.35527136788E-14  0.91188000000E+02  0.91188000000E+02 0.  0.
    9900012    2    3    3    0    0 -0.13496314556E+02 -0.18595043473E+02  0.28772445120E+02  0.54367085473E+02  0.40000002953E+02 0.  0.
        -12    1    3    3    0    0  0.13496314556E+02  0.18595043473E+02 -0.28772445120E+02  0.36820914527E+02  0.00000000000E+00 0.  1.
         11    1    4    4    0    0 -0.95653823185E+00  0.60144082825E+00  0.25926087452E+02  0.25950697626E+02  0.51100000000E-03 0. -1.
        -11    1    4    4    0    0 -0.61324144856E+01 -0.19566458573E+02  0.58602361647E+01  0.21325927335E+02  0.51100000000E-03 0.  1.
        -12    1    4    4    0    0 -0.64073618387E+01  0.36997427135E+00 -0.30138784960E+01  0.70904605127E+01  0.00000000000E+00 0.  1.
</event>
<event>
 8    1  0.1210161E-006  0.9118800E+02  0.7816164E-02  0.1184000E+00
        -11   -1    0    0    0    0  0.00000000000E+00  0.00000000000E+00  0.45593999997E+02  0.45594000000E+02  0.51100000000E-03 0. -1.
         11   -1    0    0    0    0 -0.00000000000E+00 -0.00000000000E+00 -0.45593999997E+02  0.45594000000E+02  0.51100000000E-03 0.  1.
         23    2    1    2    0    0  0.35527136788E-14  0.00000000000E+00 -0.88817841970E-15  0.91188000000E+02  0.91188000000E+02 0.  0.
    9900012    2    3    3    0    0 -0.27937889836E+02 -0.23035447475E+02 -0.66800669352E+01  0.54367070855E+02  0.39999969627E+02 0.  0.
         12    1    3    3    0    0  0.27937889836E+02  0.23035447475E+02  0.66800669352E+01  0.36820929145E+02  0.00000000000E+00 0. -1.
         11    1    4    4    0    0 -0.55897270585E+00  0.29434193666E+01  0.10777702201E+02  0.11186377119E+02  0.51100000000E-03 0. -1.
        -11    1    4    4    0    0 -0.22927421849E+02 -0.25567217250E+02 -0.12603165681E+02  0.36581266462E+02  0.51100000000E-03 0.  1.
        -12    1    4    4    0    0 -0.44514952807E+01 -0.41164959205E+00 -0.48546034558E+01  0.65994272731E+01  0.00000000000E+00 0.  1.
</event>
<event>
 8    1  0.1210161E-006  0.9118800E+02  0.7816164E-02  0.1184000E+00
        -11   -1    0    0    0    0  0.00000000000E+00  0.00000000000E+00  0.45593999997E+02  0.45594000000E+02  0.51100000000E-03 0. -1.
         11   -1    0    0    0    0 -0.00000000000E+00 -0.00000000000E+00 -0.45593999997E+02  0.45594000000E+02  0.51100000000E-03 0.  1.
         23    2    1    2    0    0 -0.35527136788E-14  0.00000000000E+00 -0.36637359813E-14  0.91188000000E+02  0.91188000000E+02 0.  0.
    9900012    2    3    3    0    0 -0.31025860121E+02 -0.19826897778E+02  0.26408354761E+00  0.54367087303E+02  0.40000007124E+02 0.  0.
        -12    1    3    3    0    0  0.31025860121E+02  0.19826897778E+02 -0.26408354761E+00  0.36820912697E+02  0.00000000000E+00 0.  1.
         11    1    4    4    0    0 -0.65825371515E+01  0.22316905456E+01  0.11127294356E+02  0.13119714860E+02  0.51100000000E-03 0. -1.
        -11    1    4    4    0    0 -0.15408084788E+02 -0.12353587630E+02 -0.17529176989E+02  0.26406291870E+02  0.51100000000E-03 0.  1.
         12    1    4    4    0    0 -0.90352381808E+01 -0.97050006940E+01  0.66659661801E+01  0.14841080573E+02  0.00000000000E+00 0. -1.
</event>
<event>
 8    1  0.1210161E-006  0.9118800E+02  0.7816164E-02  0.1184000E+00
        -11   -1    0    0    0    0  0.00000000000E+00  0.00000000000E+00  0.45593999997E+02  0.45594000000E+02  0.51100000000E-03 0.  1.
         11   -1    0    0    0    0 -0.00000000000E+00 -0.00000000000E+00 -0.45593999997E+02  0.45594000000E+02  0.51100000000E-03 0. -1.
         23    2    1    2    0    0  0.00000000000E+00  0.00000000000E+00  0.00000000000E+00  0.91188000000E+02  0.91188000000E+02 0.  0.
    9900012    2    3    3    0    0 -0.32537999692E+02  0.11111347975E+01  0.17199484055E+02  0.54367105168E+02  0.40000047851E+02 0.  0.
         12    1    3    3    0    0  0.32537999692E+02 -0.11111347975E+01 -0.17199484055E+02  0.36820894832E+02  0.00000000000E+00 0. -1.
         11    1    4    4    0    0 -0.15698985037E+02 -0.53968651737E+01  0.18547542183E+02  0.24891677448E+02  0.51100000000E-03 0.  1.
        -11    1    4    4    0    0  0.56603146065E+01 -0.63844306002E+00 -0.14108297335E+01  0.58683227402E+01  0.51100000000E-03 0. -1.
        -12    1    4    4    0    0 -0.22499329262E+02  0.71464430313E+01  0.62771605237E-01  0.23607104979E+02  0.00000000000E+00 0.  1.
</event>
<event>
 8    1  0.1210161E-006  0.9118800E+02  0.7816164E-02  0.1184000E+00
        -11   -1    0    0    0    0  0.00000000000E+00  0.00000000000E+00  0.45593999997E+02  0.45594000000E+02  0.51100000000E-03 0.  1.
         11   -1    0    0    0    0 -0.00000000000E+00 -0.00000000000E+00 -0.45593999997E+02  0.45594000000E+02  0.51100000000E-03 0. -1.
         23    2    1    2    0    0  0.00000000000E+00  0.17763568394E-14 -0.88817841970E-15  0.91188000000E+02  0.91188000000E+02 0.  0.
    9900012    2    3    3    0    0  0.35008809264E+02  0.10403871626E+02  0.46820904533E+01  0.54367092327E+02  0.40000018578E+02 0.  0.
        -12    1    3    3    0    0 -0.35008809264E+02 -0.10403871626E+02 -0.46820904533E+01  0.36820907673E+02  0.00000000000E+00 0.  1.
         11    1    4    4    0    0  0.82354033090E+01  0.63170004603E+01 -0.64977419310E+01  0.12245285335E+02  0.51100000000E-03 0. -1.
        -11    1    4    4    0    0  0.46084277477E+01  0.13954271414E+02  0.10107557486E+02  0.17835975319E+02  0.51100000000E-03 0.  1.
         12    1    4    4    0    0  0.22164978207E+02 -0.98674002484E+01  0.10722748987E+01  0.24285831673E+02  0.00000000000E+00 0. -1.
</event>
<event>
 8    1  0.1210161E-006  0.9118800E+02  0.7816164E-02  0.1184000E+00
        -11   -1    0    0    0    0  0.00000000000E+00  0.00000000000E+00  0.45593999997E+02  0.45594000000E+02  0.51100000000E-03 0. -1.
         11   -1    0    0    0    0 -0.00000000000E+00 -0.00000000000E+00 -0.45593999997E+02  0.45594000000E+02  0.51100000000E-03 0.  1.
         23    2    1    2    0    0  0.35527136788E-14  0.00000000000E+00 -0.35527136788E-14  0.91188000000E+02  0.91188000000E+02 0.  0.
    9900012    2    3    3    0    0  0.29053657592E+02  0.99819187627E+01 -0.20298374850E+02  0.54367112677E+02  0.40000064971E+02 0.  0.
         12    1    3    3    0    0 -0.29053657592E+02 -0.99819187627E+01  0.20298374850E+02  0.36820887323E+02  0.00000000000E+00 0. -1.
         11    1    4    4    0    0  0.26763255785E+01 -0.37136863527E+01 -0.11559194413E+01  0.47212641257E+01  0.51100000000E-03 0. -1.
        -11    1    4    4    0    0  0.82633779111E+01 -0.79168256403E+01  0.50333602077E+01  0.12501770193E+02  0.51100000000E-03 0.  1.
        -12    1    4    4    0    0  0.18113954103E+02  0.21612430756E+02 -0.24175815616E+02  0.37144078359E+02  0.00000000000E+00 0.  1.
</event>
<event>
 8    1  0.1210161E-006  0.9118800E+02  0.7816164E-02  0.1184000E+00
        -11   -1    0    0    0    0  0.00000000000E+00  0.00000000000E+00  0.45593999997E+02  0.45594000000E+02  0.51100000000E-03 0. -1.
         11   -1    0    0    0    0 -0.00000000000E+00 -0.00000000000E+00 -0.45593999997E+02  0.45594000000E+02  0.51100000000E-03 0.  1.
         23    2    1    2    0    0  0.00000000000E+00  0.00000000000E+00  0.00000000000E+00  0.91188000000E+02  0.91188000000E+02 0.  0.
    9900012    2    3    3    0    0  0.32067334810E+02  0.15567478487E+02  0.92259958839E+01  0.54367090882E+02  0.40000015283E+02 0.  0.
        -12    1    3    3    0    0 -0.32067334810E+02 -0.15567478487E+02 -0.92259958839E+01  0.36820909118E+02  0.00000000000E+00 0.  1.
         11    1    4    4    0    0  0.40180675838E+01  0.12213532314E+02  0.10976025599E+01  0.12904261712E+02  0.51100000000E-03 0. -1.
        -11    1    4    4    0    0 -0.58551704809E+01  0.33281296531E+01  0.18196179375E+01  0.69764230124E+01  0.51100000000E-03 0.  1.
         12    1    4    4    0    0  0.33904437707E+02  0.25816519069E-01  0.63087753865E+01  0.34486406157E+02  0.00000000000E+00 0. -1.
</event>
<event>
 8    1  0.1210161E-006  0.9118800E+02  0.7816164E-02  0.1184000E+00
        -11   -1    0    0    0    0  0.00000000000E+00  0.00000000000E+00  0.45593999997E+02  0.45594000000E+02  0.51100000000E-03 0. -1.
         11   -1    0    0    0    0 -0.00000000000E+00 -0.00000000000E+00 -0.45593999997E+02  0.45594000000E+02  0.51100000000E-03 0.  1.
         23    2    1    2    0    0  0.88817841970E-15 -0.35527136788E-14  0.00000000000E+00  0.91188000000E+02  0.91188000000E+02 0.  0.
    9900012    2    3    3    0    0  0.22795028306E+01 -0.24228965129E+02 -0.27632260164E+02  0.54367072715E+02  0.39999973867E+02 0.  0.
         12    1    3    3    0    0 -0.22795028306E+01  0.24228965129E+02  0.27632260164E+02  0.36820927285E+02  0.00000000000E+00 0. -1.
         11    1    4    4    0    0  0.10533488979E+02 -0.20819071080E+01 -0.11129899284E+02  0.15464908199E+02  0.51100000000E-03 0. -1.
        -11    1    4    4    0    0  0.54352923802E+01 -0.97106805557E+00 -0.12106902719E+02  0.13306482260E+02  0.51100000000E-03 0.  1.
         12    1    4    4    0    0 -0.13689278528E+02 -0.21175989966E+02 -0.43954581602E+01  0.25595682255E+02  0.00000000000E+00 0. -1.
</event>
<event>
 8    1  0.1210161E-006  0.9118800E+02  0.7816164E-02  0.1184000E+00
        -11   -1    0    0    0    0  0.00000000000E+00  0.00000000000E+00  0.45593999997E+02  0.45594000000E+02  0.51100000000E-03 0. -1.
         11   -1    0    0    0    0 -0.00000000000E+00 -0.00000000000E+00 -0.45593999997E+02  0.45594000000E+02  0.51100000000E-03 0.  1.
         23    2    1    2    0    0  0.10658141036E-13  0.35527136788E-14  0.17763568394E-14  0.91188000000E+02  0.91188000000E+02 0.  0.
    9900012    2    3    3    0    0 -0.27376676384E+02 -0.19266842518E+02 -0.15332555925E+02  0.54367069788E+02  0.39999967196E+02 0.  0.
         12    1    3    3    0    0  0.27376676384E+02  0.19266842518E+02  0.15332555925E+02  0.36820930212E+02  0.00000000000E+00 0. -1.
         11    1    4    4    0    0  0.58837811669E+01 -0.12860725239E+02  0.17632873712E+01  0.14252239021E+02  0.51100000000E-03 0. -1.
        -11    1    4    4    0    0 -0.20599653315E+02  0.14107153482E+01 -0.13915296713E+02  0.24899223228E+02  0.51100000000E-03 0.  1.
         12    1    4    4    0    0 -0.12660804236E+02 -0.78168326277E+01 -0.31805465832E+01  0.15215607540E+02  0.00000000000E+00 0. -1.
</event>
<event>
 8    1  0.1210161E-006  0.9118800E+02  0.7816164E-02  0.1184000E+00
        -11   -1    0    0    0    0  0.00000000000E+00  0.00000000000E+00  0.45593999997E+02  0.45594000000E+02  0.51100000000E-03 0.  1.
         11   -1    0    0    0    0 -0.00000000000E+00 -0.00000000000E+00 -0.45593999997E+02  0.45594000000E+02  0.51100000000E-03 0. -1.
         23    2    1    2    0    0  0.00000000000E+00 -0.71054273576E-14  0.00000000000E+00  0.91188000000E+02  0.91188000000E+02 0.  0.
    9900012    2    3    3    0    0 -0.50124789270E+01 -0.34767430740E+02 -0.11039950344E+02  0.54367086258E+02  0.40000004741E+02 0.  0.
        -12    1    3    3    0    0  0.50124789270E+01  0.34767430740E+02  0.11039950344E+02  0.36820913742E+02  0.00000000000E+00 0.  1.
         11    1    4    4    0    0 -0.42355322442E+01 -0.13621633361E+02 -0.35382106382E+00  0.14269331394E+02  0.51100000000E-03 0. -1.
        -11    1    4    4    0    0 -0.44807078975E+01  0.73212866442E+01 -0.71545483363E+01  0.11174325194E+02  0.51100000000E-03 0.  1.
        -12    1    4    4    0    0  0.37037612148E+01 -0.28467084023E+02 -0.35315809439E+01  0.28923429669E+02  0.00000000000E+00 0.  1.
</event>
<event>
 8    1  0.1210161E-006  0.9118800E+02  0.7816164E-02  0.1184000E+00
        -11   -1    0    0    0    0  0.00000000000E+00  0.00000000000E+00  0.45593999997E+02  0.45594000000E+02  0.51100000000E-03 0. -1.
         11   -1    0    0    0    0 -0.00000000000E+00 -0.00000000000E+00 -0.45593999997E+02  0.45594000000E+02  0.51100000000E-03 0.  1.
         23    2    1    2    0    0 -0.88817841970E-15  0.00000000000E+00  0.35527136788E-14  0.91188000000E+02  0.91188000000E+02 0.  0.
    9900012    2    3    3    0    0  0.52809244385E+01  0.18584639487E+02 -0.31344925311E+02  0.54367063964E+02  0.39999953919E+02 0.  0.
         12    1    3    3    0    0 -0.52809244385E+01 -0.18584639487E+02  0.31344925311E+02  0.36820936036E+02  0.00000000000E+00 0. -1.
         11    1    4    4    0    0  0.69551078742E+00  0.22005529823E+02 -0.18477175530E+02  0.28742531097E+02  0.51100000000E-03 0. -1.
        -11    1    4    4    0    0  0.43167613282E+01  0.88635801927E+01 -0.61667510113E+01  0.11628684384E+02  0.51100000000E-03 0.  1.
        -12    1    4    4    0    0  0.26865232288E+00 -0.12284470529E+02 -0.67009987702E+01  0.13995848483E+02  0.00000000000E+00 0.  1.
</event>
<event>
 8    1  0.1210161E-006  0.9118800E+02  0.7816164E-02  0.1184000E+00
        -11   -1    0    0    0    0  0.00000000000E+00  0.00000000000E+00  0.45593999997E+02  0.45594000000E+02  0.51100000000E-03 0. -1.
         11   -1    0    0    0    0 -0.00000000000E+00 -0.00000000000E+00 -0.45593999997E+02  0.45594000000E+02  0.51100000000E-03 0.  1.
         23    2    1    2    0    0  0.00000000000E+00  0.00000000000E+00  0.35527136788E-14  0.91188000000E+02  0.91188000000E+02 0.  0.
    9900012    2    3    3    0    0 -0.18950073808E+02 -0.28395529787E+02 -0.13797422201E+02  0.54367078385E+02  0.39999986793E+02 0.  0.
         12    1    3    3    0    0  0.18950073808E+02  0.28395529787E+02  0.13797422201E+02  0.36820921615E+02  0.00000000000E+00 0. -1.
         11    1    4    4    0    0  0.21617413342E+01 -0.30710437400E+01  0.21985032052E+01  0.43517642231E+01  0.51100000000E-03 0. -1.
        -11    1    4    4    0    0 -0.14584241011E+02 -0.30535237060E+02 -0.21426831441E+02  0.40052589106E+02  0.51100000000E-03 0.  1.
        -12    1    4    4    0    0 -0.65275741320E+01  0.52107510136E+01  0.54309060353E+01  0.99627250558E+01  0.00000000000E+00 0.  1.
</event>
<event>
 8    1  0.1210161E-006  0.9118800E+02  0.7816164E-02  0.1184000E+00
        -11   -1    0    0    0    0  0.00000000000E+00  0.00000000000E+00  0.45593999997E+02  0.45594000000E+02  0.51100000000E-03 0.  1.
         11   -1    0    0    0    0 -0.00000000000E+00 -0.00000000000E+00 -0.45593999997E+02  0.45594000000E+02  0.51100000000E-03 0. -1.
         23    2    1    2    0    0 -0.11102230246E-15  0.71054273576E-14  0.88817841970E-15  0.91188000000E+02  0.91188000000E+02 0.  0.
    9900012    2    3    3    0    0 -0.58210684933E+00 -0.36175696760E+02 -0.68380945717E+01  0.54367089883E+02  0.40000013007E+02 0.  0.
         12    1    3    3    0    0  0.58210684933E+00  0.36175696760E+02  0.68380945717E+01  0.36820910117E+02  0.00000000000E+00 0. -1.
         11    1    4    4    0    0 -0.44691384967E+01 -0.14681862228E+02  0.60343699292E+01  0.16490721576E+02  0.51100000000E-03 0. -1.
        -11    1    4    4    0    0 -0.10910282392E+02 -0.13209227311E+02 -0.97409315907E+00  0.17160035133E+02  0.51100000000E-03 0.  1.
         12    1    4    4    0    0  0.14797314040E+02 -0.82846072210E+01 -0.11898371342E+02  0.20716333174E+02  0.00000000000E+00 0. -1.
</event>
<event>
 8    1  0.1210161E-006  0.9118800E+02  0.7816164E-02  0.1184000E+00
        -11   -1    0    0    0    0  0.00000000000E+00  0.00000000000E+00  0.45593999997E+02  0.45594000000E+02  0.51100000000E-03 0.  1.
         11   -1    0    0    0    0 -0.00000000000E+00 -0.00000000000E+00 -0.45593999997E+02  0.45594000000E+02  0.51100000000E-03 0. -1.
         23    2    1    2    0    0  0.35527136788E-14  0.00000000000E+00 -0.35527136788E-14  0.91188000000E+02  0.91188000000E+02 0.  0.
    9900012    2    3    3    0    0  0.74679364178E+01  0.16731688759E+02 -0.31938380888E+02  0.54367086692E+02  0.40000005731E+02 0.  0.
        -12    1    3    3    0    0 -0.74679364178E+01 -0.16731688759E+02  0.31938380888E+02  0.36820913308E+02  0.00000000000E+00 0.  1.
         11    1    4    4    0    0 -0.79098913946E+01  0.17785360059E+02 -0.98052967013E+01  0.21795165931E+02  0.51100000000E-03 0. -1.
        -11    1    4    4    0    0 -0.25876709038E+01 -0.42582913246E+01 -0.82669115201E+01  0.96525080706E+01  0.51100000000E-03 0.  1.
         12    1    4    4    0    0  0.17965498716E+02  0.32046200251E+01 -0.13866172667E+02  0.22919412690E+02  0.00000000000E+00 0. -1.
</event>
<event>
 8    1  0.1210161E-006  0.9118800E+02  0.7816164E-02  0.1184000E+00
        -11   -1    0    0    0    0  0.00000000000E+00  0.00000000000E+00  0.45593999997E+02  0.45594000000E+02  0.51100000000E-03 0. -1.
         11   -1    0    0    0    0 -0.00000000000E+00 -0.00000000000E+00 -0.45593999997E+02  0.45594000000E+02  0.51100000000E-03 0.  1.
         23    2    1    2    0    0 -0.22204460493E-15  0.35527136788E-14 -0.35527136788E-14  0.91188000000E+02  0.91188000000E+02 0.  0.
    9900012    2    3    3    0    0 -0.18208286664E+01 -0.22512589636E+02  0.29080021476E+02  0.54367085315E+02  0.40000002593E+02 0.  0.
        -12    1    3    3    0    0  0.18208286664E+01  0.22512589636E+02 -0.29080021476E+02  0.36820914685E+02  0.00000000000E+00 0.  1.
         11    1    4    4    0    0 -0.10769357514E+02  0.82244046511E+00  0.19263269187E+02  0.22084587603E+02  0.51100000000E-03 0.  1.
        -11    1    4    4    0    0  0.56678203927E+01 -0.15850655899E+02  0.15048582807E+02  0.22579356174E+02  0.51100000000E-03 0. -1.
        -12    1    4    4    0    0  0.32807084550E+01 -0.74843742016E+01 -0.52318305172E+01  0.97031415385E+01  0.00000000000E+00 0.  1.
</event>
<event>
 8    1  0.1210161E-006  0.9118800E+02  0.7816164E-02  0.1184000E+00
        -11   -1    0    0    0    0  0.00000000000E+00  0.00000000000E+00  0.45593999997E+02  0.45594000000E+02  0.51100000000E-03 0. -1.
         11   -1    0    0    0    0 -0.00000000000E+00 -0.00000000000E+00 -0.45593999997E+02  0.45594000000E+02  0.51100000000E-03 0.  1.
         23    2    1    2    0    0  0.00000000000E+00  0.00000000000E+00 -0.17763568394E-14  0.91188000000E+02  0.91188000000E+02 0.  0.
    9900012    2    3    3    0    0 -0.30579416356E+02 -0.16861584815E+02  0.11677600613E+02  0.54367080631E+02  0.39999991915E+02 0.  0.
         12    1    3    3    0    0  0.30579416356E+02  0.16861584815E+02 -0.11677600613E+02  0.36820919369E+02  0.00000000000E+00 0. -1.
         11    1    4    4    0    0 -0.35725949181E+02 -0.22530182362E+02  0.14691235862E+02  0.44718955417E+02  0.51100000000E-03 0. -1.
        -11    1    4    4    0    0  0.35224897614E+01  0.62719106237E+01 -0.15012211665E+01  0.73483645965E+01  0.51100000000E-03 0.  1.
         12    1    4    4    0    0  0.16240430639E+01 -0.60331307652E+00 -0.15124140831E+01  0.22997606181E+01  0.00000000000E+00 0. -1.
</event>
<event>
 8    1  0.1210161E-006  0.9118800E+02  0.7816164E-02  0.1184000E+00
        -11   -1    0    0    0    0  0.00000000000E+00  0.00000000000E+00  0.45593999997E+02  0.45594000000E+02  0.51100000000E-03 0.  1.
         11   -1    0    0    0    0 -0.00000000000E+00 -0.00000000000E+00 -0.45593999997E+02  0.45594000000E+02  0.51100000000E-03 0. -1.
         23    2    1    2    0    0 -0.17763568394E-14  0.00000000000E+00  0.00000000000E+00  0.91188000000E+02  0.91188000000E+02 0.  0.
    9900012    2    3    3    0    0 -0.65337613803E+01  0.23820965362E+02 -0.27306656982E+02  0.54367055633E+02  0.39999934926E+02 0.  0.
        -12    1    3    3    0    0  0.65337613803E+01 -0.23820965362E+02  0.27306656982E+02  0.36820944367E+02  0.00000000000E+00 0.  1.
         11    1    4    4    0    0 -0.54359633389E+01  0.49202719233E+01 -0.19332874187E+02  0.20676527702E+02  0.51100000000E-03 0. -1.
        -11    1    4    4    0    0  0.82616994285E+01 -0.18209392992E+01  0.22594358660E+01  0.87565146076E+01  0.51100000000E-03 0.  1.
        -12    1    4    4    0    0 -0.93594974699E+01  0.20721632738E+02 -0.10233218661E+02  0.24934013323E+02  0.00000000000E+00 0.  1.
</event>
<event>
 8    1  0.1210161E-006  0.9118800E+02  0.7816164E-02  0.1184000E+00
        -11   -1    0    0    0    0  0.00000000000E+00  0.00000000000E+00  0.45593999997E+02  0.45594000000E+02  0.51100000000E-03 0.  1.
         11   -1    0    0    0    0 -0.00000000000E+00 -0.00000000000E+00 -0.45593999997E+02  0.45594000000E+02  0.51100000000E-03 0. -1.
         23    2    1    2    0    0  0.00000000000E+00 -0.35527136788E-14 -0.17763568394E-14  0.91188000000E+02  0.91188000000E+02 0.  0.
    9900012    2    3    3    0    0 -0.17281036033E+02 -0.28368325065E+02  0.15886559396E+02  0.54367097745E+02  0.40000030930E+02 0.  0.
         12    1    3    3    0    0  0.17281036033E+02  0.28368325065E+02 -0.15886559396E+02  0.36820902255E+02  0.00000000000E+00 0. -1.
         11    1    4    4    0    0 -0.18921307218E+01 -0.30114379229E+02  0.17443351256E+01  0.30224141018E+02  0.51100000000E-03 0. -1.
        -11    1    4    4    0    0 -0.93454234023E+01  0.53601665525E+01  0.33977620936E+01  0.11296597344E+02  0.51100000000E-03 0.  1.
        -12    1    4    4    0    0 -0.60434819089E+01 -0.36141123893E+01  0.10744462177E+02  0.12846359384E+02  0.00000000000E+00 0.  1.
</event>
<event>
 8    1  0.1210161E-006  0.9118800E+02  0.7816164E-02  0.1184000E+00
        -11   -1    0    0    0    0  0.00000000000E+00  0.00000000000E+00  0.45593999997E+02  0.45594000000E+02  0.51100000000E-03 0. -1.
         11   -1    0    0    0    0 -0.00000000000E+00 -0.00000000000E+00 -0.45593999997E+02  0.45594000000E+02  0.51100000000E-03 0.  1.
         23    2    1    2    0    0  0.71054273576E-14  0.00000000000E+00 -0.72164496601E-15  0.91188000000E+02  0.91188000000E+02 0.  0.
    9900012    2    3    3    0    0 -0.35781116931E+02  0.86793364974E+01  0.40029910776E+00  0.54367089497E+02  0.40000012126E+02 0.  0.
         12    1    3    3    0    0  0.35781116931E+02 -0.86793364974E+01 -0.40029910776E+00  0.36820910503E+02  0.00000000000E+00 0. -1.
         11    1    4    4    0    0 -0.46145300650E+00  0.14095219953E+02 -0.45379979813E+01  0.14814911081E+02  0.51100000000E-03 0. -1.
        -11    1    4    4    0    0 -0.22244848537E+02  0.48650227609E+00 -0.40609690160E+01  0.22617724035E+02  0.51100000000E-03 0.  1.
         12    1    4    4    0    0 -0.13074815388E+02 -0.59023857318E+01  0.89992661050E+01  0.16934454381E+02  0.00000000000E+00 0. -1.
</event>
<event>
 8    1  0.1210161E-006  0.9118800E+02  0.7816164E-02  0.1184000E+00
        -11   -1    0    0    0    0  0.00000000000E+00  0.00000000000E+00  0.45593999997E+02  0.45594000000E+02  0.51100000000E-03 0. -1.
         11   -1    0    0    0    0 -0.00000000000E+00 -0.00000000000E+00 -0.45593999997E+02  0.45594000000E+02  0.51100000000E-03 0.  1.
         23    2    1    2    0    0  0.00000000000E+00  0.00000000000E+00  0.44408920985E-15  0.91188000000E+02  0.91188000000E+02 0.  0.
    9900012    2    3    3    0    0  0.36178763717E+02  0.61068753135E+01  0.30957321381E+01  0.54367076225E+02  0.39999981871E+02 0.  0.
        -12    1    3    3    0    0 -0.36178763717E+02 -0.61068753135E+01 -0.30957321381E+01  0.36820923775E+02  0.00000000000E+00 0.  1.
         11    1    4    4    0    0  0.14162750140E+01  0.77747202589E+01  0.43913437830E+01  0.90407970059E+01  0.51100000000E-03 0. -1.
        -11    1    4    4    0    0 -0.30884203483E+01  0.59299334652E+01 -0.61687893521E+00  0.67143868694E+01  0.51100000000E-03 0.  1.
         12    1    4    4    0    0  0.37850909051E+02 -0.75977784106E+01 -0.67873270964E+00  0.38611892350E+02  0.00000000000E+00 0. -1.
</event>
<event>
 8    1  0.1210161E-006  0.9118800E+02  0.7816164E-02  0.1184000E+00
        -11   -1    0    0    0    0  0.00000000000E+00  0.00000000000E+00  0.45593999997E+02  0.45594000000E+02  0.51100000000E-03 0.  1.
         11   -1    0    0    0    0 -0.00000000000E+00 -0.00000000000E+00 -0.45593999997E+02  0.45594000000E+02  0.51100000000E-03 0. -1.
         23    2    1    2    0    0  0.00000000000E+00  0.00000000000E+00 -0.71054273576E-14  0.91188000000E+02  0.91188000000E+02 0.  0.
    9900012    2    3    3    0    0  0.11195000897E+02 -0.94865645838E+01  0.33770648687E+02  0.54367086576E+02  0.40000005466E+02 0.  0.
         12    1    3    3    0    0 -0.11195000897E+02  0.94865645838E+01 -0.33770648687E+02  0.36820913424E+02  0.00000000000E+00 0. -1.
         11    1    4    4    0    0  0.10718322079E+01 -0.15529174934E+02  0.15337898360E+02  0.21853036970E+02  0.51100000000E-03 0. -1.
        -11    1    4    4    0    0  0.13365057781E+02 -0.39347845692E+01  0.16914901378E+02  0.21913949620E+02  0.51100000000E-03 0.  1.
         12    1    4    4    0    0 -0.32418890919E+01  0.99773949199E+01  0.15178489490E+01  0.10600099986E+02  0.00000000000E+00 0. -1.
</event>
<event>
 8    1  0.1210161E-006  0.9118800E+02  0.7816164E-02  0.1184000E+00
        -11   -1    0    0    0    0  0.00000000000E+00  0.00000000000E+00  0.45593999997E+02  0.45594000000E+02  0.51100000000E-03 0. -1.
         11   -1    0    0    0    0 -0.00000000000E+00 -0.00000000000E+00 -0.45593999997E+02  0.45594000000E+02  0.51100000000E-03 0.  1.
         23    2    1    2    0    0  0.00000000000E+00  0.00000000000E+00 -0.35527136788E-14  0.91188000000E+02  0.91188000000E+02 0.  0.
    9900012    2    3    3    0    0 -0.11953600033E+02 -0.18839291078E+02  0.29291173614E+02  0.54367078043E+02  0.39999986015E+02 0.  0.
        -12    1    3    3    0    0  0.11953600033E+02  0.18839291078E+02 -0.29291173614E+02  0.36820921957E+02  0.00000000000E+00 0.  1.
         11    1    4    4    0    0 -0.15880851783E+02 -0.14862859667E+02  0.94465842230E+01  0.23713793551E+02  0.51100000000E-03 0.  1.
        -11    1    4    4    0    0  0.53114816857E+01 -0.10302800413E+02  0.21212647488E+01  0.11783857537E+02  0.51100000000E-03 0. -1.
         12    1    4    4    0    0 -0.13842299357E+01  0.63263690023E+01  0.17723324642E+02  0.18869426956E+02  0.00000000000E+00 0. -1.
</event>
<event>
 8    1  0.1210161E-006  0.9118800E+02  0.7816164E-02  0.1184000E+00
        -11   -1    0    0    0    0  0.00000000000E+00  0.00000000000E+00  0.45593999997E+02  0.45594000000E+02  0.51100000000E-03 0. -1.
         11   -1    0    0    0    0 -0.00000000000E+00 -0.00000000000E+00 -0.45593999997E+02  0.45594000000E+02  0.51100000000E-03 0.  1.
         23    2    1    2    0    0  0.00000000000E+00 -0.66613381478E-15  0.71054273576E-14  0.91188000000E+02  0.91188000000E+02 0.  0.
    9900012    2    3    3    0    0  0.68638136030E+01 -0.12867148120E+01  0.36152632845E+02  0.54367076141E+02  0.39999981680E+02 0.  0.
        -12    1    3    3    0    0 -0.68638136030E+01  0.12867148120E+01 -0.36152632845E+02  0.36820923859E+02  0.00000000000E+00 0.  1.
         11    1    4    4    0    0 -0.84737290839E+01  0.80544119274E+00  0.13300715605E+02  0.15791195521E+02  0.51100000000E-03 0. -1.
        -11    1    4    4    0    0 -0.55155702151E+01 -0.70343803770E+01  0.10689267302E+02  0.13934290718E+02  0.51100000000E-03 0.  1.
         12    1    4    4    0    0  0.20853112902E+02  0.49422243723E+01  0.12162649938E+02  0.24641589903E+02  0.00000000000E+00 0. -1.
</event>
<event>
 8    1  0.1210161E-006  0.9118800E+02  0.7816164E-02  0.1184000E+00
        -11   -1    0    0    0    0  0.00000000000E+00  0.00000000000E+00  0.45593999997E+02  0.45594000000E+02  0.51100000000E-03 0.  1.
         11   -1    0    0    0    0 -0.00000000000E+00 -0.00000000000E+00 -0.45593999997E+02  0.45594000000E+02  0.51100000000E-03 0. -1.
         23    2    1    2    0    0  0.00000000000E+00  0.00000000000E+00  0.00000000000E+00  0.91188000000E+02  0.91188000000E+02 0.  0.
    9900012    2    3    3    0    0 -0.18892669680E+02 -0.26421105599E+02  0.17342800023E+02  0.54367075225E+02  0.39999979590E+02 0.  0.
         12    1    3    3    0    0  0.18892669680E+02  0.26421105599E+02 -0.17342800023E+02  0.36820924775E+02  0.00000000000E+00 0. -1.
         11    1    4    4    0    0  0.48899688600E+01 -0.10611513168E+01  0.50245925952E+01  0.70911471976E+01  0.51100000000E-03 0. -1.
        -11    1    4    4    0    0 -0.27419146461E+02 -0.19566233770E+02  0.18171189472E+02  0.38273218100E+02  0.51100000000E-03 0.  1.
         12    1    4    4    0    0  0.36365079220E+01 -0.57937205113E+01 -0.58529820440E+01  0.90027099274E+01  0.00000000000E+00 0. -1.
</event>
<event>
 8    1  0.1210161E-006  0.9118800E+02  0.7816164E-02  0.1184000E+00
        -11   -1    0    0    0    0  0.00000000000E+00  0.00000000000E+00  0.45593999997E+02  0.45594000000E+02  0.51100000000E-03 0. -1.
         11   -1    0    0    0    0 -0.00000000000E+00 -0.00000000000E+00 -0.45593999997E+02  0.45594000000E+02  0.51100000000E-03 0.  1.
         23    2    1    2    0    0  0.00000000000E+00  0.00000000000E+00  0.15543122345E-14  0.91188000000E+02  0.91188000000E+02 0.  0.
    9900012    2    3    3    0    0  0.35811508914E+02 -0.84323877984E+01  0.14872014340E+01  0.54367067057E+02  0.39999960970E+02 0.  0.
         12    1    3    3    0    0 -0.35811508914E+02  0.84323877984E+01 -0.14872014340E+01  0.36820932943E+02  0.00000000000E+00 0. -1.
         11    1    4    4    0    0 -0.34580977288E+01 -0.86987917819E+01  0.27381045656E+01  0.97531859021E+01  0.51100000000E-03 0. -1.
        -11    1    4    4    0    0  0.11366198954E+02 -0.48241499933E+01  0.80779291768E+01  0.14755197114E+02  0.51100000000E-03 0.  1.
        -12    1    4    4    0    0  0.27903407689E+02  0.50905539768E+01 -0.93288323084E+01  0.29858684041E+02  0.00000000000E+00 0.  1.
</event>
<event>
 8    1  0.1210161E-006  0.9118800E+02  0.7816164E-02  0.1184000E+00
        -11   -1    0    0    0    0  0.00000000000E+00  0.00000000000E+00  0.45593999997E+02  0.45594000000E+02  0.51100000000E-03 0.  1.
         11   -1    0    0    0    0 -0.00000000000E+00 -0.00000000000E+00 -0.45593999997E+02  0.45594000000E+02  0.51100000000E-03 0. -1.
         23    2    1    2    0    0  0.00000000000E+00  0.00000000000E+00  0.00000000000E+00  0.91188000000E+02  0.91188000000E+02 0.  0.
    9900012    2    3    3    0    0  0.30958241564E+02 -0.71270437921E+01  0.18616444611E+02  0.54367089040E+02  0.40000011085E+02 0.  0.
         12    1    3    3    0    0 -0.30958241564E+02  0.71270437921E+01 -0.18616444611E+02  0.36820910960E+02  0.00000000000E+00 0. -1.
         11    1    4    4    0    0 -0.78097789932E+00 -0.77669724046E+01  0.12796969757E+01  0.79103357340E+01  0.51100000000E-03 0. -1.
        -11    1    4    4    0    0  0.25780804108E+02 -0.12365882725E+02  0.13646804444E+02  0.31682805870E+02  0.51100000000E-03 0.  1.
        -12    1    4    4    0    0  0.59584153558E+01  0.13005811337E+02  0.36899431909E+01  0.14773947436E+02  0.00000000000E+00 0.  1.
</event>
<event>
 8    1  0.1210161E-006  0.9118800E+02  0.7816164E-02  0.1184000E+00
        -11   -1    0    0    0    0  0.00000000000E+00  0.00000000000E+00  0.45593999997E+02  0.45594000000E+02  0.51100000000E-03 0.  1.
         11   -1    0    0    0    0 -0.00000000000E+00 -0.00000000000E+00 -0.45593999997E+02  0.45594000000E+02  0.51100000000E-03 0. -1.
         23    2    1    2    0    0  0.00000000000E+00  0.00000000000E+00  0.00000000000E+00  0.91188000000E+02  0.91188000000E+02 0.  0.
    9900012    2    3    3    0    0  0.20716083059E+02 -0.16226369976E+02  0.25755159015E+02  0.54367090237E+02  0.40000013813E+02 0.  0.
         12    1    3    3    0    0 -0.20716083059E+02  0.16226369976E+02 -0.25755159015E+02  0.36820909763E+02  0.00000000000E+00 0. -1.
         11    1    4    4    0    0  0.38310402421E+01 -0.37561625116E+01 -0.18551106976E+01  0.56768884181E+01  0.51100000000E-03 0. -1.
        -11    1    4    4    0    0  0.21659198398E+01 -0.16510516958E+02  0.28919025533E+02  0.33370622065E+02  0.51100000000E-03 0.  1.
        -12    1    4    4    0    0  0.14719122977E+02  0.40403094941E+01 -0.13087558210E+01  0.15319579754E+02  0.00000000000E+00 0.  1.
</event>
<event>
 8    1  0.1210161E-006  0.9118800E+02  0.7816164E-02  0.1184000E+00
        -11   -1    0    0    0    0  0.00000000000E+00  0.00000000000E+00  0.45593999997E+02  0.45594000000E+02  0.51100000000E-03 0.  1.
         11   -1    0    0    0    0 -0.00000000000E+00 -0.00000000000E+00 -0.45593999997E+02  0.45594000000E+02  0.51100000000E-03 0. -1.
         23    2    1    2    0    0 -0.35527136788E-14  0.00000000000E+00 -0.35527136788E-14  0.91188000000E+02  0.91188000000E+02 0.  0.
    9900012    2    3    3    0    0 -0.19352821695E+02  0.16604631714E+02 -0.26561939212E+02  0.54367053290E+02  0.39999929585E+02 0.  0.
        -12    1    3    3    0    0  0.19352821695E+02 -0.16604631714E+02  0.26561939212E+02  0.36820946710E+02  0.00000000000E+00 0.  1.
         11    1    4    4    0    0 -0.18833035683E+01  0.31730408413E+01 -0.18405609949E+02  0.18771827252E+02  0.51100000000E-03 0. -1.
        -11    1    4    4    0    0 -0.23997304351E+02  0.59762955965E+01 -0.61808701890E+01  0.25490976477E+02  0.51100000000E-03 0.  1.
         12    1    4    4    0    0  0.65277862245E+01  0.74552952766E+01 -0.19754590739E+01  0.10104249562E+02  0.00000000000E+00 0. -1.
</event>
<event>
 8    1  0.1210161E-006  0.9118800E+02  0.7816164E-02  0.1184000E+00
        -11   -1    0    0    0    0  0.00000000000E+00  0.00000000000E+00  0.45593999997E+02  0.45594000000E+02  0.51100000000E-03 0. -1.
         11   -1    0    0    0    0 -0.00000000000E+00 -0.00000000000E+00 -0.45593999997E+02  0.45594000000E+02  0.51100000000E-03 0.  1.
         23    2    1    2    0    0 -0.35527136788E-14  0.00000000000E+00  0.88817841970E-15  0.91188000000E+02  0.91188000000E+02 0.  0.
    9900012    2    3    3    0    0 -0.24488649041E+02 -0.27024438580E+02  0.50759359948E+01  0.54367091013E+02  0.40000015582E+02 0.  0.
         12    1    3    3    0    0  0.24488649041E+02  0.27024438580E+02 -0.50759359948E+01  0.36820908987E+02  0.00000000000E+00 0. -1.
         11    1    4    4    0    0 -0.76002766756E+01 -0.10368214980E+02  0.21379392877E+01  0.13032070905E+02  0.51100000000E-03 0. -1.
        -11    1    4    4    0    0 -0.97263472432E+01 -0.20567917138E+02 -0.10932436838E+02  0.25242013026E+02  0.51100000000E-03 0.  1.
        -12    1    4    4    0    0 -0.71620251225E+01  0.39116935389E+01  0.13870433546E+02  0.16093007082E+02  0.00000000000E+00 0.  1.
</event>
<event>
 8    1  0.1210161E-006  0.9118800E+02  0.7816164E-02  0.1184000E+00
        -11   -1    0    0    0    0  0.00000000000E+00  0.00000000000E+00  0.45593999997E+02  0.45594000000E+02  0.51100000000E-03 0.  1.
         11   -1    0    0    0    0 -0.00000000000E+00 -0.00000000000E+00 -0.45593999997E+02  0.45594000000E+02  0.51100000000E-03 0. -1.
         23    2    1    2    0    0  0.35527136788E-14  0.00000000000E+00  0.35527136788E-14  0.91188000000E+02  0.91188000000E+02 0.  0.
    9900012    2    3    3    0    0 -0.23146911635E+02  0.25794471024E+01 -0.28519250399E+02  0.54367072405E+02  0.39999973163E+02 0.  0.
        -12    1    3    3    0    0  0.23146911635E+02 -0.25794471024E+01  0.28519250399E+02  0.36820927595E+02  0.00000000000E+00 0.  1.
         11    1    4    4    0    0  0.17890506852E+01  0.49435590859E+00 -0.17862632303E+02  0.17958806285E+02  0.51100000000E-03 0. -1.
        -11    1    4    4    0    0 -0.20813231475E+02 -0.67324070917E+01  0.13496875670E+00  0.21875422888E+02  0.51100000000E-03 0.  1.
        -12    1    4    4    0    0 -0.41227308452E+01  0.88174982855E+01 -0.10791586853E+02  0.14532843233E+02  0.00000000000E+00 0.  1.
</event>
<event>
 8    1  0.1210161E-006  0.9118800E+02  0.7816164E-02  0.1184000E+00
        -11   -1    0    0    0    0  0.00000000000E+00  0.00000000000E+00  0.45593999997E+02  0.45594000000E+02  0.51100000000E-03 0.  1.
         11   -1    0    0    0    0 -0.00000000000E+00 -0.00000000000E+00 -0.45593999997E+02  0.45594000000E+02  0.51100000000E-03 0. -1.
         23    2    1    2    0    0  0.00000000000E+00  0.00000000000E+00 -0.53290705182E-14  0.91188000000E+02  0.91188000000E+02 0.  0.
    9900012    2    3    3    0    0  0.52476470324E+01  0.34004898739E+02  0.13111417058E+02  0.54367079385E+02  0.39999989075E+02 0.  0.
         12    1    3    3    0    0 -0.52476470324E+01 -0.34004898739E+02 -0.13111417058E+02  0.36820920615E+02  0.00000000000E+00 0. -1.
         11    1    4    4    0    0 -0.28620198991E+01 -0.42462374787E+01 -0.59301016783E+01  0.78350364903E+01  0.51100000000E-03 0. -1.
        -11    1    4    4    0    0  0.15205609351E+01  0.49719228744E+01 -0.30691652457E+01  0.60375407405E+01  0.51100000000E-03 0.  1.
        -12    1    4    4    0    0  0.65891059964E+01  0.33279213343E+02  0.22110683982E+02  0.40494502155E+02  0.00000000000E+00 0.  1.
</event>
<event>
 8    1  0.1210161E-006  0.9118800E+02  0.7816164E-02  0.1184000E+00
        -11   -1    0    0    0    0  0.00000000000E+00  0.00000000000E+00  0.45593999997E+02  0.45594000000E+02  0.51100000000E-03 0.  1.
         11   -1    0    0    0    0 -0.00000000000E+00 -0.00000000000E+00 -0.45593999997E+02  0.45594000000E+02  0.51100000000E-03 0. -1.
         23    2    1    2    0    0  0.00000000000E+00  0.00000000000E+00  0.35527136788E-14  0.91188000000E+02  0.91188000000E+02 0.  0.
    9900012    2    3    3    0    0  0.21209484428E+02  0.31715979916E+01  0.29931230199E+02  0.54367084684E+02  0.40000001153E+02 0.  0.
         12    1    3    3    0    0 -0.21209484428E+02 -0.31715979916E+01 -0.29931230199E+02  0.36820915316E+02  0.00000000000E+00 0. -1.
         11    1    4    4    0    0 -0.65326783244E+00  0.70153719854E+01  0.78269374292E+01  0.10531056582E+02  0.51100000000E-03 0. -1.
        -11    1    4    4    0    0  0.44059799249E+01 -0.95446625668E+01  0.23167676929E+02  0.25441196850E+02  0.51100000000E-03 0.  1.
         12    1    4    4    0    0  0.17456772336E+02  0.57008885730E+01 -0.10633841596E+01  0.18394831251E+02  0.00000000000E+00 0. -1.
</event>
<event>
 8    1  0.1210161E-006  0.9118800E+02  0.7816164E-02  0.1184000E+00
        -11   -1    0    0    0    0  0.00000000000E+00  0.00000000000E+00  0.45593999997E+02  0.45594000000E+02  0.51100000000E-03 0.  1.
         11   -1    0    0    0    0 -0.00000000000E+00 -0.00000000000E+00 -0.45593999997E+02  0.45594000000E+02  0.51100000000E-03 0. -1.
         23    2    1    2    0    0  0.00000000000E+00  0.00000000000E+00  0.88817841970E-15  0.91188000000E+02  0.91188000000E+02 0.  0.
    9900012    2    3    3    0    0 -0.34783795810E+02  0.10778236024E+02 -0.54494895510E+01  0.54367085303E+02  0.40000002566E+02 0.  0.
         12    1    3    3    0    0  0.34783795810E+02 -0.10778236024E+02  0.54494895510E+01  0.36820914697E+02  0.00000000000E+00 0. -1.
         11    1    4    4    0    0 -0.26622201549E+01  0.10378330728E+02 -0.15595207399E+01  0.10827246651E+02  0.51100000000E-03 0. -1.
        -11    1    4    4    0    0 -0.89859785876E+01 -0.10250504149E+02  0.75906923003E+01  0.15602540061E+02  0.51100000000E-03 0.  1.
         12    1    4    4    0    0 -0.23135597067E+02  0.10650409445E+02 -0.11480661111E+02  0.27937298591E+02  0.00000000000E+00 0. -1.
</event>
<event>
 8    1  0.1210161E-006  0.9118800E+02  0.7816164E-02  0.1184000E+00
        -11   -1    0    0    0    0  0.00000000000E+00  0.00000000000E+00  0.45593999997E+02  0.45594000000E+02  0.51100000000E-03 0. -1.
         11   -1    0    0    0    0 -0.00000000000E+00 -0.00000000000E+00 -0.45593999997E+02  0.45594000000E+02  0.51100000000E-03 0.  1.
         23    2    1    2    0    0  0.00000000000E+00  0.00000000000E+00 -0.17763568394E-14  0.91188000000E+02  0.91188000000E+02 0.  0.
    9900012    2    3    3    0    0 -0.27494708348E+02 -0.23047961647E+02  0.82832646838E+01  0.54367082072E+02  0.39999995199E+02 0.  0.
        -12    1    3    3    0    0  0.27494708348E+02  0.23047961647E+02 -0.82832646838E+01  0.36820917928E+02  0.00000000000E+00 0.  1.
         11    1    4    4    0    0 -0.58903753298E+00 -0.10088761094E+02  0.11901342204E+02  0.15613199933E+02  0.51100000000E-03 0. -1.
        -11    1    4    4    0    0 -0.12320227372E+01  0.62503525654E+01 -0.18796127158E+01  0.66421179935E+01  0.51100000000E-03 0.  1.
         12    1    4    4    0    0 -0.25673648078E+02 -0.19209553119E+02 -0.17384648048E+01  0.32111764145E+02  0.00000000000E+00 0. -1.
</event>
<event>
 8    1  0.1210161E-006  0.9118800E+02  0.7816164E-02  0.1184000E+00
        -11   -1    0    0    0    0  0.00000000000E+00  0.00000000000E+00  0.45593999997E+02  0.45594000000E+02  0.51100000000E-03 0.  1.
         11   -1    0    0    0    0 -0.00000000000E+00 -0.00000000000E+00 -0.45593999997E+02  0.45594000000E+02  0.51100000000E-03 0. -1.
         23    2    1    2    0    0  0.00000000000E+00  0.00000000000E+00  0.00000000000E+00  0.91188000000E+02  0.91188000000E+02 0.  0.
    9900012    2    3    3    0    0 -0.19079529284E+02 -0.28671644900E+02  0.13026412850E+02  0.54367094379E+02  0.40000023256E+02 0.  0.
         12    1    3    3    0    0  0.19079529284E+02  0.28671644900E+02 -0.13026412850E+02  0.36820905621E+02  0.00000000000E+00 0. -1.
         11    1    4    4    0    0 -0.12373378657E+02  0.49621717722E+01  0.64883776171E+01  0.14826418733E+02  0.51100000000E-03 0.  1.
        -11    1    4    4    0    0 -0.11054035066E+02 -0.28256716491E+02  0.47748995154E+00  0.30345703402E+02  0.51100000000E-03 0. -1.
        -12    1    4    4    0    0  0.43478844385E+01 -0.53771001817E+01  0.60605452815E+01  0.91949722437E+01  0.00000000000E+00 0.  1.
</event>
<event>
 8    1  0.1210161E-006  0.9118800E+02  0.7816164E-02  0.1184000E+00
        -11   -1    0    0    0    0  0.00000000000E+00  0.00000000000E+00  0.45593999997E+02  0.45594000000E+02  0.51100000000E-03 0. -1.
         11   -1    0    0    0    0 -0.00000000000E+00 -0.00000000000E+00 -0.45593999997E+02  0.45594000000E+02  0.51100000000E-03 0.  1.
         23    2    1    2    0    0 -0.71054273576E-14 -0.55511151231E-15  0.00000000000E+00  0.91188000000E+02  0.91188000000E+02 0.  0.
    9900012    2    3    3    0    0  0.36262132022E+02  0.12267751709E+00 -0.63892917214E+01  0.54367077724E+02  0.39999985289E+02 0.  0.
         12    1    3    3    0    0 -0.36262132022E+02 -0.12267751709E+00  0.63892917214E+01  0.36820922276E+02  0.00000000000E+00 0. -1.
         11    1    4    4    0    0  0.30042821771E+01 -0.43557921325E+01 -0.95637492805E+01  0.10929955950E+02  0.51100000000E-03 0. -1.
        -11    1    4    4    0    0  0.61928606790E-02 -0.72154331220E+01  0.38588559884E+01  0.81824985970E+01  0.51100000000E-03 0.  1.
        -12    1    4    4    0    0  0.33251656984E+02  0.11693902772E+02 -0.68439842924E+00  0.35254623178E+02  0.00000000000E+00 0.  1.
</event>
<event>
 8    1  0.1210161E-006  0.9118800E+02  0.7816164E-02  0.1184000E+00
        -11   -1    0    0    0    0  0.00000000000E+00  0.00000000000E+00  0.45593999997E+02  0.45594000000E+02  0.51100000000E-03 0. -1.
         11   -1    0    0    0    0 -0.00000000000E+00 -0.00000000000E+00 -0.45593999997E+02  0.45594000000E+02  0.51100000000E-03 0.  1.
         23    2    1    2    0    0  0.00000000000E+00 -0.88817841970E-15  0.88817841970E-15  0.91188000000E+02  0.91188000000E+02 0.  0.
    9900012    2    3    3    0    0 -0.35902985598E+02  0.78108000760E+01 -0.23973447720E+01  0.54367078846E+02  0.39999987846E+02 0.  0.
         12    1    3    3    0    0  0.35902985598E+02 -0.78108000760E+01  0.23973447720E+01  0.36820921154E+02  0.00000000000E+00 0. -1.
         11    1    4    4    0    0 -0.10813770508E+01 -0.91268973506E+01  0.26598498447E+01  0.95678855047E+01  0.51100000000E-03 0. -1.
        -11    1    4    4    0    0 -0.78459716353E+01  0.11002827121E+02  0.63304607642E+01  0.14923009392E+02  0.51100000000E-03 0.  1.
        -12    1    4    4    0    0 -0.26975636912E+02  0.59348703057E+01 -0.11387655381E+02  0.29876183950E+02  0.00000000000E+00 0.  1.
</event>
<event>
 8    1  0.1210161E-006  0.9118800E+02  0.7816164E-02  0.1184000E+00
        -11   -1    0    0    0    0  0.00000000000E+00  0.00000000000E+00  0.45593999997E+02  0.45594000000E+02  0.51100000000E-03 0.  1.
         11   -1    0    0    0    0 -0.00000000000E+00 -0.00000000000E+00 -0.45593999997E+02  0.45594000000E+02  0.51100000000E-03 0. -1.
         23    2    1    2    0    0 -0.17763568394E-14  0.35527136788E-14 -0.35527136788E-14  0.91188000000E+02  0.91188000000E+02 0.  0.
    9900012    2    3    3    0    0 -0.10832915117E+02  0.28269427869E+02 -0.20958707164E+02  0.54367081924E+02  0.39999994863E+02 0.  0.
        -12    1    3    3    0    0  0.10832915117E+02 -0.28269427869E+02  0.20958707164E+02  0.36820918076E+02  0.00000000000E+00 0.  1.
         11    1    4    4    0    0 -0.17334725976E+01  0.72071375287E+01  0.13199933960E+01  0.75292855857E+01  0.51100000000E-03 0.  1.
        -11    1    4    4    0    0 -0.19122192252E+02  0.20792070028E+02 -0.79430816558E+01  0.29343840223E+02  0.51100000000E-03 0. -1.
        -12    1    4    4    0    0  0.10022749733E+02  0.27022031243E+00 -0.14335618904E+02  0.17493956116E+02  0.00000000000E+00 0.  1.
</event>
<event>
 8    1  0.1210161E-006  0.9118800E+02  0.7816164E-02  0.1184000E+00
        -11   -1    0    0    0    0  0.00000000000E+00  0.00000000000E+00  0.45593999997E+02  0.45594000000E+02  0.51100000000E-03 0.  1.
         11   -1    0    0    0    0 -0.00000000000E+00 -0.00000000000E+00 -0.45593999997E+02  0.45594000000E+02  0.51100000000E-03 0. -1.
         23    2    1    2    0    0 -0.17763568394E-14 -0.88817841970E-15 -0.71054273576E-14  0.91188000000E+02  0.91188000000E+02 0.  0.
    9900012    2    3    3    0    0 -0.15388624229E+02 -0.15930735243E+01 -0.33413054706E+02  0.54367083883E+02  0.39999999328E+02 0.  0.
        -12    1    3    3    0    0  0.15388624229E+02  0.15930735243E+01  0.33413054706E+02  0.36820916117E+02  0.00000000000E+00 0.  1.
         11    1    4    4    0    0 -0.68911639066E+01  0.83771517994E+01 -0.19629315617E+02  0.22427100662E+02  0.51100000000E-03 0. -1.
        -11    1    4    4    0    0 -0.12569050121E+02 -0.22195778152E+01  0.29088242846E+01  0.13090790870E+02  0.51100000000E-03 0.  1.
         12    1    4    4    0    0  0.40715897987E+01 -0.77506475086E+01 -0.16692563373E+02  0.18849192351E+02  0.00000000000E+00 0. -1.
</event>
<event>
 8    1  0.1210161E-006  0.9118800E+02  0.7816164E-02  0.1184000E+00
        -11   -1    0    0    0    0  0.00000000000E+00  0.00000000000E+00  0.45593999997E+02  0.45594000000E+02  0.51100000000E-03 0. -1.
         11   -1    0    0    0    0 -0.00000000000E+00 -0.00000000000E+00 -0.45593999997E+02  0.45594000000E+02  0.51100000000E-03 0.  1.
         23    2    1    2    0    0  0.00000000000E+00  0.00000000000E+00  0.00000000000E+00  0.91188000000E+02  0.91188000000E+02 0.  0.
    9900012    2    3    3    0    0 -0.21617238932E+02 -0.21158541606E+02 -0.20995019029E+02  0.54367085753E+02  0.40000003592E+02 0.  0.
         12    1    3    3    0    0  0.21617238932E+02  0.21158541606E+02  0.20995019029E+02  0.36820914247E+02  0.00000000000E+00 0. -1.
         11    1    4    4    0    0 -0.19491425566E+02  0.54922836696E+01 -0.18447424113E+01  0.20334304151E+02  0.51100000000E-03 0. -1.
        -11    1    4    4    0    0 -0.53186426872E+01 -0.11899987219E+02 -0.85058851200E+01  0.15564309743E+02  0.51100000000E-03 0.  1.
         12    1    4    4    0    0  0.31928293212E+01 -0.14750838056E+02 -0.10644391498E+02  0.18468471859E+02  0.00000000000E+00 0. -1.
</event>
<event>
 8    1  0.1210161E-006  0.9118800E+02  0.7816164E-02  0.1184000E+00
        -11   -1    0    0    0    0  0.00000000000E+00  0.00000000000E+00  0.45593999997E+02  0.45594000000E+02  0.51100000000E-03 0. -1.
         11   -1    0    0    0    0 -0.00000000000E+00 -0.00000000000E+00 -0.45593999997E+02  0.45594000000E+02  0.51100000000E-03 0.  1.
         23    2    1    2    0    0  0.00000000000E+00  0.77715611724E-15  0.00000000000E+00  0.91188000000E+02  0.91188000000E+02 0.  0.
    9900012    2    3    3    0    0  0.32553541662E+02  0.81449031290E+00  0.17186697499E+02  0.54367095066E+02  0.40000024823E+02 0.  0.
        -12    1    3    3    0    0 -0.32553541662E+02 -0.81449031290E+00 -0.17186697499E+02  0.36820904934E+02  0.00000000000E+00 0.  1.
         11    1    4    4    0    0  0.89245857547E+01  0.12743463125E+02  0.69798328967E+01  0.17051749202E+02  0.51100000000E-03 0. -1.
        -11    1    4    4    0    0 -0.67999237436E+00  0.37433662333E+01 -0.36249076176E+01  0.52550105502E+01  0.51100000000E-03 0.  1.
         12    1    4    4    0    0  0.24308948282E+02 -0.15672339046E+02  0.13831772220E+02  0.32060335314E+02  0.00000000000E+00 0. -1.
</event>
<event>
 8    1  0.1210161E-006  0.9118800E+02  0.7816164E-02  0.1184000E+00
        -11   -1    0    0    0    0  0.00000000000E+00  0.00000000000E+00  0.45593999997E+02  0.45594000000E+02  0.51100000000E-03 0. -1.
         11   -1    0    0    0    0 -0.00000000000E+00 -0.00000000000E+00 -0.45593999997E+02  0.45594000000E+02  0.51100000000E-03 0.  1.
         23    2    1    2    0    0 -0.17763568394E-14  0.35527136788E-14  0.00000000000E+00  0.91188000000E+02  0.91188000000E+02 0.  0.
    9900012    2    3    3    0    0  0.15575978616E+02  0.27494548968E+02 -0.18900233404E+02  0.54367079920E+02  0.39999990294E+02 0.  0.
        -12    1    3    3    0    0 -0.15575978616E+02 -0.27494548968E+02  0.18900233404E+02  0.36820920080E+02  0.00000000000E+00 0.  1.
         11    1    4    4    0    0  0.23155867754E+01  0.17709994073E+01 -0.18133877661E+02  0.18366706299E+02  0.51100000000E-03 0. -1.
        -11    1    4    4    0    0 -0.54029929971E+01  0.10549333420E+02 -0.14241801221E+01  0.11937715787E+02  0.51100000000E-03 0.  1.
         12    1    4    4    0    0  0.18663384838E+02  0.15174216140E+02  0.65782437859E+00  0.24062657833E+02  0.00000000000E+00 0. -1.
</event>
<event>
 8    1  0.1210161E-006  0.9118800E+02  0.7816164E-02  0.1184000E+00
        -11   -1    0    0    0    0  0.00000000000E+00  0.00000000000E+00  0.45593999997E+02  0.45594000000E+02  0.51100000000E-03 0.  1.
         11   -1    0    0    0    0 -0.00000000000E+00 -0.00000000000E+00 -0.45593999997E+02  0.45594000000E+02  0.51100000000E-03 0. -1.
         23    2    1    2    0    0 -0.35527136788E-14  0.35527136788E-14 -0.44408920985E-15  0.91188000000E+02  0.91188000000E+02 0.  0.
    9900012    2    3    3    0    0  0.30882657249E+02 -0.20036362595E+02 -0.76514055845E+00  0.54367084953E+02  0.40000001768E+02 0.  0.
         12    1    3    3    0    0 -0.30882657249E+02  0.20036362595E+02  0.76514055845E+00  0.36820915047E+02  0.00000000000E+00 0. -1.
         11    1    4    4    0    0 -0.10015101902E+01  0.63928731096E+01  0.71991338268E+01  0.96798438713E+01  0.51100000000E-03 0. -1.
        -11    1    4    4    0    0  0.16058870430E+01  0.13196900780E+01  0.14716891868E+01  0.25468263428E+01  0.51100000000E-03 0.  1.
        -12    1    4    4    0    0  0.30278280396E+02 -0.27748925782E+02 -0.94359635721E+01  0.42140414739E+02  0.00000000000E+00 0.  1.
</event>
<event>
 8    1  0.1210161E-006  0.9118800E+02  0.7816164E-02  0.1184000E+00
        -11   -1    0    0    0    0  0.00000000000E+00  0.00000000000E+00  0.45593999997E+02  0.45594000000E+02  0.51100000000E-03 0.  1.
         11   -1    0    0    0    0 -0.00000000000E+00 -0.00000000000E+00 -0.45593999997E+02  0.45594000000E+02  0.51100000000E-03 0. -1.
         23    2    1    2    0    0  0.00000000000E+00 -0.17763568394E-14 -0.71054273576E-14  0.91188000000E+02  0.91188000000E+02 0.  0.
    9900012    2    3    3    0    0 -0.14949832239E+02  0.19473648840E+01  0.33593010595E+02  0.54367081016E+02  0.39999992792E+02 0.  0.
         12    1    3    3    0    0  0.14949832239E+02 -0.19473648840E+01 -0.33593010595E+02  0.36820918984E+02  0.00000000000E+00 0. -1.
         11    1    4    4    0    0 -0.42769236474E+01 -0.12520482896E+02  0.10680627112E+02  0.17003833791E+02  0.51100000000E-03 0. -1.
        -11    1    4    4    0    0 -0.85032367839E+01 -0.50280988508E+01  0.83011647510E+01  0.12903338728E+02  0.51100000000E-03 0.  1.
         12    1    4    4    0    0 -0.21696718081E+01  0.19495946631E+02  0.14611218732E+02  0.24459908496E+02  0.00000000000E+00 0. -1.
</event>
<event>
 8    1  0.1210161E-006  0.9118800E+02  0.7816164E-02  0.1184000E+00
        -11   -1    0    0    0    0  0.00000000000E+00  0.00000000000E+00  0.45593999997E+02  0.45594000000E+02  0.51100000000E-03 0. -1.
         11   -1    0    0    0    0 -0.00000000000E+00 -0.00000000000E+00 -0.45593999997E+02  0.45594000000E+02  0.51100000000E-03 0.  1.
         23    2    1    2    0    0  0.00000000000E+00  0.00000000000E+00  0.00000000000E+00  0.91188000000E+02  0.91188000000E+02 0.  0.
    9900012    2    3    3    0    0  0.31438231151E+02 -0.10944540980E+02 -0.15736394490E+02  0.54367089274E+02  0.40000011617E+02 0.  0.
         12    1    3    3    0    0 -0.31438231151E+02  0.10944540980E+02  0.15736394490E+02  0.36820910726E+02  0.00000000000E+00 0. -1.
         11    1    4    4    0    0  0.59869488662E+01 -0.16486170764E+02 -0.54961049105E+01  0.18380548214E+02  0.51100000000E-03 0. -1.
        -11    1    4    4    0    0  0.15803956963E+02 -0.57645130684E+01 -0.12493139161E+02  0.20954073422E+02  0.51100000000E-03 0.  1.
        -12    1    4    4    0    0  0.96473253216E+01  0.11306142852E+02  0.22528495812E+01  0.15032467638E+02  0.00000000000E+00 0.  1.
</event>
<event>
 8    1  0.1210161E-006  0.9118800E+02  0.7816164E-02  0.1184000E+00
        -11   -1    0    0    0    0  0.00000000000E+00  0.00000000000E+00  0.45593999997E+02  0.45594000000E+02  0.51100000000E-03 0.  1.
         11   -1    0    0    0    0 -0.00000000000E+00 -0.00000000000E+00 -0.45593999997E+02  0.45594000000E+02  0.51100000000E-03 0. -1.
         23    2    1    2    0    0  0.00000000000E+00  0.00000000000E+00  0.00000000000E+00  0.91188000000E+02  0.91188000000E+02 0.  0.
    9900012    2    3    3    0    0  0.32716883195E+02 -0.85764851451E+01 -0.14554376104E+02  0.54367076502E+02  0.39999982502E+02 0.  0.
         12    1    3    3    0    0 -0.32716883195E+02  0.85764851451E+01  0.14554376104E+02  0.36820923498E+02  0.00000000000E+00 0. -1.
         11    1    4    4    0    0 -0.50402024613E-01 -0.33694688525E+01 -0.15047190305E+01  0.36905338819E+01  0.51100000000E-03 0. -1.
        -11    1    4    4    0    0 -0.42698741997E+01  0.17558993770E+01 -0.12130479906E+02  0.12979350959E+02  0.51100000000E-03 0.  1.
        -12    1    4    4    0    0  0.37037159419E+02 -0.69629156697E+01 -0.91917716798E+00  0.37697191661E+02  0.00000000000E+00 0.  1.
</event>
<event>
 8    1  0.1210161E-006  0.9118800E+02  0.7816164E-02  0.1184000E+00
        -11   -1    0    0    0    0  0.00000000000E+00  0.00000000000E+00  0.45593999997E+02  0.45594000000E+02  0.51100000000E-03 0. -1.
         11   -1    0    0    0    0 -0.00000000000E+00 -0.00000000000E+00 -0.45593999997E+02  0.45594000000E+02  0.51100000000E-03 0.  1.
         23    2    1    2    0    0 -0.17763568394E-14  0.00000000000E+00  0.35527136788E-14  0.91188000000E+02  0.91188000000E+02 0.  0.
    9900012    2    3    3    0    0 -0.11250570065E+02  0.22646643791E+02  0.26764355242E+02  0.54367129379E+02  0.40000103046E+02 0.  0.
        -12    1    3    3    0    0  0.11250570065E+02 -0.22646643791E+02 -0.26764355242E+02  0.36820870621E+02  0.00000000000E+00 0.  1.
         11    1    4    4    0    0 -0.37880668625E+01  0.17343102740E+02  0.85926161403E+01  0.19722213760E+02  0.51100000000E-03 0. -1.
        -11    1    4    4    0    0  0.51952940384E+01  0.12827087140E+02  0.45023367091E+01  0.14553222349E+02  0.51100000000E-03 0.  1.
        -12    1    4    4    0    0 -0.12657797240E+02 -0.75235460887E+01  0.13669402392E+02  0.20091693271E+02  0.00000000000E+00 0.  1.
</event>
<event>
 8    1  0.1210161E-006  0.9118800E+02  0.7816164E-02  0.1184000E+00
        -11   -1    0    0    0    0  0.00000000000E+00  0.00000000000E+00  0.45593999997E+02  0.45594000000E+02  0.51100000000E-03 0. -1.
         11   -1    0    0    0    0 -0.00000000000E+00 -0.00000000000E+00 -0.45593999997E+02  0.45594000000E+02  0.51100000000E-03 0.  1.
         23    2    1    2    0    0  0.17763568394E-14  0.00000000000E+00  0.00000000000E+00  0.91188000000E+02  0.91188000000E+02 0.  0.
    9900012    2    3    3    0    0 -0.10082032906E+02  0.34465791957E+02  0.81388988395E+01  0.54367083702E+02  0.39999998915E+02 0.  0.
        -12    1    3    3    0    0  0.10082032906E+02 -0.34465791957E+02 -0.81388988395E+01  0.36820916298E+02  0.00000000000E+00 0.  1.
         11    1    4    4    0    0 -0.14511764778E+02  0.33798303602E+02  0.14293661345E+02  0.39461695329E+02  0.51100000000E-03 0. -1.
        -11    1    4    4    0    0  0.19163032668E+01  0.34766757118E+01  0.30190107066E+01  0.49873758755E+01  0.51100000000E-03 0.  1.
        -12    1    4    4    0    0  0.25134286055E+01 -0.28091873571E+01 -0.91737732118E+01  0.99180124977E+01  0.00000000000E+00 0.  1.
</event>
<event>
 8    1  0.1210161E-006  0.9118800E+02  0.7816164E-02  0.1184000E+00
        -11   -1    0    0    0    0  0.00000000000E+00  0.00000000000E+00  0.45593999997E+02  0.45594000000E+02  0.51100000000E-03 0. -1.
         11   -1    0    0    0    0 -0.00000000000E+00 -0.00000000000E+00 -0.45593999997E+02  0.45594000000E+02  0.51100000000E-03 0.  1.
         23    2    1    2    0    0  0.00000000000E+00 -0.88817841970E-15  0.17763568394E-14  0.91188000000E+02  0.91188000000E+02 0.  0.
    9900012    2    3    3    0    0 -0.33438317912E+02 -0.52116237051E+01  0.14508526501E+02  0.54367089261E+02  0.40000011589E+02 0.  0.
        -12    1    3    3    0    0  0.33438317912E+02  0.52116237051E+01 -0.14508526501E+02  0.36820910739E+02  0.00000000000E+00 0.  1.
         11    1    4    4    0    0 -0.19749202590E+02 -0.12170668938E+02 -0.20212115515E+01  0.23286079140E+02  0.51100000000E-03 0. -1.
        -11    1    4    4    0    0 -0.23757298744E+01 -0.29274153569E+01 -0.40935983342E+01  0.55651954764E+01  0.51100000000E-03 0.  1.
         12    1    4    4    0    0 -0.11313385447E+02  0.98864605893E+01  0.20623336387E+02  0.25515814645E+02  0.00000000000E+00 0. -1.
</event>
<event>
 8    1  0.1210161E-006  0.9118800E+02  0.7816164E-02  0.1184000E+00
        -11   -1    0    0    0    0  0.00000000000E+00  0.00000000000E+00  0.45593999997E+02  0.45594000000E+02  0.51100000000E-03 0. -1.
         11   -1    0    0    0    0 -0.00000000000E+00 -0.00000000000E+00 -0.45593999997E+02  0.45594000000E+02  0.51100000000E-03 0.  1.
         23    2    1    2    0    0 -0.35527136788E-14  0.00000000000E+00  0.35527136788E-14  0.91188000000E+02  0.91188000000E+02 0.  0.
    9900012    2    3    3    0    0  0.17121218632E+02 -0.25731847074E+02  0.20012861724E+02  0.54367099472E+02  0.40000034867E+02 0.  0.
         12    1    3    3    0    0 -0.17121218632E+02  0.25731847074E+02 -0.20012861724E+02  0.36820900528E+02  0.00000000000E+00 0. -1.
         11    1    4    4    0    0 -0.49147034506E+01 -0.11483303297E+02  0.18315136807E+02  0.22169005416E+02  0.51100000000E-03 0. -1.
        -11    1    4    4    0    0  0.11897816243E+01 -0.59426629331E+01  0.68788286056E+01  0.91678299666E+01  0.51100000000E-03 0.  1.
         12    1    4    4    0    0  0.20846140458E+02 -0.83058808443E+01 -0.51811036887E+01  0.23030264090E+02  0.00000000000E+00 0. -1.
</event>
<event>
 8    1  0.1210161E-006  0.9118800E+02  0.7816164E-02  0.1184000E+00
        -11   -1    0    0    0    0  0.00000000000E+00  0.00000000000E+00  0.45593999997E+02  0.45594000000E+02  0.51100000000E-03 0.  1.
         11   -1    0    0    0    0 -0.00000000000E+00 -0.00000000000E+00 -0.45593999997E+02  0.45594000000E+02  0.51100000000E-03 0. -1.
         23    2    1    2    0    0  0.00000000000E+00  0.00000000000E+00  0.44408920985E-15  0.91188000000E+02  0.91188000000E+02 0.  0.
    9900012    2    3    3    0    0  0.34057947672E+02  0.13606227804E+02  0.32711543151E+01  0.54367167782E+02  0.40000190593E+02 0.  0.
         12    1    3    3    0    0 -0.34057947672E+02 -0.13606227804E+02 -0.32711543151E+01  0.36820832218E+02  0.00000000000E+00 0. -1.
         11    1    4    4    0    0 -0.26006769749E+01 -0.36863685062E+01 -0.46727879489E+01  0.64952121572E+01  0.51100000000E-03 0. -1.
        -11    1    4    4    0    0  0.81530260597E+01 -0.35324520604E+01  0.88734968289E+01  0.12557427990E+02  0.51100000000E-03 0.  1.
        -12    1    4    4    0    0  0.28505598587E+02  0.20825048370E+02 -0.92955456495E+00  0.35314527635E+02  0.00000000000E+00 0.  1.
</event>
<event>
 8    1  0.1210161E-006  0.9118800E+02  0.7816164E-02  0.1184000E+00
        -11   -1    0    0    0    0  0.00000000000E+00  0.00000000000E+00  0.45593999997E+02  0.45594000000E+02  0.51100000000E-03 0.  1.
         11   -1    0    0    0    0 -0.00000000000E+00 -0.00000000000E+00 -0.45593999997E+02  0.45594000000E+02  0.51100000000E-03 0. -1.
         23    2    1    2    0    0 -0.35527136788E-14 -0.35527136788E-14  0.00000000000E+00  0.91188000000E+02  0.91188000000E+02 0.  0.
    9900012    2    3    3    0    0 -0.31613302682E+02 -0.14130521071E+02  0.12518115285E+02  0.54367139846E+02  0.40000126908E+02 0.  0.
         12    1    3    3    0    0  0.31613302682E+02  0.14130521071E+02 -0.12518115285E+02  0.36820860154E+02  0.00000000000E+00 0. -1.
         11    1    4    4    0    0 -0.14231344750E+02 -0.34121823950E+01 -0.22018791417E+01  0.14799406546E+02  0.51100000000E-03 0. -1.
        -11    1    4    4    0    0  0.73379527431E+01 -0.54391818529E+01 -0.18819900905E+01  0.93258853012E+01  0.51100000000E-03 0.  1.
         12    1    4    4    0    0 -0.24719910674E+02 -0.52791568228E+01  0.16601984517E+02  0.30241847999E+02  0.00000000000E+00 0. -1.
</event>
<event>
 8    1  0.1210161E-006  0.9118800E+02  0.7816164E-02  0.1184000E+00
        -11   -1    0    0    0    0  0.00000000000E+00  0.00000000000E+00  0.45593999997E+02  0.45594000000E+02  0.51100000000E-03 0.  1.
         11   -1    0    0    0    0 -0.00000000000E+00 -0.00000000000E+00 -0.45593999997E+02  0.45594000000E+02  0.51100000000E-03 0. -1.
         23    2    1    2    0    0  0.00000000000E+00  0.00000000000E+00 -0.88817841970E-15  0.91188000000E+02  0.91188000000E+02 0.  0.
    9900012    2    3    3    0    0 -0.15512593890E+02 -0.33085594946E+02  0.45258300199E+01  0.54367077965E+02  0.39999985838E+02 0.  0.
         12    1    3    3    0    0  0.15512593890E+02  0.33085594946E+02 -0.45258300199E+01  0.36820922035E+02  0.00000000000E+00 0. -1.
         11    1    4    4    0    0 -0.77432678104E+01  0.40190116614E+01  0.10757025889E+02  0.13850063442E+02  0.51100000000E-03 0. -1.
        -11    1    4    4    0    0 -0.68139539745E+01 -0.24870963998E+02 -0.10033282551E+02  0.27670590488E+02  0.51100000000E-03 0.  1.
         12    1    4    4    0    0 -0.95537210517E+00 -0.12233642609E+02  0.38020866819E+01  0.12846424035E+02  0.00000000000E+00 0. -1.
</event>
<event>
 8    1  0.1210161E-006  0.9118800E+02  0.7816164E-02  0.1184000E+00
        -11   -1    0    0    0    0  0.00000000000E+00  0.00000000000E+00  0.45593999997E+02  0.45594000000E+02  0.51100000000E-03 0.  1.
         11   -1    0    0    0    0 -0.00000000000E+00 -0.00000000000E+00 -0.45593999997E+02  0.45594000000E+02  0.51100000000E-03 0. -1.
         23    2    1    2    0    0  0.17763568394E-14  0.00000000000E+00 -0.35527136788E-14  0.91188000000E+02  0.91188000000E+02 0.  0.
    9900012    2    3    3    0    0 -0.91622838521E+01 -0.22506236265E+02 -0.27664076802E+02  0.54367092061E+02  0.40000017971E+02 0.  0.
        -12    1    3    3    0    0  0.91622838521E+01  0.22506236265E+02  0.27664076802E+02  0.36820907939E+02  0.00000000000E+00 0.  1.
         11    1    4    4    0    0 -0.21786791421E+02 -0.18222451263E+02 -0.16291308130E+02  0.32743376907E+02  0.51100000000E-03 0.  1.
        -11    1    4    4    0    0  0.67570993461E+01 -0.81287132417E+01 -0.36315432991E+01  0.11176872440E+02  0.51100000000E-03 0. -1.
         12    1    4    4    0    0  0.58674082224E+01  0.38449282399E+01 -0.77412253725E+01  0.10446842714E+02  0.00000000000E+00 0. -1.
</event>
<event>
 8    1  0.1210161E-006  0.9118800E+02  0.7816164E-02  0.1184000E+00
        -11   -1    0    0    0    0  0.00000000000E+00  0.00000000000E+00  0.45593999997E+02  0.45594000000E+02  0.51100000000E-03 0. -1.
         11   -1    0    0    0    0 -0.00000000000E+00 -0.00000000000E+00 -0.45593999997E+02  0.45594000000E+02  0.51100000000E-03 0.  1.
         23    2    1    2    0    0  0.00000000000E+00  0.35527136788E-14 -0.88817841970E-15  0.91188000000E+02  0.91188000000E+02 0.  0.
    9900012    2    3    3    0    0 -0.23433203187E+02  0.27553545697E+02 -0.68896190737E+01  0.54367085521E+02  0.40000003062E+02 0.  0.
        -12    1    3    3    0    0  0.23433203187E+02 -0.27553545697E+02  0.68896190737E+01  0.36820914479E+02  0.00000000000E+00 0.  1.
         11    1    4    4    0    0 -0.12883584965E+02  0.27045473442E+02  0.59366786934E+00  0.29963258118E+02  0.51100000000E-03 0. -1.
        -11    1    4    4    0    0 -0.12365501161E+02  0.54980613874E+01 -0.11489266487E+02  0.17752113752E+02  0.51100000000E-03 0.  1.
        -12    1    4    4    0    0  0.18158829382E+01 -0.49899891328E+01  0.40059795438E+01  0.66517136511E+01  0.00000000000E+00 0.  1.
</event>
<event>
 8    1  0.1210161E-006  0.9118800E+02  0.7816164E-02  0.1184000E+00
        -11   -1    0    0    0    0  0.00000000000E+00  0.00000000000E+00  0.45593999997E+02  0.45594000000E+02  0.51100000000E-03 0.  1.
         11   -1    0    0    0    0 -0.00000000000E+00 -0.00000000000E+00 -0.45593999997E+02  0.45594000000E+02  0.51100000000E-03 0. -1.
         23    2    1    2    0    0  0.71054273576E-14  0.13322676296E-14  0.35527136788E-14  0.91188000000E+02  0.91188000000E+02 0.  0.
    9900012    2    3    3    0    0  0.27545808604E+02  0.29038307684E+01  0.24260572832E+02  0.54367092910E+02  0.40000019907E+02 0.  0.
         12    1    3    3    0    0 -0.27545808604E+02 -0.29038307684E+01 -0.24260572832E+02  0.36820907090E+02  0.00000000000E+00 0. -1.
         11    1    4    4    0    0  0.84213077710E+01 -0.11180930132E+02  0.19646351868E+02  0.24122826642E+02  0.51100000000E-03 0.  1.
        -11    1    4    4    0    0  0.18289199442E+02  0.10603134702E+02 -0.34507128937E+01  0.21420287147E+02  0.51100000000E-03 0. -1.
         12    1    4    4    0    0  0.83530139159E+00  0.34816261984E+01  0.80649338575E+01  0.88239791209E+01  0.00000000000E+00 0. -1.
</event>
<event>
 8    1  0.1210161E-006  0.9118800E+02  0.7816164E-02  0.1184000E+00
        -11   -1    0    0    0    0  0.00000000000E+00  0.00000000000E+00  0.45593999997E+02  0.45594000000E+02  0.51100000000E-03 0. -1.
         11   -1    0    0    0    0 -0.00000000000E+00 -0.00000000000E+00 -0.45593999997E+02  0.45594000000E+02  0.51100000000E-03 0.  1.
         23    2    1    2    0    0  0.17763568394E-14  0.71054273576E-14 -0.35527136788E-14  0.91188000000E+02  0.91188000000E+02 0.  0.
    9900012    2    3    3    0    0 -0.13804591592E+02 -0.26426067699E+02  0.21607342870E+02  0.54367067517E+02  0.39999962018E+02 0.  0.
        -12    1    3    3    0    0  0.13804591592E+02  0.26426067699E+02 -0.21607342870E+02  0.36820932483E+02  0.00000000000E+00 0.  1.
         11    1    4    4    0    0 -0.13678766681E+02 -0.64191626854E+01  0.11795906538E+02  0.19169186702E+02  0.51100000000E-03 0. -1.
        -11    1    4    4    0    0 -0.10357301034E+02  0.94788640700E+00  0.18968664178E+01  0.10572146226E+02  0.51100000000E-03 0.  1.
        -12    1    4    4    0    0  0.10231476124E+02 -0.20954791420E+02  0.79145699138E+01  0.24625734589E+02  0.00000000000E+00 0.  1.
</event>
<event>
 8    1  0.1210161E-006  0.9118800E+02  0.7816164E-02  0.1184000E+00
        -11   -1    0    0    0    0  0.00000000000E+00  0.00000000000E+00  0.45593999997E+02  0.45594000000E+02  0.51100000000E-03 0. -1.
         11   -1    0    0    0    0 -0.00000000000E+00 -0.00000000000E+00 -0.45593999997E+02  0.45594000000E+02  0.51100000000E-03 0.  1.
         23    2    1    2    0    0 -0.35527136788E-14  0.00000000000E+00 -0.35527136788E-14  0.91188000000E+02  0.91188000000E+02 0.  0.
    9900012    2    3    3    0    0  0.22771440264E+02 -0.23097484254E+02  0.17428359025E+02  0.54367082455E+02  0.39999996073E+02 0.  0.
         12    1    3    3    0    0 -0.22771440264E+02  0.23097484254E+02 -0.17428359025E+02  0.36820917545E+02  0.00000000000E+00 0. -1.
         11    1    4    4    0    0  0.20437274854E+01 -0.88912635580E+01  0.17624046844E+02  0.19845362610E+02  0.51100000000E-03 0. -1.
        -11    1    4    4    0    0  0.20955850884E+02 -0.13451514225E+01  0.31417788105E+01  0.21232708093E+02  0.51100000000E-03 0.  1.
         12    1    4    4    0    0 -0.22813810517E+00 -0.12861069273E+02 -0.33374666295E+01  0.13289011752E+02  0.00000000000E+00 0. -1.
</event>
<event>
 8    1  0.1210161E-006  0.9118800E+02  0.7816164E-02  0.1184000E+00
        -11   -1    0    0    0    0  0.00000000000E+00  0.00000000000E+00  0.45593999997E+02  0.45594000000E+02  0.51100000000E-03 0.  1.
         11   -1    0    0    0    0 -0.00000000000E+00 -0.00000000000E+00 -0.45593999997E+02  0.45594000000E+02  0.51100000000E-03 0. -1.
         23    2    1    2    0    0  0.00000000000E+00 -0.17763568394E-14  0.00000000000E+00  0.91188000000E+02  0.91188000000E+02 0.  0.
    9900012    2    3    3    0    0  0.10366995769E+02 -0.12230652211E+02 -0.33146890708E+02  0.54367084499E+02  0.40000000731E+02 0.  0.
        -12    1    3    3    0    0 -0.10366995769E+02  0.12230652211E+02  0.33146890708E+02  0.36820915501E+02  0.00000000000E+00 0.  1.
         11    1    4    4    0    0 -0.36614062725E+01  0.15353211346E+00 -0.22648283409E+01  0.43080059977E+01  0.51100000000E-03 0. -1.
        -11    1    4    4    0    0  0.95242034834E+01 -0.27928114503E+01  0.60588768788E+01  0.11628423672E+02  0.51100000000E-03 0.  1.
         12    1    4    4    0    0  0.45041985576E+01 -0.95913728740E+01 -0.36940939246E+02  0.38430654829E+02  0.00000000000E+00 0. -1.
</event>
<event>
 8    1  0.1210161E-006  0.9118800E+02  0.7816164E-02  0.1184000E+00
        -11   -1    0    0    0    0  0.00000000000E+00  0.00000000000E+00  0.45593999997E+02  0.45594000000E+02  0.51100000000E-03 0. -1.
         11   -1    0    0    0    0 -0.00000000000E+00 -0.00000000000E+00 -0.45593999997E+02  0.45594000000E+02  0.51100000000E-03 0.  1.
         23    2    1    2    0    0  0.00000000000E+00  0.00000000000E+00  0.00000000000E+00  0.91188000000E+02  0.91188000000E+02 0.  0.
    9900012    2    3    3    0    0  0.77940639918E+01 -0.28557547035E+02  0.21897455256E+02  0.54367089190E+02  0.40000011427E+02 0.  0.
        -12    1    3    3    0    0 -0.77940639918E+01  0.28557547035E+02 -0.21897455256E+02  0.36820910810E+02  0.00000000000E+00 0.  1.
         11    1    4    4    0    0  0.20535879674E+02 -0.16824745411E+02  0.12278455594E+02  0.29249869815E+02  0.51100000000E-03 0. -1.
        -11    1    4    4    0    0 -0.15135587396E+01  0.34933183452E+01 -0.18048044337E+00  0.38113916843E+01  0.51100000000E-03 0.  1.
         12    1    4    4    0    0 -0.11228256943E+02 -0.15226119969E+02  0.97994801054E+01  0.21305827691E+02  0.00000000000E+00 0. -1.
</event>
<event>
 8    1  0.1210161E-006  0.9118800E+02  0.7816164E-02  0.1184000E+00
        -11   -1    0    0    0    0  0.00000000000E+00  0.00000000000E+00  0.45593999997E+02  0.45594000000E+02  0.51100000000E-03 0. -1.
         11   -1    0    0    0    0 -0.00000000000E+00 -0.00000000000E+00 -0.45593999997E+02  0.45594000000E+02  0.51100000000E-03 0.  1.
         23    2    1    2    0    0 -0.12767564783E-14 -0.35527136788E-14 -0.35527136788E-14  0.91188000000E+02  0.91188000000E+02 0.  0.
    9900012    2    3    3    0    0 -0.29803505999E+00  0.29568049900E+02  0.21941316400E+02  0.54367085221E+02  0.40000002378E+02 0.  0.
        -12    1    3    3    0    0  0.29803505999E+00 -0.29568049900E+02 -0.21941316400E+02  0.36820914779E+02  0.00000000000E+00 0.  1.
         11    1    4    4    0    0 -0.54683516842E+01  0.17323354202E+02  0.55444467626E+01  0.18993218819E+02  0.51100000000E-03 0. -1.
        -11    1    4    4    0    0  0.96983665509E+01  0.83435983162E+01  0.23091972786E+02  0.26399112751E+02  0.51100000000E-03 0.  1.
        -12    1    4    4    0    0 -0.45280499267E+01  0.39010973822E+01 -0.66951031488E+01  0.89747536510E+01  0.00000000000E+00 0.  1.
</event>
<event>
 8    1  0.1210161E-006  0.9118800E+02  0.7816164E-02  0.1184000E+00
        -11   -1    0    0    0    0  0.00000000000E+00  0.00000000000E+00  0.45593999997E+02  0.45594000000E+02  0.51100000000E-03 0.  1.
         11   -1    0    0    0    0 -0.00000000000E+00 -0.00000000000E+00 -0.45593999997E+02  0.45594000000E+02  0.51100000000E-03 0. -1.
         23    2    1    2    0    0  0.00000000000E+00  0.00000000000E+00  0.17763568394E-14  0.91188000000E+02  0.91188000000E+02 0.  0.
    9900012    2    3    3    0    0  0.19054094815E+02 -0.29009300201E+02 -0.12295435159E+02  0.54367139702E+02  0.40000126578E+02 0.  0.
         12    1    3    3    0    0 -0.19054094815E+02  0.29009300201E+02  0.12295435159E+02  0.36820860298E+02  0.00000000000E+00 0. -1.
         11    1    4    4    0    0 -0.26989887116E+01  0.21195401564E+01  0.53580340803E+00  0.34733378893E+01  0.51100000000E-03 0. -1.
        -11    1    4    4    0    0  0.10021153030E+02  0.34168336051E+01  0.31752133729E+01  0.11053517094E+02  0.51100000000E-03 0.  1.
        -12    1    4    4    0    0  0.11731930497E+02 -0.34545673962E+02 -0.16006451940E+02  0.39840284718E+02  0.00000000000E+00 0.  1.
</event>
<event>
 8    1  0.1210161E-006  0.9118800E+02  0.7816164E-02  0.1184000E+00
        -11   -1    0    0    0    0  0.00000000000E+00  0.00000000000E+00  0.45593999997E+02  0.45594000000E+02  0.51100000000E-03 0.  1.
         11   -1    0    0    0    0 -0.00000000000E+00 -0.00000000000E+00 -0.45593999997E+02  0.45594000000E+02  0.51100000000E-03 0. -1.
         23    2    1    2    0    0  0.00000000000E+00  0.00000000000E+00 -0.35527136788E-14  0.91188000000E+02  0.91188000000E+02 0.  0.
    9900012    2    3    3    0    0 -0.12200171327E+02 -0.28735015982E+02 -0.19525234731E+02  0.54367080468E+02  0.39999991542E+02 0.  0.
        -12    1    3    3    0    0  0.12200171327E+02  0.28735015982E+02  0.19525234731E+02  0.36820919532E+02  0.00000000000E+00 0.  1.
         11    1    4    4    0    0  0.68720475155E+01 -0.34435311691E+01 -0.20570536717E+01  0.79570355056E+01  0.51100000000E-03 0. -1.
        -11    1    4    4    0    0  0.28352363400E+01  0.16804485665E+01  0.42916125254E+01  0.54111376639E+01  0.51100000000E-03 0.  1.
        -12    1    4    4    0    0 -0.21907455182E+02 -0.26971933380E+02 -0.21759793585E+02  0.40998907298E+02  0.00000000000E+00 0.  1.
</event>
<event>
 8    1  0.1210161E-006  0.9118800E+02  0.7816164E-02  0.1184000E+00
        -11   -1    0    0    0    0  0.00000000000E+00  0.00000000000E+00  0.45593999997E+02  0.45594000000E+02  0.51100000000E-03 0.  1.
         11   -1    0    0    0    0 -0.00000000000E+00 -0.00000000000E+00 -0.45593999997E+02  0.45594000000E+02  0.51100000000E-03 0. -1.
         23    2    1    2    0    0  0.35527136788E-14  0.00000000000E+00  0.88817841970E-15  0.91188000000E+02  0.91188000000E+02 0.  0.
    9900012    2    3    3    0    0  0.30929811451E+02 -0.19352234871E+02  0.49617232027E+01  0.54367069430E+02  0.39999966381E+02 0.  0.
        -12    1    3    3    0    0 -0.30929811451E+02  0.19352234871E+02 -0.49617232027E+01  0.36820930570E+02  0.00000000000E+00 0.  1.
         11    1    4    4    0    0  0.30217280614E+02 -0.55545010058E+01  0.23264362501E-01  0.30723558886E+02  0.51100000000E-03 0. -1.
        -11    1    4    4    0    0 -0.20851221218E+01 -0.17612756935E+02  0.61293880434E+01  0.18765029688E+02  0.51100000000E-03 0.  1.
         12    1    4    4    0    0  0.27976529579E+01  0.38150230703E+01 -0.11909292032E+01  0.48784808564E+01  0.00000000000E+00 0. -1.
</event>
<event>
 8    1  0.1210161E-006  0.9118800E+02  0.7816164E-02  0.1184000E+00
        -11   -1    0    0    0    0  0.00000000000E+00  0.00000000000E+00  0.45593999997E+02  0.45594000000E+02  0.51100000000E-03 0.  1.
         11   -1    0    0    0    0 -0.00000000000E+00 -0.00000000000E+00 -0.45593999997E+02  0.45594000000E+02  0.51100000000E-03 0. -1.
         23    2    1    2    0    0  0.00000000000E+00  0.00000000000E+00  0.00000000000E+00  0.91188000000E+02  0.91188000000E+02 0.  0.
    9900012    2    3    3    0    0 -0.29561897109E+02 -0.20389991650E+02 -0.81318453448E+01  0.54367021891E+02  0.39999858005E+02 0.  0.
        -12    1    3    3    0    0  0.29561897109E+02  0.20389991650E+02  0.81318453448E+01  0.36820978109E+02  0.00000000000E+00 0.  1.
         11    1    4    4    0    0 -0.17474229442E+02 -0.77015586940E+01 -0.15299249471E+02  0.24468954525E+02  0.51100000000E-03 0. -1.
        -11    1    4    4    0    0 -0.64789597939E+01  0.42991531544E+01  0.90246883522E+01  0.11912373314E+02  0.51100000000E-03 0.  1.
         12    1    4    4    0    0 -0.56087078736E+01 -0.16987586110E+02 -0.18572842263E+01  0.17985694053E+02  0.00000000000E+00 0. -1.
</event>
<event>
 8    1  0.1210161E-006  0.9118800E+02  0.7816164E-02  0.1184000E+00
        -11   -1    0    0    0    0  0.00000000000E+00  0.00000000000E+00  0.45593999997E+02  0.45594000000E+02  0.51100000000E-03 0. -1.
         11   -1    0    0    0    0 -0.00000000000E+00 -0.00000000000E+00 -0.45593999997E+02  0.45594000000E+02  0.51100000000E-03 0.  1.
         23    2    1    2    0    0  0.00000000000E+00  0.00000000000E+00 -0.35527136788E-14  0.91188000000E+02  0.91188000000E+02 0.  0.
    9900012    2    3    3    0    0 -0.17672277745E+02  0.16967005325E+02 -0.27488022147E+02  0.54367081598E+02  0.39999994120E+02 0.  0.
         12    1    3    3    0    0  0.17672277745E+02 -0.16967005325E+02  0.27488022147E+02  0.36820918402E+02  0.00000000000E+00 0. -1.
         11    1    4    4    0    0 -0.10928846194E+02  0.19473632154E+02 -0.23028975591E+02  0.32077963549E+02  0.51100000000E-03 0. -1.
        -11    1    4    4    0    0 -0.67823877496E+01  0.72462743865E+01 -0.70781968766E+01  0.12190576170E+02  0.51100000000E-03 0.  1.
         12    1    4    4    0    0  0.38956199061E-01 -0.97529012146E+01  0.26191503214E+01  0.10098541880E+02  0.00000000000E+00 0. -1.
</event>
<event>
 8    1  0.1210161E-006  0.9118800E+02  0.7816164E-02  0.1184000E+00
        -11   -1    0    0    0    0  0.00000000000E+00  0.00000000000E+00  0.45593999997E+02  0.45594000000E+02  0.51100000000E-03 0. -1.
         11   -1    0    0    0    0 -0.00000000000E+00 -0.00000000000E+00 -0.45593999997E+02  0.45594000000E+02  0.51100000000E-03 0.  1.
         23    2    1    2    0    0 -0.17763568394E-14 -0.35527136788E-14  0.35527136788E-14  0.91188000000E+02  0.91188000000E+02 0.  0.
    9900012    2    3    3    0    0 -0.11018511442E+02 -0.27876609523E+02 -0.21383796446E+02  0.54367086060E+02  0.40000004291E+02 0.  0.
         12    1    3    3    0    0  0.11018511442E+02  0.27876609523E+02  0.21383796446E+02  0.36820913940E+02  0.00000000000E+00 0. -1.
         11    1    4    4    0    0 -0.94216047576E+01 -0.16034070027E+02  0.70702436464E+01  0.19895888603E+02  0.51100000000E-03 0. -1.
        -11    1    4    4    0    0 -0.75568438707E+00 -0.12038076273E+01 -0.21902773684E+02  0.21948842954E+02  0.51100000000E-03 0.  1.
         12    1    4    4    0    0 -0.84122229693E+00 -0.10638731869E+02 -0.65512664086E+01  0.12522354503E+02  0.00000000000E+00 0. -1.
</event>
<event>
 8    1  0.1210161E-006  0.9118800E+02  0.7816164E-02  0.1184000E+00
        -11   -1    0    0    0    0  0.00000000000E+00  0.00000000000E+00  0.45593999997E+02  0.45594000000E+02  0.51100000000E-03 0.  1.
         11   -1    0    0    0    0 -0.00000000000E+00 -0.00000000000E+00 -0.45593999997E+02  0.45594000000E+02  0.51100000000E-03 0. -1.
         23    2    1    2    0    0 -0.17763568394E-14 -0.71054273576E-14  0.38857805862E-15  0.91188000000E+02  0.91188000000E+02 0.  0.
    9900012    2    3    3    0    0  0.55525452980E+01  0.36398551345E+02  0.30855323531E+00  0.54367075183E+02  0.39999979494E+02 0.  0.
         12    1    3    3    0    0 -0.55525452980E+01 -0.36398551345E+02 -0.30855323531E+00  0.36820924817E+02  0.00000000000E+00 0. -1.
         11    1    4    4    0    0  0.17851616403E+02  0.91289591001E+01 -0.81997753018E+01  0.21662280991E+02  0.51100000000E-03 0. -1.
        -11    1    4    4    0    0 -0.53485325952E+01  0.98828944993E+01  0.83151734744E+01  0.13979288779E+02  0.51100000000E-03 0.  1.
        -12    1    4    4    0    0 -0.69505385099E+01  0.17386697746E+02  0.19315506274E+00  0.18725505413E+02  0.00000000000E+00 0.  1.
</event>
<event>
 8    1  0.1210161E-006  0.9118800E+02  0.7816164E-02  0.1184000E+00
        -11   -1    0    0    0    0  0.00000000000E+00  0.00000000000E+00  0.45593999997E+02  0.45594000000E+02  0.51100000000E-03 0.  1.
         11   -1    0    0    0    0 -0.00000000000E+00 -0.00000000000E+00 -0.45593999997E+02  0.45594000000E+02  0.51100000000E-03 0. -1.
         23    2    1    2    0    0 -0.35527136788E-14  0.17763568394E-14  0.00000000000E+00  0.91188000000E+02  0.91188000000E+02 0.  0.
    9900012    2    3    3    0    0  0.28638890480E+02 -0.10432411663E+02 -0.20658136911E+02  0.54367083639E+02  0.39999998771E+02 0.  0.
        -12    1    3    3    0    0 -0.28638890480E+02  0.10432411663E+02  0.20658136911E+02  0.36820916361E+02  0.00000000000E+00 0.  1.
         11    1    4    4    0    0  0.73611888767E+01 -0.69223996178E+01 -0.87618364061E+00  0.10142702607E+02  0.51100000000E-03 0. -1.
        -11    1    4    4    0    0  0.20967177349E+02  0.59902714915E+01  0.51472931584E+00  0.21812171488E+02  0.51100000000E-03 0.  1.
         12    1    4    4    0    0  0.31052425501E+00 -0.95002835370E+01 -0.20296682586E+02  0.22412209543E+02  0.00000000000E+00 0. -1.
</event>
<event>
 8    1  0.1210161E-006  0.9118800E+02  0.7816164E-02  0.1184000E+00
        -11   -1    0    0    0    0  0.00000000000E+00  0.00000000000E+00  0.45593999997E+02  0.45594000000E+02  0.51100000000E-03 0. -1.
         11   -1    0    0    0    0 -0.00000000000E+00 -0.00000000000E+00 -0.45593999997E+02  0.45594000000E+02  0.51100000000E-03 0.  1.
         23    2    1    2    0    0  0.00000000000E+00  0.17763568394E-14  0.00000000000E+00  0.91188000000E+02  0.91188000000E+02 0.  0.
    9900012    2    3    3    0    0  0.12085583509E+02  0.14798284285E+02  0.31475851686E+02  0.54367084939E+02  0.40000001736E+02 0.  0.
        -12    1    3    3    0    0 -0.12085583509E+02 -0.14798284285E+02 -0.31475851686E+02  0.36820915061E+02  0.00000000000E+00 0.  1.
         11    1    4    4    0    0 -0.16037198236E+01 -0.27585019276E+01  0.51341958285E+01  0.60449331860E+01  0.51100000000E-03 0. -1.
        -11    1    4    4    0    0  0.64594360669E+01  0.21090176920E+02  0.13854847633E+01  0.22100666169E+02  0.51100000000E-03 0.  1.
        -12    1    4    4    0    0  0.72298672660E+01 -0.35333907072E+01  0.24956171094E+02  0.26221485584E+02  0.00000000000E+00 0.  1.
</event>
<event>
 8    1  0.1210161E-006  0.9118800E+02  0.7816164E-02  0.1184000E+00
        -11   -1    0    0    0    0  0.00000000000E+00  0.00000000000E+00  0.45593999997E+02  0.45594000000E+02  0.51100000000E-03 0.  1.
         11   -1    0    0    0    0 -0.00000000000E+00 -0.00000000000E+00 -0.45593999997E+02  0.45594000000E+02  0.51100000000E-03 0. -1.
         23    2    1    2    0    0 -0.88817841970E-15  0.00000000000E+00  0.00000000000E+00  0.91188000000E+02  0.91188000000E+02 0.  0.
    9900012    2    3    3    0    0 -0.50794834511E+01 -0.36226732826E+02 -0.41957475813E+01  0.54367060018E+02  0.39999944923E+02 0.  0.
        -12    1    3    3    0    0  0.50794834511E+01  0.36226732826E+02  0.41957475813E+01  0.36820939982E+02  0.00000000000E+00 0.  1.
         11    1    4    4    0    0  0.47809399107E+01 -0.10805938575E+02 -0.53058231720E+01  0.12952893681E+02  0.51100000000E-03 0. -1.
        -11    1    4    4    0    0 -0.35484576234E+01  0.51184711582E+01 -0.68210116250E+01  0.92366930420E+01  0.51100000000E-03 0.  1.
        -12    1    4    4    0    0 -0.63119657384E+01 -0.30539265409E+02  0.79310872157E+01  0.32177473295E+02  0.00000000000E+00 0.  1.
</event>
<event>
 8    1  0.1210161E-006  0.9118800E+02  0.7816164E-02  0.1184000E+00
        -11   -1    0    0    0    0  0.00000000000E+00  0.00000000000E+00  0.45593999997E+02  0.45594000000E+02  0.51100000000E-03 0. -1.
         11   -1    0    0    0    0 -0.00000000000E+00 -0.00000000000E+00 -0.45593999997E+02  0.45594000000E+02  0.51100000000E-03 0.  1.
         23    2    1    2    0    0 -0.13322676296E-14  0.00000000000E+00  0.00000000000E+00  0.91188000000E+02  0.91188000000E+02 0.  0.
    9900012    2    3    3    0    0  0.14859915226E+01 -0.19484368239E+02 -0.31207861704E+02  0.54367090062E+02  0.40000013415E+02 0.  0.
         12    1    3    3    0    0 -0.14859915226E+01  0.19484368239E+02  0.31207861704E+02  0.36820909938E+02  0.00000000000E+00 0. -1.
         11    1    4    4    0    0 -0.97715307341E+01 -0.41814198783E+01  0.38736893527E+01  0.11312495505E+02  0.51100000000E-03 0. -1.
        -11    1    4    4    0    0  0.15409187480E+02 -0.10918321542E+02 -0.27547805316E+02  0.33399616496E+02  0.51100000000E-03 0.  1.
        -12    1    4    4    0    0 -0.41516652234E+01 -0.43846268192E+01 -0.75337457415E+01  0.96549780615E+01  0.00000000000E+00 0.  1.
</event>
<event>
 8    1  0.1210161E-006  0.9118800E+02  0.7816164E-02  0.1184000E+00
        -11   -1    0    0    0    0  0.00000000000E+00  0.00000000000E+00  0.45593999997E+02  0.45594000000E+02  0.51100000000E-03 0.  1.
         11   -1    0    0    0    0 -0.00000000000E+00 -0.00000000000E+00 -0.45593999997E+02  0.45594000000E+02  0.51100000000E-03 0. -1.
         23    2    1    2    0    0  0.00000000000E+00  0.00000000000E+00  0.17763568394E-14  0.91188000000E+02  0.91188000000E+02 0.  0.
    9900012    2    3    3    0    0 -0.25563661526E+02  0.23438072644E+02 -0.12366725983E+02  0.54367082692E+02  0.39999996612E+02 0.  0.
        -12    1    3    3    0    0  0.25563661526E+02 -0.23438072644E+02  0.12366725983E+02  0.36820917308E+02  0.00000000000E+00 0.  1.
         11    1    4    4    0    0 -0.89345081517E+01  0.72013848254E+01 -0.11806173907E+02  0.16464237665E+02  0.51100000000E-03 0. -1.
        -11    1    4    4    0    0 -0.19727366804E+02  0.96026277058E+01 -0.11475025191E+02  0.24759960890E+02  0.51100000000E-03 0.  1.
        -12    1    4    4    0    0  0.30982134297E+01  0.66340601127E+01  0.10914473115E+02  0.13142884136E+02  0.00000000000E+00 0.  1.
</event>
<event>
 8    1  0.1210161E-006  0.9118800E+02  0.7816164E-02  0.1184000E+00
        -11   -1    0    0    0    0  0.00000000000E+00  0.00000000000E+00  0.45593999997E+02  0.45594000000E+02  0.51100000000E-03 0.  1.
         11   -1    0    0    0    0 -0.00000000000E+00 -0.00000000000E+00 -0.45593999997E+02  0.45594000000E+02  0.51100000000E-03 0. -1.
         23    2    1    2    0    0  0.00000000000E+00  0.00000000000E+00 -0.35527136788E-14  0.91188000000E+02  0.91188000000E+02 0.  0.
    9900012    2    3    3    0    0 -0.20547725998E+02  0.10601457235E+02  0.28656227018E+02  0.54367091726E+02  0.40000017209E+02 0.  0.
         12    1    3    3    0    0  0.20547725998E+02 -0.10601457235E+02 -0.28656227018E+02  0.36820908274E+02  0.00000000000E+00 0. -1.
         11    1    4    4    0    0  0.19676437596E+01  0.38470409474E+01 -0.26643619658E+01  0.50764328974E+01  0.51100000000E-03 0. -1.
        -11    1    4    4    0    0 -0.15061895716E+01  0.86227861310E+01  0.26147044216E+02  0.27573338013E+02  0.51100000000E-03 0.  1.
        -12    1    4    4    0    0 -0.21009180186E+02 -0.18683698430E+01  0.51735447670E+01  0.21717320816E+02  0.00000000000E+00 0.  1.
</event>
<event>
 8    1  0.1210161E-006  0.9118800E+02  0.7816164E-02  0.1184000E+00
        -11   -1    0    0    0    0  0.00000000000E+00  0.00000000000E+00  0.45593999997E+02  0.45594000000E+02  0.51100000000E-03 0.  1.
         11   -1    0    0    0    0 -0.00000000000E+00 -0.00000000000E+00 -0.45593999997E+02  0.45594000000E+02  0.51100000000E-03 0. -1.
         23    2    1    2    0    0  0.17763568394E-14  0.71054273576E-14  0.00000000000E+00  0.91188000000E+02  0.91188000000E+02 0.  0.
    9900012    2    3    3    0    0  0.72411650895E+01  0.27137598443E+02  0.23809610496E+02  0.54367064745E+02  0.39999955698E+02 0.  0.
         12    1    3    3    0    0 -0.72411650895E+01 -0.27137598443E+02 -0.23809610496E+02  0.36820935255E+02  0.00000000000E+00 0. -1.
         11    1    4    4    0    0 -0.26945452626E+01  0.49083198253E+01 -0.69191412046E+01  0.89009377567E+01  0.51100000000E-03 0. -1.
        -11    1    4    4    0    0  0.11711734863E+02  0.20542492849E+02  0.11887665901E+02  0.26466494796E+02  0.51100000000E-03 0.  1.
         12    1    4    4    0    0 -0.17760245113E+01  0.16867857686E+01  0.18841085800E+02  0.18999632192E+02  0.00000000000E+00 0. -1.
</event>
<event>
 8    1  0.1210161E-006  0.9118800E+02  0.7816164E-02  0.1184000E+00
        -11   -1    0    0    0    0  0.00000000000E+00  0.00000000000E+00  0.45593999997E+02  0.45594000000E+02  0.51100000000E-03 0. -1.
         11   -1    0    0    0    0 -0.00000000000E+00 -0.00000000000E+00 -0.45593999997E+02  0.45594000000E+02  0.51100000000E-03 0.  1.
         23    2    1    2    0    0 -0.17763568394E-14  0.00000000000E+00  0.00000000000E+00  0.91188000000E+02  0.91188000000E+02 0.  0.
    9900012    2    3    3    0    0  0.10907339396E+02 -0.10577687939E+02 -0.33540005738E+02  0.54366952761E+02  0.39999700409E+02 0.  0.
         12    1    3    3    0    0 -0.10907339396E+02  0.10577687939E+02  0.33540005738E+02  0.36821047239E+02  0.00000000000E+00 0. -1.
         11    1    4    4    0    0 -0.66606026062E+01  0.26951454812E+01 -0.16475294139E+02  0.17973946519E+02  0.51100000000E-03 0. -1.
        -11    1    4    4    0    0 -0.93156861333E-02 -0.54770459868E+01 -0.16248986445E+02  0.17147235354E+02  0.51100000000E-03 0.  1.
         12    1    4    4    0    0  0.17577257689E+02 -0.77957874339E+01 -0.81572515377E+00  0.19245770889E+02  0.00000000000E+00 0. -1.
</event>
<event>
 8    1  0.1210161E-006  0.9118800E+02  0.7816164E-02  0.1184000E+00
        -11   -1    0    0    0    0  0.00000000000E+00  0.00000000000E+00  0.45593999997E+02  0.45594000000E+02  0.51100000000E-03 0.  1.
         11   -1    0    0    0    0 -0.00000000000E+00 -0.00000000000E+00 -0.45593999997E+02  0.45594000000E+02  0.51100000000E-03 0. -1.
         23    2    1    2    0    0  0.00000000000E+00 -0.72164496601E-15  0.00000000000E+00  0.91188000000E+02  0.91188000000E+02 0.  0.
    9900012    2    3    3    0    0 -0.18048324877E+02  0.15974169035E+00 -0.32093777683E+02  0.54367107640E+02  0.40000053486E+02 0.  0.
        -12    1    3    3    0    0  0.18048324877E+02 -0.15974169035E+00  0.32093777683E+02  0.36820892360E+02  0.00000000000E+00 0.  1.
         11    1    4    4    0    0  0.72439380664E+01 -0.13615809107E+01 -0.66255596940E+01  0.99109324892E+01  0.51100000000E-03 0.  1.
        -11    1    4    4    0    0 -0.13831818890E+02 -0.88348887039E+01 -0.22454836587E+01  0.16565526534E+02  0.51100000000E-03 0. -1.
        -12    1    4    4    0    0 -0.11460444053E+02  0.10356211305E+02 -0.23222734330E+02  0.27890648617E+02  0.00000000000E+00 0.  1.
</event>
<event>
 8    1  0.1210161E-006  0.9118800E+02  0.7816164E-02  0.1184000E+00
        -11   -1    0    0    0    0  0.00000000000E+00  0.00000000000E+00  0.45593999997E+02  0.45594000000E+02  0.51100000000E-03 0.  1.
         11   -1    0    0    0    0 -0.00000000000E+00 -0.00000000000E+00 -0.45593999997E+02  0.45594000000E+02  0.51100000000E-03 0. -1.
         23    2    1    2    0    0  0.00000000000E+00 -0.17763568394E-14  0.00000000000E+00  0.91188000000E+02  0.91188000000E+02 0.  0.
    9900012    2    3    3    0    0 -0.53144872885E+01  0.12807692322E+02  0.34110091978E+02  0.54367093812E+02  0.40000021963E+02 0.  0.
         12    1    3    3    0    0  0.53144872885E+01 -0.12807692322E+02 -0.34110091978E+02  0.36820906188E+02  0.00000000000E+00 0. -1.
         11    1    4    4    0    0  0.51122850021E+01 -0.43094636853E+01 -0.15396183551E+01  0.68612943485E+01  0.51100000000E-03 0. -1.
        -11    1    4    4    0    0  0.23997911249E+01  0.11388628003E+02  0.30854208109E+01  0.12040750270E+02  0.51100000000E-03 0.  1.
         12    1    4    4    0    0 -0.12826563415E+02  0.57285280046E+01  0.32564289523E+02  0.35465049193E+02  0.00000000000E+00 0. -1.
</event>
<event>
 8    1  0.1210161E-006  0.9118800E+02  0.7816164E-02  0.1184000E+00
        -11   -1    0    0    0    0  0.00000000000E+00  0.00000000000E+00  0.45593999997E+02  0.45594000000E+02  0.51100000000E-03 0.  1.
         11   -1    0    0    0    0 -0.00000000000E+00 -0.00000000000E+00 -0.45593999997E+02  0.45594000000E+02  0.51100000000E-03 0. -1.
         23    2    1    2    0    0 -0.35527136788E-14  0.00000000000E+00  0.17763568394E-14  0.91188000000E+02  0.91188000000E+02 0.  0.
    9900012    2    3    3    0    0  0.17284450674E+02  0.30576015008E+02  0.11051051586E+02  0.54367208726E+02  0.40000283932E+02 0.  0.
        -12    1    3    3    0    0 -0.17284450674E+02 -0.30576015008E+02 -0.11051051586E+02  0.36820791274E+02  0.00000000000E+00 0.  1.
         11    1    4    4    0    0  0.17997281153E+02  0.11811615527E+02  0.53195336804E+01  0.22174621284E+02  0.51100000000E-03 0. -1.
        -11    1    4    4    0    0  0.11342261415E+02  0.28323214540E+01  0.17496532367E+01  0.11820754017E+02  0.51100000000E-03 0.  1.
        -12    1    4    4    0    0 -0.12055091894E+02  0.15932078027E+02  0.39818646692E+01  0.20371833425E+02  0.00000000000E+00 0.  1.
</event>
<event>
 8    1  0.1210161E-006  0.9118800E+02  0.7816164E-02  0.1184000E+00
        -11   -1    0    0    0    0  0.00000000000E+00  0.00000000000E+00  0.45593999997E+02  0.45594000000E+02  0.51100000000E-03 0. -1.
         11   -1    0    0    0    0 -0.00000000000E+00 -0.00000000000E+00 -0.45593999997E+02  0.45594000000E+02  0.51100000000E-03 0.  1.
         23    2    1    2    0    0  0.00000000000E+00  0.00000000000E+00  0.00000000000E+00  0.91188000000E+02  0.91188000000E+02 0.  0.
    9900012    2    3    3    0    0 -0.33968391037E+02  0.13516974963E+02  0.43841053026E+01  0.54367074141E+02  0.39999977120E+02 0.  0.
         12    1    3    3    0    0  0.33968391037E+02 -0.13516974963E+02 -0.43841053026E+01  0.36820925859E+02  0.00000000000E+00 0. -1.
         11    1    4    4    0    0 -0.96601422049E+01  0.27913214097E+00  0.27363564930E+01  0.10044098232E+02  0.51100000000E-03 0.  1.
        -11    1    4    4    0    0 -0.21890634548E+02 -0.35443078083E+01  0.11219541086E+02  0.24852366109E+02  0.51100000000E-03 0. -1.
        -12    1    4    4    0    0 -0.24176142835E+01  0.16782150631E+02 -0.95717922765E+01  0.19470609800E+02  0.00000000000E+00 0.  1.
</event>
<event>
 8    1  0.1210161E-006  0.9118800E+02  0.7816164E-02  0.1184000E+00
        -11   -1    0    0    0    0  0.00000000000E+00  0.00000000000E+00  0.45593999997E+02  0.45594000000E+02  0.51100000000E-03 0. -1.
         11   -1    0    0    0    0 -0.00000000000E+00 -0.00000000000E+00 -0.45593999997E+02  0.45594000000E+02  0.51100000000E-03 0.  1.
         23    2    1    2    0    0  0.35527136788E-14  0.00000000000E+00  0.35527136788E-14  0.91188000000E+02  0.91188000000E+02 0.  0.
    9900012    2    3    3    0    0 -0.18389582999E+02 -0.17429142479E+02 -0.26717558615E+02  0.54367085987E+02  0.40000004123E+02 0.  0.
         12    1    3    3    0    0  0.18389582999E+02  0.17429142479E+02  0.26717558615E+02  0.36820914013E+02  0.00000000000E+00 0. -1.
         11    1    4    4    0    0  0.13661013120E+01  0.67953624673E+01 -0.17333086640E+02  0.18667594291E+02  0.51100000000E-03 0. -1.
        -11    1    4    4    0    0 -0.14701053410E+02 -0.67965190710E+01 -0.30591540265E+01  0.16482477558E+02  0.51100000000E-03 0.  1.
         12    1    4    4    0    0 -0.50546309010E+01 -0.17427985875E+02 -0.63253179485E+01  0.19217014138E+02  0.00000000000E+00 0. -1.
</event>
<event>
 8    1  0.1210161E-006  0.9118800E+02  0.7816164E-02  0.1184000E+00
        -11   -1    0    0    0    0  0.00000000000E+00  0.00000000000E+00  0.45593999997E+02  0.45594000000E+02  0.51100000000E-03 0. -1.
         11   -1    0    0    0    0 -0.00000000000E+00 -0.00000000000E+00 -0.45593999997E+02  0.45594000000E+02  0.51100000000E-03 0.  1.
         23    2    1    2    0    0  0.00000000000E+00  0.00000000000E+00  0.00000000000E+00  0.91188000000E+02  0.91188000000E+02 0.  0.
    9900012    2    3    3    0    0 -0.21637082726E+02  0.10619732970E+02 -0.27835909274E+02  0.54367083087E+02  0.39999997512E+02 0.  0.
         12    1    3    3    0    0  0.21637082726E+02 -0.10619732970E+02  0.27835909274E+02  0.36820916913E+02  0.00000000000E+00 0. -1.
         11    1    4    4    0    0  0.85650982111E+01  0.45828591934E+01  0.88665799954E+00  0.97544691512E+01  0.51100000000E-03 0. -1.
        -11    1    4    4    0    0 -0.56665317953E+01  0.29844786954E+01  0.39162665769E+00  0.64163905251E+01  0.51100000000E-03 0.  1.
        -12    1    4    4    0    0 -0.24535649142E+02  0.30523950813E+01 -0.29114193931E+02  0.38196223410E+02  0.00000000000E+00 0.  1.
</event>
<event>
 8    1  0.1210161E-006  0.9118800E+02  0.7816164E-02  0.1184000E+00
        -11   -1    0    0    0    0  0.00000000000E+00  0.00000000000E+00  0.45593999997E+02  0.45594000000E+02  0.51100000000E-03 0. -1.
         11   -1    0    0    0    0 -0.00000000000E+00 -0.00000000000E+00 -0.45593999997E+02  0.45594000000E+02  0.51100000000E-03 0.  1.
         23    2    1    2    0    0  0.00000000000E+00  0.00000000000E+00  0.00000000000E+00  0.91188000000E+02  0.91188000000E+02 0.  0.
    9900012    2    3    3    0    0  0.22874226538E+02  0.19618841330E+02  0.21157777823E+02  0.54367072021E+02  0.39999972286E+02 0.  0.
        -12    1    3    3    0    0 -0.22874226538E+02 -0.19618841330E+02 -0.21157777823E+02  0.36820927979E+02  0.00000000000E+00 0.  1.
         11    1    4    4    0    0  0.16730964683E+02  0.24682283931E+02  0.28950837501E+02  0.41560694311E+02  0.51100000000E-03 0. -1.
        -11    1    4    4    0    0  0.73722332674E+01 -0.39308065839E+01 -0.72120436728E+01  0.11036966882E+02  0.51100000000E-03 0.  1.
         12    1    4    4    0    0 -0.12289714124E+01 -0.11326360175E+01 -0.58101600533E+00  0.17694108283E+01  0.00000000000E+00 0. -1.
</event>
<event>
 8    1  0.1210161E-006  0.9118800E+02  0.7816164E-02  0.1184000E+00
        -11   -1    0    0    0    0  0.00000000000E+00  0.00000000000E+00  0.45593999997E+02  0.45594000000E+02  0.51100000000E-03 0.  1.
         11   -1    0    0    0    0 -0.00000000000E+00 -0.00000000000E+00 -0.45593999997E+02  0.45594000000E+02  0.51100000000E-03 0. -1.
         23    2    1    2    0    0  0.13322676296E-14  0.00000000000E+00  0.00000000000E+00  0.91188000000E+02  0.91188000000E+02 0.  0.
    9900012    2    3    3    0    0  0.24654299501E+01 -0.16055491986E+02  0.33044247052E+02  0.54367089759E+02  0.40000012724E+02 0.  0.
         12    1    3    3    0    0 -0.24654299501E+01  0.16055491986E+02 -0.33044247052E+02  0.36820910241E+02  0.00000000000E+00 0. -1.
         11    1    4    4    0    0 -0.94795792532E+01 -0.98806227313E+01  0.60442295332E+01  0.14967359129E+02  0.51100000000E-03 0. -1.
        -11    1    4    4    0    0  0.17112141059E+02  0.35412315195E+01  0.14178865384E+02  0.22503464536E+02  0.51100000000E-03 0.  1.
        -12    1    4    4    0    0 -0.51671318557E+01 -0.97161007743E+01  0.12821152135E+02  0.16896266094E+02  0.00000000000E+00 0.  1.
</event>
<event>
 8    1  0.1210161E-006  0.9118800E+02  0.7816164E-02  0.1184000E+00
        -11   -1    0    0    0    0  0.00000000000E+00  0.00000000000E+00  0.45593999997E+02  0.45594000000E+02  0.51100000000E-03 0. -1.
         11   -1    0    0    0    0 -0.00000000000E+00 -0.00000000000E+00 -0.45593999997E+02  0.45594000000E+02  0.51100000000E-03 0.  1.
         23    2    1    2    0    0  0.35527136788E-14  0.17763568394E-14  0.00000000000E+00  0.91188000000E+02  0.91188000000E+02 0.  0.
    9900012    2    3    3    0    0  0.19312568044E+02  0.95525940242E+01 -0.29858865649E+02  0.54367092965E+02  0.40000020032E+02 0.  0.
        -12    1    3    3    0    0 -0.19312568044E+02 -0.95525940242E+01  0.29858865649E+02  0.36820907035E+02  0.00000000000E+00 0.  1.
         11    1    4    4    0    0 -0.92687022545E+01 -0.96031908852E+00 -0.12780445776E+02  0.15816790089E+02  0.51100000000E-03 0. -1.
        -11    1    4    4    0    0  0.72228854380E+01 -0.43921315501E+01 -0.51973991616E+01  0.99233992115E+01  0.51100000000E-03 0.  1.
         12    1    4    4    0    0  0.21358384861E+02  0.14905044663E+02 -0.11881020712E+02  0.28626903664E+02  0.00000000000E+00 0. -1.
</event>
<event>
 8    1  0.1210161E-006  0.9118800E+02  0.7816164E-02  0.1184000E+00
        -11   -1    0    0    0    0  0.00000000000E+00  0.00000000000E+00  0.45593999997E+02  0.45594000000E+02  0.51100000000E-03 0.  1.
         11   -1    0    0    0    0 -0.00000000000E+00 -0.00000000000E+00 -0.45593999997E+02  0.45594000000E+02  0.51100000000E-03 0. -1.
         23    2    1    2    0    0  0.00000000000E+00  0.00000000000E+00 -0.35527136788E-14  0.91188000000E+02  0.91188000000E+02 0.  0.
    9900012    2    3    3    0    0 -0.60121929769E+01  0.19124219200E+02 -0.30885418921E+02  0.54366928230E+02  0.39999644483E+02 0.  0.
        -12    1    3    3    0    0  0.60121929769E+01 -0.19124219200E+02  0.30885418921E+02  0.36821071770E+02  0.00000000000E+00 0.  1.
         11    1    4    4    0    0 -0.51699831330E+01  0.21715926646E+02 -0.24225912790E+02  0.32942450523E+02  0.51100000000E-03 0. -1.
        -11    1    4    4    0    0 -0.96078894823E+01  0.25211173616E+01 -0.50723044867E+01  0.11153288579E+02  0.51100000000E-03 0.  1.
        -12    1    4    4    0    0  0.87656796384E+01 -0.51128248077E+01 -0.15872016441E+01  0.10271189128E+02  0.00000000000E+00 0.  1.
</event>
<event>
 8    1  0.1210161E-006  0.9118800E+02  0.7816164E-02  0.1184000E+00
        -11   -1    0    0    0    0  0.00000000000E+00  0.00000000000E+00  0.45593999997E+02  0.45594000000E+02  0.51100000000E-03 0.  1.
         11   -1    0    0    0    0 -0.00000000000E+00 -0.00000000000E+00 -0.45593999997E+02  0.45594000000E+02  0.51100000000E-03 0. -1.
         23    2    1    2    0    0 -0.17763568394E-14  0.13322676296E-14  0.00000000000E+00  0.91188000000E+02  0.91188000000E+02 0.  0.
    9900012    2    3    3    0    0 -0.70284713883E+01 -0.26446343897E+01 -0.36047006178E+02  0.54367079921E+02  0.39999990296E+02 0.  0.
        -12    1    3    3    0    0  0.70284713883E+01  0.26446343897E+01  0.36047006178E+02  0.36820920079E+02  0.00000000000E+00 0.  1.
         11    1    4    4    0    0 -0.36185134033E+01  0.55734115320E+01 -0.38647204044E+00  0.66562689440E+01  0.51100000000E-03 0. -1.
        -11    1    4    4    0    0  0.10091611024E+02  0.61827898987E+01 -0.11384080833E+02  0.16421473766E+02  0.51100000000E-03 0.  1.
         12    1    4    4    0    0 -0.13501569009E+02 -0.14400835820E+02 -0.24276453304E+02  0.31289337211E+02  0.00000000000E+00 0. -1.
</event>
<event>
 8    1  0.1210161E-006  0.9118800E+02  0.7816164E-02  0.1184000E+00
        -11   -1    0    0    0    0  0.00000000000E+00  0.00000000000E+00  0.45593999997E+02  0.45594000000E+02  0.51100000000E-03 0. -1.
         11   -1    0    0    0    0 -0.00000000000E+00 -0.00000000000E+00 -0.45593999997E+02  0.45594000000E+02  0.51100000000E-03 0.  1.
         23    2    1    2    0    0  0.00000000000E+00  0.17763568394E-14  0.00000000000E+00  0.91188000000E+02  0.91188000000E+02 0.  0.
    9900012    2    3    3    0    0 -0.32544866391E+02  0.22409668468E+01  0.17075992338E+02  0.54367085085E+02  0.40000002069E+02 0.  0.
        -12    1    3    3    0    0  0.32544866391E+02 -0.22409668468E+01 -0.17075992338E+02  0.36820914915E+02  0.00000000000E+00 0.  1.
         11    1    4    4    0    0 -0.28056813925E+01 -0.13301246640E+02  0.77628964675E+01  0.15654314807E+02  0.51100000000E-03 0. -1.
        -11    1    4    4    0    0 -0.25578423262E+02  0.17472283610E+02  0.12201057210E+02  0.33292675297E+02  0.51100000000E-03 0.  1.
        -12    1    4    4    0    0 -0.41607617367E+01 -0.19300701229E+01 -0.28879613393E+01  0.54200949813E+01  0.00000000000E+00 0.  1.
</event>
<event>
 8    1  0.1210161E-006  0.9118800E+02  0.7816164E-02  0.1184000E+00
        -11   -1    0    0    0    0  0.00000000000E+00  0.00000000000E+00  0.45593999997E+02  0.45594000000E+02  0.51100000000E-03 0. -1.
         11   -1    0    0    0    0 -0.00000000000E+00 -0.00000000000E+00 -0.45593999997E+02  0.45594000000E+02  0.51100000000E-03 0.  1.
         23    2    1    2    0    0  0.00000000000E+00  0.00000000000E+00  0.00000000000E+00  0.91188000000E+02  0.91188000000E+02 0.  0.
    9900012    2    3    3    0    0 -0.12350687702E+02 -0.15236924812E+02  0.31162107209E+02  0.54367078092E+02  0.39999986126E+02 0.  0.
        -12    1    3    3    0    0  0.12350687702E+02  0.15236924812E+02 -0.31162107209E+02  0.36820921908E+02  0.00000000000E+00 0.  1.
         11    1    4    4    0    0  0.32840482710E+01 -0.10082860607E+02  0.17876768594E+02  0.20785281011E+02  0.51100000000E-03 0. -1.
        -11    1    4    4    0    0  0.37235223667E+01 -0.66166887616E+01 -0.30774063675E+01  0.81924122940E+01  0.51100000000E-03 0.  1.
         12    1    4    4    0    0 -0.19358258339E+02  0.14626245561E+01  0.16362744983E+02  0.25389384788E+02  0.00000000000E+00 0. -1.
</event>
<event>
 8    1  0.1210161E-006  0.9118800E+02  0.7816164E-02  0.1184000E+00
        -11   -1    0    0    0    0  0.00000000000E+00  0.00000000000E+00  0.45593999997E+02  0.45594000000E+02  0.51100000000E-03 0.  1.
         11   -1    0    0    0    0 -0.00000000000E+00 -0.00000000000E+00 -0.45593999997E+02  0.45594000000E+02  0.51100000000E-03 0. -1.
         23    2    1    2    0    0  0.00000000000E+00 -0.17763568394E-14  0.00000000000E+00  0.91188000000E+02  0.91188000000E+02 0.  0.
    9900012    2    3    3    0    0  0.19114042344E+01  0.62439065709E+01 -0.36237274084E+02  0.54367083818E+02  0.39999999180E+02 0.  0.
        -12    1    3    3    0    0 -0.19114042344E+01 -0.62439065709E+01  0.36237274084E+02  0.36820916182E+02  0.00000000000E+00 0.  1.
         11    1    4    4    0    0 -0.70769260460E+01 -0.30140177963E-01 -0.17364500539E+02  0.18751257822E+02  0.51100000000E-03 0. -1.
        -11    1    4    4    0    0  0.34791345014E+01  0.14854227373E+02 -0.13160452920E+01  0.15312884222E+02  0.51100000000E-03 0.  1.
        -12    1    4    4    0    0  0.55091957789E+01 -0.85801806245E+01 -0.17556728254E+02  0.20302941773E+02  0.00000000000E+00 0.  1.
</event>
<event>
 8    1  0.1210161E-006  0.9118800E+02  0.7816164E-02  0.1184000E+00
        -11   -1    0    0    0    0  0.00000000000E+00  0.00000000000E+00  0.45593999997E+02  0.45594000000E+02  0.51100000000E-03 0. -1.
         11   -1    0    0    0    0 -0.00000000000E+00 -0.00000000000E+00 -0.45593999997E+02  0.45594000000E+02  0.51100000000E-03 0.  1.
         23    2    1    2    0    0 -0.35527136788E-14  0.00000000000E+00  0.17763568394E-14  0.91188000000E+02  0.91188000000E+02 0.  0.
    9900012    2    3    3    0    0  0.28012635603E+02  0.22878160900E+02 -0.69037236668E+01  0.54367090179E+02  0.40000013680E+02 0.  0.
         12    1    3    3    0    0 -0.28012635603E+02 -0.22878160900E+02  0.69037236668E+01  0.36820909821E+02  0.00000000000E+00 0. -1.
         11    1    4    4    0    0 -0.29193905832E+01  0.31975980894E+01  0.61834465400E+01  0.75486744726E+01  0.51100000000E-03 0. -1.
        -11    1    4    4    0    0  0.24709398019E+02  0.62360950927E+01 -0.18011579297E+02  0.31206733592E+02  0.51100000000E-03 0.  1.
        -12    1    4    4    0    0  0.62226281673E+01  0.13444467718E+02  0.49244090901E+01  0.15611682114E+02  0.00000000000E+00 0.  1.
</event>
<event>
 8    1  0.1210161E-006  0.9118800E+02  0.7816164E-02  0.1184000E+00
        -11   -1    0    0    0    0  0.00000000000E+00  0.00000000000E+00  0.45593999997E+02  0.45594000000E+02  0.51100000000E-03 0. -1.
         11   -1    0    0    0    0 -0.00000000000E+00 -0.00000000000E+00 -0.45593999997E+02  0.45594000000E+02  0.51100000000E-03 0.  1.
         23    2    1    2    0    0  0.00000000000E+00 -0.17763568394E-14 -0.35527136788E-14  0.91188000000E+02  0.91188000000E+02 0.  0.
    9900012    2    3    3    0    0 -0.32268305823E+02 -0.54797373041E+01 -0.16867377385E+02  0.54367088802E+02  0.40000010541E+02 0.  0.
         12    1    3    3    0    0  0.32268305823E+02  0.54797373041E+01  0.16867377385E+02  0.36820911198E+02  0.00000000000E+00 0. -1.
         11    1    4    4    0    0 -0.50897609666E+01  0.20327034047E+01 -0.18266595498E+02  0.19071079182E+02  0.51100000000E-03 0.  1.
        -11    1    4    4    0    0 -0.63594255025E+01  0.54025242979E+01 -0.53145402852E+01  0.98931238855E+01  0.51100000000E-03 0. -1.
        -12    1    4    4    0    0 -0.20819119354E+02 -0.12914965007E+02  0.67137583978E+01  0.25402885734E+02  0.00000000000E+00 0.  1.
</event>
<event>
 8    1  0.1210161E-006  0.9118800E+02  0.7816164E-02  0.1184000E+00
        -11   -1    0    0    0    0  0.00000000000E+00  0.00000000000E+00  0.45593999997E+02  0.45594000000E+02  0.51100000000E-03 0. -1.
         11   -1    0    0    0    0 -0.00000000000E+00 -0.00000000000E+00 -0.45593999997E+02  0.45594000000E+02  0.51100000000E-03 0.  1.
         23    2    1    2    0    0 -0.71054273576E-14  0.35527136788E-14 -0.22204460493E-15  0.91188000000E+02  0.91188000000E+02 0.  0.
    9900012    2    3    3    0    0  0.21725937674E+02 -0.29689632354E+02 -0.15122455981E+01  0.54367115656E+02  0.40000071760E+02 0.  0.
         12    1    3    3    0    0 -0.21725937674E+02  0.29689632354E+02  0.15122455981E+01  0.36820884344E+02  0.00000000000E+00 0. -1.
         11    1    4    4    0    0  0.10209861493E+02 -0.35555444060E+01 -0.14759903629E+02  0.18295844422E+02  0.51100000000E-03 0. -1.
        -11    1    4    4    0    0  0.93866428168E+01 -0.25102419293E+01  0.25164621648E+01  0.10037079257E+02  0.51100000000E-03 0.  1.
        -12    1    4    4    0    0  0.21294333648E+01 -0.23623846019E+02  0.10731195866E+02  0.26034191977E+02  0.00000000000E+00 0.  1.
</event>
<event>
 8    1  0.1210161E-006  0.9118800E+02  0.7816164E-02  0.1184000E+00
        -11   -1    0    0    0    0  0.00000000000E+00  0.00000000000E+00  0.45593999997E+02  0.45594000000E+02  0.51100000000E-03 0. -1.
         11   -1    0    0    0    0 -0.00000000000E+00 -0.00000000000E+00 -0.45593999997E+02  0.45594000000E+02  0.51100000000E-03 0.  1.
         23    2    1    2    0    0 -0.17763568394E-14  0.35527136788E-14 -0.35527136788E-14  0.91188000000E+02  0.91188000000E+02 0.  0.
    9900012    2    3    3    0    0 -0.14669700044E+02 -0.19870844506E+02  0.27308032228E+02  0.54367093100E+02  0.40000020340E+02 0.  0.
        -12    1    3    3    0    0  0.14669700044E+02  0.19870844506E+02 -0.27308032228E+02  0.36820906900E+02  0.00000000000E+00 0.  1.
         11    1    4    4    0    0 -0.20064925768E+01 -0.14164320323E+02  0.27748338397E+02  0.31218972865E+02  0.51100000000E-03 0. -1.
        -11    1    4    4    0    0  0.31039616780E+01 -0.22742875383E+01  0.48276384568E+01  0.61735771831E+01  0.51100000000E-03 0.  1.
        -12    1    4    4    0    0 -0.15767169145E+02 -0.34322366444E+01 -0.52679446260E+01  0.16974543052E+02  0.00000000000E+00 0.  1.
</event>
<event>
 8    1  0.1210161E-006  0.9118800E+02  0.7816164E-02  0.1184000E+00
        -11   -1    0    0    0    0  0.00000000000E+00  0.00000000000E+00  0.45593999997E+02  0.45594000000E+02  0.51100000000E-03 0.  1.
         11   -1    0    0    0    0 -0.00000000000E+00 -0.00000000000E+00 -0.45593999997E+02  0.45594000000E+02  0.51100000000E-03 0. -1.
         23    2    1    2    0    0 -0.35527136788E-14 -0.17763568394E-14  0.00000000000E+00  0.91188000000E+02  0.91188000000E+02 0.  0.
    9900012    2    3    3    0    0 -0.30211797238E+02 -0.14472050555E+02 -0.15283555531E+02  0.54367081906E+02  0.39999994822E+02 0.  0.
        -12    1    3    3    0    0  0.30211797238E+02  0.14472050555E+02  0.15283555531E+02  0.36820918094E+02  0.00000000000E+00 0.  1.
         11    1    4    4    0    0 -0.55569056866E+01 -0.55967879253E+01 -0.15377687682E+02  0.17282260112E+02  0.51100000000E-03 0. -1.
        -11    1    4    4    0    0  0.45458639091E+01 -0.62142916622E+01 -0.86121342515E+00  0.77475149802E+01  0.51100000000E-03 0.  1.
        -12    1    4    4    0    0 -0.29200755460E+02 -0.26609709673E+01  0.95534557555E+00  0.29337306814E+02  0.00000000000E+00 0.  1.
</event>
<event>
 8    1  0.1210161E-006  0.9118800E+02  0.7816164E-02  0.1184000E+00
        -11   -1    0    0    0    0  0.00000000000E+00  0.00000000000E+00  0.45593999997E+02  0.45594000000E+02  0.51100000000E-03 0. -1.
         11   -1    0    0    0    0 -0.00000000000E+00 -0.00000000000E+00 -0.45593999997E+02  0.45594000000E+02  0.51100000000E-03 0.  1.
         23    2    1    2    0    0  0.00000000000E+00  0.88817841970E-15  0.00000000000E+00  0.91188000000E+02  0.91188000000E+02 0.  0.
    9900012    2    3    3    0    0 -0.33712467384E+02  0.50168948852E+01 -0.13931267653E+02  0.54367083257E+02  0.39999997900E+02 0.  0.
         12    1    3    3    0    0  0.33712467384E+02 -0.50168948852E+01  0.13931267653E+02  0.36820916743E+02  0.00000000000E+00 0. -1.
         11    1    4    4    0    0 -0.10146439764E+02  0.88973469239E+01  0.61301581303E+01  0.14822005975E+02  0.51100000000E-03 0. -1.
        -11    1    4    4    0    0 -0.91018103869E+00 -0.75047765422E+01 -0.13844125180E+02  0.15773709226E+02  0.51100000000E-03 0.  1.
         12    1    4    4    0    0 -0.22655846582E+02  0.36243245035E+01 -0.62173006030E+01  0.23771368056E+02  0.00000000000E+00 0. -1.
</event>
<event>
 8    1  0.1210161E-006  0.9118800E+02  0.7816164E-02  0.1184000E+00
        -11   -1    0    0    0    0  0.00000000000E+00  0.00000000000E+00  0.45593999997E+02  0.45594000000E+02  0.51100000000E-03 0.  1.
         11   -1    0    0    0    0 -0.00000000000E+00 -0.00000000000E+00 -0.45593999997E+02  0.45594000000E+02  0.51100000000E-03 0. -1.
         23    2    1    2    0    0  0.00000000000E+00  0.17763568394E-14 -0.71054273576E-14  0.91188000000E+02  0.91188000000E+02 0.  0.
    9900012    2    3    3    0    0  0.26478360513E+02 -0.12444970588E+02  0.22356286861E+02  0.54367021867E+02  0.39999857951E+02 0.  0.
         12    1    3    3    0    0 -0.26478360513E+02  0.12444970588E+02 -0.22356286861E+02  0.36820978133E+02  0.00000000000E+00 0. -1.
         11    1    4    4    0    0  0.27288343021E+01 -0.97150192863E+01 -0.72808767517E+01  0.12443444174E+02  0.51100000000E-03 0. -1.
        -11    1    4    4    0    0  0.14978166206E+01 -0.67440567551E+01  0.86851518816E+01  0.11097640272E+02  0.51100000000E-03 0.  1.
        -12    1    4    4    0    0  0.22251709591E+02  0.40141054532E+01  0.20952011731E+02  0.30825937421E+02  0.00000000000E+00 0.  1.
</event>
<event>
 8    1  0.1210161E-006  0.9118800E+02  0.7816164E-02  0.1184000E+00
        -11   -1    0    0    0    0  0.00000000000E+00  0.00000000000E+00  0.45593999997E+02  0.45594000000E+02  0.51100000000E-03 0. -1.
         11   -1    0    0    0    0 -0.00000000000E+00 -0.00000000000E+00 -0.45593999997E+02  0.45594000000E+02  0.51100000000E-03 0.  1.
         23    2    1    2    0    0 -0.35527136788E-14  0.00000000000E+00  0.00000000000E+00  0.91188000000E+02  0.91188000000E+02 0.  0.
    9900012    2    3    3    0    0  0.13784784048E+02 -0.10850369046E+02  0.32373290197E+02  0.54367072556E+02  0.39999973505E+02 0.  0.
        -12    1    3    3    0    0 -0.13784784048E+02  0.10850369046E+02 -0.32373290197E+02  0.36820927444E+02  0.00000000000E+00 0.  1.
         11    1    4    4    0    0  0.55043173054E+01 -0.22311514815E+01  0.11850750964E+02  0.13255785326E+02  0.51100000000E-03 0. -1.
        -11    1    4    4    0    0 -0.11081113766E+02  0.25482606615E+01  0.13569206896E+02  0.17703335583E+02  0.51100000000E-03 0.  1.
        -12    1    4    4    0    0  0.19361580509E+02 -0.11167478226E+02  0.69533323360E+01  0.23407951647E+02  0.00000000000E+00 0.  1.
</event>
<event>
 8    1  0.1210161E-006  0.9118800E+02  0.7816164E-02  0.1184000E+00
        -11   -1    0    0    0    0  0.00000000000E+00  0.00000000000E+00  0.45593999997E+02  0.45594000000E+02  0.51100000000E-03 0. -1.
         11   -1    0    0    0    0 -0.00000000000E+00 -0.00000000000E+00 -0.45593999997E+02  0.45594000000E+02  0.51100000000E-03 0.  1.
         23    2    1    2    0    0  0.00000000000E+00  0.00000000000E+00  0.00000000000E+00  0.91188000000E+02  0.91188000000E+02 0.  0.
    9900012    2    3    3    0    0 -0.26628548093E+02  0.12052947247E+02  0.22392554087E+02  0.54367087608E+02  0.40000007819E+02 0.  0.
        -12    1    3    3    0    0  0.26628548093E+02 -0.12052947247E+02 -0.22392554087E+02  0.36820912392E+02  0.00000000000E+00 0.  1.
         11    1    4    4    0    0 -0.71192615732E+01  0.86316505000E+01  0.35606771499E+00  0.11194465605E+02  0.51100000000E-03 0. -1.
        -11    1    4    4    0    0  0.10812950061E+01  0.12281803602E+02  0.15534478968E+02  0.19832597804E+02  0.51100000000E-03 0.  1.
         12    1    4    4    0    0 -0.20590581526E+02 -0.88605068550E+01  0.65020074038E+01  0.23340024198E+02  0.00000000000E+00 0. -1.
</event>
<event>
 8    1  0.1210161E-006  0.9118800E+02  0.7816164E-02  0.1184000E+00
        -11   -1    0    0    0    0  0.00000000000E+00  0.00000000000E+00  0.45593999997E+02  0.45594000000E+02  0.51100000000E-03 0. -1.
         11   -1    0    0    0    0 -0.00000000000E+00 -0.00000000000E+00 -0.45593999997E+02  0.45594000000E+02  0.51100000000E-03 0.  1.
         23    2    1    2    0    0  0.00000000000E+00 -0.77715611724E-15  0.00000000000E+00  0.91188000000E+02  0.91188000000E+02 0.  0.
    9900012    2    3    3    0    0 -0.33124661040E+02 -0.66703020406E+00 -0.16065237439E+02  0.54367082680E+02  0.39999996586E+02 0.  0.
        -12    1    3    3    0    0  0.33124661040E+02  0.66703020406E+00  0.16065237439E+02  0.36820917320E+02  0.00000000000E+00 0.  1.
         11    1    4    4    0    0 -0.17472134816E+00 -0.11747951899E+02  0.12697331664E+01  0.11817661526E+02  0.51100000000E-03 0.  1.
        -11    1    4    4    0    0 -0.16308278509E+02  0.27688285356E+01  0.81251294377E+00  0.16561598260E+02  0.51100000000E-03 0. -1.
        -12    1    4    4    0    0 -0.16641661183E+02  0.83120931593E+01 -0.18147483549E+02  0.25987822894E+02  0.00000000000E+00 0.  1.
</event>
<event>
 8    1  0.1210161E-006  0.9118800E+02  0.7816164E-02  0.1184000E+00
        -11   -1    0    0    0    0  0.00000000000E+00  0.00000000000E+00  0.45593999997E+02  0.45594000000E+02  0.51100000000E-03 0.  1.
         11   -1    0    0    0    0 -0.00000000000E+00 -0.00000000000E+00 -0.45593999997E+02  0.45594000000E+02  0.51100000000E-03 0. -1.
         23    2    1    2    0    0 -0.17763568394E-14  0.71054273576E-14 -0.17763568394E-14  0.91188000000E+02  0.91188000000E+02 0.  0.
    9900012    2    3    3    0    0  0.12446286007E+02 -0.33505523926E+02  0.88458378645E+01  0.54367095388E+02  0.40000025556E+02 0.  0.
        -12    1    3    3    0    0 -0.12446286007E+02  0.33505523926E+02 -0.88458378645E+01  0.36820904612E+02  0.00000000000E+00 0.  1.
         11    1    4    4    0    0  0.15994508704E+02 -0.35061551522E+02  0.96662668433E+01  0.39731265003E+02  0.51100000000E-03 0. -1.
        -11    1    4    4    0    0  0.34746260583E+01  0.50814972775E+01  0.16950212754E+01  0.63849618802E+01  0.51100000000E-03 0.  1.
         12    1    4    4    0    0 -0.70228487547E+01 -0.35254696810E+01 -0.25154502542E+01  0.82508685048E+01  0.00000000000E+00 0. -1.
</event>
<event>
 8    1  0.1210161E-006  0.9118800E+02  0.7816164E-02  0.1184000E+00
        -11   -1    0    0    0    0  0.00000000000E+00  0.00000000000E+00  0.45593999997E+02  0.45594000000E+02  0.51100000000E-03 0.  1.
         11   -1    0    0    0    0 -0.00000000000E+00 -0.00000000000E+00 -0.45593999997E+02  0.45594000000E+02  0.51100000000E-03 0. -1.
         23    2    1    2    0    0  0.00000000000E+00 -0.35527136788E-14  0.00000000000E+00  0.91188000000E+02  0.91188000000E+02 0.  0.
    9900012    2    3    3    0    0  0.17012709527E+02  0.20745129006E+02  0.25218781451E+02  0.54367087453E+02  0.40000007466E+02 0.  0.
         12    1    3    3    0    0 -0.17012709527E+02 -0.20745129006E+02 -0.25218781451E+02  0.36820912547E+02  0.00000000000E+00 0. -1.
         11    1    4    4    0    0  0.11024434959E+02  0.17015070468E+02  0.22342679563E+01  0.20397125845E+02  0.51100000000E-03 0. -1.
        -11    1    4    4    0    0  0.65226392808E+01 -0.13307408353E+01  0.26796887378E+02  0.27611390182E+02  0.51100000000E-03 0.  1.
         12    1    4    4    0    0 -0.53436471222E+00  0.50607993740E+01 -0.38123738837E+01  0.63585714260E+01  0.00000000000E+00 0. -1.
</event>
<event>
 8    1  0.1210161E-006  0.9118800E+02  0.7816164E-02  0.1184000E+00
        -11   -1    0    0    0    0  0.00000000000E+00  0.00000000000E+00  0.45593999997E+02  0.45594000000E+02  0.51100000000E-03 0.  1.
         11   -1    0    0    0    0 -0.00000000000E+00 -0.00000000000E+00 -0.45593999997E+02  0.45594000000E+02  0.51100000000E-03 0. -1.
         23    2    1    2    0    0  0.44408920985E-15  0.00000000000E+00  0.00000000000E+00  0.91188000000E+02  0.91188000000E+02 0.  0.
    9900012    2    3    3    0    0 -0.53368612377E+00  0.28831621226E+02  0.22896066769E+02  0.54367121726E+02  0.40000085598E+02 0.  0.
         12    1    3    3    0    0  0.53368612377E+00 -0.28831621226E+02 -0.22896066769E+02  0.36820878274E+02  0.00000000000E+00 0. -1.
         11    1    4    4    0    0  0.98608006630E+01  0.18248503078E+02  0.35939578306E+01  0.21051360703E+02  0.51100000000E-03 0. -1.
        -11    1    4    4    0    0 -0.35887852624E+00  0.10634809942E+02  0.20610319759E+02  0.23195112785E+02  0.51100000000E-03 0.  1.
         12    1    4    4    0    0 -0.10035608261E+02 -0.51691793618E-01 -0.13082108203E+01  0.10120648238E+02  0.00000000000E+00 0. -1.
</event>
<event>
 8    1  0.1210161E-006  0.9118800E+02  0.7816164E-02  0.1184000E+00
        -11   -1    0    0    0    0  0.00000000000E+00  0.00000000000E+00  0.45593999997E+02  0.45594000000E+02  0.51100000000E-03 0. -1.
         11   -1    0    0    0    0 -0.00000000000E+00 -0.00000000000E+00 -0.45593999997E+02  0.45594000000E+02  0.51100000000E-03 0.  1.
         23    2    1    2    0    0  0.00000000000E+00  0.35527136788E-14 -0.35527136788E-14  0.91188000000E+02  0.91188000000E+02 0.  0.
    9900012    2    3    3    0    0 -0.10188693772E+02  0.30046508238E+02 -0.18686284714E+02  0.54367090526E+02  0.40000014471E+02 0.  0.
         12    1    3    3    0    0  0.10188693772E+02 -0.30046508238E+02  0.18686284714E+02  0.36820909474E+02  0.00000000000E+00 0. -1.
         11    1    4    4    0    0 -0.82678737279E+01 -0.20733341033E+01 -0.23110348920E+01  0.88316098656E+01  0.51100000000E-03 0. -1.
        -11    1    4    4    0    0  0.24033107631E+00  0.22138467412E+02  0.42281213817E+01  0.22539887069E+02  0.51100000000E-03 0.  1.
        -12    1    4    4    0    0 -0.21611511200E+01  0.99813749295E+01 -0.20603371204E+02  0.22995593591E+02  0.00000000000E+00 0.  1.
</event>
<event>
 8    1  0.1210161E-006  0.9118800E+02  0.7816164E-02  0.1184000E+00
        -11   -1    0    0    0    0  0.00000000000E+00  0.00000000000E+00  0.45593999997E+02  0.45594000000E+02  0.51100000000E-03 0. -1.
         11   -1    0    0    0    0 -0.00000000000E+00 -0.00000000000E+00 -0.45593999997E+02  0.45594000000E+02  0.51100000000E-03 0.  1.
         23    2    1    2    0    0  0.00000000000E+00  0.00000000000E+00 -0.88817841970E-15  0.91188000000E+02  0.91188000000E+02 0.  0.
    9900012    2    3    3    0    0 -0.97405538249E+01  0.34651601491E+02 -0.77567570251E+01  0.54367093516E+02  0.40000021290E+02 0.  0.
         12    1    3    3    0    0  0.97405538249E+01 -0.34651601491E+02  0.77567570251E+01  0.36820906484E+02  0.00000000000E+00 0. -1.
         11    1    4    4    0    0 -0.17791922187E+01 -0.62477122265E+01  0.75066594982E+01  0.99272035387E+01  0.51100000000E-03 0. -1.
        -11    1    4    4    0    0 -0.33221532056E+01  0.11386481478E+02 -0.43404726009E+01  0.12630453873E+02  0.51100000000E-03 0.  1.
         12    1    4    4    0    0 -0.46392084006E+01  0.29512832239E+02 -0.10922943922E+02  0.31809436105E+02  0.00000000000E+00 0. -1.
</event>
<event>
 8    1  0.1210161E-006  0.9118800E+02  0.7816164E-02  0.1184000E+00
        -11   -1    0    0    0    0  0.00000000000E+00  0.00000000000E+00  0.45593999997E+02  0.45594000000E+02  0.51100000000E-03 0. -1.
         11   -1    0    0    0    0 -0.00000000000E+00 -0.00000000000E+00 -0.45593999997E+02  0.45594000000E+02  0.51100000000E-03 0.  1.
         23    2    1    2    0    0  0.00000000000E+00  0.00000000000E+00  0.35527136788E-14  0.91188000000E+02  0.91188000000E+02 0.  0.
    9900012    2    3    3    0    0 -0.18761737763E+02  0.17710550529E+02  0.26270071305E+02  0.54367040612E+02  0.39999900682E+02 0.  0.
        -12    1    3    3    0    0  0.18761737763E+02 -0.17710550529E+02 -0.26270071305E+02  0.36820959388E+02  0.00000000000E+00 0.  1.
         11    1    4    4    0    0  0.35348075475E+01 -0.16334465594E+01  0.79779012893E+01  0.88774952156E+01  0.51100000000E-03 0. -1.
        -11    1    4    4    0    0 -0.60664881837E+01  0.20087246259E+02  0.20205645995E+02  0.29130188319E+02  0.51100000000E-03 0.  1.
        -12    1    4    4    0    0 -0.16230057127E+02 -0.74324917108E+00 -0.19134759790E+01  0.16359357077E+02  0.00000000000E+00 0.  1.
</event>
<event>
 8    1  0.1210161E-006  0.9118800E+02  0.7816164E-02  0.1184000E+00
        -11   -1    0    0    0    0  0.00000000000E+00  0.00000000000E+00  0.45593999997E+02  0.45594000000E+02  0.51100000000E-03 0. -1.
         11   -1    0    0    0    0 -0.00000000000E+00 -0.00000000000E+00 -0.45593999997E+02  0.45594000000E+02  0.51100000000E-03 0.  1.
         23    2    1    2    0    0  0.35527136788E-14  0.00000000000E+00  0.00000000000E+00  0.91188000000E+02  0.91188000000E+02 0.  0.
    9900012    2    3    3    0    0 -0.28579133005E+02 -0.10139492213E+01 -0.23194498361E+02  0.54367086234E+02  0.40000004688E+02 0.  0.
         12    1    3    3    0    0  0.28579133005E+02  0.10139492213E+01  0.23194498361E+02  0.36820913766E+02  0.00000000000E+00 0. -1.
         11    1    4    4    0    0  0.34385023837E+01 -0.64211659761E+01 -0.54744967321E+01  0.91117937788E+01  0.51100000000E-03 0. -1.
        -11    1    4    4    0    0 -0.23128785850E+02  0.16857813889E+01 -0.24297580554E+02  0.33588018918E+02  0.51100000000E-03 0.  1.
         12    1    4    4    0    0 -0.88888495384E+01  0.37214353660E+01  0.65775789244E+01  0.11667273538E+02  0.00000000000E+00 0. -1.
</event>
<event>
 8    1  0.1210161E-006  0.9118800E+02  0.7816164E-02  0.1184000E+00
        -11   -1    0    0    0    0  0.00000000000E+00  0.00000000000E+00  0.45593999997E+02  0.45594000000E+02  0.51100000000E-03 0.  1.
         11   -1    0    0    0    0 -0.00000000000E+00 -0.00000000000E+00 -0.45593999997E+02  0.45594000000E+02  0.51100000000E-03 0. -1.
         23    2    1    2    0    0  0.00000000000E+00  0.00000000000E+00 -0.35527136788E-14  0.91188000000E+02  0.91188000000E+02 0.  0.
    9900012    2    3    3    0    0 -0.20676573590E+02  0.12648237277E+02 -0.27717906126E+02  0.54367069517E+02  0.39999966577E+02 0.  0.
         12    1    3    3    0    0  0.20676573590E+02 -0.12648237277E+02  0.27717906126E+02  0.36820930483E+02  0.00000000000E+00 0. -1.
         11    1    4    4    0    0  0.60419243263E+01 -0.22321362523E+01 -0.48556402367E+01  0.80662583757E+01  0.51100000000E-03 0. -1.
        -11    1    4    4    0    0 -0.14142670700E+02  0.18636405611E+01  0.31526237099E+01  0.14609152172E+02  0.51100000000E-03 0.  1.
         12    1    4    4    0    0 -0.12575827216E+02  0.13016732969E+02 -0.26014889599E+02  0.31691658969E+02  0.00000000000E+00 0. -1.
</event>
<event>
 8    1  0.1210161E-006  0.9118800E+02  0.7816164E-02  0.1184000E+00
        -11   -1    0    0    0    0  0.00000000000E+00  0.00000000000E+00  0.45593999997E+02  0.45594000000E+02  0.51100000000E-03 0. -1.
         11   -1    0    0    0    0 -0.00000000000E+00 -0.00000000000E+00 -0.45593999997E+02  0.45594000000E+02  0.51100000000E-03 0.  1.
         23    2    1    2    0    0 -0.71054273576E-14  0.17763568394E-14  0.35527136788E-14  0.91188000000E+02  0.91188000000E+02 0.  0.
    9900012    2    3    3    0    0 -0.33868470788E+02  0.89074678643E+01  0.11373760120E+02  0.54367099460E+02  0.40000034839E+02 0.  0.
        -12    1    3    3    0    0  0.33868470788E+02 -0.89074678643E+01 -0.11373760120E+02  0.36820900540E+02  0.00000000000E+00 0.  1.
         11    1    4    4    0    0 -0.14318941366E+02  0.61036455318E+01 -0.40429482640E+01  0.16082039719E+02  0.51100000000E-03 0. -1.
        -11    1    4    4    0    0 -0.17511263513E+02  0.16289022628E+01 -0.45615100977E+01  0.18168793219E+02  0.51100000000E-03 0.  1.
         12    1    4    4    0    0 -0.20382659102E+01  0.11749200697E+01  0.19978218482E+02  0.20116266522E+02  0.00000000000E+00 0. -1.
</event>
<event>
 8    1  0.1210161E-006  0.9118800E+02  0.7816164E-02  0.1184000E+00
        -11   -1    0    0    0    0  0.00000000000E+00  0.00000000000E+00  0.45593999997E+02  0.45594000000E+02  0.51100000000E-03 0. -1.
         11   -1    0    0    0    0 -0.00000000000E+00 -0.00000000000E+00 -0.45593999997E+02  0.45594000000E+02  0.51100000000E-03 0.  1.
         23    2    1    2    0    0  0.88817841970E-15 -0.71054273576E-14 -0.22204460493E-15  0.91188000000E+02  0.91188000000E+02 0.  0.
    9900012    2    3    3    0    0 -0.47049824266E+01  0.36518669113E+02 -0.16865545734E+00  0.54367102427E+02  0.40000041602E+02 0.  0.
         12    1    3    3    0    0  0.47049824266E+01 -0.36518669113E+02  0.16865545734E+00  0.36820897573E+02  0.00000000000E+00 0. -1.
         11    1    4    4    0    0  0.31855068691E+01  0.10493489111E+02 -0.72438206376E+01  0.13142819539E+02  0.51100000000E-03 0. -1.
        -11    1    4    4    0    0 -0.19066520909E+02  0.16245690851E+02  0.68843610968E+00  0.25058504252E+02  0.51100000000E-03 0.  1.
        -12    1    4    4    0    0  0.11176031614E+02  0.97794891508E+01  0.63867290706E+01  0.16165778636E+02  0.00000000000E+00 0.  1.
</event>
<event>
 8    1  0.1210161E-006  0.9118800E+02  0.7816164E-02  0.1184000E+00
        -11   -1    0    0    0    0  0.00000000000E+00  0.00000000000E+00  0.45593999997E+02  0.45594000000E+02  0.51100000000E-03 0. -1.
         11   -1    0    0    0    0 -0.00000000000E+00 -0.00000000000E+00 -0.45593999997E+02  0.45594000000E+02  0.51100000000E-03 0.  1.
         23    2    1    2    0    0  0.00000000000E+00  0.00000000000E+00  0.00000000000E+00  0.91188000000E+02  0.91188000000E+02 0.  0.
    9900012    2    3    3    0    0  0.27569018090E+02  0.16577521990E+02 -0.17914120071E+02  0.54367072639E+02  0.39999973695E+02 0.  0.
         12    1    3    3    0    0 -0.27569018090E+02 -0.16577521990E+02  0.17914120071E+02  0.36820927361E+02  0.00000000000E+00 0. -1.
         11    1    4    4    0    0  0.34260973175E+01  0.15687932832E+02  0.46605455863E+01  0.16720348824E+02  0.51100000000E-03 0. -1.
        -11    1    4    4    0    0  0.79477677859E+01  0.89639012105E+01 -0.10073143477E+02  0.15652052819E+02  0.51100000000E-03 0.  1.
         12    1    4    4    0    0  0.16195152987E+02 -0.80743120524E+01 -0.12501522180E+02  0.21994670996E+02  0.00000000000E+00 0. -1.
</event>
<event>
 8    1  0.1210161E-006  0.9118800E+02  0.7816164E-02  0.1184000E+00
        -11   -1    0    0    0    0  0.00000000000E+00  0.00000000000E+00  0.45593999997E+02  0.45594000000E+02  0.51100000000E-03 0.  1.
         11   -1    0    0    0    0 -0.00000000000E+00 -0.00000000000E+00 -0.45593999997E+02  0.45594000000E+02  0.51100000000E-03 0. -1.
         23    2    1    2    0    0 -0.35527136788E-14  0.00000000000E+00  0.00000000000E+00  0.91188000000E+02  0.91188000000E+02 0.  0.
    9900012    2    3    3    0    0 -0.27317367021E+02 -0.24006153505E+02  0.57659179157E+01  0.54367085339E+02  0.40000002646E+02 0.  0.
         12    1    3    3    0    0  0.27317367021E+02  0.24006153505E+02 -0.57659179157E+01  0.36820914661E+02  0.00000000000E+00 0. -1.
         11    1    4    4    0    0 -0.19439969511E+00  0.29165094949E+01 -0.61513792729E+01  0.68105275930E+01  0.51100000000E-03 0. -1.
        -11    1    4    4    0    0  0.47792689439E+01 -0.52449330638E+01  0.41223266280E+01  0.82063579968E+01  0.51100000000E-03 0.  1.
        -12    1    4    4    0    0 -0.31902236270E+02 -0.21677729936E+02  0.77949705605E+01  0.39350199749E+02  0.00000000000E+00 0.  1.
</event>
<event>
 8    1  0.1210161E-006  0.9118800E+02  0.7816164E-02  0.1184000E+00
        -11   -1    0    0    0    0  0.00000000000E+00  0.00000000000E+00  0.45593999997E+02  0.45594000000E+02  0.51100000000E-03 0.  1.
         11   -1    0    0    0    0 -0.00000000000E+00 -0.00000000000E+00 -0.45593999997E+02  0.45594000000E+02  0.51100000000E-03 0. -1.
         23    2    1    2    0    0 -0.71054273576E-14  0.17763568394E-14 -0.17763568394E-14  0.91188000000E+02  0.91188000000E+02 0.  0.
    9900012    2    3    3    0    0  0.32424272385E+02 -0.12501390978E+02  0.12172369111E+02  0.54367017043E+02  0.39999846954E+02 0.  0.
         12    1    3    3    0    0 -0.32424272385E+02  0.12501390978E+02 -0.12172369111E+02  0.36820982957E+02  0.00000000000E+00 0. -1.
         11    1    4    4    0    0  0.32536323475E+01  0.10847387512E+02  0.30049774611E+01  0.11716732867E+02  0.51100000000E-03 0. -1.
        -11    1    4    4    0    0  0.17442413208E+02 -0.29184928433E+01  0.98473520145E+00  0.17712286207E+02  0.51100000000E-03 0.  1.
         12    1    4    4    0    0  0.11728226830E+02 -0.20430285646E+02  0.81826564488E+01  0.24937997969E+02  0.00000000000E+00 0. -1.
</event>
<event>
 8    1  0.1210161E-006  0.9118800E+02  0.7816164E-02  0.1184000E+00
        -11   -1    0    0    0    0  0.00000000000E+00  0.00000000000E+00  0.45593999997E+02  0.45594000000E+02  0.51100000000E-03 0.  1.
         11   -1    0    0    0    0 -0.00000000000E+00 -0.00000000000E+00 -0.45593999997E+02  0.45594000000E+02  0.51100000000E-03 0. -1.
         23    2    1    2    0    0  0.00000000000E+00  0.00000000000E+00 -0.35527136788E-14  0.91188000000E+02  0.91188000000E+02 0.  0.
    9900012    2    3    3    0    0  0.21109952553E+02 -0.20412284708E+02  0.22214601907E+02  0.54367082009E+02  0.39999995057E+02 0.  0.
         12    1    3    3    0    0 -0.21109952553E+02  0.20412284708E+02 -0.22214601907E+02  0.36820917991E+02  0.00000000000E+00 0. -1.
         11    1    4    4    0    0 -0.12931354920E+01  0.28145672258E+01  0.80012150105E+01  0.85798269199E+01  0.51100000000E-03 0. -1.
        -11    1    4    4    0    0 -0.65752769701E+01 -0.66780444448E+01 -0.34714205983E+00  0.93782222576E+01  0.51100000000E-03 0.  1.
        -12    1    4    4    0    0  0.28978365015E+02 -0.16548807489E+02  0.14560528956E+02  0.36409032832E+02  0.00000000000E+00 0.  1.
</event>
<event>
 8    1  0.1210161E-006  0.9118800E+02  0.7816164E-02  0.1184000E+00
        -11   -1    0    0    0    0  0.00000000000E+00  0.00000000000E+00  0.45593999997E+02  0.45594000000E+02  0.51100000000E-03 0.  1.
         11   -1    0    0    0    0 -0.00000000000E+00 -0.00000000000E+00 -0.45593999997E+02  0.45594000000E+02  0.51100000000E-03 0. -1.
         23    2    1    2    0    0  0.00000000000E+00  0.00000000000E+00 -0.66613381478E-15  0.91188000000E+02  0.91188000000E+02 0.  0.
    9900012    2    3    3    0    0  0.36725355501E+02 -0.21265365945E+01 -0.15829971937E+01  0.54367085092E+02  0.40000002085E+02 0.  0.
        -12    1    3    3    0    0 -0.36725355501E+02  0.21265365945E+01  0.15829971937E+01  0.36820914908E+02  0.00000000000E+00 0.  1.
         11    1    4    4    0    0  0.21275273241E+02  0.90508671873E+01  0.31453818981E+01  0.23333428292E+02  0.51100000000E-03 0. -1.
        -11    1    4    4    0    0 -0.26062758505E+01  0.36922330659E+01 -0.61124073542E+01  0.76017618186E+01  0.51100000000E-03 0.  1.
         12    1    4    4    0    0  0.18056358110E+02 -0.14869636848E+02  0.13840282624E+01  0.23431894981E+02  0.00000000000E+00 0. -1.
</event>
<event>
 8    1  0.1210161E-006  0.9118800E+02  0.7816164E-02  0.1184000E+00
        -11   -1    0    0    0    0  0.00000000000E+00  0.00000000000E+00  0.45593999997E+02  0.45594000000E+02  0.51100000000E-03 0.  1.
         11   -1    0    0    0    0 -0.00000000000E+00 -0.00000000000E+00 -0.45593999997E+02  0.45594000000E+02  0.51100000000E-03 0. -1.
         23    2    1    2    0    0 -0.35527136788E-14  0.00000000000E+00  0.00000000000E+00  0.91188000000E+02  0.91188000000E+02 0.  0.
    9900012    2    3    3    0    0  0.30300972834E+02  0.19910592242E+02  0.64186582818E+01  0.54367084581E+02  0.40000000920E+02 0.  0.
        -12    1    3    3    0    0 -0.30300972834E+02 -0.19910592242E+02 -0.64186582818E+01  0.36820915419E+02  0.00000000000E+00 0.  1.
         11    1    4    4    0    0  0.22790718879E+02  0.27454583972E+02 -0.42392913088E+01  0.35932473324E+02  0.51100000000E-03 0. -1.
        -11    1    4    4    0    0  0.75201218025E+01 -0.45652657603E+01  0.16550258975E+01  0.89517034339E+01  0.51100000000E-03 0.  1.
         12    1    4    4    0    0 -0.98678470875E-02 -0.29787259695E+01  0.90029236930E+01  0.94829078240E+01  0.00000000000E+00 0. -1.
</event>
<event>
 8    1  0.1210161E-006  0.9118800E+02  0.7816164E-02  0.1184000E+00
        -11   -1    0    0    0    0  0.00000000000E+00  0.00000000000E+00  0.45593999997E+02  0.45594000000E+02  0.51100000000E-03 0.  1.
         11   -1    0    0    0    0 -0.00000000000E+00 -0.00000000000E+00 -0.45593999997E+02  0.45594000000E+02  0.51100000000E-03 0. -1.
         23    2    1    2    0    0  0.00000000000E+00  0.00000000000E+00  0.10658141036E-13  0.91188000000E+02  0.91188000000E+02 0.  0.
    9900012    2    3    3    0    0  0.98606009754E+01  0.17349784659E+02  0.30944042727E+02  0.54367078507E+02  0.39999987072E+02 0.  0.
         12    1    3    3    0    0 -0.98606009754E+01 -0.17349784659E+02 -0.30944042727E+02  0.36820921493E+02  0.00000000000E+00 0. -1.
         11    1    4    4    0    0  0.86746207593E+01  0.57936292526E+01 -0.51473814326E+01  0.11632313661E+02  0.51100000000E-03 0. -1.
        -11    1    4    4    0    0 -0.59293548961E+01 -0.74343434323E+00  0.29262421165E+01  0.66537836824E+01  0.51100000000E-03 0.  1.
         12    1    4    4    0    0  0.71153351122E+01  0.12299589749E+02  0.33165182043E+02  0.36080981164E+02  0.00000000000E+00 0. -1.
</event>
<event>
 8    1  0.1210161E-006  0.9118800E+02  0.7816164E-02  0.1184000E+00
        -11   -1    0    0    0    0  0.00000000000E+00  0.00000000000E+00  0.45593999997E+02  0.45594000000E+02  0.51100000000E-03 0. -1.
         11   -1    0    0    0    0 -0.00000000000E+00 -0.00000000000E+00 -0.45593999997E+02  0.45594000000E+02  0.51100000000E-03 0.  1.
         23    2    1    2    0    0  0.88817841970E-15  0.35527136788E-14 -0.35527136788E-14  0.91188000000E+02  0.91188000000E+02 0.  0.
    9900012    2    3    3    0    0  0.25906695852E+01  0.30300318704E+02  0.20759571880E+02  0.54367072430E+02  0.39999973219E+02 0.  0.
         12    1    3    3    0    0 -0.25906695852E+01 -0.30300318704E+02 -0.20759571880E+02  0.36820927570E+02  0.00000000000E+00 0. -1.
         11    1    4    4    0    0 -0.51600468819E+01 -0.47934910223E+01 -0.13629067820E+01  0.71736430885E+01  0.51100000000E-03 0. -1.
        -11    1    4    4    0    0  0.11157111076E+02  0.22385338832E+02  0.48450206224E+01  0.25476631396E+02  0.51100000000E-03 0.  1.
         12    1    4    4    0    0 -0.34063946092E+01  0.12708470894E+02  0.17277458040E+02  0.21716797946E+02  0.00000000000E+00 0. -1.
</event>
<event>
 8    1  0.1210161E-006  0.9118800E+02  0.7816164E-02  0.1184000E+00
        -11   -1    0    0    0    0  0.00000000000E+00  0.00000000000E+00  0.45593999997E+02  0.45594000000E+02  0.51100000000E-03 0.  1.
         11   -1    0    0    0    0 -0.00000000000E+00 -0.00000000000E+00 -0.45593999997E+02  0.45594000000E+02  0.51100000000E-03 0. -1.
         23    2    1    2    0    0 -0.17763568394E-14  0.00000000000E+00  0.00000000000E+00  0.91188000000E+02  0.91188000000E+02 0.  0.
    9900012    2    3    3    0    0  0.10862612119E+02 -0.30203525989E+02 -0.18042445694E+02  0.54367093291E+02  0.40000020776E+02 0.  0.
         12    1    3    3    0    0 -0.10862612119E+02  0.30203525989E+02  0.18042445694E+02  0.36820906709E+02  0.00000000000E+00 0. -1.
         11    1    4    4    0    0 -0.10506370946E+02 -0.19513391618E+02 -0.12753963776E+02  0.25569901743E+02  0.51100000000E-03 0. -1.
        -11    1    4    4    0    0  0.20886134814E+02 -0.13017118098E+02 -0.19342646241E+01  0.24686380272E+02  0.51100000000E-03 0.  1.
         12    1    4    4    0    0  0.48284825121E+00  0.23269837265E+01 -0.33542172938E+01  0.41108112765E+01  0.00000000000E+00 0. -1.
</event>
<event>
 8    1  0.1210161E-006  0.9118800E+02  0.7816164E-02  0.1184000E+00
        -11   -1    0    0    0    0  0.00000000000E+00  0.00000000000E+00  0.45593999997E+02  0.45594000000E+02  0.51100000000E-03 0.  1.
         11   -1    0    0    0    0 -0.00000000000E+00 -0.00000000000E+00 -0.45593999997E+02  0.45594000000E+02  0.51100000000E-03 0. -1.
         23    2    1    2    0    0  0.35527136788E-14  0.00000000000E+00  0.17763568394E-14  0.91188000000E+02  0.91188000000E+02 0.  0.
    9900012    2    3    3    0    0 -0.30354705553E+02 -0.15600053872E+02  0.13819936112E+02  0.54367347315E+02  0.40000599869E+02 0.  0.
         12    1    3    3    0    0  0.30354705553E+02  0.15600053872E+02 -0.13819936112E+02  0.36820652685E+02  0.00000000000E+00 0. -1.
         11    1    4    4    0    0 -0.19303974880E+02  0.19040278120E+01  0.53326536533E+01  0.20117305071E+02  0.51100000000E-03 0.  1.
        -11    1    4    4    0    0 -0.17719733660E+01 -0.19289858480E+02  0.13444590516E+02  0.23579557761E+02  0.51100000000E-03 0. -1.
         12    1    4    4    0    0 -0.92787573073E+01  0.17857767962E+01 -0.49573080574E+01  0.10670484483E+02  0.00000000000E+00 0. -1.
</event>
<event>
 8    1  0.1210161E-006  0.9118800E+02  0.7816164E-02  0.1184000E+00
        -11   -1    0    0    0    0  0.00000000000E+00  0.00000000000E+00  0.45593999997E+02  0.45594000000E+02  0.51100000000E-03 0.  1.
         11   -1    0    0    0    0 -0.00000000000E+00 -0.00000000000E+00 -0.45593999997E+02  0.45594000000E+02  0.51100000000E-03 0. -1.
         23    2    1    2    0    0  0.35527136788E-14 -0.17763568394E-14  0.00000000000E+00  0.91188000000E+02  0.91188000000E+02 0.  0.
    9900012    2    3    3    0    0  0.22150248180E+02 -0.13514369336E+02 -0.26124863949E+02  0.54367079461E+02  0.39999989246E+02 0.  0.
        -12    1    3    3    0    0 -0.22150248180E+02  0.13514369336E+02  0.26124863949E+02  0.36820920539E+02  0.00000000000E+00 0.  1.
         11    1    4    4    0    0  0.24554092986E+02 -0.15526734232E+02 -0.20796363767E+02  0.35727744184E+02  0.51100000000E-03 0. -1.
        -11    1    4    4    0    0  0.45350108000E+01 -0.41630115260E+01  0.23483243460E+01  0.65887491542E+01  0.51100000000E-03 0.  1.
        -12    1    4    4    0    0 -0.69388556060E+01  0.61753764212E+01 -0.76768245285E+01  0.12050586123E+02  0.00000000000E+00 0.  1.
</event>
<event>
 8    1  0.1210161E-006  0.9118800E+02  0.7816164E-02  0.1184000E+00
        -11   -1    0    0    0    0  0.00000000000E+00  0.00000000000E+00  0.45593999997E+02  0.45594000000E+02  0.51100000000E-03 0.  1.
         11   -1    0    0    0    0 -0.00000000000E+00 -0.00000000000E+00 -0.45593999997E+02  0.45594000000E+02  0.51100000000E-03 0. -1.
         23    2    1    2    0    0  0.00000000000E+00 -0.35527136788E-14  0.35527136788E-14  0.91188000000E+02  0.91188000000E+02 0.  0.
    9900012    2    3    3    0    0  0.16939376729E+02 -0.16457073177E+02  0.28248926424E+02  0.54367087659E+02  0.40000007936E+02 0.  0.
         12    1    3    3    0    0 -0.16939376729E+02  0.16457073177E+02 -0.28248926424E+02  0.36820912341E+02  0.00000000000E+00 0. -1.
         11    1    4    4    0    0 -0.56695507644E+01  0.16948065543E+01  0.15252233018E+02  0.16359914041E+02  0.51100000000E-03 0. -1.
        -11    1    4    4    0    0 -0.17876464396E+01  0.24589699820E+01 -0.90994579074E+00  0.31733601700E+01  0.51100000000E-03 0.  1.
        -12    1    4    4    0    0  0.24396573933E+02 -0.20610849713E+02  0.13906639197E+02  0.34833813448E+02  0.00000000000E+00 0.  1.
</event>
<event>
 8    1  0.1210161E-006  0.9118800E+02  0.7816164E-02  0.1184000E+00
        -11   -1    0    0    0    0  0.00000000000E+00  0.00000000000E+00  0.45593999997E+02  0.45594000000E+02  0.51100000000E-03 0.  1.
         11   -1    0    0    0    0 -0.00000000000E+00 -0.00000000000E+00 -0.45593999997E+02  0.45594000000E+02  0.51100000000E-03 0. -1.
         23    2    1    2    0    0  0.17763568394E-14  0.00000000000E+00  0.35527136788E-14  0.91188000000E+02  0.91188000000E+02 0.  0.
    9900012    2    3    3    0    0  0.27471470206E+01  0.33138676801E+02 -0.15813375672E+02  0.54367060753E+02  0.39999946599E+02 0.  0.
        -12    1    3    3    0    0 -0.27471470206E+01 -0.33138676801E+02  0.15813375672E+02  0.36820939247E+02  0.00000000000E+00 0.  1.
         11    1    4    4    0    0 -0.78341374517E+01  0.41801998955E+01 -0.87680968771E+01  0.12479074641E+02  0.51100000000E-03 0. -1.
        -11    1    4    4    0    0 -0.83957953229E+01  0.27909653686E+01 -0.28342987252E+01  0.92904314387E+01  0.51100000000E-03 0.  1.
        -12    1    4    4    0    0  0.18977079795E+02  0.26167511537E+02 -0.42109800696E+01  0.32597554674E+02  0.00000000000E+00 0.  1.
</event>
<event>
 8    1  0.1210161E-006  0.9118800E+02  0.7816164E-02  0.1184000E+00
        -11   -1    0    0    0    0  0.00000000000E+00  0.00000000000E+00  0.45593999997E+02  0.45594000000E+02  0.51100000000E-03 0.  1.
         11   -1    0    0    0    0 -0.00000000000E+00 -0.00000000000E+00 -0.45593999997E+02  0.45594000000E+02  0.51100000000E-03 0. -1.
         23    2    1    2    0    0  0.00000000000E+00  0.00000000000E+00  0.35527136788E-14  0.91188000000E+02  0.91188000000E+02 0.  0.
    9900012    2    3    3    0    0 -0.21850069731E+02  0.24611131053E+02  0.16511976212E+02  0.54367099992E+02  0.40000036051E+02 0.  0.
         12    1    3    3    0    0  0.21850069731E+02 -0.24611131053E+02 -0.16511976212E+02  0.36820900008E+02  0.00000000000E+00 0. -1.
         11    1    4    4    0    0 -0.12356104691E+02 -0.28187291476E+01 -0.89795625095E+01  0.15532259985E+02  0.51100000000E-03 0. -1.
        -11    1    4    4    0    0 -0.29333312613E+01  0.65731154483E+01  0.42915394473E+01  0.83801903364E+01  0.51100000000E-03 0.  1.
         12    1    4    4    0    0 -0.65606337796E+01  0.20856744753E+02  0.21199999275E+02  0.30454649670E+02  0.00000000000E+00 0. -1.
</event>
<event>
 8    1  0.1210161E-006  0.9118800E+02  0.7816164E-02  0.1184000E+00
        -11   -1    0    0    0    0  0.00000000000E+00  0.00000000000E+00  0.45593999997E+02  0.45594000000E+02  0.51100000000E-03 0. -1.
         11   -1    0    0    0    0 -0.00000000000E+00 -0.00000000000E+00 -0.45593999997E+02  0.45594000000E+02  0.51100000000E-03 0.  1.
         23    2    1    2    0    0  0.00000000000E+00  0.00000000000E+00 -0.88817841970E-15  0.91188000000E+02  0.91188000000E+02 0.  0.
    9900012    2    3    3    0    0 -0.32074905824E+02  0.17078153056E+02 -0.59431576402E+01  0.54367027468E+02  0.39999870719E+02 0.  0.
        -12    1    3    3    0    0  0.32074905824E+02 -0.17078153056E+02  0.59431576402E+01  0.36820972532E+02  0.00000000000E+00 0.  1.
         11    1    4    4    0    0 -0.14740872227E+02  0.49103171629E+01  0.10988905995E+02  0.19030517173E+02  0.51100000000E-03 0. -1.
        -11    1    4    4    0    0 -0.17925116078E+02 -0.78412652426E+00 -0.11273894281E+02  0.21190217869E+02  0.51100000000E-03 0.  1.
        -12    1    4    4    0    0  0.59108248099E+00  0.12951962418E+02 -0.56581693538E+01  0.14146292426E+02  0.00000000000E+00 0.  1.
</event>
<event>
 8    1  0.1210161E-006  0.9118800E+02  0.7816164E-02  0.1184000E+00
        -11   -1    0    0    0    0  0.00000000000E+00  0.00000000000E+00  0.45593999997E+02  0.45594000000E+02  0.51100000000E-03 0.  1.
         11   -1    0    0    0    0 -0.00000000000E+00 -0.00000000000E+00 -0.45593999997E+02  0.45594000000E+02  0.51100000000E-03 0. -1.
         23    2    1    2    0    0 -0.35527136788E-14 -0.71054273576E-14  0.88817841970E-15  0.91188000000E+02  0.91188000000E+02 0.  0.
    9900012    2    3    3    0    0 -0.93698580857E+01 -0.34923736057E+02  0.69514525867E+01  0.54367023997E+02  0.39999862807E+02 0.  0.
         12    1    3    3    0    0  0.93698580857E+01  0.34923736057E+02 -0.69514525867E+01  0.36820976003E+02  0.00000000000E+00 0. -1.
         11    1    4    4    0    0 -0.61326039021E+01 -0.28370317406E+01 -0.29173382706E+01  0.73599213694E+01  0.51100000000E-03 0. -1.
        -11    1    4    4    0    0  0.98239502177E+01 -0.11241950850E+02  0.15764171380E+02  0.21711760784E+02  0.51100000000E-03 0.  1.
        -12    1    4    4    0    0 -0.13061204401E+02 -0.20844753466E+02 -0.58953805226E+01  0.25295341844E+02  0.00000000000E+00 0.  1.
</event>
<event>
 8    1  0.1210161E-006  0.9118800E+02  0.7816164E-02  0.1184000E+00
        -11   -1    0    0    0    0  0.00000000000E+00  0.00000000000E+00  0.45593999997E+02  0.45594000000E+02  0.51100000000E-03 0. -1.
         11   -1    0    0    0    0 -0.00000000000E+00 -0.00000000000E+00 -0.45593999997E+02  0.45594000000E+02  0.51100000000E-03 0.  1.
         23    2    1    2    0    0 -0.35527136788E-14 -0.35527136788E-14  0.00000000000E+00  0.91188000000E+02  0.91188000000E+02 0.  0.
    9900012    2    3    3    0    0 -0.29795252629E+02  0.20321633313E+02  0.74199076306E+01  0.54367069961E+02  0.39999967589E+02 0.  0.
        -12    1    3    3    0    0  0.29795252629E+02 -0.20321633313E+02 -0.74199076306E+01  0.36820930039E+02  0.00000000000E+00 0.  1.
         11    1    4    4    0    0 -0.15840016693E+02  0.20966963190E+02  0.83896030425E+01  0.27584508582E+02  0.51100000000E-03 0. -1.
        -11    1    4    4    0    0  0.36740797615E+01 -0.11513810196E+01  0.65595414168E+01  0.76060583883E+01  0.51100000000E-03 0.  1.
        -12    1    4    4    0    0 -0.17629315697E+02  0.50605114297E+00 -0.75292368287E+01  0.19176502990E+02  0.00000000000E+00 0.  1.
</event>
<event>
 8    1  0.1210161E-006  0.9118800E+02  0.7816164E-02  0.1184000E+00
        -11   -1    0    0    0    0  0.00000000000E+00  0.00000000000E+00  0.45593999997E+02  0.45594000000E+02  0.51100000000E-03 0. -1.
         11   -1    0    0    0    0 -0.00000000000E+00 -0.00000000000E+00 -0.45593999997E+02  0.45594000000E+02  0.51100000000E-03 0.  1.
         23    2    1    2    0    0  0.00000000000E+00  0.35527136788E-14  0.00000000000E+00  0.91188000000E+02  0.91188000000E+02 0.  0.
    9900012    2    3    3    0    0  0.15882759665E+02 -0.31188630989E+02  0.11436090974E+02  0.54367123662E+02  0.40000090012E+02 0.  0.
        -12    1    3    3    0    0 -0.15882759665E+02  0.31188630989E+02 -0.11436090974E+02  0.36820876338E+02  0.00000000000E+00 0.  1.
         11    1    4    4    0    0 -0.31285076069E+01 -0.14426992495E+02  0.74133749427E+01  0.16519194914E+02  0.51100000000E-03 0. -1.
        -11    1    4    4    0    0  0.19379299209E+01 -0.10113003583E+02 -0.10320852921E+02  0.14579040405E+02  0.51100000000E-03 0.  1.
         12    1    4    4    0    0  0.17073337351E+02 -0.66486349114E+01  0.14343568952E+02  0.23268888344E+02  0.00000000000E+00 0. -1.
</event>
<event>
 8    1  0.1210161E-006  0.9118800E+02  0.7816164E-02  0.1184000E+00
        -11   -1    0    0    0    0  0.00000000000E+00  0.00000000000E+00  0.45593999997E+02  0.45594000000E+02  0.51100000000E-03 0.  1.
         11   -1    0    0    0    0 -0.00000000000E+00 -0.00000000000E+00 -0.45593999997E+02  0.45594000000E+02  0.51100000000E-03 0. -1.
         23    2    1    2    0    0  0.35527136788E-14  0.00000000000E+00  0.35527136788E-14  0.91188000000E+02  0.91188000000E+02 0.  0.
    9900012    2    3    3    0    0 -0.14854315496E+02  0.21645569255E+02 -0.25818499744E+02  0.54367132462E+02  0.40000110074E+02 0.  0.
        -12    1    3    3    0    0  0.14854315496E+02 -0.21645569255E+02  0.25818499744E+02  0.36820867538E+02  0.00000000000E+00 0.  1.
         11    1    4    4    0    0  0.18303272633E+01  0.37233916398E+01 -0.42907996074E+01  0.59686434578E+01  0.51100000000E-03 0. -1.
        -11    1    4    4    0    0  0.98462610117E+01  0.29374160424E+01  0.12567269777E+01  0.10351648752E+02  0.51100000000E-03 0.  1.
         12    1    4    4    0    0 -0.26530903771E+02  0.14984761573E+02 -0.22784427114E+02  0.38046840253E+02  0.00000000000E+00 0. -1.
</event>
<event>
 8    1  0.1210161E-006  0.9118800E+02  0.7816164E-02  0.1184000E+00
        -11   -1    0    0    0    0  0.00000000000E+00  0.00000000000E+00  0.45593999997E+02  0.45594000000E+02  0.51100000000E-03 0. -1.
         11   -1    0    0    0    0 -0.00000000000E+00 -0.00000000000E+00 -0.45593999997E+02  0.45594000000E+02  0.51100000000E-03 0.  1.
         23    2    1    2    0    0  0.17763568394E-14  0.35527136788E-14  0.71054273576E-14  0.91188000000E+02  0.91188000000E+02 0.  0.
    9900012    2    3    3    0    0 -0.15542061772E+02 -0.17984450286E+02 -0.28120882316E+02  0.54367079881E+02  0.39999990204E+02 0.  0.
         12    1    3    3    0    0  0.15542061772E+02  0.17984450286E+02  0.28120882316E+02  0.36820920119E+02  0.00000000000E+00 0. -1.
         11    1    4    4    0    0  0.29970633901E+01  0.48560442995E+01 -0.45057292926E+01  0.72708425868E+01  0.51100000000E-03 0. -1.
        -11    1    4    4    0    0  0.18144575885E+01  0.41083437132E+00 -0.14863550944E+02  0.14979525632E+02  0.51100000000E-03 0.  1.
         12    1    4    4    0    0 -0.20353582751E+02 -0.23251328956E+02 -0.87516020795E+01  0.32116711662E+02  0.00000000000E+00 0. -1.
</event>
<event>
 8    1  0.1210161E-006  0.9118800E+02  0.7816164E-02  0.1184000E+00
        -11   -1    0    0    0    0  0.00000000000E+00  0.00000000000E+00  0.45593999997E+02  0.45594000000E+02  0.51100000000E-03 0. -1.
         11   -1    0    0    0    0 -0.00000000000E+00 -0.00000000000E+00 -0.45593999997E+02  0.45594000000E+02  0.51100000000E-03 0.  1.
         23    2    1    2    0    0  0.00000000000E+00  0.88817841970E-15 -0.88817841970E-15  0.91188000000E+02  0.91188000000E+02 0.  0.
    9900012    2    3    3    0    0 -0.35652351324E+02 -0.64167259898E+01  0.65971070417E+01  0.54366995822E+02  0.39999798575E+02 0.  0.
        -12    1    3    3    0    0  0.35652351324E+02  0.64167259898E+01 -0.65971070417E+01  0.36821004178E+02  0.00000000000E+00 0.  1.
         11    1    4    4    0    0 -0.11920342262E+02 -0.91918494134E+01  0.87356235937E+01  0.17403901146E+02  0.51100000000E-03 0. -1.
        -11    1    4    4    0    0 -0.21489239470E+02  0.11715464514E+02  0.53901775646E+01  0.25061794353E+02  0.51100000000E-03 0.  1.
         12    1    4    4    0    0 -0.22427695926E+01 -0.89403410907E+01 -0.75286941166E+01  0.11901300322E+02  0.00000000000E+00 0. -1.
</event>
<event>
 8    1  0.1210161E-006  0.9118800E+02  0.7816164E-02  0.1184000E+00
        -11   -1    0    0    0    0  0.00000000000E+00  0.00000000000E+00  0.45593999997E+02  0.45594000000E+02  0.51100000000E-03 0.  1.
         11   -1    0    0    0    0 -0.00000000000E+00 -0.00000000000E+00 -0.45593999997E+02  0.45594000000E+02  0.51100000000E-03 0. -1.
         23    2    1    2    0    0  0.94368957093E-15  0.35527136788E-14  0.35527136788E-14  0.91188000000E+02  0.91188000000E+02 0.  0.
    9900012    2    3    3    0    0 -0.23685562000E+00  0.30744951269E+02 -0.20260110347E+02  0.54367079311E+02  0.39999988905E+02 0.  0.
        -12    1    3    3    0    0  0.23685562000E+00 -0.30744951269E+02  0.20260110347E+02  0.36820920689E+02  0.00000000000E+00 0.  1.
         11    1    4    4    0    0 -0.28817627253E+01  0.13024151600E+02 -0.19349985189E+02  0.23502234115E+02  0.51100000000E-03 0. -1.
        -11    1    4    4    0    0 -0.76326196728E+01  0.17998103381E+02 -0.43418150175E+01  0.20025982280E+02  0.51100000000E-03 0.  1.
         12    1    4    4    0    0  0.10277526778E+02 -0.27730371120E+00  0.34316898601E+01  0.10838862916E+02  0.00000000000E+00 0. -1.
</event>
<event>
 8    1  0.1210161E-006  0.9118800E+02  0.7816164E-02  0.1184000E+00
        -11   -1    0    0    0    0  0.00000000000E+00  0.00000000000E+00  0.45593999997E+02  0.45594000000E+02  0.51100000000E-03 0. -1.
         11   -1    0    0    0    0 -0.00000000000E+00 -0.00000000000E+00 -0.45593999997E+02  0.45594000000E+02  0.51100000000E-03 0.  1.
         23    2    1    2    0    0  0.17763568394E-14  0.35527136788E-14  0.00000000000E+00  0.91188000000E+02  0.91188000000E+02 0.  0.
    9900012    2    3    3    0    0 -0.10321239464E+02 -0.22867551142E+02  0.26950488812E+02  0.54367058587E+02  0.39999941661E+02 0.  0.
         12    1    3    3    0    0  0.10321239464E+02  0.22867551142E+02 -0.26950488812E+02  0.36820941413E+02  0.00000000000E+00 0. -1.
         11    1    4    4    0    0  0.45525994811E+01  0.23995562599E+01  0.10281657231E+02  0.11497674024E+02  0.51100000000E-03 0. -1.
        -11    1    4    4    0    0 -0.16392023127E+02 -0.20487639645E+02  0.22931221356E+02  0.34846559566E+02  0.51100000000E-03 0.  1.
        -12    1    4    4    0    0  0.15181841826E+01 -0.47794677569E+01 -0.62623897749E+01  0.80228249978E+01  0.00000000000E+00 0.  1.
</event>
<event>
 8    1  0.1210161E-006  0.9118800E+02  0.7816164E-02  0.1184000E+00
        -11   -1    0    0    0    0  0.00000000000E+00  0.00000000000E+00  0.45593999997E+02  0.45594000000E+02  0.51100000000E-03 0. -1.
         11   -1    0    0    0    0 -0.00000000000E+00 -0.00000000000E+00 -0.45593999997E+02  0.45594000000E+02  0.51100000000E-03 0.  1.
         23    2    1    2    0    0  0.35527136788E-14  0.17763568394E-14  0.00000000000E+00  0.91188000000E+02  0.91188000000E+02 0.  0.
    9900012    2    3    3    0    0  0.24297472004E+02  0.12430587708E+02 -0.24716226883E+02  0.54367102022E+02  0.40000040680E+02 0.  0.
         12    1    3    3    0    0 -0.24297472004E+02 -0.12430587708E+02  0.24716226883E+02  0.36820897978E+02  0.00000000000E+00 0. -1.
         11    1    4    4    0    0 -0.93409491371E+00  0.77546757069E+01  0.12733959682E+01  0.79138528025E+01  0.51100000000E-03 0. -1.
        -11    1    4    4    0    0  0.53257979274E+01  0.31110747918E+01 -0.25756489638E+02  0.26484706317E+02  0.51100000000E-03 0.  1.
        -12    1    4    4    0    0  0.19905768990E+02  0.15648372093E+01 -0.23313321279E+00  0.19968542903E+02  0.00000000000E+00 0.  1.
</event>
<event>
 8    1  0.1210161E-006  0.9118800E+02  0.7816164E-02  0.1184000E+00
        -11   -1    0    0    0    0  0.00000000000E+00  0.00000000000E+00  0.45593999997E+02  0.45594000000E+02  0.51100000000E-03 0. -1.
         11   -1    0    0    0    0 -0.00000000000E+00 -0.00000000000E+00 -0.45593999997E+02  0.45594000000E+02  0.51100000000E-03 0.  1.
         23    2    1    2    0    0  0.35527136788E-14  0.35527136788E-14 -0.35527136788E-14  0.91188000000E+02  0.91188000000E+02 0.  0.
    9900012    2    3    3    0    0  0.17169936809E+02 -0.30316202067E+02 -0.11911684613E+02  0.54367257638E+02  0.40000395436E+02 0.  0.
         12    1    3    3    0    0 -0.17169936809E+02  0.30316202067E+02  0.11911684613E+02  0.36820742362E+02  0.00000000000E+00 0. -1.
         11    1    4    4    0    0 -0.22774721338E+01 -0.40448073097E+01  0.90660370393E+01  0.10185301829E+02  0.51100000000E-03 0. -1.
        -11    1    4    4    0    0 -0.46861971181E+00  0.31764364966E+01 -0.81783785565E+00  0.33133385385E+01  0.51100000000E-03 0.  1.
         12    1    4    4    0    0  0.19916028654E+02 -0.29447831254E+02 -0.20159883797E+02  0.40868617270E+02  0.00000000000E+00 0. -1.
</event>
<event>
 8    1  0.1210161E-006  0.9118800E+02  0.7816164E-02  0.1184000E+00
        -11   -1    0    0    0    0  0.00000000000E+00  0.00000000000E+00  0.45593999997E+02  0.45594000000E+02  0.51100000000E-03 0.  1.
         11   -1    0    0    0    0 -0.00000000000E+00 -0.00000000000E+00 -0.45593999997E+02  0.45594000000E+02  0.51100000000E-03 0. -1.
         23    2    1    2    0    0  0.00000000000E+00  0.00000000000E+00 -0.26645352591E-14  0.91188000000E+02  0.91188000000E+02 0.  0.
    9900012    2    3    3    0    0 -0.27734358715E+02  0.23306792809E+02  0.65862422088E+01  0.54367084329E+02  0.40000000346E+02 0.  0.
         12    1    3    3    0    0  0.27734358715E+02 -0.23306792809E+02 -0.65862422088E+01  0.36820915671E+02  0.00000000000E+00 0. -1.
         11    1    4    4    0    0 -0.25017038412E+02  0.13279665038E+02  0.19924239175E+02  0.34629135441E+02  0.51100000000E-03 0. -1.
        -11    1    4    4    0    0 -0.19536732325E+01  0.23920102745E+01  0.11886250595E+01  0.33092872414E+01  0.51100000000E-03 0.  1.
         12    1    4    4    0    0 -0.76364707067E+00  0.76351174972E+01 -0.14526622026E+02  0.16428661647E+02  0.00000000000E+00 0. -1.
</event>
<event>
 8    1  0.1210161E-006  0.9118800E+02  0.7816164E-02  0.1184000E+00
        -11   -1    0    0    0    0  0.00000000000E+00  0.00000000000E+00  0.45593999997E+02  0.45594000000E+02  0.51100000000E-03 0.  1.
         11   -1    0    0    0    0 -0.00000000000E+00 -0.00000000000E+00 -0.45593999997E+02  0.45594000000E+02  0.51100000000E-03 0. -1.
         23    2    1    2    0    0  0.00000000000E+00  0.00000000000E+00 -0.35527136788E-14  0.91188000000E+02  0.91188000000E+02 0.  0.
    9900012    2    3    3    0    0  0.12085643589E+02 -0.15930281033E+02 -0.30918313244E+02  0.54367099297E+02  0.40000034466E+02 0.  0.
        -12    1    3    3    0    0 -0.12085643589E+02  0.15930281033E+02  0.30918313244E+02  0.36820900703E+02  0.00000000000E+00 0.  1.
         11    1    4    4    0    0 -0.35539477111E+00 -0.26062036812E+01  0.46110673059E+01  0.53085351117E+01  0.51100000000E-03 0. -1.
        -11    1    4    4    0    0  0.17001684949E+01  0.21403073830E+01  0.42471792457E+01  0.50507445403E+01  0.51100000000E-03 0.  1.
         12    1    4    4    0    0  0.10740869866E+02 -0.15464384735E+02 -0.39776559796E+02  0.44007819645E+02  0.00000000000E+00 0. -1.
</event>
<event>
 8    1  0.1210161E-006  0.9118800E+02  0.7816164E-02  0.1184000E+00
        -11   -1    0    0    0    0  0.00000000000E+00  0.00000000000E+00  0.45593999997E+02  0.45594000000E+02  0.51100000000E-03 0.  1.
         11   -1    0    0    0    0 -0.00000000000E+00 -0.00000000000E+00 -0.45593999997E+02  0.45594000000E+02  0.51100000000E-03 0. -1.
         23    2    1    2    0    0 -0.88817841970E-15 -0.44408920985E-15  0.71054273576E-14  0.91188000000E+02  0.91188000000E+02 0.  0.
    9900012    2    3    3    0    0  0.64471233429E+01 -0.38463904586E+01 -0.36047476412E+02  0.54367072871E+02  0.39999974224E+02 0.  0.
        -12    1    3    3    0    0 -0.64471233429E+01  0.38463904586E+01  0.36047476412E+02  0.36820927129E+02  0.00000000000E+00 0.  1.
         11    1    4    4    0    0 -0.57902272525E+01 -0.19877473101E+01 -0.21912051131E+02  0.22751172630E+02  0.51100000000E-03 0. -1.
        -11    1    4    4    0    0  0.14062339313E+02 -0.68749780203E+01  0.88220640679E+00  0.15677786774E+02  0.51100000000E-03 0.  1.
         12    1    4    4    0    0 -0.18249887173E+01  0.50163348719E+01 -0.15017631688E+02  0.15938113467E+02  0.00000000000E+00 0. -1.
</event>
<event>
 8    1  0.1210161E-006  0.9118800E+02  0.7816164E-02  0.1184000E+00
        -11   -1    0    0    0    0  0.00000000000E+00  0.00000000000E+00  0.45593999997E+02  0.45594000000E+02  0.51100000000E-03 0. -1.
         11   -1    0    0    0    0 -0.00000000000E+00 -0.00000000000E+00 -0.45593999997E+02  0.45594000000E+02  0.51100000000E-03 0.  1.
         23    2    1    2    0    0  0.00000000000E+00  0.35527136788E-14  0.00000000000E+00  0.91188000000E+02  0.91188000000E+02 0.  0.
    9900012    2    3    3    0    0  0.29228093265E+02  0.19464925323E+02 -0.11073201780E+02  0.54367074544E+02  0.39999978039E+02 0.  0.
         12    1    3    3    0    0 -0.29228093265E+02 -0.19464925323E+02  0.11073201780E+02  0.36820925456E+02  0.00000000000E+00 0. -1.
         11    1    4    4    0    0  0.15329101542E+02  0.31222844173E+01 -0.21552605080E+02  0.26631650345E+02  0.51100000000E-03 0. -1.
        -11    1    4    4    0    0  0.96438717922E+01  0.47080346776E+01  0.10958124254E+02  0.15337872770E+02  0.51100000000E-03 0.  1.
         12    1    4    4    0    0  0.42551199309E+01  0.11634606228E+02 -0.47872095350E+00  0.12397551430E+02  0.00000000000E+00 0. -1.
</event>
<event>
 8    1  0.1210161E-006  0.9118800E+02  0.7816164E-02  0.1184000E+00
        -11   -1    0    0    0    0  0.00000000000E+00  0.00000000000E+00  0.45593999997E+02  0.45594000000E+02  0.51100000000E-03 0. -1.
         11   -1    0    0    0    0 -0.00000000000E+00 -0.00000000000E+00 -0.45593999997E+02  0.45594000000E+02  0.51100000000E-03 0.  1.
         23    2    1    2    0    0  0.00000000000E+00  0.00000000000E+00  0.71054273576E-14  0.91188000000E+02  0.91188000000E+02 0.  0.
    9900012    2    3    3    0    0 -0.11530825357E+02  0.98621415497E+01 -0.33549337840E+02  0.54367084221E+02  0.40000000098E+02 0.  0.
         12    1    3    3    0    0  0.11530825357E+02 -0.98621415497E+01  0.33549337840E+02  0.36820915779E+02  0.00000000000E+00 0. -1.
         11    1    4    4    0    0 -0.27952874256E+01  0.53726539530E+01  0.48325189608E+01  0.77480502101E+01  0.51100000000E-03 0. -1.
        -11    1    4    4    0    0 -0.11137496500E+02  0.60067478472E+01 -0.58110444496E+01  0.13924549754E+02  0.51100000000E-03 0.  1.
        -12    1    4    4    0    0  0.24019585692E+01 -0.15172602505E+01 -0.32570812351E+02  0.32694484257E+02  0.00000000000E+00 0.  1.
</event>
<event>
 8    1  0.1210161E-006  0.9118800E+02  0.7816164E-02  0.1184000E+00
        -11   -1    0    0    0    0  0.00000000000E+00  0.00000000000E+00  0.45593999997E+02  0.45594000000E+02  0.51100000000E-03 0.  1.
         11   -1    0    0    0    0 -0.00000000000E+00 -0.00000000000E+00 -0.45593999997E+02  0.45594000000E+02  0.51100000000E-03 0. -1.
         23    2    1    2    0    0 -0.35527136788E-14  0.00000000000E+00  0.00000000000E+00  0.91188000000E+02  0.91188000000E+02 0.  0.
    9900012    2    3    3    0    0  0.18433890403E+02  0.17531371975E+02  0.26619986170E+02  0.54367068692E+02  0.39999964697E+02 0.  0.
         12    1    3    3    0    0 -0.18433890403E+02 -0.17531371975E+02 -0.26619986170E+02  0.36820931308E+02  0.00000000000E+00 0. -1.
         11    1    4    4    0    0 -0.61413407045E+00  0.10461602279E+02  0.12205496939E+02  0.16087151354E+02  0.51100000000E-03 0. -1.
        -11    1    4    4    0    0  0.12017378485E+01  0.98469429417E+01  0.17346222292E+02  0.19982439471E+02  0.51100000000E-03 0.  1.
         12    1    4    4    0    0  0.17846286625E+02 -0.27771732462E+01 -0.29317330609E+01  0.18297477867E+02  0.00000000000E+00 0. -1.
</event>
<event>
 8    1  0.1210161E-006  0.9118800E+02  0.7816164E-02  0.1184000E+00
        -11   -1    0    0    0    0  0.00000000000E+00  0.00000000000E+00  0.45593999997E+02  0.45594000000E+02  0.51100000000E-03 0. -1.
         11   -1    0    0    0    0 -0.00000000000E+00 -0.00000000000E+00 -0.45593999997E+02  0.45594000000E+02  0.51100000000E-03 0.  1.
         23    2    1    2    0    0  0.00000000000E+00 -0.35527136788E-14  0.15543122345E-14  0.91188000000E+02  0.91188000000E+02 0.  0.
    9900012    2    3    3    0    0 -0.25261024418E+02 -0.26740818394E+02  0.16089385775E+01  0.54367090093E+02  0.40000013484E+02 0.  0.
        -12    1    3    3    0    0  0.25261024418E+02  0.26740818394E+02 -0.16089385775E+01  0.36820909907E+02  0.00000000000E+00 0.  1.
         11    1    4    4    0    0 -0.72610133764E+01 -0.14495562913E+02  0.28164895107E+01  0.16455281001E+02  0.51100000000E-03 0. -1.
        -11    1    4    4    0    0 -0.20582173168E+02 -0.65253078661E+01 -0.12531680513E+02  0.24964945660E+02  0.51100000000E-03 0.  1.
        -12    1    4    4    0    0  0.25821621262E+01 -0.57199476156E+01  0.11324129580E+02  0.12946863431E+02  0.00000000000E+00 0.  1.
</event>
<event>
 8    1  0.1210161E-006  0.9118800E+02  0.7816164E-02  0.1184000E+00
        -11   -1    0    0    0    0  0.00000000000E+00  0.00000000000E+00  0.45593999997E+02  0.45594000000E+02  0.51100000000E-03 0. -1.
         11   -1    0    0    0    0 -0.00000000000E+00 -0.00000000000E+00 -0.45593999997E+02  0.45594000000E+02  0.51100000000E-03 0.  1.
         23    2    1    2    0    0  0.00000000000E+00 -0.88817841970E-15  0.00000000000E+00  0.91188000000E+02  0.91188000000E+02 0.  0.
    9900012    2    3    3    0    0 -0.14571608667E+02  0.63016436596E+01  0.33222537705E+02  0.54367088774E+02  0.40000010478E+02 0.  0.
        -12    1    3    3    0    0  0.14571608667E+02 -0.63016436596E+01 -0.33222537705E+02  0.36820911226E+02  0.00000000000E+00 0.  1.
         11    1    4    4    0    0 -0.13975878561E+02  0.14765603364E+02  0.22985601830E+02  0.30686904634E+02  0.51100000000E-03 0. -1.
        -11    1    4    4    0    0  0.73711603702E+01  0.24826018441E+01  0.30749591570E+01  0.83637725457E+01  0.51100000000E-03 0.  1.
         12    1    4    4    0    0 -0.79668904762E+01 -0.10946561549E+02  0.71619767175E+01  0.15316411594E+02  0.00000000000E+00 0. -1.
</event>
<event>
 8    1  0.1210161E-006  0.9118800E+02  0.7816164E-02  0.1184000E+00
        -11   -1    0    0    0    0  0.00000000000E+00  0.00000000000E+00  0.45593999997E+02  0.45594000000E+02  0.51100000000E-03 0. -1.
         11   -1    0    0    0    0 -0.00000000000E+00 -0.00000000000E+00 -0.45593999997E+02  0.45594000000E+02  0.51100000000E-03 0.  1.
         23    2    1    2    0    0  0.14210854715E-13  0.00000000000E+00  0.00000000000E+00  0.91188000000E+02  0.91188000000E+02 0.  0.
    9900012    2    3    3    0    0 -0.35997510570E+02  0.43835172128E+01 -0.63831351601E+01  0.54367076535E+02  0.39999982576E+02 0.  0.
         12    1    3    3    0    0  0.35997510570E+02 -0.43835172128E+01  0.63831351601E+01  0.36820923465E+02  0.00000000000E+00 0. -1.
         11    1    4    4    0    0 -0.40257657467E+01  0.40964874474E+01 -0.76989365401E+01  0.96052914252E+01  0.51100000000E-03 0. -1.
        -11    1    4    4    0    0 -0.12270672830E+02 -0.73811164348E+01 -0.12910243770E+02  0.19280163018E+02  0.51100000000E-03 0.  1.
         12    1    4    4    0    0 -0.19701071993E+02  0.76681462002E+01  0.14226045150E+02  0.25481622092E+02  0.00000000000E+00 0. -1.
</event>
<event>
 8    1  0.1210161E-006  0.9118800E+02  0.7816164E-02  0.1184000E+00
        -11   -1    0    0    0    0  0.00000000000E+00  0.00000000000E+00  0.45593999997E+02  0.45594000000E+02  0.51100000000E-03 0.  1.
         11   -1    0    0    0    0 -0.00000000000E+00 -0.00000000000E+00 -0.45593999997E+02  0.45594000000E+02  0.51100000000E-03 0. -1.
         23    2    1    2    0    0  0.00000000000E+00 -0.17763568394E-14  0.71054273576E-14  0.91188000000E+02  0.91188000000E+02 0.  0.
    9900012    2    3    3    0    0 -0.76857638326E+01  0.13107610041E+02 -0.33539531438E+02  0.54367074214E+02  0.39999977286E+02 0.  0.
        -12    1    3    3    0    0  0.76857638326E+01 -0.13107610041E+02  0.33539531438E+02  0.36820925786E+02  0.00000000000E+00 0.  1.
         11    1    4    4    0    0 -0.83986778675E+00 -0.25387029846E+01  0.78368992278E+00  0.27864961689E+01  0.51100000000E-03 0. -1.
        -11    1    4    4    0    0  0.10749331740E+02 -0.71897532882E+00 -0.14637196679E+01  0.10872328817E+02  0.51100000000E-03 0.  1.
         12    1    4    4    0    0 -0.17595227786E+02  0.16365288354E+02 -0.32859501693E+02  0.40708249228E+02  0.00000000000E+00 0. -1.
</event>
<event>
 8    1  0.1210161E-006  0.9118800E+02  0.7816164E-02  0.1184000E+00
        -11   -1    0    0    0    0  0.00000000000E+00  0.00000000000E+00  0.45593999997E+02  0.45594000000E+02  0.51100000000E-03 0. -1.
         11   -1    0    0    0    0 -0.00000000000E+00 -0.00000000000E+00 -0.45593999997E+02  0.45594000000E+02  0.51100000000E-03 0.  1.
         23    2    1    2    0    0 -0.35527136788E-14  0.00000000000E+00 -0.35527136788E-14  0.91188000000E+02  0.91188000000E+02 0.  0.
    9900012    2    3    3    0    0  0.11674421542E+02 -0.24620662308E+02  0.24765111506E+02  0.54367083679E+02  0.39999998862E+02 0.  0.
        -12    1    3    3    0    0 -0.11674421542E+02  0.24620662308E+02 -0.24765111506E+02  0.36820916321E+02  0.00000000000E+00 0.  1.
         11    1    4    4    0    0 -0.46212471003E+01 -0.21568052475E+02  0.23913973380E+02  0.32533289650E+02  0.51100000000E-03 0. -1.
        -11    1    4    4    0    0  0.19944459058E+01 -0.64814942188E+01  0.20336789850E+01  0.70797904104E+01  0.51100000000E-03 0.  1.
        -12    1    4    4    0    0  0.14301222737E+02  0.34288843857E+01 -0.11825408592E+01  0.14754003619E+02  0.00000000000E+00 0.  1.
</event>
<event>
 8    1  0.1210161E-006  0.9118800E+02  0.7816164E-02  0.1184000E+00
        -11   -1    0    0    0    0  0.00000000000E+00  0.00000000000E+00  0.45593999997E+02  0.45594000000E+02  0.51100000000E-03 0. -1.
         11   -1    0    0    0    0 -0.00000000000E+00 -0.00000000000E+00 -0.45593999997E+02  0.45594000000E+02  0.51100000000E-03 0.  1.
         23    2    1    2    0    0  0.00000000000E+00  0.00000000000E+00  0.35527136788E-14  0.91188000000E+02  0.91188000000E+02 0.  0.
    9900012    2    3    3    0    0 -0.20263155597E+02  0.36926245096E+01 -0.30521289712E+02  0.54367080997E+02  0.39999992750E+02 0.  0.
         12    1    3    3    0    0  0.20263155597E+02 -0.36926245096E+01  0.30521289712E+02  0.36820919003E+02  0.00000000000E+00 0. -1.
         11    1    4    4    0    0 -0.18894852342E+02  0.11378335407E+02 -0.25830808531E+01  0.22207076994E+02  0.51100000000E-03 0.  1.
        -11    1    4    4    0    0 -0.20294545623E+01  0.41700967761E-01 -0.22724096153E+02  0.22814578037E+02  0.51100000000E-03 0. -1.
        -12    1    4    4    0    0  0.66115130721E+00 -0.77274118651E+01 -0.52141127058E+01  0.93454259663E+01  0.00000000000E+00 0.  1.
</event>
<event>
 8    1  0.1210161E-006  0.9118800E+02  0.7816164E-02  0.1184000E+00
        -11   -1    0    0    0    0  0.00000000000E+00  0.00000000000E+00  0.45593999997E+02  0.45594000000E+02  0.51100000000E-03 0.  1.
         11   -1    0    0    0    0 -0.00000000000E+00 -0.00000000000E+00 -0.45593999997E+02  0.45594000000E+02  0.51100000000E-03 0. -1.
         23    2    1    2    0    0  0.00000000000E+00  0.00000000000E+00  0.17763568394E-14  0.91188000000E+02  0.91188000000E+02 0.  0.
    9900012    2    3    3    0    0 -0.32972767053E+02  0.13720310338E+02  0.89626517360E+01  0.54367090057E+02  0.40000013402E+02 0.  0.
         12    1    3    3    0    0  0.32972767053E+02 -0.13720310338E+02 -0.89626517360E+01  0.36820909943E+02  0.00000000000E+00 0. -1.
         11    1    4    4    0    0 -0.10011399677E+01  0.78572072935E+01 -0.67539187714E+01  0.10409294247E+02  0.51100000000E-03 0. -1.
        -11    1    4    4    0    0 -0.21647694416E+02  0.22822868608E+01  0.22330602163E+02  0.31184728635E+02  0.51100000000E-03 0.  1.
        -12    1    4    4    0    0 -0.10323932669E+02  0.35808161834E+01 -0.66140316552E+01  0.12773067174E+02  0.00000000000E+00 0.  1.
</event>
<event>
 8    1  0.1210161E-006  0.9118800E+02  0.7816164E-02  0.1184000E+00
        -11   -1    0    0    0    0  0.00000000000E+00  0.00000000000E+00  0.45593999997E+02  0.45594000000E+02  0.51100000000E-03 0.  1.
         11   -1    0    0    0    0 -0.00000000000E+00 -0.00000000000E+00 -0.45593999997E+02  0.45594000000E+02  0.51100000000E-03 0. -1.
         23    2    1    2    0    0  0.35527136788E-14  0.00000000000E+00  0.00000000000E+00  0.91188000000E+02  0.91188000000E+02 0.  0.
    9900012    2    3    3    0    0 -0.23760294898E+02 -0.25699886609E+02 -0.11434396177E+02  0.54367065719E+02  0.39999957920E+02 0.  0.
         12    1    3    3    0    0  0.23760294898E+02  0.25699886609E+02  0.11434396177E+02  0.36820934281E+02  0.00000000000E+00 0. -1.
         11    1    4    4    0    0  0.13202781832E+01 -0.64181278270E+01 -0.91061820497E+01  0.11218647471E+02  0.51100000000E-03 0. -1.
        -11    1    4    4    0    0 -0.22915471699E+02 -0.16728943182E+02 -0.13547382299E+02  0.31440546283E+02  0.51100000000E-03 0.  1.
         12    1    4    4    0    0 -0.21651013829E+01 -0.25528156001E+01  0.11219168172E+02  0.11707871965E+02  0.00000000000E+00 0. -1.
</event>
<event>
 8    1  0.1210161E-006  0.9118800E+02  0.7816164E-02  0.1184000E+00
        -11   -1    0    0    0    0  0.00000000000E+00  0.00000000000E+00  0.45593999997E+02  0.45594000000E+02  0.51100000000E-03 0. -1.
         11   -1    0    0    0    0 -0.00000000000E+00 -0.00000000000E+00 -0.45593999997E+02  0.45594000000E+02  0.51100000000E-03 0.  1.
         23    2    1    2    0    0  0.00000000000E+00  0.00000000000E+00  0.00000000000E+00  0.91188000000E+02  0.91188000000E+02 0.  0.
    9900012    2    3    3    0    0 -0.12441662710E+02 -0.32465833647E+02  0.12122513792E+02  0.54367072988E+02  0.39999974491E+02 0.  0.
        -12    1    3    3    0    0  0.12441662710E+02  0.32465833647E+02 -0.12122513792E+02  0.36820927012E+02  0.00000000000E+00 0.  1.
         11    1    4    4    0    0 -0.29760969101E+01  0.83705452958E+00  0.12462777152E+02  0.12840507299E+02  0.51100000000E-03 0. -1.
        -11    1    4    4    0    0  0.36476802640E+01 -0.36055705232E+01  0.65707078743E+01  0.83354611353E+01  0.51100000000E-03 0.  1.
        -12    1    4    4    0    0 -0.13113246064E+02 -0.29697317653E+02 -0.69109712340E+01  0.33191104554E+02  0.00000000000E+00 0.  1.
</event>
<event>
 8    1  0.1210161E-006  0.9118800E+02  0.7816164E-02  0.1184000E+00
        -11   -1    0    0    0    0  0.00000000000E+00  0.00000000000E+00  0.45593999997E+02  0.45594000000E+02  0.51100000000E-03 0. -1.
         11   -1    0    0    0    0 -0.00000000000E+00 -0.00000000000E+00 -0.45593999997E+02  0.45594000000E+02  0.51100000000E-03 0.  1.
         23    2    1    2    0    0  0.00000000000E+00  0.35527136788E-14  0.35527136788E-14  0.91188000000E+02  0.91188000000E+02 0.  0.
    9900012    2    3    3    0    0 -0.85360130449E+01 -0.18465542956E+02 -0.30691038990E+02  0.54367086518E+02  0.40000005335E+02 0.  0.
         12    1    3    3    0    0  0.85360130449E+01  0.18465542956E+02  0.30691038990E+02  0.36820913482E+02  0.00000000000E+00 0. -1.
         11    1    4    4    0    0  0.58449025177E+01 -0.33871138068E+01 -0.49026228893E+01  0.83469237949E+01  0.51100000000E-03 0. -1.
        -11    1    4    4    0    0  0.10163437379E+02 -0.52074366738E+01 -0.10214322770E+02  0.15321398304E+02  0.51100000000E-03 0.  1.
         12    1    4    4    0    0 -0.24544352942E+02 -0.98709924756E+01 -0.15574093330E+02  0.30698764419E+02  0.00000000000E+00 0. -1.
</event>
<event>
 8    1  0.1210161E-006  0.9118800E+02  0.7816164E-02  0.1184000E+00
        -11   -1    0    0    0    0  0.00000000000E+00  0.00000000000E+00  0.45593999997E+02  0.45594000000E+02  0.51100000000E-03 0.  1.
         11   -1    0    0    0    0 -0.00000000000E+00 -0.00000000000E+00 -0.45593999997E+02  0.45594000000E+02  0.51100000000E-03 0. -1.
         23    2    1    2    0    0  0.35527136788E-14 -0.88817841970E-15  0.00000000000E+00  0.91188000000E+02  0.91188000000E+02 0.  0.
    9900012    2    3    3    0    0 -0.31645547738E+02  0.65076449053E+01 -0.17663244360E+02  0.54367077480E+02  0.39999984732E+02 0.  0.
        -12    1    3    3    0    0  0.31645547738E+02 -0.65076449053E+01  0.17663244360E+02  0.36820922520E+02  0.00000000000E+00 0.  1.
         11    1    4    4    0    0 -0.30317197849E+02 -0.45044656268E+01 -0.16340057579E+01  0.30693528162E+02  0.51100000000E-03 0. -1.
        -11    1    4    4    0    0  0.70163491736E+00  0.11084678008E+02 -0.45281133844E+01  0.11994423254E+02  0.51100000000E-03 0.  1.
         12    1    4    4    0    0 -0.20299848070E+01 -0.72567476216E-01 -0.11501125218E+02  0.11679126064E+02  0.00000000000E+00 0. -1.
</event>
<event>
 8    1  0.1210161E-006  0.9118800E+02  0.7816164E-02  0.1184000E+00
        -11   -1    0    0    0    0  0.00000000000E+00  0.00000000000E+00  0.45593999997E+02  0.45594000000E+02  0.51100000000E-03 0. -1.
         11   -1    0    0    0    0 -0.00000000000E+00 -0.00000000000E+00 -0.45593999997E+02  0.45594000000E+02  0.51100000000E-03 0.  1.
         23    2    1    2    0    0 -0.44408920985E-15  0.71054273576E-14  0.88817841970E-15  0.91188000000E+02  0.91188000000E+02 0.  0.
    9900012    2    3    3    0    0  0.35226641799E+01  0.36031719226E+02 -0.67146230602E+01  0.54367080455E+02  0.39999991514E+02 0.  0.
         12    1    3    3    0    0 -0.35226641799E+01 -0.36031719226E+02  0.67146230602E+01  0.36820919545E+02  0.00000000000E+00 0. -1.
         11    1    4    4    0    0  0.20897986423E+00 -0.41043867789E+01 -0.23228031334E+01  0.47207073699E+01  0.51100000000E-03 0. -1.
        -11    1    4    4    0    0 -0.76020141406E+01  0.11831238270E+02 -0.11868464273E+02  0.18401882035E+02  0.51100000000E-03 0.  1.
         12    1    4    4    0    0  0.10915698456E+02  0.28304867735E+02  0.74766443462E+01  0.31244491050E+02  0.00000000000E+00 0. -1.
</event>
<event>
 8    1  0.1210161E-006  0.9118800E+02  0.7816164E-02  0.1184000E+00
        -11   -1    0    0    0    0  0.00000000000E+00  0.00000000000E+00  0.45593999997E+02  0.45594000000E+02  0.51100000000E-03 0.  1.
         11   -1    0    0    0    0 -0.00000000000E+00 -0.00000000000E+00 -0.45593999997E+02  0.45594000000E+02  0.51100000000E-03 0. -1.
         23    2    1    2    0    0  0.00000000000E+00  0.00000000000E+00  0.00000000000E+00  0.91188000000E+02  0.91188000000E+02 0.  0.
    9900012    2    3    3    0    0 -0.32699533879E+02 -0.14499113436E+02 -0.87347734354E+01  0.54367081036E+02  0.39999992838E+02 0.  0.
        -12    1    3    3    0    0  0.32699533879E+02  0.14499113436E+02  0.87347734354E+01  0.36820918964E+02  0.00000000000E+00 0.  1.
         11    1    4    4    0    0 -0.35008259377E+01 -0.13401479825E+02 -0.49363831855E+01  0.14704534096E+02  0.51100000000E-03 0. -1.
        -11    1    4    4    0    0 -0.23721445519E+01 -0.48454503211E+01 -0.10459110356E+02  0.11768536370E+02  0.51100000000E-03 0.  1.
         12    1    4    4    0    0 -0.26826563390E+02  0.37478167099E+01  0.66607201058E+01  0.27894010571E+02  0.00000000000E+00 0. -1.
</event>
<event>
 8    1  0.1210161E-006  0.9118800E+02  0.7816164E-02  0.1184000E+00
        -11   -1    0    0    0    0  0.00000000000E+00  0.00000000000E+00  0.45593999997E+02  0.45594000000E+02  0.51100000000E-03 0.  1.
         11   -1    0    0    0    0 -0.00000000000E+00 -0.00000000000E+00 -0.45593999997E+02  0.45594000000E+02  0.51100000000E-03 0. -1.
         23    2    1    2    0    0  0.00000000000E+00  0.00000000000E+00  0.00000000000E+00  0.91188000000E+02  0.91188000000E+02 0.  0.
    9900012    2    3    3    0    0 -0.15144983489E+02 -0.22029525841E+02 -0.25320145014E+02  0.54367078268E+02  0.39999986528E+02 0.  0.
         12    1    3    3    0    0  0.15144983489E+02  0.22029525841E+02  0.25320145014E+02  0.36820921732E+02  0.00000000000E+00 0. -1.
         11    1    4    4    0    0  0.17848639947E+01  0.38363052292E+01 -0.25168594378E+01  0.49231655448E+01  0.51100000000E-03 0. -1.
        -11    1    4    4    0    0 -0.15339048195E+02 -0.32817464600E+02 -0.21700655447E+02  0.42227844243E+02  0.51100000000E-03 0.  1.
        -12    1    4    4    0    0 -0.15907992894E+01  0.69516335300E+01 -0.11026301291E+01  0.72160684806E+01  0.00000000000E+00 0.  1.
</event>
<event>
 8    1  0.1210161E-006  0.9118800E+02  0.7816164E-02  0.1184000E+00
        -11   -1    0    0    0    0  0.00000000000E+00  0.00000000000E+00  0.45593999997E+02  0.45594000000E+02  0.51100000000E-03 0. -1.
         11   -1    0    0    0    0 -0.00000000000E+00 -0.00000000000E+00 -0.45593999997E+02  0.45594000000E+02  0.51100000000E-03 0.  1.
         23    2    1    2    0    0  0.00000000000E+00  0.00000000000E+00  0.00000000000E+00  0.91188000000E+02  0.91188000000E+02 0.  0.
    9900012    2    3    3    0    0 -0.30610207004E+02 -0.19843261514E+02  0.50040575776E+01  0.54367076701E+02  0.39999982955E+02 0.  0.
         12    1    3    3    0    0  0.30610207004E+02  0.19843261514E+02 -0.50040575776E+01  0.36820923299E+02  0.00000000000E+00 0. -1.
         11    1    4    4    0    0 -0.10592392341E+02  0.99995771229E+01  0.41061370166E+01  0.15134420359E+02  0.51100000000E-03 0. -1.
        -11    1    4    4    0    0 -0.18782196416E+02 -0.15289025963E+02 -0.21443050204E+01  0.24313026578E+02  0.51100000000E-03 0.  1.
        -12    1    4    4    0    0 -0.12356182477E+01 -0.14553812674E+02  0.30422255815E+01  0.14919629764E+02  0.00000000000E+00 0.  1.
</event>
<event>
 8    1  0.1210161E-006  0.9118800E+02  0.7816164E-02  0.1184000E+00
        -11   -1    0    0    0    0  0.00000000000E+00  0.00000000000E+00  0.45593999997E+02  0.45594000000E+02  0.51100000000E-03 0.  1.
         11   -1    0    0    0    0 -0.00000000000E+00 -0.00000000000E+00 -0.45593999997E+02  0.45594000000E+02  0.51100000000E-03 0. -1.
         23    2    1    2    0    0  0.35527136788E-14 -0.17763568394E-14 -0.35527136788E-14  0.91188000000E+02  0.91188000000E+02 0.  0.
    9900012    2    3    3    0    0  0.16455823841E+02 -0.13286102920E+02  0.30140762130E+02  0.54367079169E+02  0.39999988582E+02 0.  0.
         12    1    3    3    0    0 -0.16455823841E+02  0.13286102920E+02 -0.30140762130E+02  0.36820920831E+02  0.00000000000E+00 0. -1.
         11    1    4    4    0    0 -0.27383427995E+01  0.15830479537E+01 -0.74956091844E-01  0.31638869746E+01  0.51100000000E-03 0. -1.
        -11    1    4    4    0    0  0.20367325934E+02 -0.85897745509E+01  0.36222600719E+02  0.42434525986E+02  0.51100000000E-03 0.  1.
        -12    1    4    4    0    0 -0.11731592939E+01 -0.62793763227E+01 -0.60068824979E+01  0.87686662083E+01  0.00000000000E+00 0.  1.
</event>
<event>
 8    1  0.1210161E-006  0.9118800E+02  0.7816164E-02  0.1184000E+00
        -11   -1    0    0    0    0  0.00000000000E+00  0.00000000000E+00  0.45593999997E+02  0.45594000000E+02  0.51100000000E-03 0. -1.
         11   -1    0    0    0    0 -0.00000000000E+00 -0.00000000000E+00 -0.45593999997E+02  0.45594000000E+02  0.51100000000E-03 0.  1.
         23    2    1    2    0    0  0.00000000000E+00  0.00000000000E+00 -0.17763568394E-14  0.91188000000E+02  0.91188000000E+02 0.  0.
    9900012    2    3    3    0    0 -0.19045427944E+02 -0.27676619393E+02  0.15068390512E+02  0.54367082314E+02  0.39999995752E+02 0.  0.
        -12    1    3    3    0    0  0.19045427944E+02  0.27676619393E+02 -0.15068390512E+02  0.36820917686E+02  0.00000000000E+00 0.  1.
         11    1    4    4    0    0  0.69737053509E+01 -0.13625444496E+02  0.87621775763E+01  0.17636923206E+02  0.51100000000E-03 0. -1.
        -11    1    4    4    0    0 -0.45796269111E+01 -0.71933163188E+01 -0.65998816745E+01  0.10783098844E+02  0.51100000000E-03 0.  1.
         12    1    4    4    0    0 -0.21439506383E+02 -0.68578585784E+01  0.12906094610E+02  0.25947060264E+02  0.00000000000E+00 0. -1.
</event>
<event>
 8    1  0.1210161E-006  0.9118800E+02  0.7816164E-02  0.1184000E+00
        -11   -1    0    0    0    0  0.00000000000E+00  0.00000000000E+00  0.45593999997E+02  0.45594000000E+02  0.51100000000E-03 0.  1.
         11   -1    0    0    0    0 -0.00000000000E+00 -0.00000000000E+00 -0.45593999997E+02  0.45594000000E+02  0.51100000000E-03 0. -1.
         23    2    1    2    0    0  0.00000000000E+00 -0.35527136788E-14  0.00000000000E+00  0.91188000000E+02  0.91188000000E+02 0.  0.
    9900012    2    3    3    0    0  0.24889989985E+02 -0.27009241070E+02 -0.26018974557E+01  0.54367074224E+02  0.39999977309E+02 0.  0.
        -12    1    3    3    0    0 -0.24889989985E+02  0.27009241070E+02  0.26018974557E+01  0.36820925776E+02  0.00000000000E+00 0.  1.
         11    1    4    4    0    0  0.30062444484E+02 -0.89100053466E+01 -0.12739935265E+01  0.31380914954E+02  0.51100000000E-03 0. -1.
        -11    1    4    4    0    0 -0.37631461453E+01 -0.12761679994E+02 -0.70313091464E+01  0.15048622985E+02  0.51100000000E-03 0.  1.
        -12    1    4    4    0    0 -0.14093083531E+01 -0.53375557290E+01  0.57034052172E+01  0.79375362844E+01  0.00000000000E+00 0.  1.
</event>
<event>
 8    1  0.1210161E-006  0.9118800E+02  0.7816164E-02  0.1184000E+00
        -11   -1    0    0    0    0  0.00000000000E+00  0.00000000000E+00  0.45593999997E+02  0.45594000000E+02  0.51100000000E-03 0.  1.
         11   -1    0    0    0    0 -0.00000000000E+00 -0.00000000000E+00 -0.45593999997E+02  0.45594000000E+02  0.51100000000E-03 0. -1.
         23    2    1    2    0    0  0.00000000000E+00  0.00000000000E+00  0.35527136788E-14  0.91188000000E+02  0.91188000000E+02 0.  0.
    9900012    2    3    3    0    0  0.29865789461E+01  0.19095980235E+02  0.31340140700E+02  0.54367074780E+02  0.39999978577E+02 0.  0.
         12    1    3    3    0    0 -0.29865789461E+01 -0.19095980235E+02 -0.31340140700E+02  0.36820925220E+02  0.00000000000E+00 0. -1.
         11    1    4    4    0    0  0.10349534600E+02  0.45681097409E+00  0.16333661263E+01  0.10487584463E+02  0.51100000000E-03 0. -1.
        -11    1    4    4    0    0 -0.41966875251E+01  0.10748702956E+02 -0.14075681819E+01  0.11624459121E+02  0.51100000000E-03 0.  1.
        -12    1    4    4    0    0 -0.31662681290E+01  0.78904663059E+01  0.31114342755E+02  0.32255031196E+02  0.00000000000E+00 0.  1.
</event>
<event>
 8    1  0.1210161E-006  0.9118800E+02  0.7816164E-02  0.1184000E+00
        -11   -1    0    0    0    0  0.00000000000E+00  0.00000000000E+00  0.45593999997E+02  0.45594000000E+02  0.51100000000E-03 0.  1.
         11   -1    0    0    0    0 -0.00000000000E+00 -0.00000000000E+00 -0.45593999997E+02  0.45594000000E+02  0.51100000000E-03 0. -1.
         23    2    1    2    0    0  0.00000000000E+00  0.00000000000E+00  0.17763568394E-14  0.91188000000E+02  0.91188000000E+02 0.  0.
    9900012    2    3    3    0    0  0.28789646950E+02 -0.19490380030E+02 -0.12126856103E+02  0.54367091210E+02  0.40000016031E+02 0.  0.
        -12    1    3    3    0    0 -0.28789646950E+02  0.19490380030E+02  0.12126856103E+02  0.36820908790E+02  0.00000000000E+00 0.  1.
         11    1    4    4    0    0 -0.15958846218E+01 -0.16487287415E+01  0.30796229869E+01  0.38404729125E+01  0.51100000000E-03 0. -1.
        -11    1    4    4    0    0  0.36087375518E+00 -0.21131634782E+01  0.87574068317E+01  0.90159782847E+01  0.51100000000E-03 0.  1.
        -12    1    4    4    0    0  0.30024657816E+02 -0.15728487810E+02 -0.23963885922E+02  0.41510640013E+02  0.00000000000E+00 0.  1.
</event>
<event>
 8    1  0.1210161E-006  0.9118800E+02  0.7816164E-02  0.1184000E+00
        -11   -1    0    0    0    0  0.00000000000E+00  0.00000000000E+00  0.45593999997E+02  0.45594000000E+02  0.51100000000E-03 0.  1.
         11   -1    0    0    0    0 -0.00000000000E+00 -0.00000000000E+00 -0.45593999997E+02  0.45594000000E+02  0.51100000000E-03 0. -1.
         23    2    1    2    0    0 -0.71054273576E-14  0.00000000000E+00  0.00000000000E+00  0.91188000000E+02  0.91188000000E+02 0.  0.
    9900012    2    3    3    0    0  0.35076556162E+02 -0.36511473290E+01 -0.10586988391E+02  0.54367082138E+02  0.39999995351E+02 0.  0.
         12    1    3    3    0    0 -0.35076556162E+02  0.36511473290E+01  0.10586988391E+02  0.36820917862E+02  0.00000000000E+00 0. -1.
         11    1    4    4    0    0 -0.54962621862E+01  0.46948973233E+00  0.36666611458E+01  0.66237242431E+01  0.51100000000E-03 0. -1.
        -11    1    4    4    0    0  0.19628050448E+02  0.73496941443E+01 -0.24384735976E+01  0.21100344124E+02  0.51100000000E-03 0.  1.
        -12    1    4    4    0    0  0.20944767900E+02 -0.11470331206E+02 -0.11815175939E+02  0.26643013772E+02  0.00000000000E+00 0.  1.
</event>
<event>
 8    1  0.1210161E-006  0.9118800E+02  0.7816164E-02  0.1184000E+00
        -11   -1    0    0    0    0  0.00000000000E+00  0.00000000000E+00  0.45593999997E+02  0.45594000000E+02  0.51100000000E-03 0. -1.
         11   -1    0    0    0    0 -0.00000000000E+00 -0.00000000000E+00 -0.45593999997E+02  0.45594000000E+02  0.51100000000E-03 0.  1.
         23    2    1    2    0    0  0.00000000000E+00 -0.71054273576E-14  0.00000000000E+00  0.91188000000E+02  0.91188000000E+02 0.  0.
    9900012    2    3    3    0    0 -0.20643232350E+02  0.30302712500E+02 -0.33718037127E+01  0.54367265529E+02  0.40000413424E+02 0.  0.
         12    1    3    3    0    0  0.20643232350E+02 -0.30302712500E+02  0.33718037127E+01  0.36820734471E+02  0.00000000000E+00 0. -1.
         11    1    4    4    0    0 -0.88127042642E+01  0.65781179616E+00  0.48400449773E+01  0.10075837854E+02  0.51100000000E-03 0. -1.
        -11    1    4    4    0    0 -0.17701398736E+02  0.32478147045E+02 -0.74075960205E+01  0.37723229339E+02  0.51100000000E-03 0.  1.
        -12    1    4    4    0    0  0.58708706502E+01 -0.28332463418E+01 -0.80425266948E+00  0.65681983360E+01  0.00000000000E+00 0.  1.
</event>
<event>
 8    1  0.1210161E-006  0.9118800E+02  0.7816164E-02  0.1184000E+00
        -11   -1    0    0    0    0  0.00000000000E+00  0.00000000000E+00  0.45593999997E+02  0.45594000000E+02  0.51100000000E-03 0.  1.
         11   -1    0    0    0    0 -0.00000000000E+00 -0.00000000000E+00 -0.45593999997E+02  0.45594000000E+02  0.51100000000E-03 0. -1.
         23    2    1    2    0    0 -0.17763568394E-14  0.00000000000E+00 -0.88817841970E-15  0.91188000000E+02  0.91188000000E+02 0.  0.
    9900012    2    3    3    0    0 -0.12342641214E+02  0.34500312998E+02 -0.36287073650E+01  0.54367083305E+02  0.39999998011E+02 0.  0.
        -12    1    3    3    0    0  0.12342641214E+02 -0.34500312998E+02  0.36287073650E+01  0.36820916695E+02  0.00000000000E+00 0.  1.
         11    1    4    4    0    0 -0.17430692023E+01  0.26716851853E+02 -0.45947183967E+01  0.27165049247E+02  0.51100000000E-03 0. -1.
        -11    1    4    4    0    0 -0.60843644980E+01  0.13831549878E+00  0.11750343518E+02  0.13232883117E+02  0.51100000000E-03 0.  1.
        -12    1    4    4    0    0 -0.45152075135E+01  0.76451456466E+01 -0.10784332487E+02  0.13969150942E+02  0.00000000000E+00 0.  1.
</event>
<event>
 8    1  0.1210161E-006  0.9118800E+02  0.7816164E-02  0.1184000E+00
        -11   -1    0    0    0    0  0.00000000000E+00  0.00000000000E+00  0.45593999997E+02  0.45594000000E+02  0.51100000000E-03 0.  1.
         11   -1    0    0    0    0 -0.00000000000E+00 -0.00000000000E+00 -0.45593999997E+02  0.45594000000E+02  0.51100000000E-03 0. -1.
         23    2    1    2    0    0  0.38857805862E-15  0.00000000000E+00 -0.35527136788E-14  0.91188000000E+02  0.91188000000E+02 0.  0.
    9900012    2    3    3    0    0  0.15989253031E+00 -0.30890877124E+02 -0.20037674430E+02  0.54367078615E+02  0.39999987318E+02 0.  0.
        -12    1    3    3    0    0 -0.15989253031E+00  0.30890877124E+02  0.20037674430E+02  0.36820921385E+02  0.00000000000E+00 0.  1.
         11    1    4    4    0    0  0.94926423959E+01 -0.84797355202E+01 -0.18295108002E+02  0.22287376499E+02  0.51100000000E-03 0. -1.
        -11    1    4    4    0    0 -0.40129795163E+01  0.35070508824E+00  0.61984647106E+01  0.73924261029E+01  0.51100000000E-03 0.  1.
         12    1    4    4    0    0 -0.53197703493E+01 -0.22761846692E+02 -0.79410311380E+01  0.24687276013E+02  0.00000000000E+00 0. -1.
</event>
<event>
 8    1  0.1210161E-006  0.9118800E+02  0.7816164E-02  0.1184000E+00
        -11   -1    0    0    0    0  0.00000000000E+00  0.00000000000E+00  0.45593999997E+02  0.45594000000E+02  0.51100000000E-03 0. -1.
         11   -1    0    0    0    0 -0.00000000000E+00 -0.00000000000E+00 -0.45593999997E+02  0.45594000000E+02  0.51100000000E-03 0.  1.
         23    2    1    2    0    0  0.17763568394E-14  0.00000000000E+00  0.00000000000E+00  0.91188000000E+02  0.91188000000E+02 0.  0.
    9900012    2    3    3    0    0 -0.13309696471E+02 -0.29021229844E+02  0.18341205475E+02  0.54367087191E+02  0.40000006869E+02 0.  0.
        -12    1    3    3    0    0  0.13309696471E+02  0.29021229844E+02 -0.18341205475E+02  0.36820912809E+02  0.00000000000E+00 0.  1.
         11    1    4    4    0    0 -0.24956264237E+01  0.46560437239E+00 -0.33440071054E+01  0.41984904979E+01  0.51100000000E-03 0.  1.
        -11    1    4    4    0    0 -0.17055224508E+02 -0.28130551555E+02  0.62787711187E+01  0.33490768592E+02  0.51100000000E-03 0. -1.
        -12    1    4    4    0    0  0.62411544611E+01 -0.13562826610E+01  0.15406441462E+02  0.16677828102E+02  0.00000000000E+00 0.  1.
</event>
<event>
 8    1  0.1210161E-006  0.9118800E+02  0.7816164E-02  0.1184000E+00
        -11   -1    0    0    0    0  0.00000000000E+00  0.00000000000E+00  0.45593999997E+02  0.45594000000E+02  0.51100000000E-03 0. -1.
         11   -1    0    0    0    0 -0.00000000000E+00 -0.00000000000E+00 -0.45593999997E+02  0.45594000000E+02  0.51100000000E-03 0.  1.
         23    2    1    2    0    0  0.00000000000E+00  0.00000000000E+00  0.00000000000E+00  0.91188000000E+02  0.91188000000E+02 0.  0.
    9900012    2    3    3    0    0 -0.26225965361E+02 -0.14874892523E+02 -0.21135648703E+02  0.54367091092E+02  0.40000015763E+02 0.  0.
         12    1    3    3    0    0  0.26225965361E+02  0.14874892523E+02  0.21135648703E+02  0.36820908908E+02  0.00000000000E+00 0. -1.
         11    1    4    4    0    0  0.20754741384E+01 -0.67829859552E+01 -0.10576775794E+02  0.12735174825E+02  0.51100000000E-03 0.  1.
        -11    1    4    4    0    0 -0.29720611663E+02 -0.14374901041E+02 -0.11823329717E+02  0.35067701142E+02  0.51100000000E-03 0. -1.
         12    1    4    4    0    0  0.14191721634E+01  0.62829944736E+01  0.12644568081E+01  0.65642151247E+01  0.00000000000E+00 0. -1.
</event>
<event>
 8    1  0.1210161E-006  0.9118800E+02  0.7816164E-02  0.1184000E+00
        -11   -1    0    0    0    0  0.00000000000E+00  0.00000000000E+00  0.45593999997E+02  0.45594000000E+02  0.51100000000E-03 0. -1.
         11   -1    0    0    0    0 -0.00000000000E+00 -0.00000000000E+00 -0.45593999997E+02  0.45594000000E+02  0.51100000000E-03 0.  1.
         23    2    1    2    0    0  0.00000000000E+00  0.00000000000E+00  0.00000000000E+00  0.91188000000E+02  0.91188000000E+02 0.  0.
    9900012    2    3    3    0    0  0.19756573400E+02  0.28719799733E+02 -0.11858758887E+02  0.54367092195E+02  0.40000018277E+02 0.  0.
         12    1    3    3    0    0 -0.19756573400E+02 -0.28719799733E+02  0.11858758887E+02  0.36820907805E+02  0.00000000000E+00 0. -1.
         11    1    4    4    0    0 -0.33670451752E+01  0.16628862023E+02 -0.93393899684E+00  0.16992006583E+02  0.51100000000E-03 0. -1.
        -11    1    4    4    0    0  0.26425723154E+02  0.15622019266E+02 -0.10788819998E+02  0.32538668801E+02  0.51100000000E-03 0.  1.
        -12    1    4    4    0    0 -0.33021045784E+01 -0.35310815556E+01 -0.13599989264E+00  0.48364168110E+01  0.00000000000E+00 0.  1.
</event>
<event>
 8    1  0.1210161E-006  0.9118800E+02  0.7816164E-02  0.1184000E+00
        -11   -1    0    0    0    0  0.00000000000E+00  0.00000000000E+00  0.45593999997E+02  0.45594000000E+02  0.51100000000E-03 0. -1.
         11   -1    0    0    0    0 -0.00000000000E+00 -0.00000000000E+00 -0.45593999997E+02  0.45594000000E+02  0.51100000000E-03 0.  1.
         23    2    1    2    0    0  0.00000000000E+00 -0.17763568394E-14  0.00000000000E+00  0.91188000000E+02  0.91188000000E+02 0.  0.
    9900012    2    3    3    0    0  0.31111662615E+02  0.12254549836E+02 -0.15416521189E+02  0.54367100120E+02  0.40000036344E+02 0.  0.
         12    1    3    3    0    0 -0.31111662615E+02 -0.12254549836E+02  0.15416521189E+02  0.36820899880E+02  0.00000000000E+00 0. -1.
         11    1    4    4    0    0  0.12132968497E+02  0.18302936387E+02 -0.86744125070E+01  0.23610417987E+02  0.51100000000E-03 0.  1.
        -11    1    4    4    0    0  0.11617682119E+02 -0.67112665940E+01 -0.14695793653E+02  0.19899195674E+02  0.51100000000E-03 0. -1.
         12    1    4    4    0    0  0.73610119996E+01  0.66288004365E+00  0.79536849704E+01  0.10857486459E+02  0.00000000000E+00 0. -1.
</event>
<event>
 8    1  0.1210161E-006  0.9118800E+02  0.7816164E-02  0.1184000E+00
        -11   -1    0    0    0    0  0.00000000000E+00  0.00000000000E+00  0.45593999997E+02  0.45594000000E+02  0.51100000000E-03 0.  1.
         11   -1    0    0    0    0 -0.00000000000E+00 -0.00000000000E+00 -0.45593999997E+02  0.45594000000E+02  0.51100000000E-03 0. -1.
         23    2    1    2    0    0  0.44408920985E-15  0.00000000000E+00  0.88817841970E-15  0.91188000000E+02  0.91188000000E+02 0.  0.
    9900012    2    3    3    0    0 -0.39304280758E+01 -0.36231689912E+02 -0.52532249029E+01  0.54367082159E+02  0.39999995398E+02 0.  0.
        -12    1    3    3    0    0  0.39304280758E+01  0.36231689912E+02  0.52532249029E+01  0.36820917841E+02  0.00000000000E+00 0.  1.
         11    1    4    4    0    0 -0.34063589045E+01 -0.22201972634E+02 -0.10147478935E+02  0.24647559693E+02  0.51100000000E-03 0. -1.
        -11    1    4    4    0    0 -0.12481517197E+02 -0.10380698813E+02 -0.15932462858E+00  0.16234918047E+02  0.51100000000E-03 0.  1.
         12    1    4    4    0    0  0.11957448026E+02 -0.36490184654E+01  0.50535786609E+01  0.13484604419E+02  0.00000000000E+00 0. -1.
</event>
<event>
 8    1  0.1210161E-006  0.9118800E+02  0.7816164E-02  0.1184000E+00
        -11   -1    0    0    0    0  0.00000000000E+00  0.00000000000E+00  0.45593999997E+02  0.45594000000E+02  0.51100000000E-03 0. -1.
         11   -1    0    0    0    0 -0.00000000000E+00 -0.00000000000E+00 -0.45593999997E+02  0.45594000000E+02  0.51100000000E-03 0.  1.
         23    2    1    2    0    0  0.35527136788E-14  0.17763568394E-14 -0.35527136788E-14  0.91188000000E+02  0.91188000000E+02 0.  0.
    9900012    2    3    3    0    0  0.25409991188E+02 -0.11549363791E+02  0.24015103911E+02  0.54367072906E+02  0.39999974305E+02 0.  0.
        -12    1    3    3    0    0 -0.25409991188E+02  0.11549363791E+02 -0.24015103911E+02  0.36820927094E+02  0.00000000000E+00 0.  1.
         11    1    4    4    0    0  0.17786965805E+02 -0.99050555860E+01  0.20352947809E+02  0.28787649496E+02  0.51100000000E-03 0. -1.
        -11    1    4    4    0    0  0.88349275728E+01  0.80957936066E+01  0.84458912874E+01  0.14660521793E+02  0.51100000000E-03 0.  1.
         12    1    4    4    0    0 -0.12119021903E+01 -0.97401018116E+01 -0.47837351848E+01  0.10918901618E+02  0.00000000000E+00 0. -1.
</event>
<event>
 8    1  0.1210161E-006  0.9118800E+02  0.7816164E-02  0.1184000E+00
        -11   -1    0    0    0    0  0.00000000000E+00  0.00000000000E+00  0.45593999997E+02  0.45594000000E+02  0.51100000000E-03 0. -1.
         11   -1    0    0    0    0 -0.00000000000E+00 -0.00000000000E+00 -0.45593999997E+02  0.45594000000E+02  0.51100000000E-03 0.  1.
         23    2    1    2    0    0  0.17763568394E-14 -0.44408920985E-15  0.00000000000E+00  0.91188000000E+02  0.91188000000E+02 0.  0.
    9900012    2    3    3    0    0  0.11143919407E+02 -0.38224830159E+01 -0.34885248304E+02  0.54367097439E+02  0.40000030232E+02 0.  0.
         12    1    3    3    0    0 -0.11143919407E+02  0.38224830159E+01  0.34885248304E+02  0.36820902561E+02  0.00000000000E+00 0. -1.
         11    1    4    4    0    0 -0.71219551740E+00 -0.26202502180E+01 -0.32753357750E+02  0.32865717363E+02  0.51100000000E-03 0. -1.
        -11    1    4    4    0    0 -0.17131255152E+01  0.42057884873E+01 -0.48490946640E+01  0.66435815004E+01  0.51100000000E-03 0.  1.
         12    1    4    4    0    0  0.13569240440E+02 -0.54080212852E+01  0.27172041099E+01  0.14857798576E+02  0.00000000000E+00 0. -1.
</event>
<event>
 8    1  0.1210161E-006  0.9118800E+02  0.7816164E-02  0.1184000E+00
        -11   -1    0    0    0    0  0.00000000000E+00  0.00000000000E+00  0.45593999997E+02  0.45594000000E+02  0.51100000000E-03 0.  1.
         11   -1    0    0    0    0 -0.00000000000E+00 -0.00000000000E+00 -0.45593999997E+02  0.45594000000E+02  0.51100000000E-03 0. -1.
         23    2    1    2    0    0  0.00000000000E+00 -0.17763568394E-14 -0.35527136788E-14  0.91188000000E+02  0.91188000000E+02 0.  0.
    9900012    2    3    3    0    0 -0.23400203550E+02 -0.10212120501E+02  0.26531540843E+02  0.54367087589E+02  0.40000007777E+02 0.  0.
         12    1    3    3    0    0  0.23400203550E+02  0.10212120501E+02 -0.26531540843E+02  0.36820912411E+02  0.00000000000E+00 0. -1.
         11    1    4    4    0    0 -0.31842393487E+01  0.47829614488E+01  0.27789608204E+01  0.63826893981E+01  0.51100000000E-03 0. -1.
        -11    1    4    4    0    0 -0.59862330063E+01 -0.21370334550E+02  0.35669417777E+01  0.22477750294E+02  0.51100000000E-03 0.  1.
        -12    1    4    4    0    0 -0.14229731195E+02  0.63752526000E+01  0.20185638244E+02  0.25506647897E+02  0.00000000000E+00 0.  1.
</event>
<event>
 8    1  0.1210161E-006  0.9118800E+02  0.7816164E-02  0.1184000E+00
        -11   -1    0    0    0    0  0.00000000000E+00  0.00000000000E+00  0.45593999997E+02  0.45594000000E+02  0.51100000000E-03 0. -1.
         11   -1    0    0    0    0 -0.00000000000E+00 -0.00000000000E+00 -0.45593999997E+02  0.45594000000E+02  0.51100000000E-03 0.  1.
         23    2    1    2    0    0 -0.88817841970E-15  0.88817841970E-15  0.00000000000E+00  0.91188000000E+02  0.91188000000E+02 0.  0.
    9900012    2    3    3    0    0 -0.33836169203E+01  0.69367995590E+01  0.36002949970E+02  0.54367075811E+02  0.39999980926E+02 0.  0.
        -12    1    3    3    0    0  0.33836169203E+01 -0.69367995590E+01 -0.36002949970E+02  0.36820924189E+02  0.00000000000E+00 0.  1.
         11    1    4    4    0    0 -0.93250535409E+01  0.56866839655E+01  0.14627524525E+02  0.18255395697E+02  0.51100000000E-03 0. -1.
        -11    1    4    4    0    0  0.99690181796E+01  0.98314870409E+01  0.22566904877E+02  0.26557572496E+02  0.51100000000E-03 0.  1.
        -12    1    4    4    0    0 -0.40275815590E+01 -0.85813714474E+01 -0.11914794318E+01  0.95541076176E+01  0.00000000000E+00 0.  1.
</event>
<event>
 8    1  0.1210161E-006  0.9118800E+02  0.7816164E-02  0.1184000E+00
        -11   -1    0    0    0    0  0.00000000000E+00  0.00000000000E+00  0.45593999997E+02  0.45594000000E+02  0.51100000000E-03 0.  1.
         11   -1    0    0    0    0 -0.00000000000E+00 -0.00000000000E+00 -0.45593999997E+02  0.45594000000E+02  0.51100000000E-03 0. -1.
         23    2    1    2    0    0  0.00000000000E+00  0.00000000000E+00 -0.66613381478E-15  0.91188000000E+02  0.91188000000E+02 0.  0.
    9900012    2    3    3    0    0  0.36258826851E+02  0.63250803008E+01 -0.10351552502E+01  0.54367072367E+02  0.39999973074E+02 0.  0.
        -12    1    3    3    0    0 -0.36258826851E+02 -0.63250803008E+01  0.10351552502E+01  0.36820927633E+02  0.00000000000E+00 0.  1.
         11    1    4    4    0    0  0.11464627234E+02 -0.11769735276E+02  0.59247766828E+01  0.17466176602E+02  0.51100000000E-03 0. -1.
        -11    1    4    4    0    0  0.26536324592E+02  0.11110470826E+02 -0.37230632242E+01  0.29008279592E+02  0.51100000000E-03 0.  1.
         12    1    4    4    0    0 -0.17421249759E+01  0.69843447502E+01 -0.32368687088E+01  0.78926161733E+01  0.00000000000E+00 0. -1.
</event>
<event>
 8    1  0.1210161E-006  0.9118800E+02  0.7816164E-02  0.1184000E+00
        -11   -1    0    0    0    0  0.00000000000E+00  0.00000000000E+00  0.45593999997E+02  0.45594000000E+02  0.51100000000E-03 0.  1.
         11   -1    0    0    0    0 -0.00000000000E+00 -0.00000000000E+00 -0.45593999997E+02  0.45594000000E+02  0.51100000000E-03 0. -1.
         23    2    1    2    0    0 -0.88817841970E-15  0.00000000000E+00  0.00000000000E+00  0.91188000000E+02  0.91188000000E+02 0.  0.
    9900012    2    3    3    0    0 -0.48921921348E+01 -0.69848920014E+01 -0.35819789717E+02  0.54367087524E+02  0.40000007629E+02 0.  0.
        -12    1    3    3    0    0  0.48921921348E+01  0.69848920014E+01  0.35819789717E+02  0.36820912476E+02  0.00000000000E+00 0.  1.
         11    1    4    4    0    0 -0.85210815657E+01 -0.34624189689E+01 -0.35783409992E+02  0.36946577745E+02  0.51100000000E-03 0. -1.
        -11    1    4    4    0    0 -0.58724165961E+00 -0.70918629912E+01 -0.59879897747E+01  0.93002900630E+01  0.51100000000E-03 0.  1.
        -12    1    4    4    0    0  0.42161310905E+01  0.35693899587E+01  0.59516100497E+01  0.81202197159E+01  0.00000000000E+00 0.  1.
</event>
<event>
 8    1  0.1210161E-006  0.9118800E+02  0.7816164E-02  0.1184000E+00
        -11   -1    0    0    0    0  0.00000000000E+00  0.00000000000E+00  0.45593999997E+02  0.45594000000E+02  0.51100000000E-03 0.  1.
         11   -1    0    0    0    0 -0.00000000000E+00 -0.00000000000E+00 -0.45593999997E+02  0.45594000000E+02  0.51100000000E-03 0. -1.
         23    2    1    2    0    0 -0.35527136788E-14  0.00000000000E+00 -0.35527136788E-14  0.91188000000E+02  0.91188000000E+02 0.  0.
    9900012    2    3    3    0    0 -0.16986567184E+02 -0.22392258755E+02  0.23787000441E+02  0.54367107740E+02  0.40000053715E+02 0.  0.
         12    1    3    3    0    0  0.16986567184E+02  0.22392258755E+02 -0.23787000441E+02  0.36820892260E+02  0.00000000000E+00 0. -1.
         11    1    4    4    0    0 -0.13892976358E+01 -0.27426068494E+01  0.48196567585E+01  0.57167413604E+01  0.51100000000E-03 0. -1.
        -11    1    4    4    0    0  0.73361896604E+01 -0.20256156820E+02  0.63096745684E+01  0.22448687295E+02  0.51100000000E-03 0.  1.
         12    1    4    4    0    0 -0.22933459208E+02  0.60650491442E+00  0.12657669114E+02  0.26201679085E+02  0.00000000000E+00 0. -1.
</event>
<event>
 8    1  0.1210161E-006  0.9118800E+02  0.7816164E-02  0.1184000E+00
        -11   -1    0    0    0    0  0.00000000000E+00  0.00000000000E+00  0.45593999997E+02  0.45594000000E+02  0.51100000000E-03 0. -1.
         11   -1    0    0    0    0 -0.00000000000E+00 -0.00000000000E+00 -0.45593999997E+02  0.45594000000E+02  0.51100000000E-03 0.  1.
         23    2    1    2    0    0  0.00000000000E+00  0.88817841970E-15  0.00000000000E+00  0.91188000000E+02  0.91188000000E+02 0.  0.
    9900012    2    3    3    0    0  0.20970845915E+02 -0.76653703699E+01  0.29278758931E+02  0.54367081953E+02  0.39999994928E+02 0.  0.
        -12    1    3    3    0    0 -0.20970845915E+02  0.76653703699E+01 -0.29278758931E+02  0.36820918047E+02  0.00000000000E+00 0.  1.
         11    1    4    4    0    0  0.30926894347E+02 -0.14276722861E+01  0.19631325787E+02  0.36659241598E+02  0.51100000000E-03 0. -1.
        -11    1    4    4    0    0 -0.26711297333E+01  0.38311816062E-02  0.73827209121E+01  0.78510838142E+01  0.51100000000E-03 0.  1.
         12    1    4    4    0    0 -0.72849186986E+01 -0.62415292655E+01  0.22647122315E+01  0.98567565410E+01  0.00000000000E+00 0. -1.
</event>
<event>
 8    1  0.1210161E-006  0.9118800E+02  0.7816164E-02  0.1184000E+00
        -11   -1    0    0    0    0  0.00000000000E+00  0.00000000000E+00  0.45593999997E+02  0.45594000000E+02  0.51100000000E-03 0.  1.
         11   -1    0    0    0    0 -0.00000000000E+00 -0.00000000000E+00 -0.45593999997E+02  0.45594000000E+02  0.51100000000E-03 0. -1.
         23    2    1    2    0    0 -0.88817841970E-15  0.00000000000E+00  0.17763568394E-14  0.91188000000E+02  0.91188000000E+02 0.  0.
    9900012    2    3    3    0    0 -0.65798051862E+01  0.32844538231E+02  0.15287980518E+02  0.54367083713E+02  0.39999998940E+02 0.  0.
         12    1    3    3    0    0  0.65798051862E+01 -0.32844538231E+02 -0.15287980518E+02  0.36820916287E+02  0.00000000000E+00 0. -1.
         11    1    4    4    0    0 -0.35622880065E+01  0.33007085929E+01  0.18389960740E+01  0.51929259457E+01  0.51100000000E-03 0. -1.
        -11    1    4    4    0    0 -0.12292448936E+02  0.31678391423E+02  0.16564383124E+01  0.34020120108E+02  0.51100000000E-03 0.  1.
        -12    1    4    4    0    0  0.92749317564E+01 -0.21345617850E+01  0.11792546132E+02  0.15154037659E+02  0.00000000000E+00 0.  1.
</event>
<event>
 8    1  0.1210161E-006  0.9118800E+02  0.7816164E-02  0.1184000E+00
        -11   -1    0    0    0    0  0.00000000000E+00  0.00000000000E+00  0.45593999997E+02  0.45594000000E+02  0.51100000000E-03 0. -1.
         11   -1    0    0    0    0 -0.00000000000E+00 -0.00000000000E+00 -0.45593999997E+02  0.45594000000E+02  0.51100000000E-03 0.  1.
         23    2    1    2    0    0  0.35527136788E-14  0.35527136788E-14 -0.11102230246E-15  0.91188000000E+02  0.91188000000E+02 0.  0.
    9900012    2    3    3    0    0  0.22735970674E+02  0.28949140953E+02  0.89613795097E+00  0.54367079484E+02  0.39999989300E+02 0.  0.
         12    1    3    3    0    0 -0.22735970674E+02 -0.28949140953E+02 -0.89613795097E+00  0.36820920516E+02  0.00000000000E+00 0. -1.
         11    1    4    4    0    0  0.70640667422E+01  0.29348136735E+02  0.71619713628E+01  0.31024313091E+02  0.51100000000E-03 0. -1.
        -11    1    4    4    0    0  0.92769466870E+01  0.59663067558E+01 -0.86420061530E+01  0.14012238463E+02  0.51100000000E-03 0.  1.
        -12    1    4    4    0    0  0.63949572447E+01 -0.63653025374E+01  0.23761727412E+01  0.93305279298E+01  0.00000000000E+00 0.  1.
</event>
<event>
 8    1  0.1210161E-006  0.9118800E+02  0.7816164E-02  0.1184000E+00
        -11   -1    0    0    0    0  0.00000000000E+00  0.00000000000E+00  0.45593999997E+02  0.45594000000E+02  0.51100000000E-03 0.  1.
         11   -1    0    0    0    0 -0.00000000000E+00 -0.00000000000E+00 -0.45593999997E+02  0.45594000000E+02  0.51100000000E-03 0. -1.
         23    2    1    2    0    0  0.17763568394E-14  0.00000000000E+00  0.00000000000E+00  0.91188000000E+02  0.91188000000E+02 0.  0.
    9900012    2    3    3    0    0 -0.94485696311E+01  0.97052185855E+01 -0.34239043836E+02  0.54367097531E+02  0.40000030441E+02 0.  0.
        -12    1    3    3    0    0  0.94485696311E+01 -0.97052185855E+01  0.34239043836E+02  0.36820902469E+02  0.00000000000E+00 0.  1.
         11    1    4    4    0    0 -0.91505080821E+01  0.14927895967E+02 -0.28635039960E+02  0.33563959687E+02  0.51100000000E-03 0. -1.
        -11    1    4    4    0    0  0.74505046467E+01  0.74671508835E+00  0.27127111266E+01  0.79640696149E+01  0.51100000000E-03 0.  1.
         12    1    4    4    0    0 -0.77485661956E+01 -0.59693924694E+01 -0.83167150027E+01  0.12839068229E+02  0.00000000000E+00 0. -1.
</event>
<event>
 8    1  0.1210161E-006  0.9118800E+02  0.7816164E-02  0.1184000E+00
        -11   -1    0    0    0    0  0.00000000000E+00  0.00000000000E+00  0.45593999997E+02  0.45594000000E+02  0.51100000000E-03 0. -1.
         11   -1    0    0    0    0 -0.00000000000E+00 -0.00000000000E+00 -0.45593999997E+02  0.45594000000E+02  0.51100000000E-03 0.  1.
         23    2    1    2    0    0  0.00000000000E+00  0.00000000000E+00 -0.35527136788E-14  0.91188000000E+02  0.91188000000E+02 0.  0.
    9900012    2    3    3    0    0 -0.24284098806E+02  0.19964875927E+02  0.19169391804E+02  0.54367091432E+02  0.40000016538E+02 0.  0.
         12    1    3    3    0    0  0.24284098806E+02 -0.19964875927E+02 -0.19169391804E+02  0.36820908568E+02  0.00000000000E+00 0. -1.
         11    1    4    4    0    0  0.35187132129E+01 -0.41829557455E+01  0.70563798056E+01  0.89258589315E+01  0.51100000000E-03 0. -1.
        -11    1    4    4    0    0  0.42325212444E+01  0.21982073876E+01  0.23693679486E-01  0.47693724382E+01  0.51100000000E-03 0.  1.
        -12    1    4    4    0    0 -0.32035333263E+02  0.21949624285E+02  0.12089318319E+02  0.40671860063E+02  0.00000000000E+00 0.  1.
</event>
<event>
 8    1  0.1210161E-006  0.9118800E+02  0.7816164E-02  0.1184000E+00
        -11   -1    0    0    0    0  0.00000000000E+00  0.00000000000E+00  0.45593999997E+02  0.45594000000E+02  0.51100000000E-03 0.  1.
         11   -1    0    0    0    0 -0.00000000000E+00 -0.00000000000E+00 -0.45593999997E+02  0.45594000000E+02  0.51100000000E-03 0. -1.
         23    2    1    2    0    0  0.00000000000E+00  0.00000000000E+00  0.35527136788E-14  0.91188000000E+02  0.91188000000E+02 0.  0.
    9900012    2    3    3    0    0 -0.31079364731E+02 -0.11118853028E+02  0.16316395643E+02  0.54367074272E+02  0.39999977417E+02 0.  0.
         12    1    3    3    0    0  0.31079364731E+02  0.11118853028E+02 -0.16316395643E+02  0.36820925728E+02  0.00000000000E+00 0. -1.
         11    1    4    4    0    0 -0.12127274683E+02  0.14042711012E+01 -0.58690853092E+01  0.13545808621E+02  0.51100000000E-03 0. -1.
        -11    1    4    4    0    0 -0.13946429238E+02 -0.24679490758E+01  0.25448891192E+02  0.29124555349E+02  0.51100000000E-03 0.  1.
        -12    1    4    4    0    0 -0.50056608101E+01 -0.10055175053E+02 -0.32634102400E+01  0.11696710302E+02  0.00000000000E+00 0.  1.
</event>
<event>
 8    1  0.1210161E-006  0.9118800E+02  0.7816164E-02  0.1184000E+00
        -11   -1    0    0    0    0  0.00000000000E+00  0.00000000000E+00  0.45593999997E+02  0.45594000000E+02  0.51100000000E-03 0.  1.
         11   -1    0    0    0    0 -0.00000000000E+00 -0.00000000000E+00 -0.45593999997E+02  0.45594000000E+02  0.51100000000E-03 0. -1.
         23    2    1    2    0    0  0.00000000000E+00 -0.97144514655E-16 -0.35527136788E-14  0.91188000000E+02  0.91188000000E+02 0.  0.
    9900012    2    3    3    0    0  0.20263689648E+02  0.12490538180E+00  0.30743260694E+02  0.54367071201E+02  0.39999970417E+02 0.  0.
         12    1    3    3    0    0 -0.20263689648E+02 -0.12490538180E+00 -0.30743260694E+02  0.36820928799E+02  0.00000000000E+00 0. -1.
         11    1    4    4    0    0  0.58995252771E+01  0.47843063640E+01  0.32272505490E+02  0.33154314904E+02  0.51100000000E-03 0. -1.
        -11    1    4    4    0    0  0.14891972686E+02 -0.14365746719E+01 -0.56168866439E+01  0.15980738816E+02  0.51100000000E-03 0.  1.
        -12    1    4    4    0    0 -0.52780831546E+00 -0.32228263103E+01  0.40876418477E+01  0.52320174808E+01  0.00000000000E+00 0.  1.
</event>
<event>
 8    1  0.1210161E-006  0.9118800E+02  0.7816164E-02  0.1184000E+00
        -11   -1    0    0    0    0  0.00000000000E+00  0.00000000000E+00  0.45593999997E+02  0.45594000000E+02  0.51100000000E-03 0. -1.
         11   -1    0    0    0    0 -0.00000000000E+00 -0.00000000000E+00 -0.45593999997E+02  0.45594000000E+02  0.51100000000E-03 0.  1.
         23    2    1    2    0    0  0.00000000000E+00  0.00000000000E+00  0.35527136788E-14  0.91188000000E+02  0.91188000000E+02 0.  0.
    9900012    2    3    3    0    0  0.18618352646E+02 -0.25038242056E+02 -0.19550510509E+02  0.54367094502E+02  0.40000023537E+02 0.  0.
         12    1    3    3    0    0 -0.18618352646E+02  0.25038242056E+02  0.19550510509E+02  0.36820905498E+02  0.00000000000E+00 0. -1.
         11    1    4    4    0    0  0.26581920335E+01 -0.22252562781E+01  0.27289460359E+01  0.44119040241E+01  0.51100000000E-03 0. -1.
        -11    1    4    4    0    0  0.18576631057E+02 -0.11104076051E+01  0.18449414515E+00  0.18610702964E+02  0.51100000000E-03 0.  1.
         12    1    4    4    0    0 -0.26164704444E+01 -0.21702578173E+02 -0.22463950690E+02  0.31344487514E+02  0.00000000000E+00 0. -1.
</event>
<event>
 8    1  0.1210161E-006  0.9118800E+02  0.7816164E-02  0.1184000E+00
        -11   -1    0    0    0    0  0.00000000000E+00  0.00000000000E+00  0.45593999997E+02  0.45594000000E+02  0.51100000000E-03 0. -1.
         11   -1    0    0    0    0 -0.00000000000E+00 -0.00000000000E+00 -0.45593999997E+02  0.45594000000E+02  0.51100000000E-03 0.  1.
         23    2    1    2    0    0  0.00000000000E+00  0.00000000000E+00  0.00000000000E+00  0.91188000000E+02  0.91188000000E+02 0.  0.
    9900012    2    3    3    0    0  0.80923560737E+01 -0.90912775734E+01  0.34751144350E+02  0.54367087622E+02  0.40000007851E+02 0.  0.
        -12    1    3    3    0    0 -0.80923560737E+01  0.90912775734E+01 -0.34751144350E+02  0.36820912378E+02  0.00000000000E+00 0.  1.
         11    1    4    4    0    0 -0.42598638427E+01 -0.11987981717E+02  0.91649221604E+01  0.15679730357E+02  0.51100000000E-03 0. -1.
        -11    1    4    4    0    0  0.15109284047E+02 -0.39582522238E+01  0.26973764343E+02  0.31169571511E+02  0.51100000000E-03 0.  1.
        -12    1    4    4    0    0 -0.27570641304E+01  0.68549563674E+01 -0.13875421532E+01  0.75177857541E+01  0.00000000000E+00 0.  1.
</event>
<event>
 8    1  0.1210161E-006  0.9118800E+02  0.7816164E-02  0.1184000E+00
        -11   -1    0    0    0    0  0.00000000000E+00  0.00000000000E+00  0.45593999997E+02  0.45594000000E+02  0.51100000000E-03 0. -1.
         11   -1    0    0    0    0 -0.00000000000E+00 -0.00000000000E+00 -0.45593999997E+02  0.45594000000E+02  0.51100000000E-03 0.  1.
         23    2    1    2    0    0 -0.17763568394E-14  0.35527136788E-14  0.00000000000E+00  0.91188000000E+02  0.91188000000E+02 0.  0.
    9900012    2    3    3    0    0 -0.13249530630E+02  0.31660439187E+02  0.13335914373E+02  0.54367080897E+02  0.39999992522E+02 0.  0.
         12    1    3    3    0    0  0.13249530630E+02 -0.31660439187E+02 -0.13335914373E+02  0.36820919103E+02  0.00000000000E+00 0. -1.
         11    1    4    4    0    0 -0.15382300367E+02  0.29405530737E+02 -0.57306640498E+00  0.33190794023E+02  0.51100000000E-03 0. -1.
        -11    1    4    4    0    0 -0.29996818974E+01  0.77992452528E+01  0.64133900929E+01  0.10533655146E+02  0.51100000000E-03 0.  1.
         12    1    4    4    0    0  0.51324516346E+01 -0.55443368035E+01  0.74955906851E+01  0.10642631728E+02  0.00000000000E+00 0. -1.
</event>
<event>
 8    1  0.1210161E-006  0.9118800E+02  0.7816164E-02  0.1184000E+00
        -11   -1    0    0    0    0  0.00000000000E+00  0.00000000000E+00  0.45593999997E+02  0.45594000000E+02  0.51100000000E-03 0. -1.
         11   -1    0    0    0    0 -0.00000000000E+00 -0.00000000000E+00 -0.45593999997E+02  0.45594000000E+02  0.51100000000E-03 0.  1.
         23    2    1    2    0    0  0.88817841970E-15 -0.35527136788E-14  0.00000000000E+00  0.91188000000E+02  0.91188000000E+02 0.  0.
    9900012    2    3    3    0    0  0.65606847404E+01  0.24172690692E+02 -0.26989218423E+02  0.54367089220E+02  0.40000011496E+02 0.  0.
         12    1    3    3    0    0 -0.65606847404E+01 -0.24172690692E+02  0.26989218423E+02  0.36820910780E+02  0.00000000000E+00 0. -1.
         11    1    4    4    0    0 -0.40205015710E+01 -0.54605710104E+01  0.69703255064E+00  0.68167531333E+01  0.51100000000E-03 0. -1.
        -11    1    4    4    0    0  0.36429985379E+01  0.23861411019E+02 -0.72392347442E+01  0.25200097105E+02  0.51100000000E-03 0.  1.
         12    1    4    4    0    0  0.69381877735E+01  0.57718506840E+01 -0.20447016229E+02  0.22350238982E+02  0.00000000000E+00 0. -1.
</event>
<event>
 8    1  0.1210161E-006  0.9118800E+02  0.7816164E-02  0.1184000E+00
        -11   -1    0    0    0    0  0.00000000000E+00  0.00000000000E+00  0.45593999997E+02  0.45594000000E+02  0.51100000000E-03 0.  1.
         11   -1    0    0    0    0 -0.00000000000E+00 -0.00000000000E+00 -0.45593999997E+02  0.45594000000E+02  0.51100000000E-03 0. -1.
         23    2    1    2    0    0  0.71054273576E-14 -0.88817841970E-15  0.17763568394E-14  0.91188000000E+02  0.91188000000E+02 0.  0.
    9900012    2    3    3    0    0  0.32890591600E+02 -0.60823165735E+01  0.15394825006E+02  0.54366997465E+02  0.39999802320E+02 0.  0.
         12    1    3    3    0    0 -0.32890591600E+02  0.60823165735E+01 -0.15394825006E+02  0.36821002535E+02  0.00000000000E+00 0. -1.
         11    1    4    4    0    0  0.13559168975E+02  0.10953367564E+02 -0.66948031835E+01  0.18672110598E+02  0.51100000000E-03 0. -1.
        -11    1    4    4    0    0  0.15872571217E+02 -0.12382846744E+02  0.22103650413E+02  0.29897236868E+02  0.51100000000E-03 0.  1.
         12    1    4    4    0    0  0.34588514094E+01 -0.46528373929E+01 -0.14022223779E-01  0.57976499981E+01  0.00000000000E+00 0. -1.
</event>
<event>
 8    1  0.1210161E-006  0.9118800E+02  0.7816164E-02  0.1184000E+00
        -11   -1    0    0    0    0  0.00000000000E+00  0.00000000000E+00  0.45593999997E+02  0.45594000000E+02  0.51100000000E-03 0. -1.
         11   -1    0    0    0    0 -0.00000000000E+00 -0.00000000000E+00 -0.45593999997E+02  0.45594000000E+02  0.51100000000E-03 0.  1.
         23    2    1    2    0    0  0.00000000000E+00  0.00000000000E+00  0.35527136788E-14  0.91188000000E+02  0.91188000000E+02 0.  0.
    9900012    2    3    3    0    0 -0.18114108275E+02  0.17362785837E+02 -0.26947983383E+02  0.54367067651E+02  0.39999962324E+02 0.  0.
         12    1    3    3    0    0  0.18114108275E+02 -0.17362785837E+02  0.26947983383E+02  0.36820932349E+02  0.00000000000E+00 0. -1.
         11    1    4    4    0    0 -0.24473555920E+00  0.98873693346E+00  0.36895600856E+01  0.38275775765E+01  0.51100000000E-03 0. -1.
        -11    1    4    4    0    0 -0.53915800178E+01  0.15083519779E+02 -0.33972455833E+02  0.37559412397E+02  0.51100000000E-03 0.  1.
        -12    1    4    4    0    0 -0.12477792698E+02  0.12905291241E+01  0.33349123646E+01  0.12980077678E+02  0.00000000000E+00 0.  1.
</event>
<event>
 8    1  0.1210161E-006  0.9118800E+02  0.7816164E-02  0.1184000E+00
        -11   -1    0    0    0    0  0.00000000000E+00  0.00000000000E+00  0.45593999997E+02  0.45594000000E+02  0.51100000000E-03 0.  1.
         11   -1    0    0    0    0 -0.00000000000E+00 -0.00000000000E+00 -0.45593999997E+02  0.45594000000E+02  0.51100000000E-03 0. -1.
         23    2    1    2    0    0  0.00000000000E+00 -0.35527136788E-14  0.00000000000E+00  0.91188000000E+02  0.91188000000E+02 0.  0.
    9900012    2    3    3    0    0 -0.19979652405E+02  0.29818573211E+02  0.82125519046E+01  0.54367084377E+02  0.40000000453E+02 0.  0.
        -12    1    3    3    0    0  0.19979652405E+02 -0.29818573211E+02 -0.82125519046E+01  0.36820915623E+02  0.00000000000E+00 0.  1.
         11    1    4    4    0    0 -0.15972350039E+02  0.35393526014E+02 -0.12971535790E+01  0.38852287670E+02  0.51100000000E-03 0. -1.
        -11    1    4    4    0    0  0.28543239861E+01 -0.34614185428E+01  0.14365361167E+01  0.47108619192E+01  0.51100000000E-03 0.  1.
         12    1    4    4    0    0 -0.68616263525E+01 -0.21135342607E+01  0.80731693669E+01  0.10803934788E+02  0.00000000000E+00 0. -1.
</event>
<event>
 8    1  0.1210161E-006  0.9118800E+02  0.7816164E-02  0.1184000E+00
        -11   -1    0    0    0    0  0.00000000000E+00  0.00000000000E+00  0.45593999997E+02  0.45594000000E+02  0.51100000000E-03 0. -1.
         11   -1    0    0    0    0 -0.00000000000E+00 -0.00000000000E+00 -0.45593999997E+02  0.45594000000E+02  0.51100000000E-03 0.  1.
         23    2    1    2    0    0  0.00000000000E+00  0.00000000000E+00  0.00000000000E+00  0.91188000000E+02  0.91188000000E+02 0.  0.
    9900012    2    3    3    0    0 -0.71786203584E+01 -0.22180559140E+02  0.28500355904E+02  0.54367080937E+02  0.39999992612E+02 0.  0.
        -12    1    3    3    0    0  0.71786203584E+01  0.22180559140E+02 -0.28500355904E+02  0.36820919063E+02  0.00000000000E+00 0.  1.
         11    1    4    4    0    0 -0.19605380015E+02 -0.20483841684E+02  0.27278470075E+02  0.39345566784E+02  0.51100000000E-03 0. -1.
        -11    1    4    4    0    0  0.18798940535E+01  0.28616681296E+01 -0.27353797034E+00  0.34348172322E+01  0.51100000000E-03 0.  1.
        -12    1    4    4    0    0  0.10546865603E+02 -0.45583855852E+01  0.14954237990E+01  0.11586696920E+02  0.00000000000E+00 0.  1.
</event>
<event>
 8    1  0.1210161E-006  0.9118800E+02  0.7816164E-02  0.1184000E+00
        -11   -1    0    0    0    0  0.00000000000E+00  0.00000000000E+00  0.45593999997E+02  0.45594000000E+02  0.51100000000E-03 0. -1.
         11   -1    0    0    0    0 -0.00000000000E+00 -0.00000000000E+00 -0.45593999997E+02  0.45594000000E+02  0.51100000000E-03 0.  1.
         23    2    1    2    0    0  0.44408920985E-15  0.22204460493E-15  0.71054273576E-14  0.91188000000E+02  0.91188000000E+02 0.  0.
    9900012    2    3    3    0    0 -0.27663349963E+01  0.15351308541E+01  0.36684753537E+02  0.54367076898E+02  0.39999983404E+02 0.  0.
        -12    1    3    3    0    0  0.27663349963E+01 -0.15351308541E+01 -0.36684753537E+02  0.36820923102E+02  0.00000000000E+00 0.  1.
         11    1    4    4    0    0 -0.17370783183E+02 -0.16750179856E+01  0.22777313244E+02  0.28694176979E+02  0.51100000000E-03 0. -1.
        -11    1    4    4    0    0 -0.23709451824E+01  0.33136104457E+01  0.51638378323E+01  0.65777364391E+01  0.51100000000E-03 0.  1.
         12    1    4    4    0    0  0.16975393369E+02 -0.10346160602E+00  0.87436024604E+01  0.19095163479E+02  0.00000000000E+00 0. -1.
</event>
<event>
 8    1  0.1210161E-006  0.9118800E+02  0.7816164E-02  0.1184000E+00
        -11   -1    0    0    0    0  0.00000000000E+00  0.00000000000E+00  0.45593999997E+02  0.45594000000E+02  0.51100000000E-03 0.  1.
         11   -1    0    0    0    0 -0.00000000000E+00 -0.00000000000E+00 -0.45593999997E+02  0.45594000000E+02  0.51100000000E-03 0. -1.
         23    2    1    2    0    0  0.00000000000E+00  0.00000000000E+00  0.00000000000E+00  0.91188000000E+02  0.91188000000E+02 0.  0.
    9900012    2    3    3    0    0  0.17412682677E+02  0.26087100078E+02  0.19288372851E+02  0.54367086979E+02  0.40000006386E+02 0.  0.
         12    1    3    3    0    0 -0.17412682677E+02 -0.26087100078E+02 -0.19288372851E+02  0.36820913021E+02  0.00000000000E+00 0. -1.
         11    1    4    4    0    0 -0.39507285127E+01  0.21963506446E+02 -0.21707297683E+01  0.22421327774E+02  0.51100000000E-03 0. -1.
        -11    1    4    4    0    0  0.16817956212E+02  0.67633346176E+01  0.18557898623E+02  0.25941895611E+02  0.51100000000E-03 0.  1.
        -12    1    4    4    0    0  0.45454549777E+01 -0.26397409858E+01  0.29012039957E+01  0.60038635937E+01  0.00000000000E+00 0.  1.
</event>
<event>
 8    1  0.1210161E-006  0.9118800E+02  0.7816164E-02  0.1184000E+00
        -11   -1    0    0    0    0  0.00000000000E+00  0.00000000000E+00  0.45593999997E+02  0.45594000000E+02  0.51100000000E-03 0.  1.
         11   -1    0    0    0    0 -0.00000000000E+00 -0.00000000000E+00 -0.45593999997E+02  0.45594000000E+02  0.51100000000E-03 0. -1.
         23    2    1    2    0    0 -0.35527136788E-14 -0.35527136788E-14 -0.66613381478E-15  0.91188000000E+02  0.91188000000E+02 0.  0.
    9900012    2    3    3    0    0 -0.23492058454E+02 -0.28302320261E+02 -0.16983434611E+01  0.54367047907E+02  0.39999917312E+02 0.  0.
        -12    1    3    3    0    0  0.23492058454E+02  0.28302320261E+02  0.16983434611E+01  0.36820952093E+02  0.00000000000E+00 0.  1.
         11    1    4    4    0    0 -0.73493381752E+01 -0.29344732560E+01 -0.60921217136E+01  0.99868840055E+01  0.51100000000E-03 0. -1.
        -11    1    4    4    0    0  0.63316885815E+01  0.13300044899E+01 -0.50721871152E+01  0.82210871927E+01  0.51100000000E-03 0.  1.
        -12    1    4    4    0    0 -0.22474408860E+02 -0.26697851495E+02  0.94659653677E+01  0.36159076708E+02  0.00000000000E+00 0.  1.
</event>
<event>
 8    1  0.1210161E-006  0.9118800E+02  0.7816164E-02  0.1184000E+00
        -11   -1    0    0    0    0  0.00000000000E+00  0.00000000000E+00  0.45593999997E+02  0.45594000000E+02  0.51100000000E-03 0.  1.
         11   -1    0    0    0    0 -0.00000000000E+00 -0.00000000000E+00 -0.45593999997E+02  0.45594000000E+02  0.51100000000E-03 0. -1.
         23    2    1    2    0    0  0.84654505628E-15 -0.71054273576E-14  0.35527136788E-14  0.91188000000E+02  0.91188000000E+02 0.  0.
    9900012    2    3    3    0    0  0.46056590362E-01 -0.35526840887E+02  0.96757953234E+01  0.54367088010E+02  0.40000008737E+02 0.  0.
         12    1    3    3    0    0 -0.46056590362E-01  0.35526840887E+02 -0.96757953234E+01  0.36820911990E+02  0.00000000000E+00 0. -1.
         11    1    4    4    0    0 -0.81671691686E+01  0.21142633232E+01 -0.36418083318E+01  0.91888807706E+01  0.51100000000E-03 0. -1.
        -11    1    4    4    0    0 -0.14688526282E+01  0.10370593098E+01 -0.17930667205E+01  0.25393126198E+01  0.51100000000E-03 0.  1.
        -12    1    4    4    0    0  0.96820783872E+01 -0.38678163520E+02  0.15110670376E+02  0.42638894620E+02  0.00000000000E+00 0.  1.
</event>
<event>
 8    1  0.1210161E-006  0.9118800E+02  0.7816164E-02  0.1184000E+00
        -11   -1    0    0    0    0  0.00000000000E+00  0.00000000000E+00  0.45593999997E+02  0.45594000000E+02  0.51100000000E-03 0.  1.
         11   -1    0    0    0    0 -0.00000000000E+00 -0.00000000000E+00 -0.45593999997E+02  0.45594000000E+02  0.51100000000E-03 0. -1.
         23    2    1    2    0    0  0.00000000000E+00  0.00000000000E+00  0.00000000000E+00  0.91188000000E+02  0.91188000000E+02 0.  0.
    9900012    2    3    3    0    0  0.27954480893E+02 -0.50988671985E+01  0.23416413796E+02  0.54367083611E+02  0.39999998707E+02 0.  0.
         12    1    3    3    0    0 -0.27954480893E+02  0.50988671985E+01 -0.23416413796E+02  0.36820916389E+02  0.00000000000E+00 0. -1.
         11    1    4    4    0    0  0.33173350684E+01 -0.58112406853E+01  0.19886352443E+02  0.20981950434E+02  0.51100000000E-03 0. -1.
        -11    1    4    4    0    0  0.37131533225E+01 -0.92539117002E+01  0.19093952399E+01  0.10152249987E+02  0.51100000000E-03 0.  1.
        -12    1    4    4    0    0  0.20923992502E+02  0.99662851869E+01  0.16206661125E+01  0.23232883190E+02  0.00000000000E+00 0.  1.
</event>
<event>
 8    1  0.1210161E-006  0.9118800E+02  0.7816164E-02  0.1184000E+00
        -11   -1    0    0    0    0  0.00000000000E+00  0.00000000000E+00  0.45593999997E+02  0.45594000000E+02  0.51100000000E-03 0.  1.
         11   -1    0    0    0    0 -0.00000000000E+00 -0.00000000000E+00 -0.45593999997E+02  0.45594000000E+02  0.51100000000E-03 0. -1.
         23    2    1    2    0    0  0.00000000000E+00 -0.19428902931E-14  0.35527136788E-14  0.91188000000E+02  0.91188000000E+02 0.  0.
    9900012    2    3    3    0    0  0.27600967017E+02  0.38363928160E+00 -0.24368410004E+02  0.54367082501E+02  0.39999996177E+02 0.  0.
        -12    1    3    3    0    0 -0.27600967017E+02 -0.38363928160E+00  0.24368410004E+02  0.36820917499E+02  0.00000000000E+00 0.  1.
         11    1    4    4    0    0  0.68088997597E+01  0.82362216164E+00 -0.41744536746E+01  0.80290431028E+01  0.51100000000E-03 0. -1.
        -11    1    4    4    0    0 -0.20189366461E+00  0.15374220122E+02 -0.63973397512E+01  0.16653328843E+02  0.51100000000E-03 0.  1.
        -12    1    4    4    0    0  0.20993960922E+02 -0.15814203002E+02 -0.13796616578E+02  0.29684710555E+02  0.00000000000E+00 0.  1.
</event>
<event>
 8    1  0.1210161E-006  0.9118800E+02  0.7816164E-02  0.1184000E+00
        -11   -1    0    0    0    0  0.00000000000E+00  0.00000000000E+00  0.45593999997E+02  0.45594000000E+02  0.51100000000E-03 0.  1.
         11   -1    0    0    0    0 -0.00000000000E+00 -0.00000000000E+00 -0.45593999997E+02  0.45594000000E+02  0.51100000000E-03 0. -1.
         23    2    1    2    0    0  0.00000000000E+00  0.35527136788E-14  0.00000000000E+00  0.91188000000E+02  0.91188000000E+02 0.  0.
    9900012    2    3    3    0    0 -0.22409585181E+02  0.28692274250E+02 -0.55085052504E+01  0.54367085567E+02  0.40000003166E+02 0.  0.
         12    1    3    3    0    0  0.22409585181E+02 -0.28692274250E+02  0.55085052504E+01  0.36820914433E+02  0.00000000000E+00 0. -1.
         11    1    4    4    0    0 -0.10388637003E+02  0.41804809842E+01  0.74043526609E+01  0.13424777042E+02  0.51100000000E-03 0. -1.
        -11    1    4    4    0    0 -0.40114388597E+01  0.24928832004E+02  0.56812449180E+00  0.25255911635E+02  0.51100000000E-03 0.  1.
        -12    1    4    4    0    0 -0.80095093191E+01 -0.41703873850E+00 -0.13480982403E+02  0.15686396890E+02  0.00000000000E+00 0.  1.
</event>
<event>
 8    1  0.1210161E-006  0.9118800E+02  0.7816164E-02  0.1184000E+00
        -11   -1    0    0    0    0  0.00000000000E+00  0.00000000000E+00  0.45593999997E+02  0.45594000000E+02  0.51100000000E-03 0. -1.
         11   -1    0    0    0    0 -0.00000000000E+00 -0.00000000000E+00 -0.45593999997E+02  0.45594000000E+02  0.51100000000E-03 0.  1.
         23    2    1    2    0    0  0.00000000000E+00  0.00000000000E+00  0.00000000000E+00  0.91188000000E+02  0.91188000000E+02 0.  0.
    9900012    2    3    3    0    0 -0.14151372911E+02  0.63741674064E+01 -0.33389933606E+02  0.54367095182E+02  0.40000025086E+02 0.  0.
         12    1    3    3    0    0  0.14151372911E+02 -0.63741674064E+01  0.33389933606E+02  0.36820904818E+02  0.00000000000E+00 0. -1.
         11    1    4    4    0    0 -0.33121429369E+01  0.12513860254E+02 -0.15154229998E+02  0.19930320529E+02  0.51100000000E-03 0. -1.
        -11    1    4    4    0    0  0.56672339591E+01 -0.10546616998E+02 -0.92732227931E+01  0.15144019681E+02  0.51100000000E-03 0.  1.
         12    1    4    4    0    0 -0.16506463934E+02  0.44069241510E+01 -0.89624808145E+01  0.19292754972E+02  0.00000000000E+00 0. -1.
</event>
<event>
 8    1  0.1210161E-006  0.9118800E+02  0.7816164E-02  0.1184000E+00
        -11   -1    0    0    0    0  0.00000000000E+00  0.00000000000E+00  0.45593999997E+02  0.45594000000E+02  0.51100000000E-03 0. -1.
         11   -1    0    0    0    0 -0.00000000000E+00 -0.00000000000E+00 -0.45593999997E+02  0.45594000000E+02  0.51100000000E-03 0.  1.
         23    2    1    2    0    0  0.00000000000E+00  0.00000000000E+00  0.00000000000E+00  0.91188000000E+02  0.91188000000E+02 0.  0.
    9900012    2    3    3    0    0  0.26733336322E+02  0.14829442150E+02  0.20523108355E+02  0.54367060279E+02  0.39999945518E+02 0.  0.
        -12    1    3    3    0    0 -0.26733336322E+02 -0.14829442150E+02 -0.20523108355E+02  0.36820939721E+02  0.00000000000E+00 0.  1.
         11    1    4    4    0    0  0.52783409519E+01  0.12062149116E+02  0.77986631709E+01  0.15302792948E+02  0.51100000000E-03 0. -1.
        -11    1    4    4    0    0  0.54019193212E+01  0.13904093353E+02 -0.13607724333E+01  0.14978526169E+02  0.51100000000E-03 0.  1.
        -12    1    4    4    0    0  0.16053076049E+02 -0.11136800319E+02  0.14085217618E+02  0.24085741162E+02  0.00000000000E+00 0.  1.
</event>
<event>
 8    1  0.1210161E-006  0.9118800E+02  0.7816164E-02  0.1184000E+00
        -11   -1    0    0    0    0  0.00000000000E+00  0.00000000000E+00  0.45593999997E+02  0.45594000000E+02  0.51100000000E-03 0. -1.
         11   -1    0    0    0    0 -0.00000000000E+00 -0.00000000000E+00 -0.45593999997E+02  0.45594000000E+02  0.51100000000E-03 0.  1.
         23    2    1    2    0    0 -0.71054273576E-14  0.00000000000E+00  0.44408920985E-15  0.91188000000E+02  0.91188000000E+02 0.  0.
    9900012    2    3    3    0    0 -0.36240253933E+02 -0.57577381676E+01  0.30451593926E+01  0.54367074568E+02  0.39999978092E+02 0.  0.
         12    1    3    3    0    0  0.36240253933E+02  0.57577381676E+01 -0.30451593926E+01  0.36820925432E+02  0.00000000000E+00 0. -1.
         11    1    4    4    0    0 -0.10848652232E+02 -0.40493342235E+01 -0.62461047051E+01  0.13156906443E+02  0.51100000000E-03 0. -1.
        -11    1    4    4    0    0 -0.26654510991E+02  0.91185608432E+01  0.10871125230E+02  0.30195901577E+02  0.51100000000E-03 0.  1.
        -12    1    4    4    0    0  0.12629092897E+01 -0.10826964787E+02 -0.15798611325E+01  0.11014266547E+02  0.00000000000E+00 0.  1.
</event>
<event>
 8    1  0.1210161E-006  0.9118800E+02  0.7816164E-02  0.1184000E+00
        -11   -1    0    0    0    0  0.00000000000E+00  0.00000000000E+00  0.45593999997E+02  0.45594000000E+02  0.51100000000E-03 0.  1.
         11   -1    0    0    0    0 -0.00000000000E+00 -0.00000000000E+00 -0.45593999997E+02  0.45594000000E+02  0.51100000000E-03 0. -1.
         23    2    1    2    0    0  0.00000000000E+00  0.00000000000E+00  0.00000000000E+00  0.91188000000E+02  0.91188000000E+02 0.  0.
    9900012    2    3    3    0    0  0.12620238981E+02 -0.34380824365E+02 -0.38037189069E+01  0.54367084836E+02  0.40000001501E+02 0.  0.
        -12    1    3    3    0    0 -0.12620238981E+02  0.34380824365E+02  0.38037189069E+01  0.36820915164E+02  0.00000000000E+00 0.  1.
         11    1    4    4    0    0  0.26223676099E+01 -0.10343721760E+02 -0.30276550852E+01  0.11092163329E+02  0.51100000000E-03 0. -1.
        -11    1    4    4    0    0 -0.15036766133E+01  0.82767187924E+01 -0.29295032993E+01  0.89076993196E+01  0.51100000000E-03 0.  1.
        -12    1    4    4    0    0  0.11501547984E+02 -0.32313821397E+02  0.21534394776E+01  0.34367222188E+02  0.00000000000E+00 0.  1.
</event>
<event>
 8    1  0.1210161E-006  0.9118800E+02  0.7816164E-02  0.1184000E+00
        -11   -1    0    0    0    0  0.00000000000E+00  0.00000000000E+00  0.45593999997E+02  0.45594000000E+02  0.51100000000E-03 0. -1.
         11   -1    0    0    0    0 -0.00000000000E+00 -0.00000000000E+00 -0.45593999997E+02  0.45594000000E+02  0.51100000000E-03 0.  1.
         23    2    1    2    0    0 -0.17763568394E-14  0.00000000000E+00 -0.88817841970E-15  0.91188000000E+02  0.91188000000E+02 0.  0.
    9900012    2    3    3    0    0  0.11307245617E+02  0.34621311042E+02 -0.54121403426E+01  0.54367078708E+02  0.39999987530E+02 0.  0.
         12    1    3    3    0    0 -0.11307245617E+02 -0.34621311042E+02  0.54121403426E+01  0.36820921292E+02  0.00000000000E+00 0. -1.
         11    1    4    4    0    0  0.57109908588E+01 -0.19944246420E+01  0.23107173119E+01  0.64755355762E+01  0.51100000000E-03 0. -1.
        -11    1    4    4    0    0 -0.14829981805E+01  0.32172008609E+02 -0.16144549171E+02  0.36026155633E+02  0.51100000000E-03 0.  1.
        -12    1    4    4    0    0  0.70792529386E+01  0.44437270753E+01  0.84216915163E+01  0.11865387498E+02  0.00000000000E+00 0.  1.
</event>
<event>
 8    1  0.1210161E-006  0.9118800E+02  0.7816164E-02  0.1184000E+00
        -11   -1    0    0    0    0  0.00000000000E+00  0.00000000000E+00  0.45593999997E+02  0.45594000000E+02  0.51100000000E-03 0.  1.
         11   -1    0    0    0    0 -0.00000000000E+00 -0.00000000000E+00 -0.45593999997E+02  0.45594000000E+02  0.51100000000E-03 0. -1.
         23    2    1    2    0    0  0.00000000000E+00  0.00000000000E+00  0.00000000000E+00  0.91188000000E+02  0.91188000000E+02 0.  0.
    9900012    2    3    3    0    0 -0.79591467803E+01  0.12667593905E+02  0.33644669105E+02  0.54367085942E+02  0.40000004023E+02 0.  0.
         12    1    3    3    0    0  0.79591467803E+01 -0.12667593905E+02 -0.33644669105E+02  0.36820914058E+02  0.00000000000E+00 0. -1.
         11    1    4    4    0    0 -0.61814671291E+01 -0.14163303393E+01  0.19872099787E+02  0.20859455355E+02  0.51100000000E-03 0. -1.
        -11    1    4    4    0    0 -0.12775755335E+02  0.10034000289E+02  0.14486270931E+02  0.21765870805E+02  0.51100000000E-03 0.  1.
         12    1    4    4    0    0  0.10998075683E+02  0.40499239561E+01 -0.71370161257E+00  0.11741759782E+02  0.00000000000E+00 0. -1.
</event>
<event>
 8    1  0.1210161E-006  0.9118800E+02  0.7816164E-02  0.1184000E+00
        -11   -1    0    0    0    0  0.00000000000E+00  0.00000000000E+00  0.45593999997E+02  0.45594000000E+02  0.51100000000E-03 0.  1.
         11   -1    0    0    0    0 -0.00000000000E+00 -0.00000000000E+00 -0.45593999997E+02  0.45594000000E+02  0.51100000000E-03 0. -1.
         23    2    1    2    0    0  0.00000000000E+00  0.00000000000E+00  0.00000000000E+00  0.91188000000E+02  0.91188000000E+02 0.  0.
    9900012    2    3    3    0    0  0.12752237376E+02  0.32376288321E+02 -0.12039004518E+02  0.54367065285E+02  0.39999956930E+02 0.  0.
        -12    1    3    3    0    0 -0.12752237376E+02 -0.32376288321E+02  0.12039004518E+02  0.36820934715E+02  0.00000000000E+00 0.  1.
         11    1    4    4    0    0  0.16661779915E+02  0.87701892336E+01  0.32971874131E+01  0.19115506120E+02  0.51100000000E-03 0. -1.
        -11    1    4    4    0    0 -0.82210507477E+01  0.15938040435E+01 -0.81819491485E+01  0.11707697419E+02  0.51100000000E-03 0.  1.
         12    1    4    4    0    0  0.43115082097E+01  0.22012295044E+02 -0.71542427823E+01  0.23543861746E+02  0.00000000000E+00 0. -1.
</event>
<event>
 8    1  0.1210161E-006  0.9118800E+02  0.7816164E-02  0.1184000E+00
        -11   -1    0    0    0    0  0.00000000000E+00  0.00000000000E+00  0.45593999997E+02  0.45594000000E+02  0.51100000000E-03 0.  1.
         11   -1    0    0    0    0 -0.00000000000E+00 -0.00000000000E+00 -0.45593999997E+02  0.45594000000E+02  0.51100000000E-03 0. -1.
         23    2    1    2    0    0 -0.44408920985E-15  0.71054273576E-14  0.00000000000E+00  0.91188000000E+02  0.91188000000E+02 0.  0.
    9900012    2    3    3    0    0  0.23198691963E+01 -0.35022295314E+02  0.11128213289E+02  0.54367080767E+02  0.39999992224E+02 0.  0.
         12    1    3    3    0    0 -0.23198691963E+01  0.35022295314E+02 -0.11128213289E+02  0.36820919233E+02  0.00000000000E+00 0. -1.
         11    1    4    4    0    0 -0.11020703182E+02 -0.78397988825E+01 -0.55377870005E+01  0.14614562267E+02  0.51100000000E-03 0. -1.
        -11    1    4    4    0    0  0.98755700534E+01 -0.19440120026E+02  0.86876377050E+00  0.21822004978E+02  0.51100000000E-03 0.  1.
         12    1    4    4    0    0  0.34650023248E+01 -0.77423764060E+01  0.15797236519E+02  0.17930513522E+02  0.00000000000E+00 0. -1.
</event>
<event>
 8    1  0.1210161E-006  0.9118800E+02  0.7816164E-02  0.1184000E+00
        -11   -1    0    0    0    0  0.00000000000E+00  0.00000000000E+00  0.45593999997E+02  0.45594000000E+02  0.51100000000E-03 0. -1.
         11   -1    0    0    0    0 -0.00000000000E+00 -0.00000000000E+00 -0.45593999997E+02  0.45594000000E+02  0.51100000000E-03 0.  1.
         23    2    1    2    0    0  0.00000000000E+00  0.00000000000E+00 -0.13322676296E-14  0.91188000000E+02  0.91188000000E+02 0.  0.
    9900012    2    3    3    0    0  0.13012583113E+02  0.34347156206E+02 -0.25938755727E+01  0.54367046058E+02  0.39999913099E+02 0.  0.
         12    1    3    3    0    0 -0.13012583113E+02 -0.34347156206E+02  0.25938755727E+01  0.36820953942E+02  0.00000000000E+00 0. -1.
         11    1    4    4    0    0 -0.68939761676E+01  0.19486684821E+01  0.99763990101E+01  0.12282212900E+02  0.51100000000E-03 0. -1.
        -11    1    4    4    0    0  0.71880382949E+01  0.14941626970E+02 -0.12019784910E+02  0.20479144039E+02  0.51100000000E-03 0.  1.
         12    1    4    4    0    0  0.12718520986E+02  0.17456860754E+02 -0.55048967299E+00  0.21605689119E+02  0.00000000000E+00 0. -1.
</event>
<event>
 8    1  0.1210161E-006  0.9118800E+02  0.7816164E-02  0.1184000E+00
        -11   -1    0    0    0    0  0.00000000000E+00  0.00000000000E+00  0.45593999997E+02  0.45594000000E+02  0.51100000000E-03 0.  1.
         11   -1    0    0    0    0 -0.00000000000E+00 -0.00000000000E+00 -0.45593999997E+02  0.45594000000E+02  0.51100000000E-03 0. -1.
         23    2    1    2    0    0  0.00000000000E+00 -0.44408920985E-15 -0.44408920985E-15  0.91188000000E+02  0.91188000000E+02 0.  0.
    9900012    2    3    3    0    0  0.36654055954E+02  0.32016370634E+01  0.14173349071E+01  0.54367093764E+02  0.40000021854E+02 0.  0.
        -12    1    3    3    0    0 -0.36654055954E+02 -0.32016370634E+01 -0.14173349071E+01  0.36820906236E+02  0.00000000000E+00 0.  1.
         11    1    4    4    0    0  0.32733875033E+01  0.12468636030E+01  0.10525104808E+02  0.11092680743E+02  0.51100000000E-03 0. -1.
        -11    1    4    4    0    0  0.20398293283E+01  0.49554082980E+01  0.62595245665E+01  0.82400620840E+01  0.51100000000E-03 0.  1.
         12    1    4    4    0    0  0.31340839123E+02 -0.30006348376E+01 -0.15367294467E+02  0.35034350937E+02  0.00000000000E+00 0. -1.
</event>
<event>
 8    1  0.1210161E-006  0.9118800E+02  0.7816164E-02  0.1184000E+00
        -11   -1    0    0    0    0  0.00000000000E+00  0.00000000000E+00  0.45593999997E+02  0.45594000000E+02  0.51100000000E-03 0. -1.
         11   -1    0    0    0    0 -0.00000000000E+00 -0.00000000000E+00 -0.45593999997E+02  0.45594000000E+02  0.51100000000E-03 0.  1.
         23    2    1    2    0    0  0.00000000000E+00  0.35527136788E-14  0.00000000000E+00  0.91188000000E+02  0.91188000000E+02 0.  0.
    9900012    2    3    3    0    0  0.18342342705E+02 -0.21568792697E+02  0.23539903107E+02  0.54367063122E+02  0.39999951999E+02 0.  0.
        -12    1    3    3    0    0 -0.18342342705E+02  0.21568792697E+02 -0.23539903107E+02  0.36820936878E+02  0.00000000000E+00 0.  1.
         11    1    4    4    0    0  0.11744447832E+01  0.66209715105E+01  0.22618433144E+01  0.70945415448E+01  0.51100000000E-03 0. -1.
        -11    1    4    4    0    0 -0.41248088544E+01 -0.84259400366E+01 -0.25246226174E+01  0.97151548215E+01  0.51100000000E-03 0.  1.
         12    1    4    4    0    0  0.21292706776E+02 -0.19763824171E+02  0.23802682410E+02  0.37557366756E+02  0.00000000000E+00 0. -1.
</event>
<event>
 8    1  0.1210161E-006  0.9118800E+02  0.7816164E-02  0.1184000E+00
        -11   -1    0    0    0    0  0.00000000000E+00  0.00000000000E+00  0.45593999997E+02  0.45594000000E+02  0.51100000000E-03 0. -1.
         11   -1    0    0    0    0 -0.00000000000E+00 -0.00000000000E+00 -0.45593999997E+02  0.45594000000E+02  0.51100000000E-03 0.  1.
         23    2    1    2    0    0  0.88817841970E-15  0.88817841970E-15  0.00000000000E+00  0.91188000000E+02  0.91188000000E+02 0.  0.
    9900012    2    3    3    0    0 -0.64127735599E+01  0.73241253154E+01  0.35510746479E+02  0.54367087574E+02  0.40000007743E+02 0.  0.
        -12    1    3    3    0    0  0.64127735599E+01 -0.73241253154E+01 -0.35510746479E+02  0.36820912426E+02  0.00000000000E+00 0.  1.
         11    1    4    4    0    0 -0.56399627937E+01 -0.72464362772E+00  0.61739770277E+01  0.83935857237E+01  0.51100000000E-03 0. -1.
        -11    1    4    4    0    0 -0.12160372745E+02  0.16478383982E+02  0.12600395948E+02  0.24045410836E+02  0.51100000000E-03 0.  1.
        -12    1    4    4    0    0  0.11387561979E+02 -0.84296150391E+01  0.16736373503E+02  0.21928091015E+02  0.00000000000E+00 0.  1.
</event>
<event>
 8    1  0.1210161E-006  0.9118800E+02  0.7816164E-02  0.1184000E+00
        -11   -1    0    0    0    0  0.00000000000E+00  0.00000000000E+00  0.45593999997E+02  0.45594000000E+02  0.51100000000E-03 0. -1.
         11   -1    0    0    0    0 -0.00000000000E+00 -0.00000000000E+00 -0.45593999997E+02  0.45594000000E+02  0.51100000000E-03 0.  1.
         23    2    1    2    0    0  0.00000000000E+00  0.74940054162E-15  0.00000000000E+00  0.91188000000E+02  0.91188000000E+02 0.  0.
    9900012    2    3    3    0    0  0.32455002264E+02 -0.16418662409E+00  0.17390383224E+02  0.54367088036E+02  0.40000008796E+02 0.  0.
        -12    1    3    3    0    0 -0.32455002264E+02  0.16418662409E+00 -0.17390383224E+02  0.36820911964E+02  0.00000000000E+00 0.  1.
         11    1    4    4    0    0  0.89851778951E+01  0.45252789991E+01  0.19191612281E+00  0.10062226587E+02  0.51100000000E-03 0. -1.
        -11    1    4    4    0    0 -0.69898263988E+00  0.10315498039E+02  0.11178846473E+02  0.15227103640E+02  0.51100000000E-03 0.  1.
         12    1    4    4    0    0  0.24168807008E+02 -0.15004963663E+02  0.60196206281E+01  0.29077757809E+02  0.00000000000E+00 0. -1.
</event>
<event>
 8    1  0.1210161E-006  0.9118800E+02  0.7816164E-02  0.1184000E+00
        -11   -1    0    0    0    0  0.00000000000E+00  0.00000000000E+00  0.45593999997E+02  0.45594000000E+02  0.51100000000E-03 0.  1.
         11   -1    0    0    0    0 -0.00000000000E+00 -0.00000000000E+00 -0.45593999997E+02  0.45594000000E+02  0.51100000000E-03 0. -1.
         23    2    1    2    0    0  0.00000000000E+00  0.00000000000E+00  0.17763568394E-14  0.91188000000E+02  0.91188000000E+02 0.  0.
    9900012    2    3    3    0    0 -0.95052924312E+01  0.34232025688E+02 -0.96745405371E+01  0.54367096949E+02  0.40000029114E+02 0.  0.
        -12    1    3    3    0    0  0.95052924312E+01 -0.34232025688E+02  0.96745405371E+01  0.36820903051E+02  0.00000000000E+00 0.  1.
         11    1    4    4    0    0  0.61584537670E+01 -0.15282740330E-01 -0.38758344615E+01  0.72765980648E+01  0.51100000000E-03 0. -1.
        -11    1    4    4    0    0 -0.27748680307E+01  0.27144088479E+02  0.63413692625E+01  0.28012754172E+02  0.51100000000E-03 0.  1.
        -12    1    4    4    0    0 -0.12888878167E+02  0.71032199493E+01 -0.12140075338E+02  0.19077744711E+02  0.00000000000E+00 0.  1.
</event>
<event>
 8    1  0.1210161E-006  0.9118800E+02  0.7816164E-02  0.1184000E+00
        -11   -1    0    0    0    0  0.00000000000E+00  0.00000000000E+00  0.45593999997E+02  0.45594000000E+02  0.51100000000E-03 0.  1.
         11   -1    0    0    0    0 -0.00000000000E+00 -0.00000000000E+00 -0.45593999997E+02  0.45594000000E+02  0.51100000000E-03 0. -1.
         23    2    1    2    0    0 -0.35527136788E-14  0.00000000000E+00  0.00000000000E+00  0.91188000000E+02  0.91188000000E+02 0.  0.
    9900012    2    3    3    0    0  0.37741626209E+01 -0.12098901963E+02  0.34570976125E+02  0.54367080370E+02  0.39999991319E+02 0.  0.
         12    1    3    3    0    0 -0.37741626209E+01  0.12098901963E+02 -0.34570976125E+02  0.36820919630E+02  0.00000000000E+00 0. -1.
         11    1    4    4    0    0 -0.50153320244E+01  0.42465350633E+01 -0.10009514340E+01  0.66474445762E+01  0.51100000000E-03 0. -1.
        -11    1    4    4    0    0 -0.73158595621E+01 -0.69759313859E+01  0.23328637128E+02  0.25424608755E+02  0.51100000000E-03 0.  1.
         12    1    4    4    0    0  0.16105354207E+02 -0.93695056402E+01  0.12243290431E+02  0.22295027039E+02  0.00000000000E+00 0. -1.
</event>
<event>
 8    1  0.1210161E-006  0.9118800E+02  0.7816164E-02  0.1184000E+00
        -11   -1    0    0    0    0  0.00000000000E+00  0.00000000000E+00  0.45593999997E+02  0.45594000000E+02  0.51100000000E-03 0. -1.
         11   -1    0    0    0    0 -0.00000000000E+00 -0.00000000000E+00 -0.45593999997E+02  0.45594000000E+02  0.51100000000E-03 0.  1.
         23    2    1    2    0    0 -0.88817841970E-15 -0.35527136788E-14  0.00000000000E+00  0.91188000000E+02  0.91188000000E+02 0.  0.
    9900012    2    3    3    0    0  0.78277154167E+01  0.22549437829E+02  0.28036206852E+02  0.54367093307E+02  0.40000020811E+02 0.  0.
        -12    1    3    3    0    0 -0.78277154167E+01 -0.22549437829E+02 -0.28036206852E+02  0.36820906693E+02  0.00000000000E+00 0.  1.
         11    1    4    4    0    0 -0.41973561902E+00  0.16254951835E+02  0.31731021591E+02  0.35654696305E+02  0.51100000000E-03 0. -1.
        -11    1    4    4    0    0  0.14957820146E+01  0.20602054243E+01  0.57893077334E+01  0.63243888652E+01  0.51100000000E-03 0.  1.
        -12    1    4    4    0    0  0.67516690211E+01  0.42342805700E+01 -0.94841224720E+01  0.12388008136E+02  0.00000000000E+00 0.  1.
</event>
<event>
 8    1  0.1210161E-006  0.9118800E+02  0.7816164E-02  0.1184000E+00
        -11   -1    0    0    0    0  0.00000000000E+00  0.00000000000E+00  0.45593999997E+02  0.45594000000E+02  0.51100000000E-03 0.  1.
         11   -1    0    0    0    0 -0.00000000000E+00 -0.00000000000E+00 -0.45593999997E+02  0.45594000000E+02  0.51100000000E-03 0. -1.
         23    2    1    2    0    0  0.17763568394E-14  0.00000000000E+00  0.71054273576E-14  0.91188000000E+02  0.91188000000E+02 0.  0.
    9900012    2    3    3    0    0  0.15426514389E+02 -0.57231780333E+01  0.32940086407E+02  0.54367062947E+02  0.39999951599E+02 0.  0.
         12    1    3    3    0    0 -0.15426514389E+02  0.57231780333E+01 -0.32940086407E+02  0.36820937053E+02  0.00000000000E+00 0. -1.
         11    1    4    4    0    0 -0.12007205313E+01 -0.13523630245E+02  0.32458160597E+01  0.13959427888E+02  0.51100000000E-03 0. -1.
        -11    1    4    4    0    0  0.91417984048E+00  0.85662435572E+01  0.20378363300E+02  0.22124510040E+02  0.51100000000E-03 0.  1.
         12    1    4    4    0    0  0.15713055080E+02 -0.76579134521E+00  0.93159070476E+01  0.18283125019E+02  0.00000000000E+00 0. -1.
</event>
<event>
 8    1  0.1210161E-006  0.9118800E+02  0.7816164E-02  0.1184000E+00
        -11   -1    0    0    0    0  0.00000000000E+00  0.00000000000E+00  0.45593999997E+02  0.45594000000E+02  0.51100000000E-03 0.  1.
         11   -1    0    0    0    0 -0.00000000000E+00 -0.00000000000E+00 -0.45593999997E+02  0.45594000000E+02  0.51100000000E-03 0. -1.
         23    2    1    2    0    0  0.00000000000E+00  0.00000000000E+00  0.00000000000E+00  0.91188000000E+02  0.91188000000E+02 0.  0.
    9900012    2    3    3    0    0 -0.28772208924E+02  0.13443977290E+02  0.18633318866E+02  0.54367067045E+02  0.39999960942E+02 0.  0.
         12    1    3    3    0    0  0.28772208924E+02 -0.13443977290E+02 -0.18633318866E+02  0.36820932955E+02  0.00000000000E+00 0. -1.
         11    1    4    4    0    0 -0.73334448862E+01  0.38468487396E+01 -0.68553826759E+01  0.10750531662E+02  0.51100000000E-03 0. -1.
        -11    1    4    4    0    0 -0.59615909845E+01  0.10411187884E+02 -0.19000184379E+01  0.12146747324E+02  0.51100000000E-03 0.  1.
         12    1    4    4    0    0 -0.15477173053E+02 -0.81405933383E+00  0.27388719980E+02  0.31469788059E+02  0.00000000000E+00 0. -1.
</event>
<event>
 8    1  0.1210161E-006  0.9118800E+02  0.7816164E-02  0.1184000E+00
        -11   -1    0    0    0    0  0.00000000000E+00  0.00000000000E+00  0.45593999997E+02  0.45594000000E+02  0.51100000000E-03 0.  1.
         11   -1    0    0    0    0 -0.00000000000E+00 -0.00000000000E+00 -0.45593999997E+02  0.45594000000E+02  0.51100000000E-03 0. -1.
         23    2    1    2    0    0  0.00000000000E+00  0.17763568394E-14  0.00000000000E+00  0.91188000000E+02  0.91188000000E+02 0.  0.
    9900012    2    3    3    0    0  0.17330381456E+02 -0.81427117221E+01  0.31450486117E+02  0.54367096255E+02  0.40000027533E+02 0.  0.
         12    1    3    3    0    0 -0.17330381456E+02  0.81427117221E+01 -0.31450486117E+02  0.36820903745E+02  0.00000000000E+00 0. -1.
         11    1    4    4    0    0  0.14215165677E+02 -0.19870360054E+02  0.20553773627E+02  0.31927413840E+02  0.51100000000E-03 0. -1.
        -11    1    4    4    0    0 -0.57067184988E+01  0.24081088843E+01  0.62288268943E+01  0.87842990138E+01  0.51100000000E-03 0.  1.
         12    1    4    4    0    0  0.88219342777E+01  0.93195394478E+01  0.46678855949E+01  0.13655383402E+02  0.00000000000E+00 0. -1.
</event>
<event>
 8    1  0.1210161E-006  0.9118800E+02  0.7816164E-02  0.1184000E+00
        -11   -1    0    0    0    0  0.00000000000E+00  0.00000000000E+00  0.45593999997E+02  0.45594000000E+02  0.51100000000E-03 0. -1.
         11   -1    0    0    0    0 -0.00000000000E+00 -0.00000000000E+00 -0.45593999997E+02  0.45594000000E+02  0.51100000000E-03 0.  1.
         23    2    1    2    0    0  0.00000000000E+00  0.00000000000E+00  0.00000000000E+00  0.91188000000E+02  0.91188000000E+02 0.  0.
    9900012    2    3    3    0    0 -0.26924861240E+01  0.24814844171E+02  0.27069431677E+02  0.54367080619E+02  0.39999991886E+02 0.  0.
        -12    1    3    3    0    0  0.26924861240E+01 -0.24814844171E+02 -0.27069431677E+02  0.36820919381E+02  0.00000000000E+00 0.  1.
         11    1    4    4    0    0 -0.48413945078E+01  0.14600938695E+02  0.14386507169E+02  0.21061768690E+02  0.51100000000E-03 0. -1.
        -11    1    4    4    0    0  0.10814216790E+02  0.15812065536E+02  0.34580424412E+01  0.19466041176E+02  0.51100000000E-03 0.  1.
         12    1    4    4    0    0 -0.86653084056E+01 -0.55981600596E+01  0.92248820666E+01  0.13839270752E+02  0.00000000000E+00 0. -1.
</event>
<event>
 8    1  0.1210161E-006  0.9118800E+02  0.7816164E-02  0.1184000E+00
        -11   -1    0    0    0    0  0.00000000000E+00  0.00000000000E+00  0.45593999997E+02  0.45594000000E+02  0.51100000000E-03 0.  1.
         11   -1    0    0    0    0 -0.00000000000E+00 -0.00000000000E+00 -0.45593999997E+02  0.45594000000E+02  0.51100000000E-03 0. -1.
         23    2    1    2    0    0 -0.17763568394E-14 -0.35527136788E-14  0.35527136788E-14  0.91188000000E+02  0.91188000000E+02 0.  0.
    9900012    2    3    3    0    0  0.94658052844E+01  0.18895361127E+02 -0.30152027256E+02  0.54367069955E+02  0.39999967576E+02 0.  0.
        -12    1    3    3    0    0 -0.94658052844E+01 -0.18895361127E+02  0.30152027256E+02  0.36820930045E+02  0.00000000000E+00 0.  1.
         11    1    4    4    0    0 -0.62209295706E+00  0.37482021215E+01 -0.20099986196E+02  0.20455939580E+02  0.51100000000E-03 0. -1.
        -11    1    4    4    0    0 -0.22070524710E+01  0.17599562743E+02 -0.11725607247E+02  0.21262773924E+02  0.51100000000E-03 0.  1.
        -12    1    4    4    0    0  0.12294950712E+02 -0.24524037377E+01  0.16735661876E+01  0.12648356450E+02  0.00000000000E+00 0.  1.
</event>
<event>
 8    1  0.1210161E-006  0.9118800E+02  0.7816164E-02  0.1184000E+00
        -11   -1    0    0    0    0  0.00000000000E+00  0.00000000000E+00  0.45593999997E+02  0.45594000000E+02  0.51100000000E-03 0.  1.
         11   -1    0    0    0    0 -0.00000000000E+00 -0.00000000000E+00 -0.45593999997E+02  0.45594000000E+02  0.51100000000E-03 0. -1.
         23    2    1    2    0    0  0.71054273576E-14  0.17763568394E-14 -0.33306690739E-15  0.91188000000E+02  0.91188000000E+02 0.  0.
    9900012    2    3    3    0    0  0.34510991460E+02  0.12815205797E+02  0.73596189467E+00  0.54367086499E+02  0.40000005291E+02 0.  0.
         12    1    3    3    0    0 -0.34510991460E+02 -0.12815205797E+02 -0.73596189467E+00  0.36820913501E+02  0.00000000000E+00 0. -1.
         11    1    4    4    0    0  0.16428292934E+02  0.17757045158E+02 -0.58127515431E+01  0.24879500442E+02  0.51100000000E-03 0. -1.
        -11    1    4    4    0    0  0.26295868076E+01  0.78049327278E+01  0.44084350669E+01  0.93416273563E+01  0.51100000000E-03 0.  1.
        -12    1    4    4    0    0  0.15453111718E+02 -0.12746772089E+02  0.21402783709E+01  0.20145958700E+02  0.00000000000E+00 0.  1.
</event>
<event>
 8    1  0.1210161E-006  0.9118800E+02  0.7816164E-02  0.1184000E+00
        -11   -1    0    0    0    0  0.00000000000E+00  0.00000000000E+00  0.45593999997E+02  0.45594000000E+02  0.51100000000E-03 0.  1.
         11   -1    0    0    0    0 -0.00000000000E+00 -0.00000000000E+00 -0.45593999997E+02  0.45594000000E+02  0.51100000000E-03 0. -1.
         23    2    1    2    0    0  0.00000000000E+00 -0.44408920985E-15 -0.35527136788E-14  0.91188000000E+02  0.91188000000E+02 0.  0.
    9900012    2    3    3    0    0  0.18505840604E+02  0.23667653504E+01  0.31744487860E+02  0.54367078988E+02  0.39999988169E+02 0.  0.
         12    1    3    3    0    0 -0.18505840604E+02 -0.23667653504E+01 -0.31744487860E+02  0.36820921012E+02  0.00000000000E+00 0. -1.
         11    1    4    4    0    0 -0.33419596090E+01  0.84207482524E+01  0.41841402843E+01  0.99792146654E+01  0.51100000000E-03 0. -1.
        -11    1    4    4    0    0  0.23227751669E+02  0.49056202217E+01  0.19275884392E+02  0.30580275943E+02  0.51100000000E-03 0.  1.
         12    1    4    4    0    0 -0.13799514561E+01 -0.10959603124E+02  0.82844631830E+01  0.13807588380E+02  0.00000000000E+00 0. -1.
</event>
<event>
 8    1  0.1210161E-006  0.9118800E+02  0.7816164E-02  0.1184000E+00
        -11   -1    0    0    0    0  0.00000000000E+00  0.00000000000E+00  0.45593999997E+02  0.45594000000E+02  0.51100000000E-03 0.  1.
         11   -1    0    0    0    0 -0.00000000000E+00 -0.00000000000E+00 -0.45593999997E+02  0.45594000000E+02  0.51100000000E-03 0. -1.
         23    2    1    2    0    0  0.00000000000E+00  0.00000000000E+00  0.17763568394E-14  0.91188000000E+02  0.91188000000E+02 0.  0.
    9900012    2    3    3    0    0  0.36567346081E+02  0.42345635169E+01 -0.82286010206E+00  0.54367089822E+02  0.40000012867E+02 0.  0.
        -12    1    3    3    0    0 -0.36567346081E+02 -0.42345635169E+01  0.82286010206E+00  0.36820910178E+02  0.00000000000E+00 0.  1.
         11    1    4    4    0    0  0.31988342431E+01  0.38616243267E+01 -0.11345086763E+02  0.12403857339E+02  0.51100000000E-03 0. -1.
        -11    1    4    4    0    0  0.15637571900E+02 -0.89486381524E+00  0.16932925396E+02  0.23066391111E+02  0.51100000000E-03 0.  1.
        -12    1    4    4    0    0  0.17730939938E+02  0.12678030054E+01 -0.64106987347E+01  0.18896841372E+02  0.00000000000E+00 0.  1.
</event>
<event>
 8    1  0.1210161E-006  0.9118800E+02  0.7816164E-02  0.1184000E+00
        -11   -1    0    0    0    0  0.00000000000E+00  0.00000000000E+00  0.45593999997E+02  0.45594000000E+02  0.51100000000E-03 0. -1.
         11   -1    0    0    0    0 -0.00000000000E+00 -0.00000000000E+00 -0.45593999997E+02  0.45594000000E+02  0.51100000000E-03 0.  1.
         23    2    1    2    0    0 -0.35527136788E-14  0.00000000000E+00  0.00000000000E+00  0.91188000000E+02  0.91188000000E+02 0.  0.
    9900012    2    3    3    0    0 -0.28657942964E+02  0.11216783100E+02 -0.20215987330E+02  0.54367081193E+02  0.39999993196E+02 0.  0.
         12    1    3    3    0    0  0.28657942964E+02 -0.11216783100E+02  0.20215987330E+02  0.36820918807E+02  0.00000000000E+00 0. -1.
         11    1    4    4    0    0 -0.68251240311E+01  0.19540729912E+02 -0.13678350682E+02  0.24809669912E+02  0.51100000000E-03 0. -1.
        -11    1    4    4    0    0 -0.54869395771E+01  0.26314240008E+01 -0.77369029705E+01  0.98433005659E+01  0.51100000000E-03 0.  1.
        -12    1    4    4    0    0 -0.16345879356E+02 -0.10955370813E+02  0.11992663216E+01  0.19714110715E+02  0.00000000000E+00 0.  1.
</event>
<event>
 8    1  0.1210161E-006  0.9118800E+02  0.7816164E-02  0.1184000E+00
        -11   -1    0    0    0    0  0.00000000000E+00  0.00000000000E+00  0.45593999997E+02  0.45594000000E+02  0.51100000000E-03 0.  1.
         11   -1    0    0    0    0 -0.00000000000E+00 -0.00000000000E+00 -0.45593999997E+02  0.45594000000E+02  0.51100000000E-03 0. -1.
         23    2    1    2    0    0  0.00000000000E+00  0.00000000000E+00 -0.35527136788E-14  0.91188000000E+02  0.91188000000E+02 0.  0.
    9900012    2    3    3    0    0  0.21842797046E+02 -0.69445028626E+01  0.28817516912E+02  0.54367038799E+02  0.39999896550E+02 0.  0.
         12    1    3    3    0    0 -0.21842797046E+02  0.69445028626E+01 -0.28817516912E+02  0.36820961201E+02  0.00000000000E+00 0. -1.
         11    1    4    4    0    0  0.20465280846E+01 -0.93527089700E-01  0.54094700940E+00  0.21188790541E+01  0.51100000000E-03 0. -1.
        -11    1    4    4    0    0  0.16642864085E+02 -0.12005527780E+02  0.36601287543E+02  0.41961552310E+02  0.51100000000E-03 0.  1.
        -12    1    4    4    0    0  0.31534048769E+01  0.51545520073E+01 -0.83247176408E+01  0.10286607435E+02  0.00000000000E+00 0.  1.
</event>
<event>
 8    1  0.1210161E-006  0.9118800E+02  0.7816164E-02  0.1184000E+00
        -11   -1    0    0    0    0  0.00000000000E+00  0.00000000000E+00  0.45593999997E+02  0.45594000000E+02  0.51100000000E-03 0.  1.
         11   -1    0    0    0    0 -0.00000000000E+00 -0.00000000000E+00 -0.45593999997E+02  0.45594000000E+02  0.51100000000E-03 0. -1.
         23    2    1    2    0    0  0.00000000000E+00  0.17763568394E-14  0.35527136788E-14  0.91188000000E+02  0.91188000000E+02 0.  0.
    9900012    2    3    3    0    0  0.17328491093E+02 -0.74524404706E+01  0.31622219177E+02  0.54367079069E+02  0.39999988354E+02 0.  0.
         12    1    3    3    0    0 -0.17328491093E+02  0.74524404706E+01 -0.31622219177E+02  0.36820920931E+02  0.00000000000E+00 0. -1.
         11    1    4    4    0    0 -0.77867795003E+01 -0.30229015626E+01 -0.34585427737E+01  0.90406519247E+01  0.51100000000E-03 0. -1.
        -11    1    4    4    0    0  0.20201494758E+02  0.21473745684E+01  0.27172621355E+02  0.33927318779E+02  0.51100000000E-03 0.  1.
        -12    1    4    4    0    0  0.49137758355E+01 -0.65769134764E+01  0.79081405957E+01  0.11399108365E+02  0.00000000000E+00 0.  1.
</event>
<event>
 8    1  0.1210161E-006  0.9118800E+02  0.7816164E-02  0.1184000E+00
        -11   -1    0    0    0    0  0.00000000000E+00  0.00000000000E+00  0.45593999997E+02  0.45594000000E+02  0.51100000000E-03 0. -1.
         11   -1    0    0    0    0 -0.00000000000E+00 -0.00000000000E+00 -0.45593999997E+02  0.45594000000E+02  0.51100000000E-03 0.  1.
         23    2    1    2    0    0 -0.35527136788E-14  0.17763568394E-14 -0.35527136788E-14  0.91188000000E+02  0.91188000000E+02 0.  0.
    9900012    2    3    3    0    0  0.30414987078E+02 -0.12728720309E+02 -0.16391702557E+02  0.54367086481E+02  0.40000005251E+02 0.  0.
        -12    1    3    3    0    0 -0.30414987078E+02  0.12728720309E+02  0.16391702557E+02  0.36820913519E+02  0.00000000000E+00 0.  1.
         11    1    4    4    0    0 -0.14674871810E+01 -0.49197388199E+01 -0.34455494648E+01  0.61829733994E+01  0.51100000000E-03 0.  1.
        -11    1    4    4    0    0  0.26658959887E+02 -0.78800064933E+01  0.60778901492E+01  0.28455849900E+02  0.51100000000E-03 0. -1.
        -12    1    4    4    0    0  0.52235143716E+01  0.71025003871E-01 -0.19024043241E+02  0.19728263182E+02  0.00000000000E+00 0.  1.
</event>
<event>
 8    1  0.1210161E-006  0.9118800E+02  0.7816164E-02  0.1184000E+00
        -11   -1    0    0    0    0  0.00000000000E+00  0.00000000000E+00  0.45593999997E+02  0.45594000000E+02  0.51100000000E-03 0.  1.
         11   -1    0    0    0    0 -0.00000000000E+00 -0.00000000000E+00 -0.45593999997E+02  0.45594000000E+02  0.51100000000E-03 0. -1.
         23    2    1    2    0    0 -0.35527136788E-14 -0.17763568394E-14  0.00000000000E+00  0.91188000000E+02  0.91188000000E+02 0.  0.
    9900012    2    3    3    0    0 -0.16783203481E+02 -0.12339002825E+02 -0.30362023785E+02  0.54367090205E+02  0.40000013741E+02 0.  0.
        -12    1    3    3    0    0  0.16783203481E+02  0.12339002825E+02  0.30362023785E+02  0.36820909795E+02  0.00000000000E+00 0.  1.
         11    1    4    4    0    0  0.45632514895E+01 -0.64623962417E+01  0.30268626406E+01  0.84704030038E+01  0.51100000000E-03 0. -1.
        -11    1    4    4    0    0 -0.47648878315E+01  0.29151307577E+01  0.19225084659E+01  0.59074683617E+01  0.51100000000E-03 0.  1.
         12    1    4    4    0    0 -0.16581567139E+02 -0.87917373409E+01 -0.35311394891E+02  0.39989218840E+02  0.00000000000E+00 0. -1.
</event>
<event>
 8    1  0.1210161E-006  0.9118800E+02  0.7816164E-02  0.1184000E+00
        -11   -1    0    0    0    0  0.00000000000E+00  0.00000000000E+00  0.45593999997E+02  0.45594000000E+02  0.51100000000E-03 0. -1.
         11   -1    0    0    0    0 -0.00000000000E+00 -0.00000000000E+00 -0.45593999997E+02  0.45594000000E+02  0.51100000000E-03 0.  1.
         23    2    1    2    0    0  0.00000000000E+00  0.00000000000E+00 -0.44408920985E-15  0.91188000000E+02  0.91188000000E+02 0.  0.
    9900012    2    3    3    0    0  0.23655313307E+02 -0.28055001590E+02 -0.30203484966E+01  0.54367089271E+02  0.40000011612E+02 0.  0.
        -12    1    3    3    0    0 -0.23655313307E+02  0.28055001590E+02  0.30203484966E+01  0.36820910729E+02  0.00000000000E+00 0.  1.
         11    1    4    4    0    0  0.99518045676E+01 -0.26959335839E+02  0.12280310650E+02  0.31251403696E+02  0.51100000000E-03 0. -1.
        -11    1    4    4    0    0  0.12151913518E+02 -0.49844979081E+01 -0.11348272849E+02  0.17357923795E+02  0.51100000000E-03 0.  1.
        -12    1    4    4    0    0  0.15515952211E+01  0.38888321571E+01 -0.39523862981E+01  0.57577617809E+01  0.00000000000E+00 0.  1.
</event>
<event>
 8    1  0.1210161E-006  0.9118800E+02  0.7816164E-02  0.1184000E+00
        -11   -1    0    0    0    0  0.00000000000E+00  0.00000000000E+00  0.45593999997E+02  0.45594000000E+02  0.51100000000E-03 0. -1.
         11   -1    0    0    0    0 -0.00000000000E+00 -0.00000000000E+00 -0.45593999997E+02  0.45594000000E+02  0.51100000000E-03 0.  1.
         23    2    1    2    0    0  0.00000000000E+00  0.00000000000E+00  0.00000000000E+00  0.91188000000E+02  0.91188000000E+02 0.  0.
    9900012    2    3    3    0    0 -0.14015885154E+02  0.28067964562E+02 -0.19274935343E+02  0.54367098276E+02  0.40000032139E+02 0.  0.
         12    1    3    3    0    0  0.14015885154E+02 -0.28067964562E+02  0.19274935343E+02  0.36820901724E+02  0.00000000000E+00 0. -1.
         11    1    4    4    0    0 -0.65123313223E+01 -0.56512650496E+01 -0.78467423444E+00  0.86581158359E+01  0.51100000000E-03 0. -1.
        -11    1    4    4    0    0  0.14853475241E+01  0.21755055475E+02  0.14842965414E+00  0.21806208465E+02  0.51100000000E-03 0.  1.
        -12    1    4    4    0    0 -0.89889013562E+01  0.11964174137E+02 -0.18638690762E+02  0.23902773975E+02  0.00000000000E+00 0.  1.
</event>
<event>
 8    1  0.1210161E-006  0.9118800E+02  0.7816164E-02  0.1184000E+00
        -11   -1    0    0    0    0  0.00000000000E+00  0.00000000000E+00  0.45593999997E+02  0.45594000000E+02  0.51100000000E-03 0. -1.
         11   -1    0    0    0    0 -0.00000000000E+00 -0.00000000000E+00 -0.45593999997E+02  0.45594000000E+02  0.51100000000E-03 0.  1.
         23    2    1    2    0    0  0.13322676296E-14  0.00000000000E+00  0.00000000000E+00  0.91188000000E+02  0.91188000000E+02 0.  0.
    9900012    2    3    3    0    0  0.36688491956E+01 -0.13120228535E+02  0.34207891861E+02  0.54367072299E+02  0.39999972919E+02 0.  0.
        -12    1    3    3    0    0 -0.36688491956E+01  0.13120228535E+02 -0.34207891861E+02  0.36820927701E+02  0.00000000000E+00 0.  1.
         11    1    4    4    0    0  0.10720928695E+02  0.68520088043E+01  0.19415802858E+02  0.23213395651E+02  0.51100000000E-03 0. -1.
        -11    1    4    4    0    0 -0.95870226462E+01 -0.39413573917E+01  0.21628272420E+01  0.10588820673E+02  0.51100000000E-03 0.  1.
        -12    1    4    4    0    0  0.25349431466E+01 -0.16030879947E+02  0.12629261761E+02  0.20564855975E+02  0.00000000000E+00 0.  1.
</event>
<event>
 8    1  0.1210161E-006  0.9118800E+02  0.7816164E-02  0.1184000E+00
        -11   -1    0    0    0    0  0.00000000000E+00  0.00000000000E+00  0.45593999997E+02  0.45594000000E+02  0.51100000000E-03 0.  1.
         11   -1    0    0    0    0 -0.00000000000E+00 -0.00000000000E+00 -0.45593999997E+02  0.45594000000E+02  0.51100000000E-03 0. -1.
         23    2    1    2    0    0  0.00000000000E+00 -0.20816681712E-15  0.00000000000E+00  0.91188000000E+02  0.91188000000E+02 0.  0.
    9900012    2    3    3    0    0  0.12075620364E+02  0.81168899184E-01 -0.34784363179E+02  0.54367094018E+02  0.40000022433E+02 0.  0.
        -12    1    3    3    0    0 -0.12075620364E+02 -0.81168899184E-01  0.34784363179E+02  0.36820905982E+02  0.00000000000E+00 0.  1.
         11    1    4    4    0    0 -0.19604349534E+01  0.97488718533E+01 -0.19941827113E+02  0.22283632480E+02  0.51100000000E-03 0. -1.
        -11    1    4    4    0    0  0.22037809125E+00  0.16860083266E+01  0.50536615543E+01  0.53320433182E+01  0.51100000000E-03 0.  1.
         12    1    4    4    0    0  0.13815677226E+02 -0.11353711281E+02 -0.19896197620E+02  0.26751418220E+02  0.00000000000E+00 0. -1.
</event>
<event>
 8    1  0.1210161E-006  0.9118800E+02  0.7816164E-02  0.1184000E+00
        -11   -1    0    0    0    0  0.00000000000E+00  0.00000000000E+00  0.45593999997E+02  0.45594000000E+02  0.51100000000E-03 0. -1.
         11   -1    0    0    0    0 -0.00000000000E+00 -0.00000000000E+00 -0.45593999997E+02  0.45594000000E+02  0.51100000000E-03 0.  1.
         23    2    1    2    0    0 -0.17763568394E-14  0.00000000000E+00  0.00000000000E+00  0.91188000000E+02  0.91188000000E+02 0.  0.
    9900012    2    3    3    0    0 -0.12314718681E+02  0.12511898213E+02  0.32366437572E+02  0.54366998191E+02  0.39999803976E+02 0.  0.
        -12    1    3    3    0    0  0.12314718681E+02 -0.12511898213E+02 -0.32366437572E+02  0.36821001809E+02  0.00000000000E+00 0.  1.
         11    1    4    4    0    0 -0.19065488982E+01  0.53534027201E+01  0.10383857108E+02  0.11837159207E+02  0.51100000000E-03 0. -1.
        -11    1    4    4    0    0  0.34575102039E+01  0.15726423563E+02  0.20636350745E+02  0.26175059641E+02  0.51100000000E-03 0.  1.
         12    1    4    4    0    0 -0.13865679987E+02 -0.85679280703E+01  0.13462297198E+01  0.16354779344E+02  0.00000000000E+00 0. -1.
</event>
<event>
 8    1  0.1210161E-006  0.9118800E+02  0.7816164E-02  0.1184000E+00
        -11   -1    0    0    0    0  0.00000000000E+00  0.00000000000E+00  0.45593999997E+02  0.45594000000E+02  0.51100000000E-03 0.  1.
         11   -1    0    0    0    0 -0.00000000000E+00 -0.00000000000E+00 -0.45593999997E+02  0.45594000000E+02  0.51100000000E-03 0. -1.
         23    2    1    2    0    0  0.35527136788E-14  0.00000000000E+00  0.00000000000E+00  0.91188000000E+02  0.91188000000E+02 0.  0.
    9900012    2    3    3    0    0  0.30152234105E+02  0.17909078305E+02  0.11219956160E+02  0.54367085787E+02  0.40000003668E+02 0.  0.
         12    1    3    3    0    0 -0.30152234105E+02 -0.17909078305E+02 -0.11219956160E+02  0.36820914213E+02  0.00000000000E+00 0. -1.
         11    1    4    4    0    0  0.11891961502E+02  0.79108529672E+01  0.20483240760E+01  0.14428997707E+02  0.51100000000E-03 0. -1.
        -11    1    4    4    0    0 -0.78305966552E+01  0.25776693902E+01  0.97985555364E+01  0.12805245578E+02  0.51100000000E-03 0.  1.
        -12    1    4    4    0    0  0.26090869258E+02  0.74205559476E+01 -0.62692345280E+00  0.27132842502E+02  0.00000000000E+00 0.  1.
</event>
<event>
 8    1  0.1210161E-006  0.9118800E+02  0.7816164E-02  0.1184000E+00
        -11   -1    0    0    0    0  0.00000000000E+00  0.00000000000E+00  0.45593999997E+02  0.45594000000E+02  0.51100000000E-03 0. -1.
         11   -1    0    0    0    0 -0.00000000000E+00 -0.00000000000E+00 -0.45593999997E+02  0.45594000000E+02  0.51100000000E-03 0.  1.
         23    2    1    2    0    0  0.00000000000E+00  0.00000000000E+00  0.17763568394E-14  0.91188000000E+02  0.91188000000E+02 0.  0.
    9900012    2    3    3    0    0 -0.83548561427E+01 -0.35377539421E+02  0.58657122825E+01  0.54367075280E+02  0.39999979716E+02 0.  0.
         12    1    3    3    0    0  0.83548561427E+01  0.35377539421E+02 -0.58657122825E+01  0.36820924720E+02  0.00000000000E+00 0. -1.
         11    1    4    4    0    0 -0.14127360471E+02 -0.13416760282E+02  0.11353450212E+02  0.22549780538E+02  0.51100000000E-03 0. -1.
        -11    1    4    4    0    0  0.69173328573E+01 -0.10986932101E+02  0.73263452337E+01  0.14907632461E+02  0.51100000000E-03 0.  1.
        -12    1    4    4    0    0 -0.11448285291E+01 -0.10973847038E+02 -0.12814083163E+02  0.16909662281E+02  0.00000000000E+00 0.  1.
</event>
<event>
 8    1  0.1210161E-006  0.9118800E+02  0.7816164E-02  0.1184000E+00
        -11   -1    0    0    0    0  0.00000000000E+00  0.00000000000E+00  0.45593999997E+02  0.45594000000E+02  0.51100000000E-03 0. -1.
         11   -1    0    0    0    0 -0.00000000000E+00 -0.00000000000E+00 -0.45593999997E+02  0.45594000000E+02  0.51100000000E-03 0.  1.
         23    2    1    2    0    0  0.00000000000E+00 -0.44408920985E-15  0.00000000000E+00  0.91188000000E+02  0.91188000000E+02 0.  0.
    9900012    2    3    3    0    0 -0.32628634540E+02  0.26407409430E+01 -0.16857576402E+02  0.54367093074E+02  0.40000020282E+02 0.  0.
         12    1    3    3    0    0  0.32628634540E+02 -0.26407409430E+01  0.16857576402E+02  0.36820906926E+02  0.00000000000E+00 0. -1.
         11    1    4    4    0    0  0.16005675078E+01 -0.83243071672E+01 -0.32101561842E+01  0.90642710214E+01  0.51100000000E-03 0. -1.
        -11    1    4    4    0    0 -0.23841638552E+02  0.74850253835E+01  0.32143109461E+01  0.25194863146E+02  0.51100000000E-03 0.  1.
         12    1    4    4    0    0 -0.10387563496E+02  0.34800227268E+01 -0.16861731164E+02  0.20107958907E+02  0.00000000000E+00 0. -1.
</event>
<event>
 8    1  0.1210161E-006  0.9118800E+02  0.7816164E-02  0.1184000E+00
        -11   -1    0    0    0    0  0.00000000000E+00  0.00000000000E+00  0.45593999997E+02  0.45594000000E+02  0.51100000000E-03 0.  1.
         11   -1    0    0    0    0 -0.00000000000E+00 -0.00000000000E+00 -0.45593999997E+02  0.45594000000E+02  0.51100000000E-03 0. -1.
         23    2    1    2    0    0  0.00000000000E+00  0.00000000000E+00  0.35527136788E-14  0.91188000000E+02  0.91188000000E+02 0.  0.
    9900012    2    3    3    0    0 -0.16127818161E+02  0.18752751910E+02  0.27276508811E+02  0.54367079917E+02  0.39999990287E+02 0.  0.
         12    1    3    3    0    0  0.16127818161E+02 -0.18752751910E+02 -0.27276508811E+02  0.36820920083E+02  0.00000000000E+00 0. -1.
         11    1    4    4    0    0  0.73670775163E+01  0.20016384447E+02  0.19799342301E+02  0.29102292577E+02  0.51100000000E-03 0. -1.
        -11    1    4    4    0    0 -0.10390106497E+02  0.21028394906E+01  0.34439067050E+01  0.11146153624E+02  0.51100000000E-03 0.  1.
         12    1    4    4    0    0 -0.13104789179E+02 -0.33664720276E+01  0.40332598054E+01  0.14118633716E+02  0.00000000000E+00 0. -1.
</event>
<event>
 8    1  0.1210161E-006  0.9118800E+02  0.7816164E-02  0.1184000E+00
        -11   -1    0    0    0    0  0.00000000000E+00  0.00000000000E+00  0.45593999997E+02  0.45594000000E+02  0.51100000000E-03 0.  1.
         11   -1    0    0    0    0 -0.00000000000E+00 -0.00000000000E+00 -0.45593999997E+02  0.45594000000E+02  0.51100000000E-03 0. -1.
         23    2    1    2    0    0  0.00000000000E+00 -0.44408920985E-15 -0.17763568394E-14  0.91188000000E+02  0.91188000000E+02 0.  0.
    9900012    2    3    3    0    0 -0.34469150897E+02 -0.86715661279E+00  0.12919218141E+02  0.54367074950E+02  0.39999978963E+02 0.  0.
        -12    1    3    3    0    0  0.34469150897E+02  0.86715661279E+00 -0.12919218141E+02  0.36820925050E+02  0.00000000000E+00 0.  1.
         11    1    4    4    0    0 -0.77796867728E+01  0.88271680824E+01 -0.28373362650E+01  0.12103425134E+02  0.51100000000E-03 0. -1.
        -11    1    4    4    0    0 -0.17326414476E+02 -0.16592780568E+01 -0.50064630077E+01  0.18111391839E+02  0.51100000000E-03 0.  1.
        -12    1    4    4    0    0 -0.93630496489E+01 -0.80350466383E+01  0.20763017414E+02  0.24152257976E+02  0.00000000000E+00 0.  1.
</event>
<event>
 8    1  0.1210161E-006  0.9118800E+02  0.7816164E-02  0.1184000E+00
        -11   -1    0    0    0    0  0.00000000000E+00  0.00000000000E+00  0.45593999997E+02  0.45594000000E+02  0.51100000000E-03 0.  1.
         11   -1    0    0    0    0 -0.00000000000E+00 -0.00000000000E+00 -0.45593999997E+02  0.45594000000E+02  0.51100000000E-03 0. -1.
         23    2    1    2    0    0  0.44408920985E-15 -0.88817841970E-15  0.00000000000E+00  0.91188000000E+02  0.91188000000E+02 0.  0.
    9900012    2    3    3    0    0 -0.21585080033E+01  0.68565401982E+01 -0.36112449291E+02  0.54367078038E+02  0.39999986004E+02 0.  0.
        -12    1    3    3    0    0  0.21585080033E+01 -0.68565401982E+01  0.36112449291E+02  0.36820921962E+02  0.00000000000E+00 0.  1.
         11    1    4    4    0    0  0.77304352629E+01  0.28095237185E+00 -0.90890600255E+01  0.11935224170E+02  0.51100000000E-03 0. -1.
        -11    1    4    4    0    0  0.66485174329E+01 -0.70408528971E+01 -0.15034658401E+02  0.17883437787E+02  0.51100000000E-03 0.  1.
        -12    1    4    4    0    0 -0.16537460699E+02  0.13616440724E+02 -0.11988730865E+02  0.24548416081E+02  0.00000000000E+00 0.  1.
</event>
<event>
 8    1  0.1210161E-006  0.9118800E+02  0.7816164E-02  0.1184000E+00
        -11   -1    0    0    0    0  0.00000000000E+00  0.00000000000E+00  0.45593999997E+02  0.45594000000E+02  0.51100000000E-03 0. -1.
         11   -1    0    0    0    0 -0.00000000000E+00 -0.00000000000E+00 -0.45593999997E+02  0.45594000000E+02  0.51100000000E-03 0.  1.
         23    2    1    2    0    0  0.00000000000E+00  0.00000000000E+00  0.00000000000E+00  0.91188000000E+02  0.91188000000E+02 0.  0.
    9900012    2    3    3    0    0  0.22733281093E+02  0.27504883340E+02  0.90805796394E+01  0.54367114576E+02  0.40000069299E+02 0.  0.
         12    1    3    3    0    0 -0.22733281093E+02 -0.27504883340E+02 -0.90805796394E+01  0.36820885424E+02  0.00000000000E+00 0. -1.
         11    1    4    4    0    0  0.81453532096E+00 -0.25820635851E+01 -0.26676759861E+01  0.38009229898E+01  0.51100000000E-03 0. -1.
        -11    1    4    4    0    0  0.51137815764E+00 -0.27597963461E+01  0.10999653473E+02  0.11352108186E+02  0.51100000000E-03 0.  1.
        -12    1    4    4    0    0  0.21407367614E+02  0.32846743272E+02  0.74860215288E+00  0.39214083400E+02  0.00000000000E+00 0.  1.
</event>
<event>
 8    1  0.1210161E-006  0.9118800E+02  0.7816164E-02  0.1184000E+00
        -11   -1    0    0    0    0  0.00000000000E+00  0.00000000000E+00  0.45593999997E+02  0.45594000000E+02  0.51100000000E-03 0.  1.
         11   -1    0    0    0    0 -0.00000000000E+00 -0.00000000000E+00 -0.45593999997E+02  0.45594000000E+02  0.51100000000E-03 0. -1.
         23    2    1    2    0    0  0.00000000000E+00  0.44408920985E-15  0.00000000000E+00  0.91188000000E+02  0.91188000000E+02 0.  0.
    9900012    2    3    3    0    0 -0.32416759742E+02 -0.94102017127E+00 -0.17436998716E+02  0.54367071775E+02  0.39999971726E+02 0.  0.
        -12    1    3    3    0    0  0.32416759742E+02  0.94102017127E+00  0.17436998716E+02  0.36820928225E+02  0.00000000000E+00 0.  1.
         11    1    4    4    0    0 -0.12094664803E+02  0.16855634117E+02 -0.63172676249E+01  0.21686428675E+02  0.51100000000E-03 0.  1.
        -11    1    4    4    0    0 -0.50065806025E+00  0.36732009416E+00 -0.50896640156E+01  0.51274031047E+01  0.51100000000E-03 0. -1.
        -12    1    4    4    0    0 -0.19821436879E+02 -0.18163974382E+02 -0.60300670752E+01  0.27553239995E+02  0.00000000000E+00 0.  1.
</event>
<event>
 8    1  0.1210161E-006  0.9118800E+02  0.7816164E-02  0.1184000E+00
        -11   -1    0    0    0    0  0.00000000000E+00  0.00000000000E+00  0.45593999997E+02  0.45594000000E+02  0.51100000000E-03 0. -1.
         11   -1    0    0    0    0 -0.00000000000E+00 -0.00000000000E+00 -0.45593999997E+02  0.45594000000E+02  0.51100000000E-03 0.  1.
         23    2    1    2    0    0 -0.23869795029E-14  0.00000000000E+00  0.88817841970E-15  0.91188000000E+02  0.91188000000E+02 0.  0.
    9900012    2    3    3    0    0  0.17552733223E+00 -0.36247892220E+02  0.64681521941E+01  0.54367116075E+02  0.40000072716E+02 0.  0.
         12    1    3    3    0    0 -0.17552733223E+00  0.36247892220E+02 -0.64681521941E+01  0.36820883925E+02  0.00000000000E+00 0. -1.
         11    1    4    4    0    0  0.56874624734E+01 -0.15978841439E+02  0.17579543116E+01  0.17051715654E+02  0.51100000000E-03 0. -1.
        -11    1    4    4    0    0  0.10219646655E+02 -0.18525569292E+02  0.34563412796E+01  0.21437914792E+02  0.51100000000E-03 0.  1.
        -12    1    4    4    0    0 -0.15731581796E+02 -0.17434814894E+01  0.12538566029E+01  0.15877485629E+02  0.00000000000E+00 0.  1.
</event>
<event>
 8    1  0.1210161E-006  0.9118800E+02  0.7816164E-02  0.1184000E+00
        -11   -1    0    0    0    0  0.00000000000E+00  0.00000000000E+00  0.45593999997E+02  0.45594000000E+02  0.51100000000E-03 0.  1.
         11   -1    0    0    0    0 -0.00000000000E+00 -0.00000000000E+00 -0.45593999997E+02  0.45594000000E+02  0.51100000000E-03 0. -1.
         23    2    1    2    0    0  0.00000000000E+00  0.35527136788E-14  0.00000000000E+00  0.91188000000E+02  0.91188000000E+02 0.  0.
    9900012    2    3    3    0    0 -0.16080981504E+02  0.31767798669E+02 -0.93802416155E+01  0.54367082966E+02  0.39999997238E+02 0.  0.
        -12    1    3    3    0    0  0.16080981504E+02 -0.31767798669E+02  0.93802416155E+01  0.36820917034E+02  0.00000000000E+00 0.  1.
         11    1    4    4    0    0 -0.11792590687E+02  0.36098538596E+01 -0.65912078346E+01  0.13983571110E+02  0.51100000000E-03 0. -1.
        -11    1    4    4    0    0 -0.76070493565E+01  0.29891057333E+02  0.54611326118E+01  0.31323577032E+02  0.51100000000E-03 0.  1.
        -12    1    4    4    0    0  0.33186585397E+01 -0.17331125232E+01 -0.82501663927E+01  0.90599348247E+01  0.00000000000E+00 0.  1.
</event>
<event>
 8    1  0.1210161E-006  0.9118800E+02  0.7816164E-02  0.1184000E+00
        -11   -1    0    0    0    0  0.00000000000E+00  0.00000000000E+00  0.45593999997E+02  0.45594000000E+02  0.51100000000E-03 0.  1.
         11   -1    0    0    0    0 -0.00000000000E+00 -0.00000000000E+00 -0.45593999997E+02  0.45594000000E+02  0.51100000000E-03 0. -1.
         23    2    1    2    0    0  0.71054273576E-14 -0.17763568394E-14 -0.35527136788E-14  0.91188000000E+02  0.91188000000E+02 0.  0.
    9900012    2    3    3    0    0 -0.34022102482E+02 -0.91221680456E+01 -0.10726325597E+02  0.54367197891E+02  0.40000259231E+02 0.  0.
         12    1    3    3    0    0  0.34022102482E+02  0.91221680456E+01  0.10726325597E+02  0.36820802109E+02  0.00000000000E+00 0. -1.
         11    1    4    4    0    0  0.12115414561E+01  0.41428829784E+01 -0.11574093605E+02  0.12352771151E+02  0.51100000000E-03 0. -1.
        -11    1    4    4    0    0 -0.13530571424E+01  0.28269774676E+01  0.31400314044E+01  0.44364808931E+01  0.51100000000E-03 0.  1.
        -12    1    4    4    0    0 -0.33880586796E+02 -0.16092028492E+02 -0.22922633963E+01  0.37577945847E+02  0.00000000000E+00 0.  1.
</event>
<event>
 8    1  0.1210161E-006  0.9118800E+02  0.7816164E-02  0.1184000E+00
        -11   -1    0    0    0    0  0.00000000000E+00  0.00000000000E+00  0.45593999997E+02  0.45594000000E+02  0.51100000000E-03 0. -1.
         11   -1    0    0    0    0 -0.00000000000E+00 -0.00000000000E+00 -0.45593999997E+02  0.45594000000E+02  0.51100000000E-03 0.  1.
         23    2    1    2    0    0 -0.88817841970E-15  0.00000000000E+00  0.71054273576E-14  0.91188000000E+02  0.91188000000E+02 0.  0.
    9900012    2    3    3    0    0  0.67208977228E+01  0.24880369348E+01 -0.36116758613E+02  0.54367067818E+02  0.39999962706E+02 0.  0.
         12    1    3    3    0    0 -0.67208977228E+01 -0.24880369348E+01  0.36116758613E+02  0.36820932182E+02  0.00000000000E+00 0. -1.
         11    1    4    4    0    0  0.10982612985E+01 -0.96222423127E+00 -0.69674009533E+01  0.71187589969E+01  0.51100000000E-03 0. -1.
        -11    1    4    4    0    0  0.92760425930E+01  0.26757086968E+00 -0.36932323855E+02  0.38080350655E+02  0.51100000000E-03 0.  1.
         12    1    4    4    0    0 -0.36534061687E+01  0.31826902964E+01  0.77829661952E+01  0.91679581670E+01  0.00000000000E+00 0. -1.
</event>
<event>
 8    1  0.1210161E-006  0.9118800E+02  0.7816164E-02  0.1184000E+00
        -11   -1    0    0    0    0  0.00000000000E+00  0.00000000000E+00  0.45593999997E+02  0.45594000000E+02  0.51100000000E-03 0. -1.
         11   -1    0    0    0    0 -0.00000000000E+00 -0.00000000000E+00 -0.45593999997E+02  0.45594000000E+02  0.51100000000E-03 0.  1.
         23    2    1    2    0    0  0.00000000000E+00  0.17763568394E-14  0.35527136788E-14  0.91188000000E+02  0.91188000000E+02 0.  0.
    9900012    2    3    3    0    0 -0.25803101326E+02  0.88175041072E+01 -0.24743328616E+02  0.54367072150E+02  0.39999972581E+02 0.  0.
         12    1    3    3    0    0  0.25803101326E+02 -0.88175041072E+01  0.24743328616E+02  0.36820927850E+02  0.00000000000E+00 0. -1.
         11    1    4    4    0    0  0.38786735211E+01  0.24974160954E+00 -0.14561017354E+02  0.15070822997E+02  0.51100000000E-03 0. -1.
        -11    1    4    4    0    0 -0.30007234070E+02  0.63524768981E+00 -0.79372789106E+01  0.31045740979E+02  0.51100000000E-03 0.  1.
        -12    1    4    4    0    0  0.32545922323E+00  0.79325148078E+01 -0.22450323513E+01  0.82505081747E+01  0.00000000000E+00 0.  1.
</event>
<event>
 8    1  0.1210161E-006  0.9118800E+02  0.7816164E-02  0.1184000E+00
        -11   -1    0    0    0    0  0.00000000000E+00  0.00000000000E+00  0.45593999997E+02  0.45594000000E+02  0.51100000000E-03 0.  1.
         11   -1    0    0    0    0 -0.00000000000E+00 -0.00000000000E+00 -0.45593999997E+02  0.45594000000E+02  0.51100000000E-03 0. -1.
         23    2    1    2    0    0  0.00000000000E+00  0.00000000000E+00  0.35527136788E-14  0.91188000000E+02  0.91188000000E+02 0.  0.
    9900012    2    3    3    0    0 -0.49717114160E+01  0.27225682183E+02 -0.24286305770E+02  0.54367077515E+02  0.39999984810E+02 0.  0.
        -12    1    3    3    0    0  0.49717114160E+01 -0.27225682183E+02  0.24286305770E+02  0.36820922485E+02  0.00000000000E+00 0.  1.
         11    1    4    4    0    0 -0.17795906245E+02  0.20774519819E+02 -0.44106167307E+01  0.27707913906E+02  0.51100000000E-03 0. -1.
        -11    1    4    4    0    0  0.98956843548E+01  0.68838565874E+01 -0.81147628190E+01  0.14531394504E+02  0.51100000000E-03 0.  1.
        -12    1    4    4    0    0  0.29285104742E+01 -0.43269422397E+00 -0.11760926221E+02  0.12127769105E+02  0.00000000000E+00 0.  1.
</event>
<event>
 8    1  0.1210161E-006  0.9118800E+02  0.7816164E-02  0.1184000E+00
        -11   -1    0    0    0    0  0.00000000000E+00  0.00000000000E+00  0.45593999997E+02  0.45594000000E+02  0.51100000000E-03 0. -1.
         11   -1    0    0    0    0 -0.00000000000E+00 -0.00000000000E+00 -0.45593999997E+02  0.45594000000E+02  0.51100000000E-03 0.  1.
         23    2    1    2    0    0  0.22204460493E-15 -0.35527136788E-14  0.00000000000E+00  0.91188000000E+02  0.91188000000E+02 0.  0.
    9900012    2    3    3    0    0 -0.18433863172E+01 -0.18701488153E+02  0.31664431435E+02  0.54367082706E+02  0.39999996645E+02 0.  0.
        -12    1    3    3    0    0  0.18433863172E+01  0.18701488153E+02 -0.31664431435E+02  0.36820917294E+02  0.00000000000E+00 0.  1.
         11    1    4    4    0    0  0.14945402571E+01 -0.10799179810E+02 -0.33252340305E+01  0.11397943533E+02  0.51100000000E-03 0. -1.
        -11    1    4    4    0    0  0.41216734313E+01 -0.13204298231E+02  0.12326751375E+02  0.18528099832E+02  0.51100000000E-03 0.  1.
         12    1    4    4    0    0 -0.74596000055E+01  0.53019898885E+01  0.22662914091E+02  0.24441039342E+02  0.00000000000E+00 0. -1.
</event>
<event>
 8    1  0.1210161E-006  0.9118800E+02  0.7816164E-02  0.1184000E+00
        -11   -1    0    0    0    0  0.00000000000E+00  0.00000000000E+00  0.45593999997E+02  0.45594000000E+02  0.51100000000E-03 0. -1.
         11   -1    0    0    0    0 -0.00000000000E+00 -0.00000000000E+00 -0.45593999997E+02  0.45594000000E+02  0.51100000000E-03 0.  1.
         23    2    1    2    0    0 -0.17763568394E-14  0.00000000000E+00  0.00000000000E+00  0.91188000000E+02  0.91188000000E+02 0.  0.
    9900012    2    3    3    0    0 -0.10584738849E+02  0.13586107925E+02 -0.32544564702E+02  0.54367248830E+02  0.40000375357E+02 0.  0.
         12    1    3    3    0    0  0.10584738849E+02 -0.13586107925E+02  0.32544564702E+02  0.36820751170E+02  0.00000000000E+00 0. -1.
         11    1    4    4    0    0 -0.73631729435E+01  0.15037869550E+02 -0.70660934655E+01  0.18173703902E+02  0.51100000000E-03 0. -1.
        -11    1    4    4    0    0  0.10411226604E+02 -0.43123640660E+01 -0.78869224313E+01  0.13754768953E+02  0.51100000000E-03 0.  1.
        -12    1    4    4    0    0 -0.13632792510E+02  0.28606024413E+01 -0.17591548805E+02  0.22438775976E+02  0.00000000000E+00 0.  1.
</event>
<event>
 8    1  0.1210161E-006  0.9118800E+02  0.7816164E-02  0.1184000E+00
        -11   -1    0    0    0    0  0.00000000000E+00  0.00000000000E+00  0.45593999997E+02  0.45594000000E+02  0.51100000000E-03 0.  1.
         11   -1    0    0    0    0 -0.00000000000E+00 -0.00000000000E+00 -0.45593999997E+02  0.45594000000E+02  0.51100000000E-03 0. -1.
         23    2    1    2    0    0  0.17763568394E-14  0.00000000000E+00 -0.88817841970E-15  0.91188000000E+02  0.91188000000E+02 0.  0.
    9900012    2    3    3    0    0  0.83582481510E+01 -0.35047267939E+02 -0.75902783810E+01  0.54367032766E+02  0.39999882796E+02 0.  0.
        -12    1    3    3    0    0 -0.83582481510E+01  0.35047267939E+02  0.75902783810E+01  0.36820967234E+02  0.00000000000E+00 0.  1.
         11    1    4    4    0    0 -0.11555075787E+02 -0.80224309507E+01 -0.89938699724E+01  0.16696373023E+02  0.51100000000E-03 0. -1.
        -11    1    4    4    0    0  0.17273580770E+02 -0.13213663638E+02  0.65250849435E+01  0.22705819367E+02  0.51100000000E-03 0.  1.
        -12    1    4    4    0    0  0.26397431680E+01 -0.13811173350E+02 -0.51214933521E+01  0.14964840375E+02  0.00000000000E+00 0.  1.
</event>
<event>
 8    1  0.1210161E-006  0.9118800E+02  0.7816164E-02  0.1184000E+00
        -11   -1    0    0    0    0  0.00000000000E+00  0.00000000000E+00  0.45593999997E+02  0.45594000000E+02  0.51100000000E-03 0.  1.
         11   -1    0    0    0    0 -0.00000000000E+00 -0.00000000000E+00 -0.45593999997E+02  0.45594000000E+02  0.51100000000E-03 0. -1.
         23    2    1    2    0    0 -0.71054273576E-14  0.17763568394E-14  0.00000000000E+00  0.91188000000E+02  0.91188000000E+02 0.  0.
    9900012    2    3    3    0    0  0.34465123394E+02  0.12182531222E+02  0.44183021141E+01  0.54367079437E+02  0.39999989192E+02 0.  0.
        -12    1    3    3    0    0 -0.34465123394E+02 -0.12182531222E+02 -0.44183021141E+01  0.36820920563E+02  0.00000000000E+00 0.  1.
         11    1    4    4    0    0  0.15502297200E+02  0.13979951694E+02  0.17766616929E+02  0.27411912469E+02  0.51100000000E-03 0. -1.
        -11    1    4    4    0    0  0.13183795681E+02  0.25418314360E+01 -0.21064594132E+01  0.13590825844E+02  0.51100000000E-03 0.  1.
        -12    1    4    4    0    0  0.57790305131E+01 -0.43392519080E+01 -0.11241855402E+02  0.13364341123E+02  0.00000000000E+00 0.  1.
</event>
<event>
 8    1  0.1210161E-006  0.9118800E+02  0.7816164E-02  0.1184000E+00
        -11   -1    0    0    0    0  0.00000000000E+00  0.00000000000E+00  0.45593999997E+02  0.45594000000E+02  0.51100000000E-03 0.  1.
         11   -1    0    0    0    0 -0.00000000000E+00 -0.00000000000E+00 -0.45593999997E+02  0.45594000000E+02  0.51100000000E-03 0. -1.
         23    2    1    2    0    0  0.00000000000E+00  0.00000000000E+00  0.00000000000E+00  0.91188000000E+02  0.91188000000E+02 0.  0.
    9900012    2    3    3    0    0 -0.76352837077E+01  0.99233318615E+01 -0.34626642574E+02  0.54367157418E+02  0.40000166964E+02 0.  0.
        -12    1    3    3    0    0  0.76352837077E+01 -0.99233318615E+01  0.34626642574E+02  0.36820842582E+02  0.00000000000E+00 0.  1.
         11    1    4    4    0    0 -0.86252333971E+01  0.72074617186E+01 -0.22231997862E+02  0.24911922543E+02  0.51100000000E-03 0. -1.
        -11    1    4    4    0    0  0.19997247037E+01  0.96786052918E+01  0.47189737127E+01  0.10951849727E+02  0.51100000000E-03 0.  1.
         12    1    4    4    0    0 -0.10097750142E+01 -0.69627351489E+01 -0.17113618425E+02  0.18503385148E+02  0.00000000000E+00 0. -1.
</event>
<event>
 8    1  0.1210161E-006  0.9118800E+02  0.7816164E-02  0.1184000E+00
        -11   -1    0    0    0    0  0.00000000000E+00  0.00000000000E+00  0.45593999997E+02  0.45594000000E+02  0.51100000000E-03 0.  1.
         11   -1    0    0    0    0 -0.00000000000E+00 -0.00000000000E+00 -0.45593999997E+02  0.45594000000E+02  0.51100000000E-03 0. -1.
         23    2    1    2    0    0  0.00000000000E+00 -0.35527136788E-14  0.00000000000E+00  0.91188000000E+02  0.91188000000E+02 0.  0.
    9900012    2    3    3    0    0  0.27810356013E+01  0.16480678759E+02 -0.32809023870E+02  0.54367095901E+02  0.40000026726E+02 0.  0.
        -12    1    3    3    0    0 -0.27810356013E+01 -0.16480678759E+02  0.32809023870E+02  0.36820904099E+02  0.00000000000E+00 0.  1.
         11    1    4    4    0    0 -0.88093781826E-01  0.10287065945E+02 -0.12985197888E+02  0.16566437478E+02  0.51100000000E-03 0. -1.
        -11    1    4    4    0    0  0.31505815400E+01  0.19055962581E+02 -0.12237063599E+02  0.22864855121E+02  0.51100000000E-03 0.  1.
        -12    1    4    4    0    0 -0.28145215688E+00 -0.12862349766E+02 -0.75867623826E+01  0.14935803302E+02  0.00000000000E+00 0.  1.
</event>
<event>
 8    1  0.1210161E-006  0.9118800E+02  0.7816164E-02  0.1184000E+00
        -11   -1    0    0    0    0  0.00000000000E+00  0.00000000000E+00  0.45593999997E+02  0.45594000000E+02  0.51100000000E-03 0. -1.
         11   -1    0    0    0    0 -0.00000000000E+00 -0.00000000000E+00 -0.45593999997E+02  0.45594000000E+02  0.51100000000E-03 0.  1.
         23    2    1    2    0    0  0.00000000000E+00  0.00000000000E+00 -0.88817841970E-15  0.91188000000E+02  0.91188000000E+02 0.  0.
    9900012    2    3    3    0    0 -0.17323138716E+02  0.32195223251E+02  0.43769005714E+01  0.54367071253E+02  0.39999970535E+02 0.  0.
         12    1    3    3    0    0  0.17323138716E+02 -0.32195223251E+02 -0.43769005714E+01  0.36820928747E+02  0.00000000000E+00 0. -1.
         11    1    4    4    0    0 -0.18720297426E+02  0.10445880253E+02  0.11891444194E+02  0.24514738327E+02  0.51100000000E-03 0. -1.
        -11    1    4    4    0    0 -0.57790733365E+00  0.14228815797E+02 -0.13818045434E+02  0.19842670076E+02  0.51100000000E-03 0.  1.
         12    1    4    4    0    0  0.19750660436E+01  0.75205272019E+01  0.63035018115E+01  0.10009662849E+02  0.00000000000E+00 0. -1.
</event>
<event>
 8    1  0.1210161E-006  0.9118800E+02  0.7816164E-02  0.1184000E+00
        -11   -1    0    0    0    0  0.00000000000E+00  0.00000000000E+00  0.45593999997E+02  0.45594000000E+02  0.51100000000E-03 0.  1.
         11   -1    0    0    0    0 -0.00000000000E+00 -0.00000000000E+00 -0.45593999997E+02  0.45594000000E+02  0.51100000000E-03 0. -1.
         23    2    1    2    0    0  0.71054273576E-14  0.88817841970E-15  0.88817841970E-15  0.91188000000E+02  0.91188000000E+02 0.  0.
    9900012    2    3    3    0    0 -0.35349413783E+02 -0.74944789184E+01 -0.70733477107E+01  0.54367075013E+02  0.39999979107E+02 0.  0.
        -12    1    3    3    0    0  0.35349413783E+02  0.74944789184E+01  0.70733477107E+01  0.36820924987E+02  0.00000000000E+00 0.  1.
         11    1    4    4    0    0 -0.39378370340E+02 -0.50147035858E+01  0.65270184372E+00  0.39701754654E+02  0.51100000000E-03 0. -1.
        -11    1    4    4    0    0 -0.27019955810E+01 -0.35325995599E+01 -0.62888633406E+01  0.77025867180E+01  0.51100000000E-03 0.  1.
        -12    1    4    4    0    0  0.67309521377E+01  0.10528242273E+01 -0.14371862139E+01  0.69627336404E+01  0.00000000000E+00 0.  1.
</event>
<event>
 8    1  0.1210161E-006  0.9118800E+02  0.7816164E-02  0.1184000E+00
        -11   -1    0    0    0    0  0.00000000000E+00  0.00000000000E+00  0.45593999997E+02  0.45594000000E+02  0.51100000000E-03 0.  1.
         11   -1    0    0    0    0 -0.00000000000E+00 -0.00000000000E+00 -0.45593999997E+02  0.45594000000E+02  0.51100000000E-03 0. -1.
         23    2    1    2    0    0  0.00000000000E+00  0.00000000000E+00 -0.35527136788E-14  0.91188000000E+02  0.91188000000E+02 0.  0.
    9900012    2    3    3    0    0 -0.70021094334E+01 -0.31189672802E+02  0.18274448618E+02  0.54367072549E+02  0.39999973490E+02 0.  0.
         12    1    3    3    0    0  0.70021094334E+01  0.31189672802E+02 -0.18274448618E+02  0.36820927451E+02  0.00000000000E+00 0. -1.
         11    1    4    4    0    0  0.35558283450E+01 -0.12775353649E+02 -0.67540931806E+01  0.14881913554E+02  0.51100000000E-03 0. -1.
        -11    1    4    4    0    0 -0.12991119509E+02 -0.94465864733E+01  0.25548837225E+02  0.30178639233E+02  0.51100000000E-03 0.  1.
        -12    1    4    4    0    0  0.24331817310E+01 -0.89677326799E+01 -0.52029542657E+00  0.93065197622E+01  0.00000000000E+00 0.  1.
</event>
<event>
 8    1  0.1210161E-006  0.9118800E+02  0.7816164E-02  0.1184000E+00
        -11   -1    0    0    0    0  0.00000000000E+00  0.00000000000E+00  0.45593999997E+02  0.45594000000E+02  0.51100000000E-03 0. -1.
         11   -1    0    0    0    0 -0.00000000000E+00 -0.00000000000E+00 -0.45593999997E+02  0.45594000000E+02  0.51100000000E-03 0.  1.
         23    2    1    2    0    0  0.00000000000E+00 -0.31086244690E-14  0.00000000000E+00  0.91188000000E+02  0.91188000000E+02 0.  0.
    9900012    2    3    3    0    0  0.35616312194E+02 -0.18039427022E+01 -0.91650572356E+01  0.54367161095E+02  0.40000175347E+02 0.  0.
        -12    1    3    3    0    0 -0.35616312194E+02  0.18039427022E+01  0.91650572356E+01  0.36820838905E+02  0.00000000000E+00 0.  1.
         11    1    4    4    0    0  0.13591510750E+02 -0.18295855237E+02 -0.80413571559E+00  0.22806010564E+02  0.51100000000E-03 0. -1.
        -11    1    4    4    0    0 -0.77261227692E-01  0.23996692876E+00 -0.37305838392E+01  0.37390920644E+01  0.51100000000E-03 0.  1.
         12    1    4    4    0    0  0.22102062671E+02  0.16251945606E+02 -0.46303376808E+01  0.27822058467E+02  0.00000000000E+00 0. -1.
</event>
<event>
 8    1  0.1210161E-006  0.9118800E+02  0.7816164E-02  0.1184000E+00
        -11   -1    0    0    0    0  0.00000000000E+00  0.00000000000E+00  0.45593999997E+02  0.45594000000E+02  0.51100000000E-03 0.  1.
         11   -1    0    0    0    0 -0.00000000000E+00 -0.00000000000E+00 -0.45593999997E+02  0.45594000000E+02  0.51100000000E-03 0. -1.
         23    2    1    2    0    0  0.00000000000E+00  0.00000000000E+00  0.00000000000E+00  0.91188000000E+02  0.91188000000E+02 0.  0.
    9900012    2    3    3    0    0 -0.59259592574E+01  0.35333742521E+02 -0.84968428762E+01  0.54366991153E+02  0.39999787931E+02 0.  0.
        -12    1    3    3    0    0  0.59259592574E+01 -0.35333742521E+02  0.84968428762E+01  0.36821008847E+02  0.00000000000E+00 0.  1.
         11    1    4    4    0    0 -0.55721410539E+01  0.13012531013E+02  0.61876974371E+00  0.14168895353E+02  0.51100000000E-03 0.  1.
        -11    1    4    4    0    0  0.53527202894E+01  0.29233589852E+02 -0.95716833792E+01  0.31222932487E+02  0.51100000000E-03 0. -1.
        -12    1    4    4    0    0 -0.57065384929E+01 -0.69123783439E+01  0.45607075934E+00  0.89751633121E+01  0.00000000000E+00 0.  1.
</event>
<event>
 8    1  0.1210161E-006  0.9118800E+02  0.7816164E-02  0.1184000E+00
        -11   -1    0    0    0    0  0.00000000000E+00  0.00000000000E+00  0.45593999997E+02  0.45594000000E+02  0.51100000000E-03 0. -1.
         11   -1    0    0    0    0 -0.00000000000E+00 -0.00000000000E+00 -0.45593999997E+02  0.45594000000E+02  0.51100000000E-03 0.  1.
         23    2    1    2    0    0 -0.35527136788E-14  0.00000000000E+00 -0.17763568394E-14  0.91188000000E+02  0.91188000000E+02 0.  0.
    9900012    2    3    3    0    0  0.21556575719E+02  0.28869370083E+02 -0.75930429961E+01  0.54367071336E+02  0.39999970725E+02 0.  0.
         12    1    3    3    0    0 -0.21556575719E+02 -0.28869370083E+02  0.75930429961E+01  0.36820928664E+02  0.00000000000E+00 0. -1.
         11    1    4    4    0    0  0.41903157156E+01  0.69799234005E+01 -0.17552641524E+02  0.19348728671E+02  0.51100000000E-03 0. -1.
        -11    1    4    4    0    0  0.17592725255E+02  0.75647941660E+01  0.69995195781E+01  0.20389295408E+02  0.51100000000E-03 0.  1.
        -12    1    4    4    0    0 -0.22646525145E+00  0.14324652517E+02  0.29600789497E+01  0.14629047256E+02  0.00000000000E+00 0.  1.
</event>
<event>
 8    1  0.1210161E-006  0.9118800E+02  0.7816164E-02  0.1184000E+00
        -11   -1    0    0    0    0  0.00000000000E+00  0.00000000000E+00  0.45593999997E+02  0.45594000000E+02  0.51100000000E-03 0.  1.
         11   -1    0    0    0    0 -0.00000000000E+00 -0.00000000000E+00 -0.45593999997E+02  0.45594000000E+02  0.51100000000E-03 0. -1.
         23    2    1    2    0    0 -0.35527136788E-14 -0.35527136788E-14 -0.17763568394E-14  0.91188000000E+02  0.91188000000E+02 0.  0.
    9900012    2    3    3    0    0  0.20468060559E+02  0.26955378679E+02 -0.14499854875E+02  0.54367085642E+02  0.40000003338E+02 0.  0.
        -12    1    3    3    0    0 -0.20468060559E+02 -0.26955378679E+02  0.14499854875E+02  0.36820914358E+02  0.00000000000E+00 0.  1.
         11    1    4    4    0    0 -0.10374252172E+02  0.57598216688E+01 -0.25754080568E+01  0.12142214818E+02  0.51100000000E-03 0. -1.
        -11    1    4    4    0    0  0.35764350192E+01 -0.13902707501E+01  0.18178160941E+01  0.42459622959E+01  0.51100000000E-03 0.  1.
         12    1    4    4    0    0  0.27265877711E+02  0.22585827760E+02 -0.13742262912E+02  0.37978908528E+02  0.00000000000E+00 0. -1.
</event>
<event>
 8    1  0.1210161E-006  0.9118800E+02  0.7816164E-02  0.1184000E+00
        -11   -1    0    0    0    0  0.00000000000E+00  0.00000000000E+00  0.45593999997E+02  0.45594000000E+02  0.51100000000E-03 0.  1.
         11   -1    0    0    0    0 -0.00000000000E+00 -0.00000000000E+00 -0.45593999997E+02  0.45594000000E+02  0.51100000000E-03 0. -1.
         23    2    1    2    0    0  0.00000000000E+00  0.00000000000E+00 -0.77715611724E-15  0.91188000000E+02  0.91188000000E+02 0.  0.
    9900012    2    3    3    0    0  0.34185904914E+02  0.13665539104E+02  0.59592433788E+00  0.54367106752E+02  0.40000051461E+02 0.  0.
        -12    1    3    3    0    0 -0.34185904914E+02 -0.13665539104E+02 -0.59592433788E+00  0.36820893248E+02  0.00000000000E+00 0.  1.
         11    1    4    4    0    0  0.94554586695E+01  0.42175640861E+01 -0.57134154512E+01  0.11825255255E+02  0.51100000000E-03 0. -1.
        -11    1    4    4    0    0 -0.26712430036E+01 -0.25485932391E+01 -0.84240214643E+01  0.91975542714E+01  0.51100000000E-03 0.  1.
         12    1    4    4    0    0  0.27401689248E+02  0.11996568257E+02  0.14733361253E+02  0.33344297225E+02  0.00000000000E+00 0. -1.
</event>
<event>
 8    1  0.1210161E-006  0.9118800E+02  0.7816164E-02  0.1184000E+00
        -11   -1    0    0    0    0  0.00000000000E+00  0.00000000000E+00  0.45593999997E+02  0.45594000000E+02  0.51100000000E-03 0.  1.
         11   -1    0    0    0    0 -0.00000000000E+00 -0.00000000000E+00 -0.45593999997E+02  0.45594000000E+02  0.51100000000E-03 0. -1.
         23    2    1    2    0    0  0.17763568394E-14 -0.17763568394E-14  0.00000000000E+00  0.91188000000E+02  0.91188000000E+02 0.  0.
    9900012    2    3    3    0    0 -0.11543406368E+02 -0.82146123523E+01 -0.33986023973E+02  0.54367083224E+02  0.39999997827E+02 0.  0.
        -12    1    3    3    0    0  0.11543406368E+02  0.82146123523E+01  0.33986023973E+02  0.36820916776E+02  0.00000000000E+00 0.  1.
         11    1    4    4    0    0  0.15478945556E+01  0.77628804682E+01 -0.94469513329E+01  0.12324900830E+02  0.51100000000E-03 0. -1.
        -11    1    4    4    0    0 -0.61679477027E+01  0.35058355354E+01  0.29171645688E+01  0.76710045657E+01  0.51100000000E-03 0.  1.
         12    1    4    4    0    0 -0.69233532211E+01 -0.19483328356E+02 -0.27456237209E+02  0.34371177829E+02  0.00000000000E+00 0. -1.
</event>
<event>
 8    1  0.1210161E-006  0.9118800E+02  0.7816164E-02  0.1184000E+00
        -11   -1    0    0    0    0  0.00000000000E+00  0.00000000000E+00  0.45593999997E+02  0.45594000000E+02  0.51100000000E-03 0. -1.
         11   -1    0    0    0    0 -0.00000000000E+00 -0.00000000000E+00 -0.45593999997E+02  0.45594000000E+02  0.51100000000E-03 0.  1.
         23    2    1    2    0    0  0.35527136788E-14  0.00000000000E+00  0.00000000000E+00  0.91188000000E+02  0.91188000000E+02 0.  0.
    9900012    2    3    3    0    0  0.28205503980E+02 -0.21873150656E+02  0.90440972826E+01  0.54367070218E+02  0.39999968176E+02 0.  0.
        -12    1    3    3    0    0 -0.28205503980E+02  0.21873150656E+02 -0.90440972826E+01  0.36820929782E+02  0.00000000000E+00 0.  1.
         11    1    4    4    0    0  0.14981356969E+02 -0.11572812933E+02  0.94129458440E+01  0.21141773945E+02  0.51100000000E-03 0. -1.
        -11    1    4    4    0    0  0.17767124966E+02 -0.14329617389E+02 -0.73433157758E+01  0.23977759506E+02  0.51100000000E-03 0.  1.
        -12    1    4    4    0    0 -0.45429779555E+01  0.40292796661E+01  0.69744672144E+01  0.92475367670E+01  0.00000000000E+00 0.  1.
</event>
<event>
 8    1  0.1210161E-006  0.9118800E+02  0.7816164E-02  0.1184000E+00
        -11   -1    0    0    0    0  0.00000000000E+00  0.00000000000E+00  0.45593999997E+02  0.45594000000E+02  0.51100000000E-03 0.  1.
         11   -1    0    0    0    0 -0.00000000000E+00 -0.00000000000E+00 -0.45593999997E+02  0.45594000000E+02  0.51100000000E-03 0. -1.
         23    2    1    2    0    0  0.88817841970E-15 -0.71054273576E-14 -0.88817841970E-15  0.91188000000E+02  0.91188000000E+02 0.  0.
    9900012    2    3    3    0    0  0.57670822817E+01  0.35571667123E+02  0.75615554126E+01  0.54367083931E+02  0.39999999436E+02 0.  0.
         12    1    3    3    0    0 -0.57670822817E+01 -0.35571667123E+02 -0.75615554126E+01  0.36820916069E+02  0.00000000000E+00 0. -1.
         11    1    4    4    0    0 -0.28994585344E+01  0.33691989331E+00  0.25247198520E+01  0.38593503857E+01  0.51100000000E-03 0. -1.
        -11    1    4    4    0    0  0.13508219455E+02  0.41476643685E+01 -0.82417268174E+01  0.16358519913E+02  0.51100000000E-03 0.  1.
         12    1    4    4    0    0 -0.48416786387E+01  0.31087082861E+02  0.13278562378E+02  0.34149213632E+02  0.00000000000E+00 0. -1.
</event>
<event>
 8    1  0.1210161E-006  0.9118800E+02  0.7816164E-02  0.1184000E+00
        -11   -1    0    0    0    0  0.00000000000E+00  0.00000000000E+00  0.45593999997E+02  0.45594000000E+02  0.51100000000E-03 0. -1.
         11   -1    0    0    0    0 -0.00000000000E+00 -0.00000000000E+00 -0.45593999997E+02  0.45594000000E+02  0.51100000000E-03 0.  1.
         23    2    1    2    0    0  0.00000000000E+00 -0.35527136788E-14  0.00000000000E+00  0.91188000000E+02  0.91188000000E+02 0.  0.
    9900012    2    3    3    0    0 -0.25872990902E+02  0.21072867933E+02 -0.15566020271E+02  0.54367103647E+02  0.40000044385E+02 0.  0.
         12    1    3    3    0    0  0.25872990902E+02 -0.21072867933E+02  0.15566020271E+02  0.36820896353E+02  0.00000000000E+00 0. -1.
         11    1    4    4    0    0  0.32038513896E+01  0.10388714889E+02  0.17699308307E+01  0.11014659149E+02  0.51100000000E-03 0. -1.
        -11    1    4    4    0    0 -0.23095515380E+02 -0.37625252843E+01 -0.63607358969E+01  0.24249090469E+02  0.51100000000E-03 0.  1.
         12    1    4    4    0    0 -0.59813269119E+01  0.14446678328E+02 -0.10975215205E+02  0.19103354029E+02  0.00000000000E+00 0. -1.
</event>
<event>
 8    1  0.1210161E-006  0.9118800E+02  0.7816164E-02  0.1184000E+00
        -11   -1    0    0    0    0  0.00000000000E+00  0.00000000000E+00  0.45593999997E+02  0.45594000000E+02  0.51100000000E-03 0. -1.
         11   -1    0    0    0    0 -0.00000000000E+00 -0.00000000000E+00 -0.45593999997E+02  0.45594000000E+02  0.51100000000E-03 0.  1.
         23    2    1    2    0    0 -0.17763568394E-14  0.35527136788E-14 -0.35527136788E-14  0.91188000000E+02  0.91188000000E+02 0.  0.
    9900012    2    3    3    0    0 -0.12348437375E+02  0.21829582858E+02 -0.26958593377E+02  0.54367077277E+02  0.39999984268E+02 0.  0.
         12    1    3    3    0    0  0.12348437375E+02 -0.21829582858E+02  0.26958593377E+02  0.36820922723E+02  0.00000000000E+00 0. -1.
         11    1    4    4    0    0  0.63170397279E+01  0.84526010822E+01 -0.14850470440E+02  0.18217791538E+02  0.51100000000E-03 0. -1.
        -11    1    4    4    0    0  0.59037234802E+01  0.14903300217E+01 -0.51698758589E+01  0.79876561745E+01  0.51100000000E-03 0.  1.
        -12    1    4    4    0    0 -0.24569200583E+02  0.11886651754E+02 -0.69382470777E+01  0.28161629564E+02  0.00000000000E+00 0.  1.
</event>
<event>
 8    1  0.1210161E-006  0.9118800E+02  0.7816164E-02  0.1184000E+00
        -11   -1    0    0    0    0  0.00000000000E+00  0.00000000000E+00  0.45593999997E+02  0.45594000000E+02  0.51100000000E-03 0.  1.
         11   -1    0    0    0    0 -0.00000000000E+00 -0.00000000000E+00 -0.45593999997E+02  0.45594000000E+02  0.51100000000E-03 0. -1.
         23    2    1    2    0    0  0.00000000000E+00  0.00000000000E+00  0.00000000000E+00  0.91188000000E+02  0.91188000000E+02 0.  0.
    9900012    2    3    3    0    0 -0.25483603773E+02  0.58996680643E+01 -0.25914460014E+02  0.54367090420E+02  0.40000014230E+02 0.  0.
        -12    1    3    3    0    0  0.25483603773E+02 -0.58996680643E+01  0.25914460014E+02  0.36820909580E+02  0.00000000000E+00 0.  1.
         11    1    4    4    0    0 -0.57434417137E+01  0.12739846558E+02 -0.19412734852E+02  0.23919554505E+02  0.51100000000E-03 0. -1.
        -11    1    4    4    0    0 -0.14184752474E+01 -0.10751307370E+02 -0.39432828751E+01  0.11539157780E+02  0.51100000000E-03 0.  1.
         12    1    4    4    0    0 -0.18321686812E+02  0.39111288761E+01 -0.25584422864E+01  0.18908378134E+02  0.00000000000E+00 0. -1.
</event>
<event>
 8    1  0.1210161E-006  0.9118800E+02  0.7816164E-02  0.1184000E+00
        -11   -1    0    0    0    0  0.00000000000E+00  0.00000000000E+00  0.45593999997E+02  0.45594000000E+02  0.51100000000E-03 0. -1.
         11   -1    0    0    0    0 -0.00000000000E+00 -0.00000000000E+00 -0.45593999997E+02  0.45594000000E+02  0.51100000000E-03 0.  1.
         23    2    1    2    0    0  0.00000000000E+00  0.00000000000E+00  0.00000000000E+00  0.91188000000E+02  0.91188000000E+02 0.  0.
    9900012    2    3    3    0    0 -0.27572163283E+02  0.23403659515E+02  0.69154475786E+01  0.54367097214E+02  0.40000029718E+02 0.  0.
        -12    1    3    3    0    0  0.27572163283E+02 -0.23403659515E+02 -0.69154475786E+01  0.36820902786E+02  0.00000000000E+00 0.  1.
         11    1    4    4    0    0 -0.92774554258E+01 -0.57941779181E+01  0.35033027482E+01  0.11485504226E+02  0.51100000000E-03 0. -1.
        -11    1    4    4    0    0 -0.11081525132E+02 -0.13244509557E+01  0.28279803223E+01  0.11513116109E+02  0.51100000000E-03 0.  1.
         12    1    4    4    0    0 -0.72131827256E+01  0.30522288388E+02  0.58416450809E+00  0.31368476878E+02  0.00000000000E+00 0. -1.
</event>
<event>
 8    1  0.1210161E-006  0.9118800E+02  0.7816164E-02  0.1184000E+00
        -11   -1    0    0    0    0  0.00000000000E+00  0.00000000000E+00  0.45593999997E+02  0.45594000000E+02  0.51100000000E-03 0. -1.
         11   -1    0    0    0    0 -0.00000000000E+00 -0.00000000000E+00 -0.45593999997E+02  0.45594000000E+02  0.51100000000E-03 0.  1.
         23    2    1    2    0    0  0.00000000000E+00  0.88817841970E-15  0.35527136788E-14  0.91188000000E+02  0.91188000000E+02 0.  0.
    9900012    2    3    3    0    0 -0.18876190470E+02 -0.29776299178E+01 -0.31473825711E+02  0.54367101702E+02  0.40000039951E+02 0.  0.
         12    1    3    3    0    0  0.18876190470E+02  0.29776299178E+01  0.31473825711E+02  0.36820898298E+02  0.00000000000E+00 0. -1.
         11    1    4    4    0    0 -0.94262366551E+01 -0.10192060492E+02 -0.43150664460E+01  0.14537944602E+02  0.51100000000E-03 0. -1.
        -11    1    4    4    0    0 -0.16696428905E+02  0.69982520736E+01 -0.27085993262E+02  0.32579093013E+02  0.51100000000E-03 0.  1.
        -12    1    4    4    0    0  0.72464750907E+01  0.21617850060E+00 -0.72766002733E-01  0.72500640877E+01  0.00000000000E+00 0.  1.
</event>
<event>
 8    1  0.1210161E-006  0.9118800E+02  0.7816164E-02  0.1184000E+00
        -11   -1    0    0    0    0  0.00000000000E+00  0.00000000000E+00  0.45593999997E+02  0.45594000000E+02  0.51100000000E-03 0. -1.
         11   -1    0    0    0    0 -0.00000000000E+00 -0.00000000000E+00 -0.45593999997E+02  0.45594000000E+02  0.51100000000E-03 0.  1.
         23    2    1    2    0    0  0.00000000000E+00 -0.35527136788E-14  0.17763568394E-14  0.91188000000E+02  0.91188000000E+02 0.  0.
    9900012    2    3    3    0    0  0.34422039739E+02 -0.86881251377E+01  0.97683257102E+01  0.54367074898E+02  0.39999978845E+02 0.  0.
        -12    1    3    3    0    0 -0.34422039739E+02  0.86881251377E+01 -0.97683257102E+01  0.36820925102E+02  0.00000000000E+00 0.  1.
         11    1    4    4    0    0 -0.38496528588E+01 -0.91885416870E+01  0.11868922457E+02  0.15495820276E+02  0.51100000000E-03 0. -1.
        -11    1    4    4    0    0  0.67901756620E+01  0.20564350405E+01 -0.19232704927E+01  0.73508081356E+01  0.51100000000E-03 0.  1.
        -12    1    4    4    0    0  0.31481516936E+02 -0.15560184912E+01 -0.17732625452E+00  0.31520446486E+02  0.00000000000E+00 0.  1.
</event>
<event>
 8    1  0.1210161E-006  0.9118800E+02  0.7816164E-02  0.1184000E+00
        -11   -1    0    0    0    0  0.00000000000E+00  0.00000000000E+00  0.45593999997E+02  0.45594000000E+02  0.51100000000E-03 0. -1.
         11   -1    0    0    0    0 -0.00000000000E+00 -0.00000000000E+00 -0.45593999997E+02  0.45594000000E+02  0.51100000000E-03 0.  1.
         23    2    1    2    0    0  0.00000000000E+00  0.00000000000E+00  0.00000000000E+00  0.91188000000E+02  0.91188000000E+02 0.  0.
    9900012    2    3    3    0    0  0.12812867145E+02 -0.30236462706E+02 -0.16654333764E+02  0.54367081019E+02  0.39999992800E+02 0.  0.
        -12    1    3    3    0    0 -0.12812867145E+02  0.30236462706E+02  0.16654333764E+02  0.36820918981E+02  0.00000000000E+00 0.  1.
         11    1    4    4    0    0  0.15435862343E+02 -0.21402035309E+02  0.59179121728E+01  0.27043199633E+02  0.51100000000E-03 0. -1.
        -11    1    4    4    0    0 -0.13025824507E+01  0.22789448607E+00 -0.15992936764E+02  0.16047513313E+02  0.51100000000E-03 0.  1.
         12    1    4    4    0    0 -0.13204127474E+01 -0.90623218832E+01 -0.65793091728E+01  0.11276368074E+02  0.00000000000E+00 0. -1.
</event>
<event>
 8    1  0.1210161E-006  0.9118800E+02  0.7816164E-02  0.1184000E+00
        -11   -1    0    0    0    0  0.00000000000E+00  0.00000000000E+00  0.45593999997E+02  0.45594000000E+02  0.51100000000E-03 0.  1.
         11   -1    0    0    0    0 -0.00000000000E+00 -0.00000000000E+00 -0.45593999997E+02  0.45594000000E+02  0.51100000000E-03 0. -1.
         23    2    1    2    0    0  0.35527136788E-14 -0.35527136788E-14  0.00000000000E+00  0.91188000000E+02  0.91188000000E+02 0.  0.
    9900012    2    3    3    0    0 -0.24545818975E+02  0.14286050642E+02 -0.23434830946E+02  0.54367085107E+02  0.40000002117E+02 0.  0.
        -12    1    3    3    0    0  0.24545818975E+02 -0.14286050642E+02  0.23434830946E+02  0.36820914893E+02  0.00000000000E+00 0.  1.
         11    1    4    4    0    0 -0.72509797207E+01  0.86068184488E+00 -0.28864275965E+02  0.29773543750E+02  0.51100000000E-03 0. -1.
        -11    1    4    4    0    0 -0.28805432730E+01  0.10902856823E+01  0.46856088095E+01  0.56072437608E+01  0.51100000000E-03 0.  1.
        -12    1    4    4    0    0 -0.14414295982E+02  0.12335083115E+02  0.74383620983E+00  0.18986297596E+02  0.00000000000E+00 0.  1.
</event>
<event>
 8    1  0.1210161E-006  0.9118800E+02  0.7816164E-02  0.1184000E+00
        -11   -1    0    0    0    0  0.00000000000E+00  0.00000000000E+00  0.45593999997E+02  0.45594000000E+02  0.51100000000E-03 0. -1.
         11   -1    0    0    0    0 -0.00000000000E+00 -0.00000000000E+00 -0.45593999997E+02  0.45594000000E+02  0.51100000000E-03 0.  1.
         23    2    1    2    0    0 -0.88817841970E-15  0.00000000000E+00 -0.35527136788E-14  0.91188000000E+02  0.91188000000E+02 0.  0.
    9900012    2    3    3    0    0 -0.48143171229E+01  0.19216296247E+02  0.31037661066E+02  0.54367080739E+02  0.39999992161E+02 0.  0.
        -12    1    3    3    0    0  0.48143171229E+01 -0.19216296247E+02 -0.31037661066E+02  0.36820919261E+02  0.00000000000E+00 0.  1.
         11    1    4    4    0    0 -0.89306815368E-01  0.11405241483E+02  0.35827052091E+01  0.11955052734E+02  0.51100000000E-03 0. -1.
        -11    1    4    4    0    0  0.44756035028E+01 -0.79522641457E+01  0.21262983185E+02  0.23138366104E+02  0.51100000000E-03 0.  1.
        -12    1    4    4    0    0 -0.92006138103E+01  0.15763318909E+02  0.61919726714E+01  0.19273661901E+02  0.00000000000E+00 0.  1.
</event>
<event>
 8    1  0.1210161E-006  0.9118800E+02  0.7816164E-02  0.1184000E+00
        -11   -1    0    0    0    0  0.00000000000E+00  0.00000000000E+00  0.45593999997E+02  0.45594000000E+02  0.51100000000E-03 0.  1.
         11   -1    0    0    0    0 -0.00000000000E+00 -0.00000000000E+00 -0.45593999997E+02  0.45594000000E+02  0.51100000000E-03 0. -1.
         23    2    1    2    0    0 -0.35527136788E-14 -0.35527136788E-14 -0.35527136788E-14  0.91188000000E+02  0.91188000000E+02 0.  0.
    9900012    2    3    3    0    0  0.13154407623E+02  0.28543414969E+02  0.19183699104E+02  0.54367091683E+02  0.40000017109E+02 0.  0.
         12    1    3    3    0    0 -0.13154407623E+02 -0.28543414969E+02 -0.19183699104E+02  0.36820908317E+02  0.00000000000E+00 0. -1.
         11    1    4    4    0    0  0.96221980943E+01  0.79117082983E+01 -0.10211384117E+02  0.16107581762E+02  0.51100000000E-03 0. -1.
        -11    1    4    4    0    0  0.30935785787E+00  0.60151930892E+01  0.19268804158E+02  0.20188240739E+02  0.51100000000E-03 0.  1.
         12    1    4    4    0    0  0.32228516703E+01  0.14616513581E+02  0.10126279063E+02  0.18071269182E+02  0.00000000000E+00 0. -1.
</event>
<event>
 8    1  0.1210161E-006  0.9118800E+02  0.7816164E-02  0.1184000E+00
        -11   -1    0    0    0    0  0.00000000000E+00  0.00000000000E+00  0.45593999997E+02  0.45594000000E+02  0.51100000000E-03 0.  1.
         11   -1    0    0    0    0 -0.00000000000E+00 -0.00000000000E+00 -0.45593999997E+02  0.45594000000E+02  0.51100000000E-03 0. -1.
         23    2    1    2    0    0  0.00000000000E+00  0.00000000000E+00  0.22204460493E-15  0.91188000000E+02  0.91188000000E+02 0.  0.
    9900012    2    3    3    0    0 -0.22118417532E+02 -0.29414164526E+02  0.11670393988E+01  0.54367089502E+02  0.40000012139E+02 0.  0.
        -12    1    3    3    0    0  0.22118417532E+02  0.29414164526E+02 -0.11670393988E+01  0.36820910498E+02  0.00000000000E+00 0.  1.
         11    1    4    4    0    0 -0.52028859583E+01 -0.27654835862E+02  0.67841994834E+01  0.28946249010E+02  0.51100000000E-03 0. -1.
        -11    1    4    4    0    0 -0.18677983109E+01  0.27450003889E+01  0.53267985255E+01  0.62768208878E+01  0.51100000000E-03 0.  1.
         12    1    4    4    0    0 -0.15047733263E+02 -0.45043290533E+01 -0.10943958610E+02  0.19144019605E+02  0.00000000000E+00 0. -1.
</event>
<event>
 8    1  0.1210161E-006  0.9118800E+02  0.7816164E-02  0.1184000E+00
        -11   -1    0    0    0    0  0.00000000000E+00  0.00000000000E+00  0.45593999997E+02  0.45594000000E+02  0.51100000000E-03 0.  1.
         11   -1    0    0    0    0 -0.00000000000E+00 -0.00000000000E+00 -0.45593999997E+02  0.45594000000E+02  0.51100000000E-03 0. -1.
         23    2    1    2    0    0  0.35527136788E-14 -0.35527136788E-14  0.88817841970E-15  0.91188000000E+02  0.91188000000E+02 0.  0.
    9900012    2    3    3    0    0  0.28254591110E+02 -0.22330412836E+02  0.76687860343E+01  0.54367088340E+02  0.40000009489E+02 0.  0.
         12    1    3    3    0    0 -0.28254591110E+02  0.22330412836E+02 -0.76687860343E+01  0.36820911660E+02  0.00000000000E+00 0. -1.
         11    1    4    4    0    0 -0.41957125044E+01 -0.15758552287E+01  0.97883058397E+00  0.45875301301E+01  0.51100000000E-03 0. -1.
        -11    1    4    4    0    0  0.18007828512E+02 -0.15131548160E+02  0.18799733134E+02  0.30111054508E+02  0.51100000000E-03 0.  1.
         12    1    4    4    0    0  0.14442475103E+02 -0.56230094473E+01 -0.12109777684E+02  0.19668503702E+02  0.00000000000E+00 0. -1.
</event>
<event>
 8    1  0.1210161E-006  0.9118800E+02  0.7816164E-02  0.1184000E+00
        -11   -1    0    0    0    0  0.00000000000E+00  0.00000000000E+00  0.45593999997E+02  0.45594000000E+02  0.51100000000E-03 0. -1.
         11   -1    0    0    0    0 -0.00000000000E+00 -0.00000000000E+00 -0.45593999997E+02  0.45594000000E+02  0.51100000000E-03 0.  1.
         23    2    1    2    0    0  0.35527136788E-14  0.17763568394E-14  0.35527136788E-14  0.91188000000E+02  0.91188000000E+02 0.  0.
    9900012    2    3    3    0    0 -0.25488255228E+02 -0.62210552215E+01 -0.25834619456E+02  0.54367078704E+02  0.39999987522E+02 0.  0.
        -12    1    3    3    0    0  0.25488255228E+02  0.62210552215E+01  0.25834619456E+02  0.36820921296E+02  0.00000000000E+00 0.  1.
         11    1    4    4    0    0 -0.13961251923E+02  0.10919310590E+02 -0.10680828816E+02  0.20693670614E+02  0.51100000000E-03 0. -1.
        -11    1    4    4    0    0  0.44586020640E+01  0.18825631706E+01 -0.46005418855E+01  0.66774368104E+01  0.51100000000E-03 0.  1.
        -12    1    4    4    0    0 -0.15985605369E+02 -0.19022928982E+02 -0.10553248754E+02  0.26995971280E+02  0.00000000000E+00 0.  1.
</event>
<event>
 8    1  0.1210161E-006  0.9118800E+02  0.7816164E-02  0.1184000E+00
        -11   -1    0    0    0    0  0.00000000000E+00  0.00000000000E+00  0.45593999997E+02  0.45594000000E+02  0.51100000000E-03 0.  1.
         11   -1    0    0    0    0 -0.00000000000E+00 -0.00000000000E+00 -0.45593999997E+02  0.45594000000E+02  0.51100000000E-03 0. -1.
         23    2    1    2    0    0  0.00000000000E+00  0.00000000000E+00  0.00000000000E+00  0.91188000000E+02  0.91188000000E+02 0.  0.
    9900012    2    3    3    0    0  0.18152611579E+02 -0.20982037295E+01 -0.31966548625E+02  0.54367082072E+02  0.39999995200E+02 0.  0.
        -12    1    3    3    0    0 -0.18152611579E+02  0.20982037295E+01  0.31966548625E+02  0.36820917928E+02  0.00000000000E+00 0.  1.
         11    1    4    4    0    0  0.45527849783E+01 -0.57994757445E+00 -0.64677814140E+00  0.46349231356E+01  0.51100000000E-03 0. -1.
        -11    1    4    4    0    0  0.12301631863E+02 -0.36497455601E+01  0.46706983911E+01  0.13655263193E+02  0.51100000000E-03 0.  1.
         12    1    4    4    0    0  0.12981947380E+01  0.21314894050E+01 -0.35990468875E+02  0.36076895744E+02  0.00000000000E+00 0. -1.
</event>
<event>
 8    1  0.1210161E-006  0.9118800E+02  0.7816164E-02  0.1184000E+00
        -11   -1    0    0    0    0  0.00000000000E+00  0.00000000000E+00  0.45593999997E+02  0.45594000000E+02  0.51100000000E-03 0.  1.
         11   -1    0    0    0    0 -0.00000000000E+00 -0.00000000000E+00 -0.45593999997E+02  0.45594000000E+02  0.51100000000E-03 0. -1.
         23    2    1    2    0    0  0.55511151231E-15  0.10658141036E-13 -0.35527136788E-14  0.91188000000E+02  0.91188000000E+02 0.  0.
    9900012    2    3    3    0    0 -0.79030190296E+00 -0.29409805536E+02  0.22140937092E+02  0.54367050337E+02  0.39999922853E+02 0.  0.
         12    1    3    3    0    0  0.79030190296E+00  0.29409805536E+02 -0.22140937092E+02  0.36820949663E+02  0.00000000000E+00 0. -1.
         11    1    4    4    0    0  0.53282888871E+01  0.29024002255E+01  0.21890045129E+00  0.60714501729E+01  0.51100000000E-03 0. -1.
        -11    1    4    4    0    0 -0.20010105484E+01  0.13383030885E+01  0.13025675724E+02  0.13246257082E+02  0.51100000000E-03 0.  1.
         12    1    4    4    0    0 -0.41175802417E+01 -0.33650508850E+02  0.88963609170E+01  0.35049343082E+02  0.00000000000E+00 0. -1.
</event>
<event>
 8    1  0.1210161E-006  0.9118800E+02  0.7816164E-02  0.1184000E+00
        -11   -1    0    0    0    0  0.00000000000E+00  0.00000000000E+00  0.45593999997E+02  0.45594000000E+02  0.51100000000E-03 0.  1.
         11   -1    0    0    0    0 -0.00000000000E+00 -0.00000000000E+00 -0.45593999997E+02  0.45594000000E+02  0.51100000000E-03 0. -1.
         23    2    1    2    0    0  0.00000000000E+00 -0.17763568394E-14  0.71054273576E-14  0.91188000000E+02  0.91188000000E+02 0.  0.
    9900012    2    3    3    0    0 -0.73924930846E+01 -0.11314714417E+02 -0.34250643887E+02  0.54367104804E+02  0.40000047023E+02 0.  0.
        -12    1    3    3    0    0  0.73924930846E+01  0.11314714417E+02  0.34250643887E+02  0.36820895196E+02  0.00000000000E+00 0.  1.
         11    1    4    4    0    0 -0.47759488330E+01 -0.18499457442E+02 -0.23589713208E+02  0.30356452072E+02  0.51100000000E-03 0.  1.
        -11    1    4    4    0    0 -0.11183729940E+02  0.62266163209E+01 -0.52663562986E+01  0.13841281555E+02  0.51100000000E-03 0. -1.
        -12    1    4    4    0    0  0.85671856879E+01  0.95812670420E+00 -0.53945743799E+01  0.10169371177E+02  0.00000000000E+00 0.  1.
</event>
<event>
 8    1  0.1210161E-006  0.9118800E+02  0.7816164E-02  0.1184000E+00
        -11   -1    0    0    0    0  0.00000000000E+00  0.00000000000E+00  0.45593999997E+02  0.45594000000E+02  0.51100000000E-03 0. -1.
         11   -1    0    0    0    0 -0.00000000000E+00 -0.00000000000E+00 -0.45593999997E+02  0.45594000000E+02  0.51100000000E-03 0.  1.
         23    2    1    2    0    0 -0.35527136788E-14  0.00000000000E+00 -0.13322676296E-14  0.91188000000E+02  0.91188000000E+02 0.  0.
    9900012    2    3    3    0    0  0.30785437740E+02 -0.20168867236E+02 -0.11191608153E+01  0.54367096924E+02  0.40000029057E+02 0.  0.
        -12    1    3    3    0    0 -0.30785437740E+02  0.20168867236E+02  0.11191608153E+01  0.36820903076E+02  0.00000000000E+00 0.  1.
         11    1    4    4    0    0  0.26867789405E+01 -0.14371857470E+02  0.94873399431E+01  0.17429248053E+02  0.51100000000E-03 0. -1.
        -11    1    4    4    0    0  0.98139622268E+01 -0.88558141092E+01 -0.12637863138E+02  0.18288107696E+02  0.51100000000E-03 0.  1.
         12    1    4    4    0    0  0.18284696573E+02  0.30588043439E+01  0.20313623800E+01  0.18649741175E+02  0.00000000000E+00 0. -1.
</event>
<event>
 8    1  0.1210161E-006  0.9118800E+02  0.7816164E-02  0.1184000E+00
        -11   -1    0    0    0    0  0.00000000000E+00  0.00000000000E+00  0.45593999997E+02  0.45594000000E+02  0.51100000000E-03 0. -1.
         11   -1    0    0    0    0 -0.00000000000E+00 -0.00000000000E+00 -0.45593999997E+02  0.45594000000E+02  0.51100000000E-03 0.  1.
         23    2    1    2    0    0  0.17763568394E-14 -0.35527136788E-14 -0.35527136788E-14  0.91188000000E+02  0.91188000000E+02 0.  0.
    9900012    2    3    3    0    0  0.73769124517E+01 -0.20949456958E+02  0.29368044945E+02  0.54367073232E+02  0.39999975047E+02 0.  0.
        -12    1    3    3    0    0 -0.73769124517E+01  0.20949456958E+02 -0.29368044945E+02  0.36820926768E+02  0.00000000000E+00 0.  1.
         11    1    4    4    0    0  0.10757781513E+02 -0.61493224996E+01  0.30532478147E+01  0.12761910232E+02  0.51100000000E-03 0. -1.
        -11    1    4    4    0    0  0.53403057293E+01  0.16430481679E+01  0.21728835912E+02  0.22435703308E+02  0.51100000000E-03 0.  1.
        -12    1    4    4    0    0 -0.87211747907E+01 -0.16443182626E+02  0.45859612184E+01  0.19169459692E+02  0.00000000000E+00 0.  1.
</event>
<event>
 8    1  0.1210161E-006  0.9118800E+02  0.7816164E-02  0.1184000E+00
        -11   -1    0    0    0    0  0.00000000000E+00  0.00000000000E+00  0.45593999997E+02  0.45594000000E+02  0.51100000000E-03 0.  1.
         11   -1    0    0    0    0 -0.00000000000E+00 -0.00000000000E+00 -0.45593999997E+02  0.45594000000E+02  0.51100000000E-03 0. -1.
         23    2    1    2    0    0 -0.35527136788E-14 -0.71054273576E-14  0.17763568394E-14  0.91188000000E+02  0.91188000000E+02 0.  0.
    9900012    2    3    3    0    0 -0.11918924409E+02 -0.33475483819E+02  0.96494618043E+01  0.54367069959E+02  0.39999967585E+02 0.  0.
        -12    1    3    3    0    0  0.11918924409E+02  0.33475483819E+02 -0.96494618043E+01  0.36820930041E+02  0.00000000000E+00 0.  1.
         11    1    4    4    0    0 -0.16537621065E+02 -0.17841788585E+02 -0.62296518213E+01  0.25112365330E+02  0.51100000000E-03 0. -1.
        -11    1    4    4    0    0  0.80125950368E+01 -0.92869531435E+01  0.50132869330E+00  0.12276013548E+02  0.51100000000E-03 0.  1.
         12    1    4    4    0    0 -0.33938983815E+01 -0.63467420903E+01  0.15377784932E+02  0.16978691081E+02  0.00000000000E+00 0. -1.
</event>
<event>
 8    1  0.1210161E-006  0.9118800E+02  0.7816164E-02  0.1184000E+00
        -11   -1    0    0    0    0  0.00000000000E+00  0.00000000000E+00  0.45593999997E+02  0.45594000000E+02  0.51100000000E-03 0. -1.
         11   -1    0    0    0    0 -0.00000000000E+00 -0.00000000000E+00 -0.45593999997E+02  0.45594000000E+02  0.51100000000E-03 0.  1.
         23    2    1    2    0    0  0.00000000000E+00  0.00000000000E+00  0.88817841970E-15  0.91188000000E+02  0.91188000000E+02 0.  0.
    9900012    2    3    3    0    0 -0.24601063011E+02  0.27203053737E+02  0.32499960036E+01  0.54367069704E+02  0.39999967003E+02 0.  0.
         12    1    3    3    0    0  0.24601063011E+02 -0.27203053737E+02 -0.32499960036E+01  0.36820930296E+02  0.00000000000E+00 0. -1.
         11    1    4    4    0    0  0.62598165378E+01  0.44593768622E+01 -0.39840237987E+01  0.86570082000E+01  0.51100000000E-03 0. -1.
        -11    1    4    4    0    0 -0.19056425177E+02  0.19618309974E+02 -0.56835223181E+01  0.27934348980E+02  0.51100000000E-03 0.  1.
         12    1    4    4    0    0 -0.11804454372E+02  0.31253669009E+01  0.12917542120E+02  0.17775712523E+02  0.00000000000E+00 0. -1.
</event>
<event>
 8    1  0.1210161E-006  0.9118800E+02  0.7816164E-02  0.1184000E+00
        -11   -1    0    0    0    0  0.00000000000E+00  0.00000000000E+00  0.45593999997E+02  0.45594000000E+02  0.51100000000E-03 0.  1.
         11   -1    0    0    0    0 -0.00000000000E+00 -0.00000000000E+00 -0.45593999997E+02  0.45594000000E+02  0.51100000000E-03 0. -1.
         23    2    1    2    0    0 -0.17763568394E-14  0.00000000000E+00  0.00000000000E+00  0.91188000000E+02  0.91188000000E+02 0.  0.
    9900012    2    3    3    0    0  0.98326380888E+01  0.32871878009E+02  0.13361699501E+02  0.54367134324E+02  0.40000114317E+02 0.  0.
         12    1    3    3    0    0 -0.98326380888E+01 -0.32871878009E+02 -0.13361699501E+02  0.36820865676E+02  0.00000000000E+00 0. -1.
         11    1    4    4    0    0 -0.54321471835E+01  0.55980208852E+00  0.10427062776E+02  0.11770524194E+02  0.51100000000E-03 0.  1.
        -11    1    4    4    0    0  0.89024995961E+01  0.18316464984E+02  0.13055180483E+02  0.24190599956E+02  0.51100000000E-03 0. -1.
         12    1    4    4    0    0  0.63622856761E+01  0.13995610937E+02 -0.10120543758E+02  0.18406010173E+02  0.00000000000E+00 0. -1.
</event>
<event>
 8    1  0.1210161E-006  0.9118800E+02  0.7816164E-02  0.1184000E+00
        -11   -1    0    0    0    0  0.00000000000E+00  0.00000000000E+00  0.45593999997E+02  0.45594000000E+02  0.51100000000E-03 0.  1.
         11   -1    0    0    0    0 -0.00000000000E+00 -0.00000000000E+00 -0.45593999997E+02  0.45594000000E+02  0.51100000000E-03 0. -1.
         23    2    1    2    0    0  0.00000000000E+00  0.00000000000E+00  0.35527136788E-14  0.91188000000E+02  0.91188000000E+02 0.  0.
    9900012    2    3    3    0    0 -0.21416114403E+02 -0.18956166476E+01 -0.29892089605E+02  0.54367077422E+02  0.39999984598E+02 0.  0.
        -12    1    3    3    0    0  0.21416114403E+02  0.18956166476E+01  0.29892089605E+02  0.36820922578E+02  0.00000000000E+00 0.  1.
         11    1    4    4    0    0 -0.67319368062E+01  0.10305748208E+02 -0.68844231431E+01  0.14103995943E+02  0.51100000000E-03 0. -1.
        -11    1    4    4    0    0 -0.66471789333E+01 -0.17398232907E+00  0.52803602676E+01  0.84910224613E+01  0.51100000000E-03 0.  1.
        -12    1    4    4    0    0 -0.80369986630E+01 -0.12027382526E+02 -0.28288026729E+02  0.31772059017E+02  0.00000000000E+00 0.  1.
</event>
<event>
 8    1  0.1210161E-006  0.9118800E+02  0.7816164E-02  0.1184000E+00
        -11   -1    0    0    0    0  0.00000000000E+00  0.00000000000E+00  0.45593999997E+02  0.45594000000E+02  0.51100000000E-03 0. -1.
         11   -1    0    0    0    0 -0.00000000000E+00 -0.00000000000E+00 -0.45593999997E+02  0.45594000000E+02  0.51100000000E-03 0.  1.
         23    2    1    2    0    0 -0.71054273576E-14  0.00000000000E+00 -0.17763568394E-14  0.91188000000E+02  0.91188000000E+02 0.  0.
    9900012    2    3    3    0    0  0.34550847784E+02 -0.38046557575E+01  0.12146766249E+02  0.54367076352E+02  0.39999982159E+02 0.  0.
        -12    1    3    3    0    0 -0.34550847784E+02  0.38046557575E+01 -0.12146766249E+02  0.36820923648E+02  0.00000000000E+00 0.  1.
         11    1    4    4    0    0  0.20707114344E+02 -0.48806322344E+01  0.95885952402E+00  0.21296116249E+02  0.51100000000E-03 0. -1.
        -11    1    4    4    0    0 -0.69730359264E+01 -0.96053545423E-01 -0.32665612208E+01  0.77008362393E+01  0.51100000000E-03 0.  1.
         12    1    4    4    0    0  0.20816769366E+02  0.11720300223E+01  0.14454467946E+02  0.25370123863E+02  0.00000000000E+00 0. -1.
</event>
<event>
 8    1  0.1210161E-006  0.9118800E+02  0.7816164E-02  0.1184000E+00
        -11   -1    0    0    0    0  0.00000000000E+00  0.00000000000E+00  0.45593999997E+02  0.45594000000E+02  0.51100000000E-03 0.  1.
         11   -1    0    0    0    0 -0.00000000000E+00 -0.00000000000E+00 -0.45593999997E+02  0.45594000000E+02  0.51100000000E-03 0. -1.
         23    2    1    2    0    0  0.00000000000E+00  0.88817841970E-15 -0.35527136788E-14  0.91188000000E+02  0.91188000000E+02 0.  0.
    9900012    2    3    3    0    0 -0.23808636804E+02 -0.76733364212E+01  0.27019441181E+02  0.54367061934E+02  0.39999949291E+02 0.  0.
         12    1    3    3    0    0  0.23808636804E+02  0.76733364212E+01 -0.27019441181E+02  0.36820938066E+02  0.00000000000E+00 0. -1.
         11    1    4    4    0    0  0.41156047842E-01 -0.83433939005E+00  0.18559504125E+02  0.18578294046E+02  0.51100000000E-03 0. -1.
        -11    1    4    4    0    0 -0.15406439340E+02  0.60571371291E+01  0.11395568152E+02  0.20097419165E+02  0.51100000000E-03 0.  1.
         12    1    4    4    0    0 -0.84433535124E+01 -0.12896134160E+02 -0.29356310958E+01  0.15691348723E+02  0.00000000000E+00 0. -1.
</event>
<event>
 8    1  0.1210161E-006  0.9118800E+02  0.7816164E-02  0.1184000E+00
        -11   -1    0    0    0    0  0.00000000000E+00  0.00000000000E+00  0.45593999997E+02  0.45594000000E+02  0.51100000000E-03 0.  1.
         11   -1    0    0    0    0 -0.00000000000E+00 -0.00000000000E+00 -0.45593999997E+02  0.45594000000E+02  0.51100000000E-03 0. -1.
         23    2    1    2    0    0  0.00000000000E+00  0.35527136788E-14  0.00000000000E+00  0.91188000000E+02  0.91188000000E+02 0.  0.
    9900012    2    3    3    0    0 -0.98266082063E+01  0.30428568824E+02 -0.18257043615E+02  0.54367086499E+02  0.40000005292E+02 0.  0.
        -12    1    3    3    0    0  0.98266082063E+01 -0.30428568824E+02  0.18257043615E+02  0.36820913501E+02  0.00000000000E+00 0.  1.
         11    1    4    4    0    0 -0.14059080945E+02  0.58392430339E+01 -0.14134629281E+02  0.20773595293E+02  0.51100000000E-03 0. -1.
        -11    1    4    4    0    0 -0.33588338467E+01  0.69949212507E+01  0.78183667003E+01  0.11015332325E+02  0.51100000000E-03 0.  1.
         12    1    4    4    0    0  0.75913065854E+01  0.17594404539E+02 -0.11940781034E+02  0.22578158881E+02  0.00000000000E+00 0. -1.
</event>
<event>
 8    1  0.1210161E-006  0.9118800E+02  0.7816164E-02  0.1184000E+00
        -11   -1    0    0    0    0  0.00000000000E+00  0.00000000000E+00  0.45593999997E+02  0.45594000000E+02  0.51100000000E-03 0.  1.
         11   -1    0    0    0    0 -0.00000000000E+00 -0.00000000000E+00 -0.45593999997E+02  0.45594000000E+02  0.51100000000E-03 0. -1.
         23    2    1    2    0    0  0.35527136788E-14  0.00000000000E+00 -0.22204460493E-15  0.91188000000E+02  0.91188000000E+02 0.  0.
    9900012    2    3    3    0    0 -0.27528702023E+02  0.24444527549E+02  0.64434936957E+00  0.54367088166E+02  0.40000009093E+02 0.  0.
        -12    1    3    3    0    0  0.27528702023E+02 -0.24444527549E+02 -0.64434936957E+00  0.36820911834E+02  0.00000000000E+00 0.  1.
         11    1    4    4    0    0 -0.23138244691E+02  0.52468561752E+01 -0.23649745737E+01  0.23843258421E+02  0.51100000000E-03 0. -1.
        -11    1    4    4    0    0 -0.24539980661E+01  0.11215674768E+02 -0.99421616170E+01  0.15187496334E+02  0.51100000000E-03 0.  1.
         12    1    4    4    0    0 -0.19364592655E+01  0.79819966055E+01  0.12951485560E+02  0.15336333412E+02  0.00000000000E+00 0. -1.
</event>
<event>
 8    1  0.1210161E-006  0.9118800E+02  0.7816164E-02  0.1184000E+00
        -11   -1    0    0    0    0  0.00000000000E+00  0.00000000000E+00  0.45593999997E+02  0.45594000000E+02  0.51100000000E-03 0.  1.
         11   -1    0    0    0    0 -0.00000000000E+00 -0.00000000000E+00 -0.45593999997E+02  0.45594000000E+02  0.51100000000E-03 0. -1.
         23    2    1    2    0    0  0.35527136788E-14  0.00000000000E+00  0.00000000000E+00  0.91188000000E+02  0.91188000000E+02 0.  0.
    9900012    2    3    3    0    0  0.16901361825E+02  0.28329890236E+02 -0.16356567954E+02  0.54367135975E+02  0.40000118081E+02 0.  0.
        -12    1    3    3    0    0 -0.16901361825E+02 -0.28329890236E+02  0.16356567954E+02  0.36820864025E+02  0.00000000000E+00 0.  1.
         11    1    4    4    0    0 -0.53978333593E+01 -0.56938902776E+01 -0.33062686886E+01  0.85140122370E+01  0.51100000000E-03 0. -1.
        -11    1    4    4    0    0  0.76018017473E+01  0.10028245847E+01 -0.89446359091E+00  0.77196575267E+01  0.51100000000E-03 0.  1.
         12    1    4    4    0    0  0.14697393437E+02  0.33020955929E+02 -0.12155835675E+02  0.38133466211E+02  0.00000000000E+00 0. -1.
</event>
<event>
 8    1  0.1210161E-006  0.9118800E+02  0.7816164E-02  0.1184000E+00
        -11   -1    0    0    0    0  0.00000000000E+00  0.00000000000E+00  0.45593999997E+02  0.45594000000E+02  0.51100000000E-03 0.  1.
         11   -1    0    0    0    0 -0.00000000000E+00 -0.00000000000E+00 -0.45593999997E+02  0.45594000000E+02  0.51100000000E-03 0. -1.
         23    2    1    2    0    0 -0.17763568394E-14  0.00000000000E+00  0.35527136788E-14  0.91188000000E+02  0.91188000000E+02 0.  0.
    9900012    2    3    3    0    0  0.13194042441E+02 -0.25924353759E+02  0.22574918274E+02  0.54367057469E+02  0.39999939113E+02 0.  0.
        -12    1    3    3    0    0 -0.13194042441E+02  0.25924353759E+02 -0.22574918274E+02  0.36820942531E+02  0.00000000000E+00 0.  1.
         11    1    4    4    0    0  0.14591398775E+02 -0.81942242527E+01  0.12733546024E+02  0.21028490767E+02  0.51100000000E-03 0. -1.
        -11    1    4    4    0    0  0.74319427582E+01 -0.15738394488E+02 -0.29658776021E+01  0.17655799740E+02  0.51100000000E-03 0.  1.
        -12    1    4    4    0    0 -0.88292990928E+01 -0.19917350183E+01  0.12807249852E+02  0.15682766963E+02  0.00000000000E+00 0.  1.
</event>
<event>
 8    1  0.1210161E-006  0.9118800E+02  0.7816164E-02  0.1184000E+00
        -11   -1    0    0    0    0  0.00000000000E+00  0.00000000000E+00  0.45593999997E+02  0.45594000000E+02  0.51100000000E-03 0.  1.
         11   -1    0    0    0    0 -0.00000000000E+00 -0.00000000000E+00 -0.45593999997E+02  0.45594000000E+02  0.51100000000E-03 0. -1.
         23    2    1    2    0    0  0.35527136788E-14  0.00000000000E+00 -0.35527136788E-14  0.91188000000E+02  0.91188000000E+02 0.  0.
    9900012    2    3    3    0    0 -0.16388021863E+02  0.88524468267E+01 -0.31762393248E+02  0.54367045365E+02  0.39999911519E+02 0.  0.
        -12    1    3    3    0    0  0.16388021863E+02 -0.88524468267E+01  0.31762393248E+02  0.36820954635E+02  0.00000000000E+00 0.  1.
         11    1    4    4    0    0 -0.91204716184E+01  0.54762351092E+01 -0.47771426455E+01  0.11661614195E+02  0.51100000000E-03 0. -1.
        -11    1    4    4    0    0 -0.18647841895E+02 -0.25744951202E+00 -0.80415259461E+01  0.20309466448E+02  0.51100000000E-03 0.  1.
        -12    1    4    4    0    0  0.11380291651E+02  0.36336612295E+01 -0.18943724656E+02  0.22395964722E+02  0.00000000000E+00 0.  1.
</event>
<event>
 8    1  0.1210161E-006  0.9118800E+02  0.7816164E-02  0.1184000E+00
        -11   -1    0    0    0    0  0.00000000000E+00  0.00000000000E+00  0.45593999997E+02  0.45594000000E+02  0.51100000000E-03 0. -1.
         11   -1    0    0    0    0 -0.00000000000E+00 -0.00000000000E+00 -0.45593999997E+02  0.45594000000E+02  0.51100000000E-03 0.  1.
         23    2    1    2    0    0  0.88817841970E-15  0.00000000000E+00 -0.26645352591E-14  0.91188000000E+02  0.91188000000E+02 0.  0.
    9900012    2    3    3    0    0  0.75542307494E+01  0.35349516133E+02 -0.70089595226E+01  0.54367079226E+02  0.39999988711E+02 0.  0.
         12    1    3    3    0    0 -0.75542307494E+01 -0.35349516133E+02  0.70089595226E+01  0.36820920774E+02  0.00000000000E+00 0. -1.
         11    1    4    4    0    0  0.10816388420E+02  0.47813184045E+01  0.16253219976E+01  0.11937208048E+02  0.51100000000E-03 0. -1.
        -11    1    4    4    0    0 -0.28659258691E+01  0.29728420425E+02  0.36697461508E+01  0.30090854908E+02  0.51100000000E-03 0.  1.
        -12    1    4    4    0    0 -0.39623180123E+00  0.83977730395E+00 -0.12304027671E+02  0.12339016269E+02  0.00000000000E+00 0.  1.
</event>
<event>
 8    1  0.1210161E-006  0.9118800E+02  0.7816164E-02  0.1184000E+00
        -11   -1    0    0    0    0  0.00000000000E+00  0.00000000000E+00  0.45593999997E+02  0.45594000000E+02  0.51100000000E-03 0. -1.
         11   -1    0    0    0    0 -0.00000000000E+00 -0.00000000000E+00 -0.45593999997E+02  0.45594000000E+02  0.51100000000E-03 0.  1.
         23    2    1    2    0    0  0.00000000000E+00  0.00000000000E+00  0.17763568394E-14  0.91188000000E+02  0.91188000000E+02 0.  0.
    9900012    2    3    3    0    0  0.17706068298E+02 -0.32114166683E+02  0.33098762800E+01  0.54367084241E+02  0.40000000144E+02 0.  0.
        -12    1    3    3    0    0 -0.17706068298E+02  0.32114166683E+02 -0.33098762800E+01  0.36820915759E+02  0.00000000000E+00 0.  1.
         11    1    4    4    0    0 -0.26586752221E+00 -0.25395106694E+01 -0.80242029477E+01  0.84206670274E+01  0.51100000000E-03 0. -1.
        -11    1    4    4    0    0  0.94526143606E+01 -0.25914368370E+02 -0.41533507256E+01  0.27895460720E+02  0.51100000000E-03 0.  1.
         12    1    4    4    0    0  0.85193214599E+01 -0.36602876435E+01  0.15487429953E+02  0.18050956493E+02  0.00000000000E+00 0. -1.
</event>
<event>
 8    1  0.1210161E-006  0.9118800E+02  0.7816164E-02  0.1184000E+00
        -11   -1    0    0    0    0  0.00000000000E+00  0.00000000000E+00  0.45593999997E+02  0.45594000000E+02  0.51100000000E-03 0.  1.
         11   -1    0    0    0    0 -0.00000000000E+00 -0.00000000000E+00 -0.45593999997E+02  0.45594000000E+02  0.51100000000E-03 0. -1.
         23    2    1    2    0    0  0.35527136788E-14  0.35527136788E-14 -0.17763568394E-14  0.91188000000E+02  0.91188000000E+02 0.  0.
    9900012    2    3    3    0    0 -0.18960247784E+02 -0.27543649584E+02  0.15415449979E+02  0.54367085746E+02  0.40000003575E+02 0.  0.
         12    1    3    3    0    0  0.18960247784E+02  0.27543649584E+02 -0.15415449979E+02  0.36820914254E+02  0.00000000000E+00 0. -1.
         11    1    4    4    0    0 -0.14974761429E+02 -0.39875092100E+01 -0.26232793501E+01  0.15717038664E+02  0.51100000000E-03 0. -1.
        -11    1    4    4    0    0 -0.56316162467E+01  0.93286696145E+00  0.12127784006E+02  0.13404047428E+02  0.51100000000E-03 0.  1.
        -12    1    4    4    0    0  0.16461298909E+01 -0.24489007336E+02  0.59109453233E+01  0.25245999654E+02  0.00000000000E+00 0.  1.
</event>
<event>
 8    1  0.1210161E-006  0.9118800E+02  0.7816164E-02  0.1184000E+00
        -11   -1    0    0    0    0  0.00000000000E+00  0.00000000000E+00  0.45593999997E+02  0.45594000000E+02  0.51100000000E-03 0. -1.
         11   -1    0    0    0    0 -0.00000000000E+00 -0.00000000000E+00 -0.45593999997E+02  0.45594000000E+02  0.51100000000E-03 0.  1.
         23    2    1    2    0    0  0.00000000000E+00  0.00000000000E+00  0.00000000000E+00  0.91188000000E+02  0.91188000000E+02 0.  0.
    9900012    2    3    3    0    0 -0.31578284224E+02  0.17885343530E+02 -0.62214006583E+01  0.54367090534E+02  0.40000014491E+02 0.  0.
         12    1    3    3    0    0  0.31578284224E+02 -0.17885343530E+02  0.62214006583E+01  0.36820909466E+02  0.00000000000E+00 0. -1.
         11    1    4    4    0    0 -0.65659447913E+01  0.20512042702E+02  0.49921721051E+01  0.22108308606E+02  0.51100000000E-03 0. -1.
        -11    1    4    4    0    0 -0.18190374888E+02  0.36388261334E+01 -0.11574237283E+01  0.18586834699E+02  0.51100000000E-03 0.  1.
         12    1    4    4    0    0 -0.68219645452E+01 -0.62655253059E+01 -0.10056149035E+02  0.13671947229E+02  0.00000000000E+00 0. -1.
</event>
<event>
 8    1  0.1210161E-006  0.9118800E+02  0.7816164E-02  0.1184000E+00
        -11   -1    0    0    0    0  0.00000000000E+00  0.00000000000E+00  0.45593999997E+02  0.45594000000E+02  0.51100000000E-03 0. -1.
         11   -1    0    0    0    0 -0.00000000000E+00 -0.00000000000E+00 -0.45593999997E+02  0.45594000000E+02  0.51100000000E-03 0.  1.
         23    2    1    2    0    0  0.00000000000E+00  0.00000000000E+00  0.00000000000E+00  0.91188000000E+02  0.91188000000E+02 0.  0.
    9900012    2    3    3    0    0 -0.26157483614E+02  0.11788208784E+02 -0.23078212521E+02  0.54367085990E+02  0.40000004131E+02 0.  0.
         12    1    3    3    0    0  0.26157483614E+02 -0.11788208784E+02  0.23078212521E+02  0.36820914010E+02  0.00000000000E+00 0. -1.
         11    1    4    4    0    0  0.57358781074E+01 -0.57628443473E+01  0.17835401290E+01  0.83241629181E+01  0.51100000000E-03 0. -1.
        -11    1    4    4    0    0 -0.28362932080E+02  0.94264045824E+01 -0.18814647166E+02  0.35317190825E+02  0.51100000000E-03 0.  1.
         12    1    4    4    0    0 -0.35304296416E+01  0.81246485490E+01 -0.60471054837E+01  0.10725732247E+02  0.00000000000E+00 0. -1.
</event>
<event>
 8    1  0.1210161E-006  0.9118800E+02  0.7816164E-02  0.1184000E+00
        -11   -1    0    0    0    0  0.00000000000E+00  0.00000000000E+00  0.45593999997E+02  0.45594000000E+02  0.51100000000E-03 0.  1.
         11   -1    0    0    0    0 -0.00000000000E+00 -0.00000000000E+00 -0.45593999997E+02  0.45594000000E+02  0.51100000000E-03 0. -1.
         23    2    1    2    0    0  0.00000000000E+00  0.00000000000E+00 -0.15543122345E-14  0.91188000000E+02  0.91188000000E+02 0.  0.
    9900012    2    3    3    0    0 -0.33559001613E+02 -0.15126436275E+02 -0.87388024346E+00  0.54367091126E+02  0.40000015840E+02 0.  0.
         12    1    3    3    0    0  0.33559001613E+02  0.15126436275E+02  0.87388024346E+00  0.36820908874E+02  0.00000000000E+00 0. -1.
         11    1    4    4    0    0 -0.23438192209E+02 -0.16773214742E+02 -0.91702738214E+01  0.30245388227E+02  0.51100000000E-03 0. -1.
        -11    1    4    4    0    0 -0.74348887273E+01 -0.60654497131E+01 -0.31159043753E+01  0.10088414689E+02  0.51100000000E-03 0.  1.
        -12    1    4    4    0    0 -0.26859206770E+01  0.77122281804E+01  0.11412297953E+02  0.14033288209E+02  0.00000000000E+00 0.  1.
</event>
<event>
 8    1  0.1210161E-006  0.9118800E+02  0.7816164E-02  0.1184000E+00
        -11   -1    0    0    0    0  0.00000000000E+00  0.00000000000E+00  0.45593999997E+02  0.45594000000E+02  0.51100000000E-03 0.  1.
         11   -1    0    0    0    0 -0.00000000000E+00 -0.00000000000E+00 -0.45593999997E+02  0.45594000000E+02  0.51100000000E-03 0. -1.
         23    2    1    2    0    0  0.00000000000E+00  0.00000000000E+00  0.00000000000E+00  0.91188000000E+02  0.91188000000E+02 0.  0.
    9900012    2    3    3    0    0 -0.72441287305E+01 -0.29242903832E+02  0.21169659512E+02  0.54367091410E+02  0.40000016486E+02 0.  0.
         12    1    3    3    0    0  0.72441287305E+01  0.29242903832E+02 -0.21169659512E+02  0.36820908590E+02  0.00000000000E+00 0. -1.
         11    1    4    4    0    0  0.18318451033E+01  0.51671551966E+01  0.67512139731E+01  0.86967832950E+01  0.51100000000E-03 0. -1.
        -11    1    4    4    0    0  0.42071600203E+01 -0.28103766143E+02  0.11627036726E+02  0.30703580413E+02  0.51100000000E-03 0.  1.
        -12    1    4    4    0    0 -0.13283133854E+02 -0.63062928849E+01  0.27914088127E+01  0.14966727702E+02  0.00000000000E+00 0.  1.
</event>
<event>
 8    1  0.1210161E-006  0.9118800E+02  0.7816164E-02  0.1184000E+00
        -11   -1    0    0    0    0  0.00000000000E+00  0.00000000000E+00  0.45593999997E+02  0.45594000000E+02  0.51100000000E-03 0. -1.
         11   -1    0    0    0    0 -0.00000000000E+00 -0.00000000000E+00 -0.45593999997E+02  0.45594000000E+02  0.51100000000E-03 0.  1.
         23    2    1    2    0    0  0.17763568394E-14  0.00000000000E+00  0.00000000000E+00  0.91188000000E+02  0.91188000000E+02 0.  0.
    9900012    2    3    3    0    0  0.15644342745E+02  0.30484127434E+02  0.13481646604E+02  0.54367051065E+02  0.39999924512E+02 0.  0.
         12    1    3    3    0    0 -0.15644342745E+02 -0.30484127434E+02 -0.13481646604E+02  0.36820948935E+02  0.00000000000E+00 0. -1.
         11    1    4    4    0    0  0.16980541361E+01  0.31206691140E+02  0.70301305391E+01  0.32033789901E+02  0.51100000000E-03 0. -1.
        -11    1    4    4    0    0  0.16413377365E+02 -0.27964726741E+00  0.11343387533E+01  0.16454904552E+02  0.51100000000E-03 0.  1.
         12    1    4    4    0    0 -0.24670887561E+01 -0.44291643853E+00  0.53171773112E+01  0.58783566123E+01  0.00000000000E+00 0. -1.
</event>
<event>
 8    1  0.1210161E-006  0.9118800E+02  0.7816164E-02  0.1184000E+00
        -11   -1    0    0    0    0  0.00000000000E+00  0.00000000000E+00  0.45593999997E+02  0.45594000000E+02  0.51100000000E-03 0. -1.
         11   -1    0    0    0    0 -0.00000000000E+00 -0.00000000000E+00 -0.45593999997E+02  0.45594000000E+02  0.51100000000E-03 0.  1.
         23    2    1    2    0    0  0.00000000000E+00  0.88817841970E-15 -0.35527136788E-14  0.91188000000E+02  0.91188000000E+02 0.  0.
    9900012    2    3    3    0    0  0.17609406129E+02 -0.49297027763E+01 -0.31959134683E+02  0.54367089591E+02  0.40000012340E+02 0.  0.
         12    1    3    3    0    0 -0.17609406129E+02  0.49297027763E+01  0.31959134683E+02  0.36820910409E+02  0.00000000000E+00 0. -1.
         11    1    4    4    0    0  0.82375380706E+01 -0.17996778520E+02 -0.15446335613E+02  0.25106380757E+02  0.51100000000E-03 0. -1.
        -11    1    4    4    0    0 -0.27351877176E+01 -0.23821773126E+01 -0.25963657121E-01  0.36272158706E+01  0.51100000000E-03 0.  1.
        -12    1    4    4    0    0  0.12107055776E+02  0.15449253056E+02 -0.16486835413E+02  0.25633492963E+02  0.00000000000E+00 0.  1.
</event>
<event>
 8    1  0.1210161E-006  0.9118800E+02  0.7816164E-02  0.1184000E+00
        -11   -1    0    0    0    0  0.00000000000E+00  0.00000000000E+00  0.45593999997E+02  0.45594000000E+02  0.51100000000E-03 0.  1.
         11   -1    0    0    0    0 -0.00000000000E+00 -0.00000000000E+00 -0.45593999997E+02  0.45594000000E+02  0.51100000000E-03 0. -1.
         23    2    1    2    0    0 -0.17763568394E-14  0.35527136788E-14  0.00000000000E+00  0.91188000000E+02  0.91188000000E+02 0.  0.
    9900012    2    3    3    0    0  0.14085979158E+02 -0.20870639956E+02 -0.26865997615E+02  0.54367078653E+02  0.39999987405E+02 0.  0.
        -12    1    3    3    0    0 -0.14085979158E+02  0.20870639956E+02  0.26865997615E+02  0.36820921347E+02  0.00000000000E+00 0.  1.
         11    1    4    4    0    0 -0.12732509581E+01  0.19839915887E+01 -0.19283803660E-01  0.23574907747E+01  0.51100000000E-03 0. -1.
        -11    1    4    4    0    0  0.21611455086E+02 -0.20567465642E+01 -0.76300654680E+01  0.23010934285E+02  0.51100000000E-03 0.  1.
         12    1    4    4    0    0 -0.62522249691E+01 -0.20797884980E+02 -0.19216648343E+02  0.28998653594E+02  0.00000000000E+00 0. -1.
</event>
<event>
 8    1  0.1210161E-006  0.9118800E+02  0.7816164E-02  0.1184000E+00
        -11   -1    0    0    0    0  0.00000000000E+00  0.00000000000E+00  0.45593999997E+02  0.45594000000E+02  0.51100000000E-03 0.  1.
         11   -1    0    0    0    0 -0.00000000000E+00 -0.00000000000E+00 -0.45593999997E+02  0.45594000000E+02  0.51100000000E-03 0. -1.
         23    2    1    2    0    0  0.71054273576E-14  0.17763568394E-14  0.00000000000E+00  0.91188000000E+02  0.91188000000E+02 0.  0.
    9900012    2    3    3    0    0 -0.33536875954E+02 -0.11672341243E+02 -0.97373210731E+01  0.54367068174E+02  0.39999963516E+02 0.  0.
         12    1    3    3    0    0  0.33536875954E+02  0.11672341243E+02  0.97373210731E+01  0.36820931826E+02  0.00000000000E+00 0. -1.
         11    1    4    4    0    0  0.11079614218E+01  0.14892690957E+01 -0.11954338112E+02  0.12097590707E+02  0.51100000000E-03 0. -1.
        -11    1    4    4    0    0 -0.24236026272E+02 -0.10712824144E+02 -0.77950626021E+01  0.27620872033E+02  0.51100000000E-03 0.  1.
         12    1    4    4    0    0 -0.10408811104E+02 -0.24487861955E+01  0.10012079641E+02  0.14648605434E+02  0.00000000000E+00 0. -1.
</event>
<event>
 8    1  0.1210161E-006  0.9118800E+02  0.7816164E-02  0.1184000E+00
        -11   -1    0    0    0    0  0.00000000000E+00  0.00000000000E+00  0.45593999997E+02  0.45594000000E+02  0.51100000000E-03 0.  1.
         11   -1    0    0    0    0 -0.00000000000E+00 -0.00000000000E+00 -0.45593999997E+02  0.45594000000E+02  0.51100000000E-03 0. -1.
         23    2    1    2    0    0  0.00000000000E+00  0.00000000000E+00  0.88817841970E-15  0.91188000000E+02  0.91188000000E+02 0.  0.
    9900012    2    3    3    0    0 -0.23322308319E+02  0.28325407441E+02  0.30855473731E+01  0.54367090524E+02  0.40000014468E+02 0.  0.
        -12    1    3    3    0    0  0.23322308319E+02 -0.28325407441E+02 -0.30855473731E+01  0.36820909476E+02  0.00000000000E+00 0.  1.
         11    1    4    4    0    0 -0.11726090476E+01  0.12351983117E-01  0.67420511363E+01  0.68432754099E+01  0.51100000000E-03 0. -1.
        -11    1    4    4    0    0 -0.17590521378E+02 -0.10731628144E+01 -0.20598173277E+01  0.17743194990E+02  0.51100000000E-03 0.  1.
         12    1    4    4    0    0 -0.45591778936E+01  0.29386218272E+02 -0.15966864355E+01  0.29780620124E+02  0.00000000000E+00 0. -1.
</event>
<event>
 8    1  0.1210161E-006  0.9118800E+02  0.7816164E-02  0.1184000E+00
        -11   -1    0    0    0    0  0.00000000000E+00  0.00000000000E+00  0.45593999997E+02  0.45594000000E+02  0.51100000000E-03 0.  1.
         11   -1    0    0    0    0 -0.00000000000E+00 -0.00000000000E+00 -0.45593999997E+02  0.45594000000E+02  0.51100000000E-03 0. -1.
         23    2    1    2    0    0 -0.17763568394E-14  0.00000000000E+00  0.00000000000E+00  0.91188000000E+02  0.91188000000E+02 0.  0.
    9900012    2    3    3    0    0  0.93073754730E+01  0.32498452080E+02 -0.14594622907E+02  0.54367086872E+02  0.40000006142E+02 0.  0.
         12    1    3    3    0    0 -0.93073754730E+01 -0.32498452080E+02  0.14594622907E+02  0.36820913128E+02  0.00000000000E+00 0. -1.
         11    1    4    4    0    0  0.10531118903E+02  0.11976821669E+01 -0.10971575287E+02  0.15254978613E+02  0.51100000000E-03 0. -1.
        -11    1    4    4    0    0  0.40272870728E+01  0.23376367803E+02 -0.11872018102E+02  0.26525806810E+02  0.51100000000E-03 0.  1.
        -12    1    4    4    0    0 -0.52510305028E+01  0.79244021099E+01  0.82489704829E+01  0.12586301449E+02  0.00000000000E+00 0.  1.
</event>
<event>
 8    1  0.1210161E-006  0.9118800E+02  0.7816164E-02  0.1184000E+00
        -11   -1    0    0    0    0  0.00000000000E+00  0.00000000000E+00  0.45593999997E+02  0.45594000000E+02  0.51100000000E-03 0.  1.
         11   -1    0    0    0    0 -0.00000000000E+00 -0.00000000000E+00 -0.45593999997E+02  0.45594000000E+02  0.51100000000E-03 0. -1.
         23    2    1    2    0    0 -0.35527136788E-14  0.00000000000E+00  0.17763568394E-14  0.91188000000E+02  0.91188000000E+02 0.  0.
    9900012    2    3    3    0    0 -0.25102825459E+02 -0.23681073155E+02 -0.12838780681E+02  0.54367090707E+02  0.40000014885E+02 0.  0.
        -12    1    3    3    0    0  0.25102825459E+02  0.23681073155E+02  0.12838780681E+02  0.36820909293E+02  0.00000000000E+00 0.  1.
         11    1    4    4    0    0 -0.89150092869E+01 -0.37370078686E+00 -0.85850680199E+01  0.12382262961E+02  0.51100000000E-03 0. -1.
        -11    1    4    4    0    0  0.25754646692E+01  0.48230177389E+01 -0.60105228556E+01  0.81253248324E+01  0.51100000000E-03 0.  1.
         12    1    4    4    0    0 -0.18763280841E+02 -0.28130390107E+02  0.17568101948E+01  0.33859502914E+02  0.00000000000E+00 0. -1.
</event>
<event>
 8    1  0.1210161E-006  0.9118800E+02  0.7816164E-02  0.1184000E+00
        -11   -1    0    0    0    0  0.00000000000E+00  0.00000000000E+00  0.45593999997E+02  0.45594000000E+02  0.51100000000E-03 0.  1.
         11   -1    0    0    0    0 -0.00000000000E+00 -0.00000000000E+00 -0.45593999997E+02  0.45594000000E+02  0.51100000000E-03 0. -1.
         23    2    1    2    0    0  0.00000000000E+00  0.00000000000E+00 -0.88817841970E-15  0.91188000000E+02  0.91188000000E+02 0.  0.
    9900012    2    3    3    0    0  0.31604704035E+02 -0.17602427473E+02  0.68613176382E+01  0.54367075924E+02  0.39999981185E+02 0.  0.
         12    1    3    3    0    0 -0.31604704035E+02  0.17602427473E+02 -0.68613176382E+01  0.36820924076E+02  0.00000000000E+00 0. -1.
         11    1    4    4    0    0 -0.80584448822E-01  0.20798278697E+01 -0.34618602581E+01  0.40393878904E+01  0.51100000000E-03 0. -1.
        -11    1    4    4    0    0  0.85760528860E+01 -0.19354736468E+02  0.15991966118E+02  0.26531066458E+02  0.51100000000E-03 0.  1.
        -12    1    4    4    0    0  0.23109235598E+02 -0.32751887468E+00 -0.56687882216E+01  0.23796621576E+02  0.00000000000E+00 0.  1.
</event>
<event>
 8    1  0.1210161E-006  0.9118800E+02  0.7816164E-02  0.1184000E+00
        -11   -1    0    0    0    0  0.00000000000E+00  0.00000000000E+00  0.45593999997E+02  0.45594000000E+02  0.51100000000E-03 0.  1.
         11   -1    0    0    0    0 -0.00000000000E+00 -0.00000000000E+00 -0.45593999997E+02  0.45594000000E+02  0.51100000000E-03 0. -1.
         23    2    1    2    0    0  0.00000000000E+00  0.35527136788E-14  0.00000000000E+00  0.91188000000E+02  0.91188000000E+02 0.  0.
    9900012    2    3    3    0    0  0.24362077199E+02  0.11677703134E+02 -0.25018000180E+02  0.54367083540E+02  0.39999998546E+02 0.  0.
        -12    1    3    3    0    0 -0.24362077199E+02 -0.11677703134E+02  0.25018000180E+02  0.36820916460E+02  0.00000000000E+00 0.  1.
         11    1    4    4    0    0  0.58749465599E+01 -0.69097015318E+01 -0.38441698122E+01  0.98507164281E+01  0.51100000000E-03 0.  1.
        -11    1    4    4    0    0  0.16823949841E+02 -0.24764095205E+01 -0.44729117506E+01  0.17583652412E+02  0.51100000000E-03 0. -1.
        -12    1    4    4    0    0  0.16631807987E+01  0.21063814187E+02 -0.16700918617E+02  0.26932714700E+02  0.00000000000E+00 0.  1.
</event>
<event>
 8    1  0.1210161E-006  0.9118800E+02  0.7816164E-02  0.1184000E+00
        -11   -1    0    0    0    0  0.00000000000E+00  0.00000000000E+00  0.45593999997E+02  0.45594000000E+02  0.51100000000E-03 0. -1.
         11   -1    0    0    0    0 -0.00000000000E+00 -0.00000000000E+00 -0.45593999997E+02  0.45594000000E+02  0.51100000000E-03 0.  1.
         23    2    1    2    0    0  0.71054273576E-14  0.00000000000E+00 -0.88817841970E-15  0.91188000000E+02  0.91188000000E+02 0.  0.
    9900012    2    3    3    0    0  0.35832494474E+02 -0.59365906529E+01 -0.60471918961E+01  0.54367091556E+02  0.40000016821E+02 0.  0.
         12    1    3    3    0    0 -0.35832494474E+02  0.59365906529E+01  0.60471918961E+01  0.36820908444E+02  0.00000000000E+00 0. -1.
         11    1    4    4    0    0 -0.29146270165E+01 -0.42145388547E+01 -0.59400193787E+01  0.78448211505E+01  0.51100000000E-03 0. -1.
        -11    1    4    4    0    0  0.12002437188E+02 -0.60253673887E+01  0.10886116971E+02  0.17287888639E+02  0.51100000000E-03 0.  1.
         12    1    4    4    0    0  0.26744684303E+02  0.43033155905E+01 -0.10993289488E+02  0.29234381767E+02  0.00000000000E+00 0. -1.
</event>
<event>
 8    1  0.1210161E-006  0.9118800E+02  0.7816164E-02  0.1184000E+00
        -11   -1    0    0    0    0  0.00000000000E+00  0.00000000000E+00  0.45593999997E+02  0.45594000000E+02  0.51100000000E-03 0. -1.
         11   -1    0    0    0    0 -0.00000000000E+00 -0.00000000000E+00 -0.45593999997E+02  0.45594000000E+02  0.51100000000E-03 0.  1.
         23    2    1    2    0    0  0.00000000000E+00  0.00000000000E+00  0.35527136788E-14  0.91188000000E+02  0.91188000000E+02 0.  0.
    9900012    2    3    3    0    0  0.27219321110E+02 -0.93675050797E+01 -0.22959498883E+02  0.54367079560E+02  0.39999989473E+02 0.  0.
         12    1    3    3    0    0 -0.27219321110E+02  0.93675050797E+01  0.22959498883E+02  0.36820920440E+02  0.00000000000E+00 0. -1.
         11    1    4    4    0    0  0.87582444808E+01 -0.40304131933E+00 -0.23481555542E+02  0.25064970369E+02  0.51100000000E-03 0. -1.
        -11    1    4    4    0    0  0.64280573848E+01  0.38717264614E+01 -0.69114610983E+01  0.10201886213E+02  0.51100000000E-03 0.  1.
         12    1    4    4    0    0  0.12033019244E+02 -0.12836190222E+02  0.74335177573E+01  0.19100222978E+02  0.00000000000E+00 0. -1.
</event>
<event>
 8    1  0.1210161E-006  0.9118800E+02  0.7816164E-02  0.1184000E+00
        -11   -1    0    0    0    0  0.00000000000E+00  0.00000000000E+00  0.45593999997E+02  0.45594000000E+02  0.51100000000E-03 0.  1.
         11   -1    0    0    0    0 -0.00000000000E+00 -0.00000000000E+00 -0.45593999997E+02  0.45594000000E+02  0.51100000000E-03 0. -1.
         23    2    1    2    0    0  0.00000000000E+00 -0.44408920985E-15  0.00000000000E+00  0.91188000000E+02  0.91188000000E+02 0.  0.
    9900012    2    3    3    0    0  0.16719651897E+02 -0.19178466959E+01  0.32749861984E+02  0.54367104363E+02  0.40000046017E+02 0.  0.
         12    1    3    3    0    0 -0.16719651897E+02  0.19178466959E+01 -0.32749861984E+02  0.36820895637E+02  0.00000000000E+00 0. -1.
         11    1    4    4    0    0  0.43706147898E+01  0.84180442906E+01  0.18186481308E+01  0.96578064074E+01  0.51100000000E-03 0. -1.
        -11    1    4    4    0    0  0.51835154951E+00  0.24506742596E+01  0.26654393093E+02  0.26771835276E+02  0.51100000000E-03 0.  1.
         12    1    4    4    0    0  0.11830685558E+02 -0.12786565246E+02  0.42768207605E+01  0.17937462679E+02  0.00000000000E+00 0. -1.
</event>
<event>
 8    1  0.1210161E-006  0.9118800E+02  0.7816164E-02  0.1184000E+00
        -11   -1    0    0    0    0  0.00000000000E+00  0.00000000000E+00  0.45593999997E+02  0.45594000000E+02  0.51100000000E-03 0.  1.
         11   -1    0    0    0    0 -0.00000000000E+00 -0.00000000000E+00 -0.45593999997E+02  0.45594000000E+02  0.51100000000E-03 0. -1.
         23    2    1    2    0    0  0.35527136788E-14  0.00000000000E+00  0.17763568394E-14  0.91188000000E+02  0.91188000000E+02 0.  0.
    9900012    2    3    3    0    0  0.20222131152E+02 -0.27421226143E+02  0.13961443904E+02  0.54367080030E+02  0.39999990545E+02 0.  0.
         12    1    3    3    0    0 -0.20222131152E+02  0.27421226143E+02 -0.13961443904E+02  0.36820919970E+02  0.00000000000E+00 0. -1.
         11    1    4    4    0    0  0.26512146876E+01 -0.89984156678E+01 -0.99239896835E+01  0.13655987527E+02  0.51100000000E-03 0. -1.
        -11    1    4    4    0    0  0.11773868266E+02 -0.74061787225E+01  0.24580245613E+02  0.28242944816E+02  0.51100000000E-03 0.  1.
        -12    1    4    4    0    0  0.57970481988E+01 -0.11016631753E+02 -0.69481202612E+00  0.12468147687E+02  0.00000000000E+00 0.  1.
</event>
<event>
 8    1  0.1210161E-006  0.9118800E+02  0.7816164E-02  0.1184000E+00
        -11   -1    0    0    0    0  0.00000000000E+00  0.00000000000E+00  0.45593999997E+02  0.45594000000E+02  0.51100000000E-03 0.  1.
         11   -1    0    0    0    0 -0.00000000000E+00 -0.00000000000E+00 -0.45593999997E+02  0.45594000000E+02  0.51100000000E-03 0. -1.
         23    2    1    2    0    0  0.35527136788E-14 -0.35527136788E-14  0.00000000000E+00  0.91188000000E+02  0.91188000000E+02 0.  0.
    9900012    2    3    3    0    0 -0.27661564621E+02  0.20745587049E+02  0.12657991225E+02  0.54367268324E+02  0.40000419797E+02 0.  0.
        -12    1    3    3    0    0  0.27661564621E+02 -0.20745587049E+02 -0.12657991225E+02  0.36820731676E+02  0.00000000000E+00 0.  1.
         11    1    4    4    0    0  0.40446436562E+01  0.34280150349E+01 -0.65305980514E+00  0.53419955780E+01  0.51100000000E-03 0.  1.
        -11    1    4    4    0    0  0.47118515246E+01  0.54489845107E+01 -0.24459792233E+01  0.76076140550E+01  0.51100000000E-03 0. -1.
         12    1    4    4    0    0 -0.36418059802E+02  0.11868587503E+02  0.15757030253E+02  0.41417658691E+02  0.00000000000E+00 0. -1.
</event>
<event>
 8    1  0.1210161E-006  0.9118800E+02  0.7816164E-02  0.1184000E+00
        -11   -1    0    0    0    0  0.00000000000E+00  0.00000000000E+00  0.45593999997E+02  0.45594000000E+02  0.51100000000E-03 0.  1.
         11   -1    0    0    0    0 -0.00000000000E+00 -0.00000000000E+00 -0.45593999997E+02  0.45594000000E+02  0.51100000000E-03 0. -1.
         23    2    1    2    0    0  0.00000000000E+00 -0.17763568394E-14  0.00000000000E+00  0.91188000000E+02  0.91188000000E+02 0.  0.
    9900012    2    3    3    0    0  0.18408412916E+02  0.79750423446E+01  0.30875695627E+02  0.54367088184E+02  0.40000009134E+02 0.  0.
         12    1    3    3    0    0 -0.18408412916E+02 -0.79750423446E+01 -0.30875695627E+02  0.36820911816E+02  0.00000000000E+00 0. -1.
         11    1    4    4    0    0  0.52400715737E+00  0.33165824188E+01 -0.11579421838E+01  0.35517788225E+01  0.51100000000E-03 0. -1.
        -11    1    4    4    0    0  0.12597201907E+01 -0.33658497628E+00  0.33378922530E+02  0.33404380760E+02  0.51100000000E-03 0.  1.
        -12    1    4    4    0    0  0.16624685568E+02  0.49950449020E+01 -0.13452847196E+01  0.17410928602E+02  0.00000000000E+00 0.  1.
</event>
<event>
 8    1  0.1210161E-006  0.9118800E+02  0.7816164E-02  0.1184000E+00
        -11   -1    0    0    0    0  0.00000000000E+00  0.00000000000E+00  0.45593999997E+02  0.45594000000E+02  0.51100000000E-03 0. -1.
         11   -1    0    0    0    0 -0.00000000000E+00 -0.00000000000E+00 -0.45593999997E+02  0.45594000000E+02  0.51100000000E-03 0.  1.
         23    2    1    2    0    0  0.00000000000E+00 -0.88817841970E-15  0.00000000000E+00  0.91188000000E+02  0.91188000000E+02 0.  0.
    9900012    2    3    3    0    0  0.10750208961E+02 -0.69982957156E+01 -0.34514299842E+02  0.54367081635E+02  0.39999994203E+02 0.  0.
         12    1    3    3    0    0 -0.10750208961E+02  0.69982957156E+01  0.34514299842E+02  0.36820918365E+02  0.00000000000E+00 0. -1.
         11    1    4    4    0    0 -0.28727693159E+01 -0.15065580774E+02 -0.34818612389E+01  0.15727297465E+02  0.51100000000E-03 0. -1.
        -11    1    4    4    0    0  0.12761145423E+02  0.97250091332E+01 -0.13387261971E+02  0.20895966560E+02  0.51100000000E-03 0.  1.
        -12    1    4    4    0    0  0.86183285425E+00 -0.16577240748E+01 -0.17645176633E+02  0.17743817610E+02  0.00000000000E+00 0.  1.
</event>
<event>
 8    1  0.1210161E-006  0.9118800E+02  0.7816164E-02  0.1184000E+00
        -11   -1    0    0    0    0  0.00000000000E+00  0.00000000000E+00  0.45593999997E+02  0.45594000000E+02  0.51100000000E-03 0.  1.
         11   -1    0    0    0    0 -0.00000000000E+00 -0.00000000000E+00 -0.45593999997E+02  0.45594000000E+02  0.51100000000E-03 0. -1.
         23    2    1    2    0    0  0.35527136788E-14  0.88817841970E-15  0.00000000000E+00  0.91188000000E+02  0.91188000000E+02 0.  0.
    9900012    2    3    3    0    0 -0.17165959745E+02  0.60668857257E+01  0.32004729264E+02  0.54367082417E+02  0.39999995987E+02 0.  0.
         12    1    3    3    0    0  0.17165959745E+02 -0.60668857257E+01 -0.32004729264E+02  0.36820917583E+02  0.00000000000E+00 0. -1.
         11    1    4    4    0    0 -0.11833996343E+02 -0.76042407104E+01  0.77315425535E+00  0.14087785986E+02  0.51100000000E-03 0. -1.
        -11    1    4    4    0    0  0.61226290031E+01  0.11926646196E+02  0.12979341494E+02  0.18659978062E+02  0.51100000000E-03 0.  1.
        -12    1    4    4    0    0 -0.11454592405E+02  0.17444802401E+01  0.18252233515E+02  0.21619318369E+02  0.00000000000E+00 0.  1.
</event>
<event>
 8    1  0.1210161E-006  0.9118800E+02  0.7816164E-02  0.1184000E+00
        -11   -1    0    0    0    0  0.00000000000E+00  0.00000000000E+00  0.45593999997E+02  0.45594000000E+02  0.51100000000E-03 0.  1.
         11   -1    0    0    0    0 -0.00000000000E+00 -0.00000000000E+00 -0.45593999997E+02  0.45594000000E+02  0.51100000000E-03 0. -1.
         23    2    1    2    0    0  0.35527136788E-14  0.00000000000E+00  0.00000000000E+00  0.91188000000E+02  0.91188000000E+02 0.  0.
    9900012    2    3    3    0    0 -0.27591954410E+02  0.80856462089E+01 -0.23001839921E+02  0.54367105625E+02  0.40000048894E+02 0.  0.
         12    1    3    3    0    0  0.27591954410E+02 -0.80856462089E+01  0.23001839921E+02  0.36820894375E+02  0.00000000000E+00 0. -1.
         11    1    4    4    0    0  0.12787188449E+01 -0.39360010660E+01 -0.12632704483E+02  0.13293323478E+02  0.51100000000E-03 0. -1.
        -11    1    4    4    0    0 -0.32729472055E+02  0.98790961167E+01 -0.57198583356E+01  0.34663116720E+02  0.51100000000E-03 0.  1.
        -12    1    4    4    0    0  0.38587988000E+01  0.21425511581E+01 -0.46492771020E+01  0.64106654269E+01  0.00000000000E+00 0.  1.
</event>
<event>
 8    1  0.1210161E-006  0.9118800E+02  0.7816164E-02  0.1184000E+00
        -11   -1    0    0    0    0  0.00000000000E+00  0.00000000000E+00  0.45593999997E+02  0.45594000000E+02  0.51100000000E-03 0. -1.
         11   -1    0    0    0    0 -0.00000000000E+00 -0.00000000000E+00 -0.45593999997E+02  0.45594000000E+02  0.51100000000E-03 0.  1.
         23    2    1    2    0    0 -0.35527136788E-14  0.00000000000E+00  0.00000000000E+00  0.91188000000E+02  0.91188000000E+02 0.  0.
    9900012    2    3    3    0    0 -0.28762579786E+02 -0.64098065954E+01 -0.22077315026E+02  0.54367089429E+02  0.40000011971E+02 0.  0.
         12    1    3    3    0    0  0.28762579786E+02  0.64098065954E+01  0.22077315026E+02  0.36820910571E+02  0.00000000000E+00 0. -1.
         11    1    4    4    0    0  0.95116058523E+01  0.94999398560E+00 -0.27556617249E+01  0.99482061833E+01  0.51100000000E-03 0. -1.
        -11    1    4    4    0    0 -0.17042391352E+02 -0.26758775489E+00 -0.12081810032E+02  0.20892219607E+02  0.51100000000E-03 0.  1.
         12    1    4    4    0    0 -0.21231794286E+02 -0.70922128261E+01 -0.72398432685E+01  0.23526663638E+02  0.00000000000E+00 0. -1.
</event>
<event>
 8    1  0.1210161E-006  0.9118800E+02  0.7816164E-02  0.1184000E+00
        -11   -1    0    0    0    0  0.00000000000E+00  0.00000000000E+00  0.45593999997E+02  0.45594000000E+02  0.51100000000E-03 0.  1.
         11   -1    0    0    0    0 -0.00000000000E+00 -0.00000000000E+00 -0.45593999997E+02  0.45594000000E+02  0.51100000000E-03 0. -1.
         23    2    1    2    0    0  0.00000000000E+00  0.00000000000E+00 -0.71054273576E-14  0.91188000000E+02  0.91188000000E+02 0.  0.
    9900012    2    3    3    0    0  0.20948916198E+02  0.20615403792E+02  0.22179448530E+02  0.54367083384E+02  0.39999998190E+02 0.  0.
         12    1    3    3    0    0 -0.20948916198E+02 -0.20615403792E+02 -0.22179448530E+02  0.36820916616E+02  0.00000000000E+00 0. -1.
         11    1    4    4    0    0  0.91755953758E+01  0.88872565430E+01 -0.39262348326E+01  0.13363764424E+02  0.51100000000E-03 0. -1.
        -11    1    4    4    0    0  0.26238533296E+01 -0.86764571863E+01  0.55474154287E+01  0.10627291932E+02  0.51100000000E-03 0.  1.
        -12    1    4    4    0    0  0.91494674926E+01  0.20404604435E+02  0.20558267934E+02  0.30376027028E+02  0.00000000000E+00 0.  1.
</event>
<event>
 8    1  0.1210161E-006  0.9118800E+02  0.7816164E-02  0.1184000E+00
        -11   -1    0    0    0    0  0.00000000000E+00  0.00000000000E+00  0.45593999997E+02  0.45594000000E+02  0.51100000000E-03 0.  1.
         11   -1    0    0    0    0 -0.00000000000E+00 -0.00000000000E+00 -0.45593999997E+02  0.45594000000E+02  0.51100000000E-03 0. -1.
         23    2    1    2    0    0 -0.17763568394E-14  0.00000000000E+00 -0.44408920985E-15  0.91188000000E+02  0.91188000000E+02 0.  0.
    9900012    2    3    3    0    0 -0.99309621951E+01 -0.35399707652E+02  0.20040063032E+01  0.54367090815E+02  0.40000015131E+02 0.  0.
        -12    1    3    3    0    0  0.99309621951E+01  0.35399707652E+02 -0.20040063032E+01  0.36820909185E+02  0.00000000000E+00 0.  1.
         11    1    4    4    0    0 -0.93347605113E+01  0.46587734459E+01 -0.10463486062E+01  0.10485073652E+02  0.51100000000E-03 0. -1.
        -11    1    4    4    0    0  0.50743251708E+01 -0.36011731134E+02  0.23507506509E+00  0.36368239107E+02  0.51100000000E-03 0.  1.
        -12    1    4    4    0    0 -0.56705268546E+01 -0.40467499639E+01  0.28152798443E+01  0.75137780564E+01  0.00000000000E+00 0.  1.
</event>
<event>
 8    1  0.1210161E-006  0.9118800E+02  0.7816164E-02  0.1184000E+00
        -11   -1    0    0    0    0  0.00000000000E+00  0.00000000000E+00  0.45593999997E+02  0.45594000000E+02  0.51100000000E-03 0. -1.
         11   -1    0    0    0    0 -0.00000000000E+00 -0.00000000000E+00 -0.45593999997E+02  0.45594000000E+02  0.51100000000E-03 0.  1.
         23    2    1    2    0    0  0.35527136788E-14 -0.11102230246E-15 -0.71054273576E-14  0.91188000000E+02  0.91188000000E+02 0.  0.
    9900012    2    3    3    0    0  0.16062933461E+02  0.54552292063E+00 -0.33128006199E+02  0.54367079027E+02  0.39999988257E+02 0.  0.
         12    1    3    3    0    0 -0.16062933461E+02 -0.54552292063E+00  0.33128006199E+02  0.36820920973E+02  0.00000000000E+00 0. -1.
         11    1    4    4    0    0 -0.18251450073E+01 -0.10064665753E+01  0.21188201942E+01  0.29721252567E+01  0.51100000000E-03 0. -1.
        -11    1    4    4    0    0  0.26621429658E+02  0.58996139975E+00 -0.18312873960E+02  0.32317331642E+02  0.51100000000E-03 0.  1.
        -12    1    4    4    0    0 -0.87333511900E+01  0.96202809619E+00 -0.16933952433E+02  0.19077622128E+02  0.00000000000E+00 0.  1.
</event>
<event>
 8    1  0.1210161E-006  0.9118800E+02  0.7816164E-02  0.1184000E+00
        -11   -1    0    0    0    0  0.00000000000E+00  0.00000000000E+00  0.45593999997E+02  0.45594000000E+02  0.51100000000E-03 0. -1.
         11   -1    0    0    0    0 -0.00000000000E+00 -0.00000000000E+00 -0.45593999997E+02  0.45594000000E+02  0.51100000000E-03 0.  1.
         23    2    1    2    0    0 -0.66613381478E-15  0.00000000000E+00  0.00000000000E+00  0.91188000000E+02  0.91188000000E+02 0.  0.
    9900012    2    3    3    0    0 -0.10334930768E+01 -0.30472087047E+02  0.20643728639E+02  0.54367085711E+02  0.40000003496E+02 0.  0.
        -12    1    3    3    0    0  0.10334930768E+01  0.30472087047E+02 -0.20643728639E+02  0.36820914289E+02  0.00000000000E+00 0.  1.
         11    1    4    4    0    0  0.28306852576E+01 -0.29618628028E+02  0.27212774244E+02  0.40321346550E+02  0.51100000000E-03 0. -1.
        -11    1    4    4    0    0  0.24473029055E+01 -0.37359721391E+01  0.35613517269E-01  0.44663237589E+01  0.51100000000E-03 0.  1.
         12    1    4    4    0    0 -0.63114812400E+01  0.28825131199E+01 -0.66046591222E+01  0.95794154023E+01  0.00000000000E+00 0. -1.
</event>
<event>
 8    1  0.1210161E-006  0.9118800E+02  0.7816164E-02  0.1184000E+00
        -11   -1    0    0    0    0  0.00000000000E+00  0.00000000000E+00  0.45593999997E+02  0.45594000000E+02  0.51100000000E-03 0.  1.
         11   -1    0    0    0    0 -0.00000000000E+00 -0.00000000000E+00 -0.45593999997E+02  0.45594000000E+02  0.51100000000E-03 0. -1.
         23    2    1    2    0    0  0.00000000000E+00  0.11102230246E-15  0.00000000000E+00  0.91188000000E+02  0.91188000000E+02 0.  0.
    9900012    2    3    3    0    0 -0.36667906351E+02  0.58041327195E+00 -0.33026068809E+01  0.54367089529E+02  0.40000012199E+02 0.  0.
         12    1    3    3    0    0  0.36667906351E+02 -0.58041327195E+00  0.33026068809E+01  0.36820910471E+02  0.00000000000E+00 0. -1.
         11    1    4    4    0    0  0.33489559826E+01  0.75758249076E+00 -0.38255488540E+01  0.51404534526E+01  0.51100000000E-03 0. -1.
        -11    1    4    4    0    0  0.18240578759E+01  0.64824888229E+01 -0.11222707483E+01  0.68271033658E+01  0.51100000000E-03 0.  1.
        -12    1    4    4    0    0 -0.41840920209E+02 -0.66596580417E+01  0.16452127214E+01  0.42399532711E+02  0.00000000000E+00 0.  1.
</event>
<event>
 8    1  0.1210161E-006  0.9118800E+02  0.7816164E-02  0.1184000E+00
        -11   -1    0    0    0    0  0.00000000000E+00  0.00000000000E+00  0.45593999997E+02  0.45594000000E+02  0.51100000000E-03 0.  1.
         11   -1    0    0    0    0 -0.00000000000E+00 -0.00000000000E+00 -0.45593999997E+02  0.45594000000E+02  0.51100000000E-03 0. -1.
         23    2    1    2    0    0 -0.88817841970E-15  0.00000000000E+00  0.35527136788E-14  0.91188000000E+02  0.91188000000E+02 0.  0.
    9900012    2    3    3    0    0 -0.70604194028E+01  0.26710369180E+02  0.24340906381E+02  0.54367176173E+02  0.40000209722E+02 0.  0.
         12    1    3    3    0    0  0.70604194028E+01 -0.26710369180E+02 -0.24340906381E+02  0.36820823827E+02  0.00000000000E+00 0. -1.
         11    1    4    4    0    0 -0.10173441699E+02  0.12371005015E+02  0.56881465642E+01  0.16996931861E+02  0.51100000000E-03 0. -1.
        -11    1    4    4    0    0 -0.88835823385E+01  0.14727539351E+02  0.18646299253E+02  0.25367359472E+02  0.51100000000E-03 0.  1.
         12    1    4    4    0    0  0.11996604635E+02 -0.38817518739E+00  0.64605637384E-02  0.12002884840E+02  0.00000000000E+00 0. -1.
</event>
<event>
 8    1  0.1210161E-006  0.9118800E+02  0.7816164E-02  0.1184000E+00
        -11   -1    0    0    0    0  0.00000000000E+00  0.00000000000E+00  0.45593999997E+02  0.45594000000E+02  0.51100000000E-03 0.  1.
         11   -1    0    0    0    0 -0.00000000000E+00 -0.00000000000E+00 -0.45593999997E+02  0.45594000000E+02  0.51100000000E-03 0. -1.
         23    2    1    2    0    0  0.00000000000E+00  0.00000000000E+00 -0.35527136788E-14  0.91188000000E+02  0.91188000000E+02 0.  0.
    9900012    2    3    3    0    0  0.25665519719E+02 -0.53311298741E+01 -0.25858053170E+02  0.54367098844E+02  0.40000033435E+02 0.  0.
        -12    1    3    3    0    0 -0.25665519719E+02  0.53311298741E+01  0.25858053170E+02  0.36820901156E+02  0.00000000000E+00 0.  1.
         11    1    4    4    0    0  0.15447558433E+02  0.16064819181E+01 -0.17666034570E+02  0.23522258042E+02  0.51100000000E-03 0. -1.
        -11    1    4    4    0    0  0.21697204443E+01  0.67993678179E+01  0.61463674903E+01  0.94189661384E+01  0.51100000000E-03 0.  1.
        -12    1    4    4    0    0  0.80482408416E+01 -0.13736979610E+02 -0.14338386091E+02  0.21425874664E+02  0.00000000000E+00 0.  1.
</event>
<event>
 8    1  0.1210161E-006  0.9118800E+02  0.7816164E-02  0.1184000E+00
        -11   -1    0    0    0    0  0.00000000000E+00  0.00000000000E+00  0.45593999997E+02  0.45594000000E+02  0.51100000000E-03 0. -1.
         11   -1    0    0    0    0 -0.00000000000E+00 -0.00000000000E+00 -0.45593999997E+02  0.45594000000E+02  0.51100000000E-03 0.  1.
         23    2    1    2    0    0 -0.35527136788E-14 -0.13322676296E-14  0.00000000000E+00  0.91188000000E+02  0.91188000000E+02 0.  0.
    9900012    2    3    3    0    0  0.22791821737E+02 -0.17592448744E+01  0.28865505588E+02  0.54367088911E+02  0.40000010789E+02 0.  0.
        -12    1    3    3    0    0 -0.22791821737E+02  0.17592448744E+01 -0.28865505588E+02  0.36820911089E+02  0.00000000000E+00 0.  1.
         11    1    4    4    0    0  0.90358443229E+01 -0.40209965353E+01  0.16503344463E+02  0.19239939566E+02  0.51100000000E-03 0. -1.
        -11    1    4    4    0    0  0.82825393049E+01 -0.89726662777E+01 -0.54470128179E+01  0.13370831925E+02  0.51100000000E-03 0.  1.
        -12    1    4    4    0    0  0.54734381090E+01  0.11234417939E+02  0.17809173942E+02  0.21756317419E+02  0.00000000000E+00 0.  1.
</event>
<event>
 8    1  0.1210161E-006  0.9118800E+02  0.7816164E-02  0.1184000E+00
        -11   -1    0    0    0    0  0.00000000000E+00  0.00000000000E+00  0.45593999997E+02  0.45594000000E+02  0.51100000000E-03 0. -1.
         11   -1    0    0    0    0 -0.00000000000E+00 -0.00000000000E+00 -0.45593999997E+02  0.45594000000E+02  0.51100000000E-03 0.  1.
         23    2    1    2    0    0  0.17763568394E-14  0.00000000000E+00  0.00000000000E+00  0.91188000000E+02  0.91188000000E+02 0.  0.
    9900012    2    3    3    0    0  0.15939049218E+02  0.16901367302E+02  0.28566916047E+02  0.54367106487E+02  0.40000050858E+02 0.  0.
        -12    1    3    3    0    0 -0.15939049218E+02 -0.16901367302E+02 -0.28566916047E+02  0.36820893513E+02  0.00000000000E+00 0.  1.
         11    1    4    4    0    0  0.15718676398E+02  0.12087972448E+02  0.24432456278E+02  0.31466502596E+02  0.51100000000E-03 0. -1.
        -11    1    4    4    0    0  0.95914301483E+01 -0.87449092462E-01 -0.31083529349E+01  0.10082908205E+02  0.51100000000E-03 0.  1.
        -12    1    4    4    0    0 -0.93710573280E+01  0.49008439463E+01  0.72428127042E+01  0.12817695686E+02  0.00000000000E+00 0.  1.
</event>
<event>
 8    1  0.1210161E-006  0.9118800E+02  0.7816164E-02  0.1184000E+00
        -11   -1    0    0    0    0  0.00000000000E+00  0.00000000000E+00  0.45593999997E+02  0.45594000000E+02  0.51100000000E-03 0. -1.
         11   -1    0    0    0    0 -0.00000000000E+00 -0.00000000000E+00 -0.45593999997E+02  0.45594000000E+02  0.51100000000E-03 0.  1.
         23    2    1    2    0    0 -0.71054273576E-14  0.71054273576E-14 -0.35527136788E-14  0.91188000000E+02  0.91188000000E+02 0.  0.
    9900012    2    3    3    0    0  0.22814875422E+02 -0.23990691745E+02  0.16115555064E+02  0.54367042028E+02  0.39999903912E+02 0.  0.
        -12    1    3    3    0    0 -0.22814875422E+02  0.23990691745E+02 -0.16115555064E+02  0.36820957972E+02  0.00000000000E+00 0.  1.
         11    1    4    4    0    0  0.63513120621E+01  0.63850160022E+01  0.88078597796E+01  0.12597062690E+02  0.51100000000E-03 0. -1.
        -11    1    4    4    0    0 -0.14269301659E+01 -0.20583276685E+02  0.51154974385E+01  0.21257368678E+02  0.51100000000E-03 0.  1.
        -12    1    4    4    0    0  0.17890493526E+02 -0.97924310619E+01  0.21921978454E+01  0.20512610660E+02  0.00000000000E+00 0.  1.
</event>
<event>
 8    1  0.1210161E-006  0.9118800E+02  0.7816164E-02  0.1184000E+00
        -11   -1    0    0    0    0  0.00000000000E+00  0.00000000000E+00  0.45593999997E+02  0.45594000000E+02  0.51100000000E-03 0.  1.
         11   -1    0    0    0    0 -0.00000000000E+00 -0.00000000000E+00 -0.45593999997E+02  0.45594000000E+02  0.51100000000E-03 0. -1.
         23    2    1    2    0    0  0.00000000000E+00  0.17763568394E-14  0.00000000000E+00  0.91188000000E+02  0.91188000000E+02 0.  0.
    9900012    2    3    3    0    0  0.31566092296E+02 -0.11898033975E+02 -0.14757978269E+02  0.54367091294E+02  0.40000016224E+02 0.  0.
         12    1    3    3    0    0 -0.31566092296E+02  0.11898033975E+02  0.14757978269E+02  0.36820908706E+02  0.00000000000E+00 0. -1.
         11    1    4    4    0    0  0.46478657885E+01  0.14614047881E+00 -0.10311722815E+02  0.11311747924E+02  0.51100000000E-03 0. -1.
        -11    1    4    4    0    0 -0.63360527552E+01 -0.42684332276E+01 -0.45730997343E+01  0.89038378341E+01  0.51100000000E-03 0.  1.
        -12    1    4    4    0    0  0.33254279263E+02 -0.77757412265E+01  0.12684427986E+00  0.34151505536E+02  0.00000000000E+00 0.  1.
</event>
<event>
 8    1  0.1210161E-006  0.9118800E+02  0.7816164E-02  0.1184000E+00
        -11   -1    0    0    0    0  0.00000000000E+00  0.00000000000E+00  0.45593999997E+02  0.45594000000E+02  0.51100000000E-03 0.  1.
         11   -1    0    0    0    0 -0.00000000000E+00 -0.00000000000E+00 -0.45593999997E+02  0.45594000000E+02  0.51100000000E-03 0. -1.
         23    2    1    2    0    0  0.00000000000E+00  0.35527136788E-14  0.71054273576E-14  0.91188000000E+02  0.91188000000E+02 0.  0.
    9900012    2    3    3    0    0  0.18213102815E+02 -0.20940481409E+02 -0.24198229543E+02  0.54367147365E+02  0.40000144047E+02 0.  0.
        -12    1    3    3    0    0 -0.18213102815E+02  0.20940481409E+02  0.24198229543E+02  0.36820852635E+02  0.00000000000E+00 0.  1.
         11    1    4    4    0    0  0.11658723764E+02 -0.74663676835E+01 -0.46496701790E+01  0.14604517083E+02  0.51100000000E-03 0. -1.
        -11    1    4    4    0    0  0.90332518753E+01  0.28572785014E+01 -0.21141686951E+02  0.23167533474E+02  0.51100000000E-03 0.  1.
         12    1    4    4    0    0 -0.24788728245E+01 -0.16331392227E+02  0.15931275867E+01  0.16595096808E+02  0.00000000000E+00 0. -1.
</event>
<event>
 8    1  0.1210161E-006  0.9118800E+02  0.7816164E-02  0.1184000E+00
        -11   -1    0    0    0    0  0.00000000000E+00  0.00000000000E+00  0.45593999997E+02  0.45594000000E+02  0.51100000000E-03 0. -1.
         11   -1    0    0    0    0 -0.00000000000E+00 -0.00000000000E+00 -0.45593999997E+02  0.45594000000E+02  0.51100000000E-03 0.  1.
         23    2    1    2    0    0  0.35527136788E-14 -0.17763568394E-14  0.35527136788E-14  0.91188000000E+02  0.91188000000E+02 0.  0.
    9900012    2    3    3    0    0 -0.28230625154E+02  0.82228290719E+01 -0.22162926120E+02  0.54367103641E+02  0.40000044370E+02 0.  0.
        -12    1    3    3    0    0  0.28230625154E+02 -0.82228290719E+01  0.22162926120E+02  0.36820896359E+02  0.00000000000E+00 0.  1.
         11    1    4    4    0    0  0.53967280594E+01  0.63221170892E+01 -0.58332474591E+01  0.10154832072E+02  0.51100000000E-03 0. -1.
        -11    1    4    4    0    0 -0.88945505202E+01 -0.53896944996E+01 -0.15181043020E+02  0.18401790760E+02  0.51100000000E-03 0.  1.
         12    1    4    4    0    0 -0.24732802693E+02  0.72904064823E+01 -0.11486356405E+01  0.25810480808E+02  0.00000000000E+00 0. -1.
</event>
<event>
 8    1  0.1210161E-006  0.9118800E+02  0.7816164E-02  0.1184000E+00
        -11   -1    0    0    0    0  0.00000000000E+00  0.00000000000E+00  0.45593999997E+02  0.45594000000E+02  0.51100000000E-03 0.  1.
         11   -1    0    0    0    0 -0.00000000000E+00 -0.00000000000E+00 -0.45593999997E+02  0.45594000000E+02  0.51100000000E-03 0. -1.
         23    2    1    2    0    0  0.00000000000E+00  0.44408920985E-15  0.35527136788E-14  0.91188000000E+02  0.91188000000E+02 0.  0.
    9900012    2    3    3    0    0 -0.32693610248E+02 -0.17496283357E+01 -0.16847747168E+02  0.54367082915E+02  0.39999997120E+02 0.  0.
        -12    1    3    3    0    0  0.32693610248E+02  0.17496283357E+01  0.16847747168E+02  0.36820917085E+02  0.00000000000E+00 0.  1.
         11    1    4    4    0    0 -0.17830360660E+02 -0.10844340371E+02 -0.22095094053E+02  0.30392674460E+02  0.51100000000E-03 0. -1.
        -11    1    4    4    0    0 -0.78792842208E+01  0.18156756738E+01 -0.50709395566E+01  0.95443295328E+01  0.51100000000E-03 0.  1.
        -12    1    4    4    0    0 -0.69839653675E+01  0.72790363613E+01  0.10318286442E+02  0.14430078922E+02  0.00000000000E+00 0.  1.
</event>
<event>
 8    1  0.1210161E-006  0.9118800E+02  0.7816164E-02  0.1184000E+00
        -11   -1    0    0    0    0  0.00000000000E+00  0.00000000000E+00  0.45593999997E+02  0.45594000000E+02  0.51100000000E-03 0.  1.
         11   -1    0    0    0    0 -0.00000000000E+00 -0.00000000000E+00 -0.45593999997E+02  0.45594000000E+02  0.51100000000E-03 0. -1.
         23    2    1    2    0    0  0.00000000000E+00  0.00000000000E+00  0.00000000000E+00  0.91188000000E+02  0.91188000000E+02 0.  0.
    9900012    2    3    3    0    0  0.98329996199E+01 -0.16769910390E+02 -0.31270750515E+02  0.54367114435E+02  0.40000068978E+02 0.  0.
        -12    1    3    3    0    0 -0.98329996199E+01  0.16769910390E+02  0.31270750515E+02  0.36820885565E+02  0.00000000000E+00 0.  1.
         11    1    4    4    0    0 -0.76679688724E+00 -0.58849130345E+00 -0.13306855305E+02  0.13341915074E+02  0.51100000000E-03 0. -1.
        -11    1    4    4    0    0  0.19067248384E+02 -0.18161174031E+02 -0.18702357906E+02  0.32298086547E+02  0.51100000000E-03 0.  1.
         12    1    4    4    0    0 -0.84674518766E+01  0.19797549445E+01  0.73846269572E+00  0.87271128145E+01  0.00000000000E+00 0. -1.
</event>
<event>
 8    1  0.1210161E-006  0.9118800E+02  0.7816164E-02  0.1184000E+00
        -11   -1    0    0    0    0  0.00000000000E+00  0.00000000000E+00  0.45593999997E+02  0.45594000000E+02  0.51100000000E-03 0.  1.
         11   -1    0    0    0    0 -0.00000000000E+00 -0.00000000000E+00 -0.45593999997E+02  0.45594000000E+02  0.51100000000E-03 0. -1.
         23    2    1    2    0    0  0.00000000000E+00  0.71054273576E-14  0.66613381478E-15  0.91188000000E+02  0.91188000000E+02 0.  0.
    9900012    2    3    3    0    0  0.14708345380E+02  0.33735878291E+02  0.11550433878E+01  0.54367095162E+02  0.40000025040E+02 0.  0.
        -12    1    3    3    0    0 -0.14708345380E+02 -0.33735878291E+02 -0.11550433878E+01  0.36820904838E+02  0.00000000000E+00 0.  1.
         11    1    4    4    0    0  0.10953380358E+02  0.29041564372E+02  0.36796836828E+01  0.31255864645E+02  0.51100000000E-03 0. -1.
        -11    1    4    4    0    0  0.88410487020E+01  0.42227279439E+01 -0.10037352164E+02  0.14026546694E+02  0.51100000000E-03 0.  1.
         12    1    4    4    0    0 -0.50860836798E+01  0.47158597510E+00  0.75127118688E+01  0.90846838224E+01  0.00000000000E+00 0. -1.
</event>
<event>
 8    1  0.1210161E-006  0.9118800E+02  0.7816164E-02  0.1184000E+00
        -11   -1    0    0    0    0  0.00000000000E+00  0.00000000000E+00  0.45593999997E+02  0.45594000000E+02  0.51100000000E-03 0.  1.
         11   -1    0    0    0    0 -0.00000000000E+00 -0.00000000000E+00 -0.45593999997E+02  0.45594000000E+02  0.51100000000E-03 0. -1.
         23    2    1    2    0    0  0.17763568394E-14 -0.35527136788E-14  0.00000000000E+00  0.91188000000E+02  0.91188000000E+02 0.  0.
    9900012    2    3    3    0    0 -0.75774857316E+01  0.16895978004E+02  0.31825922353E+02  0.54367058997E+02  0.39999942595E+02 0.  0.
         12    1    3    3    0    0  0.75774857316E+01 -0.16895978004E+02 -0.31825922353E+02  0.36820941003E+02  0.00000000000E+00 0. -1.
         11    1    4    4    0    0 -0.10825471779E+02  0.85424682940E+01  0.11466815113E+02  0.17934671808E+02  0.51100000000E-03 0. -1.
        -11    1    4    4    0    0  0.27183978181E+01  0.19083869043E+02  0.15008595934E+02  0.24430343765E+02  0.51100000000E-03 0.  1.
        -12    1    4    4    0    0  0.52958822913E+00 -0.10730359332E+02  0.53505113066E+01  0.12002043423E+02  0.00000000000E+00 0.  1.
</event>
<event>
 8    1  0.1210161E-006  0.9118800E+02  0.7816164E-02  0.1184000E+00
        -11   -1    0    0    0    0  0.00000000000E+00  0.00000000000E+00  0.45593999997E+02  0.45594000000E+02  0.51100000000E-03 0.  1.
         11   -1    0    0    0    0 -0.00000000000E+00 -0.00000000000E+00 -0.45593999997E+02  0.45594000000E+02  0.51100000000E-03 0. -1.
         23    2    1    2    0    0 -0.35527136788E-14  0.00000000000E+00  0.35527136788E-14  0.91188000000E+02  0.91188000000E+02 0.  0.
    9900012    2    3    3    0    0 -0.24125041341E+02 -0.15300698118E+02  0.23230382627E+02  0.54367086655E+02  0.40000005647E+02 0.  0.
        -12    1    3    3    0    0  0.24125041341E+02  0.15300698118E+02 -0.23230382627E+02  0.36820913345E+02  0.00000000000E+00 0.  1.
         11    1    4    4    0    0  0.66032454167E+01 -0.73557496232E+01 -0.18375333862E+01  0.10054174842E+02  0.51100000000E-03 0. -1.
        -11    1    4    4    0    0 -0.16670015563E+02 -0.54152743376E+01  0.24361211139E+02  0.30011384897E+02  0.51100000000E-03 0.  1.
         12    1    4    4    0    0 -0.14058271195E+02 -0.25296741571E+01  0.70670487356E+00  0.14301526915E+02  0.00000000000E+00 0. -1.
</event>
<event>
 8    1  0.1210161E-006  0.9118800E+02  0.7816164E-02  0.1184000E+00
        -11   -1    0    0    0    0  0.00000000000E+00  0.00000000000E+00  0.45593999997E+02  0.45594000000E+02  0.51100000000E-03 0.  1.
         11   -1    0    0    0    0 -0.00000000000E+00 -0.00000000000E+00 -0.45593999997E+02  0.45594000000E+02  0.51100000000E-03 0. -1.
         23    2    1    2    0    0 -0.35527136788E-14  0.35527136788E-14  0.44408920985E-15  0.91188000000E+02  0.91188000000E+02 0.  0.
    9900012    2    3    3    0    0  0.26046898423E+02  0.25880936373E+02 -0.27426899197E+01  0.54366998751E+02  0.39999805252E+02 0.  0.
        -12    1    3    3    0    0 -0.26046898423E+02 -0.25880936373E+02  0.27426899197E+01  0.36821001249E+02  0.00000000000E+00 0.  1.
         11    1    4    4    0    0  0.21750457502E+02  0.17607212861E+02 -0.76029105414E+01  0.28998286074E+02  0.51100000000E-03 0. -1.
        -11    1    4    4    0    0  0.12189099351E+02  0.72533796057E+01 -0.26462985734E+01  0.14428740593E+02  0.51100000000E-03 0.  1.
        -12    1    4    4    0    0 -0.78926584299E+01  0.10203439068E+01  0.75065191950E+01  0.10939972084E+02  0.00000000000E+00 0.  1.
</event>
<event>
 8    1  0.1210161E-006  0.9118800E+02  0.7816164E-02  0.1184000E+00
        -11   -1    0    0    0    0  0.00000000000E+00  0.00000000000E+00  0.45593999997E+02  0.45594000000E+02  0.51100000000E-03 0. -1.
         11   -1    0    0    0    0 -0.00000000000E+00 -0.00000000000E+00 -0.45593999997E+02  0.45594000000E+02  0.51100000000E-03 0.  1.
         23    2    1    2    0    0 -0.35527136788E-14  0.00000000000E+00  0.17763568394E-14  0.91188000000E+02  0.91188000000E+02 0.  0.
    9900012    2    3    3    0    0 -0.29907219926E+02 -0.19924839225E+02 -0.80211509170E+01  0.54367083609E+02  0.39999998704E+02 0.  0.
         12    1    3    3    0    0  0.29907219926E+02  0.19924839225E+02  0.80211509170E+01  0.36820916391E+02  0.00000000000E+00 0. -1.
         11    1    4    4    0    0 -0.39290710818E+01 -0.11263764138E+01  0.63786393630E+01  0.75758407966E+01  0.51100000000E-03 0. -1.
        -11    1    4    4    0    0 -0.19678899719E+02 -0.22359636457E+02 -0.21436413372E+02  0.36697850825E+02  0.51100000000E-03 0.  1.
         12    1    4    4    0    0 -0.62992491253E+01  0.35611736461E+01  0.70366230920E+01  0.10093391988E+02  0.00000000000E+00 0. -1.
</event>
<event>
 8    1  0.1210161E-006  0.9118800E+02  0.7816164E-02  0.1184000E+00
        -11   -1    0    0    0    0  0.00000000000E+00  0.00000000000E+00  0.45593999997E+02  0.45594000000E+02  0.51100000000E-03 0.  1.
         11   -1    0    0    0    0 -0.00000000000E+00 -0.00000000000E+00 -0.45593999997E+02  0.45594000000E+02  0.51100000000E-03 0. -1.
         23    2    1    2    0    0  0.00000000000E+00  0.00000000000E+00  0.00000000000E+00  0.91188000000E+02  0.91188000000E+02 0.  0.
    9900012    2    3    3    0    0 -0.33608395672E+01 -0.20089993008E+02 -0.30673703207E+02  0.54367093845E+02  0.40000022038E+02 0.  0.
        -12    1    3    3    0    0  0.33608395672E+01  0.20089993008E+02  0.30673703207E+02  0.36820906155E+02  0.00000000000E+00 0.  1.
         11    1    4    4    0    0 -0.10541455008E+02 -0.10410477500E+02 -0.31959182510E+02  0.35226263816E+02  0.51100000000E-03 0. -1.
        -11    1    4    4    0    0  0.14476577060E+01  0.36931710547E+01  0.22476431611E+01  0.45592900011E+01  0.51100000000E-03 0.  1.
         12    1    4    4    0    0  0.57329577351E+01 -0.13372686563E+02 -0.96216385820E+00  0.14581540028E+02  0.00000000000E+00 0. -1.
</event>
<event>
 8    1  0.1210161E-006  0.9118800E+02  0.7816164E-02  0.1184000E+00
        -11   -1    0    0    0    0  0.00000000000E+00  0.00000000000E+00  0.45593999997E+02  0.45594000000E+02  0.51100000000E-03 0.  1.
         11   -1    0    0    0    0 -0.00000000000E+00 -0.00000000000E+00 -0.45593999997E+02  0.45594000000E+02  0.51100000000E-03 0. -1.
         23    2    1    2    0    0 -0.35527136788E-14 -0.44408920985E-15  0.00000000000E+00  0.91188000000E+02  0.91188000000E+02 0.  0.
    9900012    2    3    3    0    0  0.18221058964E+02 -0.27154382614E+01 -0.31881054827E+02  0.54367051457E+02  0.39999925407E+02 0.  0.
        -12    1    3    3    0    0 -0.18221058964E+02  0.27154382614E+01  0.31881054827E+02  0.36820948543E+02  0.00000000000E+00 0.  1.
         11    1    4    4    0    0  0.19201880824E+02 -0.10524368731E+02 -0.10630405758E+02  0.24340913935E+02  0.51100000000E-03 0. -1.
        -11    1    4    4    0    0  0.64185812647E+01 -0.30200122796E+01 -0.33761960876E+01  0.78560397086E+01  0.51100000000E-03 0.  1.
         12    1    4    4    0    0 -0.73994031251E+01  0.10828942749E+02 -0.17874452982E+02  0.22170097813E+02  0.00000000000E+00 0. -1.
</event>
<event>
 8    1  0.1210161E-006  0.9118800E+02  0.7816164E-02  0.1184000E+00
        -11   -1    0    0    0    0  0.00000000000E+00  0.00000000000E+00  0.45593999997E+02  0.45594000000E+02  0.51100000000E-03 0.  1.
         11   -1    0    0    0    0 -0.00000000000E+00 -0.00000000000E+00 -0.45593999997E+02  0.45594000000E+02  0.51100000000E-03 0. -1.
         23    2    1    2    0    0  0.00000000000E+00  0.00000000000E+00  0.00000000000E+00  0.91188000000E+02  0.91188000000E+02 0.  0.
    9900012    2    3    3    0    0  0.25141218886E+02 -0.78356214424E+01  0.25735230032E+02  0.54367083182E+02  0.39999997731E+02 0.  0.
        -12    1    3    3    0    0 -0.25141218886E+02  0.78356214424E+01 -0.25735230032E+02  0.36820916818E+02  0.00000000000E+00 0.  1.
         11    1    4    4    0    0  0.54072266692E+01 -0.35255550357E+01  0.23989167929E+02  0.24842459958E+02  0.51100000000E-03 0.  1.
        -11    1    4    4    0    0  0.31228409982E+01 -0.11034126886E+02  0.17752939810E+01  0.11604126896E+02  0.51100000000E-03 0. -1.
        -12    1    4    4    0    0  0.16611151219E+02  0.67240604795E+01 -0.29231877828E-01  0.17920496328E+02  0.00000000000E+00 0.  1.
</event>
<event>
 8    1  0.1210161E-006  0.9118800E+02  0.7816164E-02  0.1184000E+00
        -11   -1    0    0    0    0  0.00000000000E+00  0.00000000000E+00  0.45593999997E+02  0.45594000000E+02  0.51100000000E-03 0.  1.
         11   -1    0    0    0    0 -0.00000000000E+00 -0.00000000000E+00 -0.45593999997E+02  0.45594000000E+02  0.51100000000E-03 0. -1.
         23    2    1    2    0    0  0.00000000000E+00 -0.35527136788E-14 -0.35527136788E-14  0.91188000000E+02  0.91188000000E+02 0.  0.
    9900012    2    3    3    0    0 -0.10251985946E+02  0.31686259594E+02 -0.15705350003E+02  0.54367078208E+02  0.39999986391E+02 0.  0.
        -12    1    3    3    0    0  0.10251985946E+02 -0.31686259594E+02  0.15705350003E+02  0.36820921792E+02  0.00000000000E+00 0.  1.
         11    1    4    4    0    0 -0.39385543897E+01  0.22815369698E+02 -0.30894407027E+00  0.23154886133E+02  0.51100000000E-03 0. -1.
        -11    1    4    4    0    0 -0.27972320515E+01 -0.83641794085E+01 -0.18524548336E+01  0.90119694573E+01  0.51100000000E-03 0.  1.
        -12    1    4    4    0    0 -0.35161995045E+01  0.17235069305E+02 -0.13543951099E+02  0.22200222618E+02  0.00000000000E+00 0.  1.
</event>
<event>
 8    1  0.1210161E-006  0.9118800E+02  0.7816164E-02  0.1184000E+00
        -11   -1    0    0    0    0  0.00000000000E+00  0.00000000000E+00  0.45593999997E+02  0.45594000000E+02  0.51100000000E-03 0. -1.
         11   -1    0    0    0    0 -0.00000000000E+00 -0.00000000000E+00 -0.45593999997E+02  0.45594000000E+02  0.51100000000E-03 0.  1.
         23    2    1    2    0    0  0.35527136788E-14  0.25535129566E-14  0.00000000000E+00  0.91188000000E+02  0.91188000000E+02 0.  0.
    9900012    2    3    3    0    0  0.27998507709E+02  0.75181109931E+00  0.23901674626E+02  0.54367194688E+02  0.40000251931E+02 0.  0.
        -12    1    3    3    0    0 -0.27998507709E+02 -0.75181109931E+00 -0.23901674626E+02  0.36820805312E+02  0.00000000000E+00 0.  1.
         11    1    4    4    0    0  0.15862194153E+02 -0.14804225828E+02  0.23529920829E+02  0.32006741168E+02  0.51100000000E-03 0. -1.
        -11    1    4    4    0    0  0.47905495202E+01  0.12519005620E+02 -0.29838297441E+01  0.13732374399E+02  0.51100000000E-03 0.  1.
        -12    1    4    4    0    0  0.73457640364E+01  0.30370313065E+01  0.33555835406E+01  0.86280791219E+01  0.00000000000E+00 0.  1.
</event>
<event>
 8    1  0.1210161E-006  0.9118800E+02  0.7816164E-02  0.1184000E+00
        -11   -1    0    0    0    0  0.00000000000E+00  0.00000000000E+00  0.45593999997E+02  0.45594000000E+02  0.51100000000E-03 0.  1.
         11   -1    0    0    0    0 -0.00000000000E+00 -0.00000000000E+00 -0.45593999997E+02  0.45594000000E+02  0.51100000000E-03 0. -1.
         23    2    1    2    0    0  0.00000000000E+00  0.00000000000E+00  0.71054273576E-14  0.91188000000E+02  0.91188000000E+02 0.  0.
    9900012    2    3    3    0    0  0.17092134651E+02 -0.30012632155E+01 -0.32475057051E+02  0.54367109486E+02  0.40000057695E+02 0.  0.
        -12    1    3    3    0    0 -0.17092134651E+02  0.30012632155E+01  0.32475057051E+02  0.36820890514E+02  0.00000000000E+00 0.  1.
         11    1    4    4    0    0  0.46833251328E+01 -0.66194484729E+01 -0.38512048261E+01  0.89767706475E+01  0.51100000000E-03 0. -1.
        -11    1    4    4    0    0  0.21266892213E+02  0.17496375560E+01 -0.78627330178E+01  0.22741251213E+02  0.51100000000E-03 0.  1.
        -12    1    4    4    0    0 -0.88580826946E+01  0.18685477014E+01 -0.20761119207E+02  0.22649087625E+02  0.00000000000E+00 0.  1.
</event>
<event>
 8    1  0.1210161E-006  0.9118800E+02  0.7816164E-02  0.1184000E+00
        -11   -1    0    0    0    0  0.00000000000E+00  0.00000000000E+00  0.45593999997E+02  0.45594000000E+02  0.51100000000E-03 0. -1.
         11   -1    0    0    0    0 -0.00000000000E+00 -0.00000000000E+00 -0.45593999997E+02  0.45594000000E+02  0.51100000000E-03 0.  1.
         23    2    1    2    0    0  0.00000000000E+00 -0.35527136788E-14 -0.22204460493E-15  0.91188000000E+02  0.91188000000E+02 0.  0.
    9900012    2    3    3    0    0  0.20049071284E+02 -0.30860255361E+02 -0.12079086478E+01  0.54367086600E+02  0.40000005523E+02 0.  0.
        -12    1    3    3    0    0 -0.20049071284E+02  0.30860255361E+02  0.12079086478E+01  0.36820913400E+02  0.00000000000E+00 0.  1.
         11    1    4    4    0    0  0.76065598413E+01 -0.14808790626E+02  0.51021746954E+00  0.16655940519E+02  0.51100000000E-03 0. -1.
        -11    1    4    4    0    0 -0.16136752692E+01 -0.21887591098E+02  0.20182620661E+01  0.22039600131E+02  0.51100000000E-03 0.  1.
        -12    1    4    4    0    0  0.14056186712E+02  0.58361263632E+01 -0.37363881835E+01  0.15671545950E+02  0.00000000000E+00 0.  1.
</event>
<event>
 8    1  0.1210161E-006  0.9118800E+02  0.7816164E-02  0.1184000E+00
        -11   -1    0    0    0    0  0.00000000000E+00  0.00000000000E+00  0.45593999997E+02  0.45594000000E+02  0.51100000000E-03 0.  1.
         11   -1    0    0    0    0 -0.00000000000E+00 -0.00000000000E+00 -0.45593999997E+02  0.45594000000E+02  0.51100000000E-03 0. -1.
         23    2    1    2    0    0  0.00000000000E+00  0.00000000000E+00  0.00000000000E+00  0.91188000000E+02  0.91188000000E+02 0.  0.
    9900012    2    3    3    0    0  0.16722744887E+02  0.10933366082E+01 -0.32786218184E+02  0.54367059160E+02  0.39999942968E+02 0.  0.
        -12    1    3    3    0    0 -0.16722744887E+02 -0.10933366082E+01  0.32786218184E+02  0.36820940840E+02  0.00000000000E+00 0.  1.
         11    1    4    4    0    0  0.22142529954E+02  0.64479964021E+01 -0.14041125615E+02  0.27000398130E+02  0.51100000000E-03 0. -1.
        -11    1    4    4    0    0 -0.34993425479E+01  0.54977635083E+01 -0.13851572635E+02  0.15308065410E+02  0.51100000000E-03 0.  1.
         12    1    4    4    0    0 -0.19204425196E+01 -0.10852423302E+02 -0.48935199339E+01  0.12058595621E+02  0.00000000000E+00 0. -1.
</event>
<event>
 8    1  0.1210161E-006  0.9118800E+02  0.7816164E-02  0.1184000E+00
        -11   -1    0    0    0    0  0.00000000000E+00  0.00000000000E+00  0.45593999997E+02  0.45594000000E+02  0.51100000000E-03 0.  1.
         11   -1    0    0    0    0 -0.00000000000E+00 -0.00000000000E+00 -0.45593999997E+02  0.45594000000E+02  0.51100000000E-03 0. -1.
         23    2    1    2    0    0  0.00000000000E+00 -0.88817841970E-15  0.00000000000E+00  0.91188000000E+02  0.91188000000E+02 0.  0.
    9900012    2    3    3    0    0 -0.23030924060E+02  0.48814754187E+01 -0.28311270507E+02  0.54367077918E+02  0.39999985729E+02 0.  0.
        -12    1    3    3    0    0  0.23030924060E+02 -0.48814754187E+01  0.28311270507E+02  0.36820922082E+02  0.00000000000E+00 0.  1.
         11    1    4    4    0    0 -0.71803996101E+01  0.25260551169E+01 -0.36900467971E+01  0.84590506938E+01  0.51100000000E-03 0. -1.
        -11    1    4    4    0    0 -0.76432140141E+01  0.80748442594E+01  0.67318923158E+01  0.12997699977E+02  0.51100000000E-03 0.  1.
         12    1    4    4    0    0 -0.82073104354E+01 -0.57194239577E+01 -0.31353116025E+02  0.32910327247E+02  0.00000000000E+00 0. -1.
</event>
<event>
 8    1  0.1210161E-006  0.9118800E+02  0.7816164E-02  0.1184000E+00
        -11   -1    0    0    0    0  0.00000000000E+00  0.00000000000E+00  0.45593999997E+02  0.45594000000E+02  0.51100000000E-03 0.  1.
         11   -1    0    0    0    0 -0.00000000000E+00 -0.00000000000E+00 -0.45593999997E+02  0.45594000000E+02  0.51100000000E-03 0. -1.
         23    2    1    2    0    0  0.17763568394E-14  0.35527136788E-14  0.00000000000E+00  0.91188000000E+02  0.91188000000E+02 0.  0.
    9900012    2    3    3    0    0 -0.11472734430E+02 -0.29574419154E+02 -0.18695180298E+02  0.54367086514E+02  0.40000005326E+02 0.  0.
        -12    1    3    3    0    0  0.11472734430E+02  0.29574419154E+02  0.18695180298E+02  0.36820913486E+02  0.00000000000E+00 0.  1.
         11    1    4    4    0    0  0.63995006419E+00  0.40527786874E+01 -0.51791293072E+01  0.66074149117E+01  0.51100000000E-03 0. -1.
        -11    1    4    4    0    0 -0.11955930815E+02 -0.24216609117E+01  0.28431873889E+01  0.12525671160E+02  0.51100000000E-03 0.  1.
        -12    1    4    4    0    0 -0.15675367887E+00 -0.31205536929E+02 -0.16359238380E+02  0.35234000442E+02  0.00000000000E+00 0.  1.
</event>
<event>
 8    1  0.1210161E-006  0.9118800E+02  0.7816164E-02  0.1184000E+00
        -11   -1    0    0    0    0  0.00000000000E+00  0.00000000000E+00  0.45593999997E+02  0.45594000000E+02  0.51100000000E-03 0.  1.
         11   -1    0    0    0    0 -0.00000000000E+00 -0.00000000000E+00 -0.45593999997E+02  0.45594000000E+02  0.51100000000E-03 0. -1.
         23    2    1    2    0    0 -0.71054273576E-14  0.00000000000E+00 -0.35527136788E-14  0.91188000000E+02  0.91188000000E+02 0.  0.
    9900012    2    3    3    0    0  0.25012087925E+02 -0.12900748627E+02 -0.23743345883E+02  0.54367077534E+02  0.39999984855E+02 0.  0.
        -12    1    3    3    0    0 -0.25012087925E+02  0.12900748627E+02  0.23743345883E+02  0.36820922466E+02  0.00000000000E+00 0.  1.
         11    1    4    4    0    0  0.63895639877E+01 -0.40054135271E+01 -0.10263347131E+02  0.12736018218E+02  0.51100000000E-03 0. -1.
        -11    1    4    4    0    0 -0.31122101035E+01 -0.14290396882E+02  0.14792057968E+01  0.14699977715E+02  0.51100000000E-03 0.  1.
        -12    1    4    4    0    0  0.21734734041E+02  0.53950617818E+01 -0.14959204549E+02  0.26931081601E+02  0.00000000000E+00 0.  1.
</event>
<event>
 8    1  0.1210161E-006  0.9118800E+02  0.7816164E-02  0.1184000E+00
        -11   -1    0    0    0    0  0.00000000000E+00  0.00000000000E+00  0.45593999997E+02  0.45594000000E+02  0.51100000000E-03 0. -1.
         11   -1    0    0    0    0 -0.00000000000E+00 -0.00000000000E+00 -0.45593999997E+02  0.45594000000E+02  0.51100000000E-03 0.  1.
         23    2    1    2    0    0  0.00000000000E+00  0.44408920985E-15  0.00000000000E+00  0.91188000000E+02  0.91188000000E+02 0.  0.
    9900012    2    3    3    0    0 -0.28949304611E+02  0.21390262504E+01 -0.22652654219E+02  0.54367076411E+02  0.39999982295E+02 0.  0.
        -12    1    3    3    0    0  0.28949304611E+02 -0.21390262504E+01  0.22652654219E+02  0.36820923589E+02  0.00000000000E+00 0.  1.
         11    1    4    4    0    0 -0.11039574001E+02  0.36041823918E+01  0.24464568106E+01  0.11867917931E+02  0.51100000000E-03 0. -1.
        -11    1    4    4    0    0 -0.24668832865E+02  0.44228724721E+01 -0.16045285873E+02  0.29758432668E+02  0.51100000000E-03 0.  1.
        -12    1    4    4    0    0  0.67591022551E+01 -0.58880286135E+01 -0.90538251573E+01  0.12740725812E+02  0.00000000000E+00 0.  1.
</event>
<event>
 8    1  0.1210161E-006  0.9118800E+02  0.7816164E-02  0.1184000E+00
        -11   -1    0    0    0    0  0.00000000000E+00  0.00000000000E+00  0.45593999997E+02  0.45594000000E+02  0.51100000000E-03 0.  1.
         11   -1    0    0    0    0 -0.00000000000E+00 -0.00000000000E+00 -0.45593999997E+02  0.45594000000E+02  0.51100000000E-03 0. -1.
         23    2    1    2    0    0 -0.17763568394E-14 -0.35527136788E-14  0.00000000000E+00  0.91188000000E+02  0.91188000000E+02 0.  0.
    9900012    2    3    3    0    0  0.99328313647E+01 -0.28174926414E+02 -0.21524203920E+02  0.54367095995E+02  0.40000026940E+02 0.  0.
        -12    1    3    3    0    0 -0.99328313647E+01  0.28174926414E+02  0.21524203920E+02  0.36820904005E+02  0.00000000000E+00 0.  1.
         11    1    4    4    0    0  0.83398414144E+01  0.47215909517E+00 -0.77477111647E+01  0.11393108337E+02  0.51100000000E-03 0. -1.
        -11    1    4    4    0    0 -0.47022409775E+01 -0.32497851008E+02 -0.13738002421E+02  0.35594298717E+02  0.51100000000E-03 0.  1.
        -12    1    4    4    0    0  0.62952309278E+01  0.38507654994E+01 -0.38490334770E-01  0.73796889414E+01  0.00000000000E+00 0.  1.
</event>
<event>
 8    1  0.1210161E-006  0.9118800E+02  0.7816164E-02  0.1184000E+00
        -11   -1    0    0    0    0  0.00000000000E+00  0.00000000000E+00  0.45593999997E+02  0.45594000000E+02  0.51100000000E-03 0. -1.
         11   -1    0    0    0    0 -0.00000000000E+00 -0.00000000000E+00 -0.45593999997E+02  0.45594000000E+02  0.51100000000E-03 0.  1.
         23    2    1    2    0    0  0.00000000000E+00  0.35527136788E-14  0.00000000000E+00  0.91188000000E+02  0.91188000000E+02 0.  0.
    9900012    2    3    3    0    0 -0.13515907192E+02  0.24812461232E+02 -0.23610103230E+02  0.54367150551E+02  0.40000151310E+02 0.  0.
         12    1    3    3    0    0  0.13515907192E+02 -0.24812461232E+02  0.23610103230E+02  0.36820849449E+02  0.00000000000E+00 0. -1.
         11    1    4    4    0    0 -0.70455861626E+01  0.10680827105E+02 -0.30600542633E+01  0.13156150059E+02  0.51100000000E-03 0. -1.
        -11    1    4    4    0    0 -0.13848310161E+02  0.21224940347E+02 -0.16277460495E+02  0.30120250787E+02  0.51100000000E-03 0.  1.
         12    1    4    4    0    0  0.73779891323E+01 -0.70933062193E+01 -0.42725884722E+01  0.11090749705E+02  0.00000000000E+00 0. -1.
</event>
<event>
 8    1  0.1210161E-006  0.9118800E+02  0.7816164E-02  0.1184000E+00
        -11   -1    0    0    0    0  0.00000000000E+00  0.00000000000E+00  0.45593999997E+02  0.45594000000E+02  0.51100000000E-03 0. -1.
         11   -1    0    0    0    0 -0.00000000000E+00 -0.00000000000E+00 -0.45593999997E+02  0.45594000000E+02  0.51100000000E-03 0.  1.
         23    2    1    2    0    0  0.35527136788E-14  0.35527136788E-14  0.13322676296E-14  0.91188000000E+02  0.91188000000E+02 0.  0.
    9900012    2    3    3    0    0 -0.22218809974E+02 -0.29236020356E+02 -0.27130045233E+01  0.54367071216E+02  0.39999970452E+02 0.  0.
         12    1    3    3    0    0  0.22218809974E+02  0.29236020356E+02  0.27130045233E+01  0.36820928784E+02  0.00000000000E+00 0. -1.
         11    1    4    4    0    0 -0.11666955230E+01 -0.14352101382E+02  0.14507106064E+00  0.14400174944E+02  0.51100000000E-03 0. -1.
        -11    1    4    4    0    0 -0.62269053231E+01 -0.20375802628E+02 -0.88348004996E+01  0.23065155165E+02  0.51100000000E-03 0.  1.
         12    1    4    4    0    0 -0.14825209128E+02  0.54918836543E+01  0.59767249156E+01  0.16901741108E+02  0.00000000000E+00 0. -1.
</event>
<event>
 8    1  0.1210161E-006  0.9118800E+02  0.7816164E-02  0.1184000E+00
        -11   -1    0    0    0    0  0.00000000000E+00  0.00000000000E+00  0.45593999997E+02  0.45594000000E+02  0.51100000000E-03 0. -1.
         11   -1    0    0    0    0 -0.00000000000E+00 -0.00000000000E+00 -0.45593999997E+02  0.45594000000E+02  0.51100000000E-03 0.  1.
         23    2    1    2    0    0  0.00000000000E+00  0.35527136788E-14  0.00000000000E+00  0.91188000000E+02  0.91188000000E+02 0.  0.
    9900012    2    3    3    0    0  0.18936242003E+02  0.14743752729E+02  0.27925226442E+02  0.54367112211E+02  0.40000063908E+02 0.  0.
        -12    1    3    3    0    0 -0.18936242003E+02 -0.14743752729E+02 -0.27925226442E+02  0.36820887789E+02  0.00000000000E+00 0.  1.
         11    1    4    4    0    0  0.14906715424E+02  0.21491295302E+01  0.40261638455E+01  0.15589705515E+02  0.51100000000E-03 0. -1.
        -11    1    4    4    0    0  0.97581683940E+01  0.33034689856E+01 -0.21586574813E+01  0.10525899493E+02  0.51100000000E-03 0.  1.
        -12    1    4    4    0    0 -0.57286418153E+01  0.92911542127E+01  0.26057720078E+02  0.28251507204E+02  0.00000000000E+00 0.  1.
</event>
<event>
 8    1  0.1210161E-006  0.9118800E+02  0.7816164E-02  0.1184000E+00
        -11   -1    0    0    0    0  0.00000000000E+00  0.00000000000E+00  0.45593999997E+02  0.45594000000E+02  0.51100000000E-03 0.  1.
         11   -1    0    0    0    0 -0.00000000000E+00 -0.00000000000E+00 -0.45593999997E+02  0.45594000000E+02  0.51100000000E-03 0. -1.
         23    2    1    2    0    0  0.88817841970E-15 -0.35527136788E-14  0.00000000000E+00  0.91188000000E+02  0.91188000000E+02 0.  0.
    9900012    2    3    3    0    0 -0.69984036464E+01  0.16650045800E+02 -0.32087063368E+02  0.54367064184E+02  0.39999954421E+02 0.  0.
        -12    1    3    3    0    0  0.69984036464E+01 -0.16650045800E+02  0.32087063368E+02  0.36820935816E+02  0.00000000000E+00 0.  1.
         11    1    4    4    0    0 -0.63181902250E+01 -0.13183176052E+01 -0.26350034188E+02  0.27128984334E+02  0.51100000000E-03 0. -1.
        -11    1    4    4    0    0  0.12278654146E+01  0.63848682851E+01 -0.12209248310E+02  0.13832568129E+02  0.51100000000E-03 0.  1.
        -12    1    4    4    0    0 -0.19080788361E+01  0.11583495120E+02  0.64722191299E+01  0.13405511721E+02  0.00000000000E+00 0.  1.
</event>
<event>
 8    1  0.1210161E-006  0.9118800E+02  0.7816164E-02  0.1184000E+00
        -11   -1    0    0    0    0  0.00000000000E+00  0.00000000000E+00  0.45593999997E+02  0.45594000000E+02  0.51100000000E-03 0.  1.
         11   -1    0    0    0    0 -0.00000000000E+00 -0.00000000000E+00 -0.45593999997E+02  0.45594000000E+02  0.51100000000E-03 0. -1.
         23    2    1    2    0    0  0.00000000000E+00  0.00000000000E+00  0.00000000000E+00  0.91188000000E+02  0.91188000000E+02 0.  0.
    9900012    2    3    3    0    0 -0.31124721574E+02 -0.14402866483E+02  0.13401058271E+02  0.54367092641E+02  0.40000019294E+02 0.  0.
         12    1    3    3    0    0  0.31124721574E+02  0.14402866483E+02 -0.13401058271E+02  0.36820907359E+02  0.00000000000E+00 0. -1.
         11    1    4    4    0    0 -0.69071318744E+01 -0.10724438819E+02  0.20897166667E+02  0.24482925350E+02  0.51100000000E-03 0. -1.
        -11    1    4    4    0    0 -0.89516803719E+01 -0.45341583695E+01  0.39506633950E+01  0.10784197472E+02  0.51100000000E-03 0.  1.
         12    1    4    4    0    0 -0.15265909327E+02  0.85573070620E+00 -0.11446771792E+02  0.19099969819E+02  0.00000000000E+00 0. -1.
</event>
<event>
 8    1  0.1210161E-006  0.9118800E+02  0.7816164E-02  0.1184000E+00
        -11   -1    0    0    0    0  0.00000000000E+00  0.00000000000E+00  0.45593999997E+02  0.45594000000E+02  0.51100000000E-03 0.  1.
         11   -1    0    0    0    0 -0.00000000000E+00 -0.00000000000E+00 -0.45593999997E+02  0.45594000000E+02  0.51100000000E-03 0. -1.
         23    2    1    2    0    0  0.00000000000E+00  0.00000000000E+00  0.00000000000E+00  0.91188000000E+02  0.91188000000E+02 0.  0.
    9900012    2    3    3    0    0 -0.27388942722E+02 -0.90452072206E+01  0.22886864651E+02  0.54367101985E+02  0.40000040596E+02 0.  0.
         12    1    3    3    0    0  0.27388942722E+02  0.90452072206E+01 -0.22886864651E+02  0.36820898015E+02  0.00000000000E+00 0. -1.
         11    1    4    4    0    0 -0.30800518857E+02 -0.38287507288E+01  0.29491279695E+02  0.42814330221E+02  0.51100000000E-03 0. -1.
        -11    1    4    4    0    0  0.42764411728E+00 -0.56038296986E+01 -0.18323736876E+01  0.59112926145E+01  0.51100000000E-03 0.  1.
         12    1    4    4    0    0  0.29839320178E+01  0.38737320680E+00 -0.47720413564E+01  0.56414791496E+01  0.00000000000E+00 0. -1.
</event>
<event>
 8    1  0.1210161E-006  0.9118800E+02  0.7816164E-02  0.1184000E+00
        -11   -1    0    0    0    0  0.00000000000E+00  0.00000000000E+00  0.45593999997E+02  0.45594000000E+02  0.51100000000E-03 0.  1.
         11   -1    0    0    0    0 -0.00000000000E+00 -0.00000000000E+00 -0.45593999997E+02  0.45594000000E+02  0.51100000000E-03 0. -1.
         23    2    1    2    0    0  0.00000000000E+00 -0.35527136788E-14  0.00000000000E+00  0.91188000000E+02  0.91188000000E+02 0.  0.
    9900012    2    3    3    0    0  0.20690761259E+02 -0.27909951520E+02  0.12194556834E+02  0.54367079158E+02  0.39999988556E+02 0.  0.
         12    1    3    3    0    0 -0.20690761259E+02  0.27909951520E+02 -0.12194556834E+02  0.36820920842E+02  0.00000000000E+00 0. -1.
         11    1    4    4    0    0 -0.57103053674E+01 -0.16079818019E+01 -0.83298520971E+00  0.59905807302E+01  0.51100000000E-03 0. -1.
        -11    1    4    4    0    0  0.77052947996E+01 -0.25431687851E+02  0.19888299834E+01  0.26647659557E+02  0.51100000000E-03 0.  1.
         12    1    4    4    0    0  0.18695771826E+02 -0.87028186653E+00  0.11038712060E+02  0.21728838871E+02  0.00000000000E+00 0. -1.
</event>
<event>
 8    1  0.1210161E-006  0.9118800E+02  0.7816164E-02  0.1184000E+00
        -11   -1    0    0    0    0  0.00000000000E+00  0.00000000000E+00  0.45593999997E+02  0.45594000000E+02  0.51100000000E-03 0. -1.
         11   -1    0    0    0    0 -0.00000000000E+00 -0.00000000000E+00 -0.45593999997E+02  0.45594000000E+02  0.51100000000E-03 0.  1.
         23    2    1    2    0    0  0.35527136788E-14 -0.17763568394E-14  0.71054273576E-14  0.91188000000E+02  0.91188000000E+02 0.  0.
    9900012    2    3    3    0    0 -0.23666143540E+02  0.14910695412E+02 -0.23945164349E+02  0.54366999424E+02  0.39999806787E+02 0.  0.
         12    1    3    3    0    0  0.23666143540E+02 -0.14910695412E+02  0.23945164349E+02  0.36821000576E+02  0.00000000000E+00 0. -1.
         11    1    4    4    0    0 -0.82107593562E+01  0.13244030217E+02 -0.58105980741E+01  0.16630813445E+02  0.51100000000E-03 0.  1.
        -11    1    4    4    0    0 -0.17880108692E+02 -0.41664363532E+01 -0.23238019703E+02  0.29615250103E+02  0.51100000000E-03 0. -1.
         12    1    4    4    0    0  0.24247245087E+01  0.58331015480E+01  0.51034534281E+01  0.81209358762E+01  0.00000000000E+00 0. -1.
</event>
<event>
 8    1  0.1210161E-006  0.9118800E+02  0.7816164E-02  0.1184000E+00
        -11   -1    0    0    0    0  0.00000000000E+00  0.00000000000E+00  0.45593999997E+02  0.45594000000E+02  0.51100000000E-03 0. -1.
         11   -1    0    0    0    0 -0.00000000000E+00 -0.00000000000E+00 -0.45593999997E+02  0.45594000000E+02  0.51100000000E-03 0.  1.
         23    2    1    2    0    0  0.00000000000E+00  0.00000000000E+00  0.00000000000E+00  0.91188000000E+02  0.91188000000E+02 0.  0.
    9900012    2    3    3    0    0 -0.34657593557E+02  0.57537486496E+01 -0.11023820326E+02  0.54367095214E+02  0.40000025159E+02 0.  0.
         12    1    3    3    0    0  0.34657593557E+02 -0.57537486496E+01  0.11023820326E+02  0.36820904786E+02  0.00000000000E+00 0. -1.
         11    1    4    4    0    0 -0.12727509368E+02 -0.79540509294E+01 -0.30326213437E+01  0.15311865118E+02  0.51100000000E-03 0. -1.
        -11    1    4    4    0    0 -0.12251649080E+02 -0.40488675053E+01 -0.12899187728E+02  0.18245143945E+02  0.51100000000E-03 0.  1.
         12    1    4    4    0    0 -0.96784351089E+01  0.17756667084E+02  0.49079887461E+01  0.20810086151E+02  0.00000000000E+00 0. -1.
</event>
<event>
 8    1  0.1210161E-006  0.9118800E+02  0.7816164E-02  0.1184000E+00
        -11   -1    0    0    0    0  0.00000000000E+00  0.00000000000E+00  0.45593999997E+02  0.45594000000E+02  0.51100000000E-03 0.  1.
         11   -1    0    0    0    0 -0.00000000000E+00 -0.00000000000E+00 -0.45593999997E+02  0.45594000000E+02  0.51100000000E-03 0. -1.
         23    2    1    2    0    0  0.00000000000E+00  0.35527136788E-14 -0.35527136788E-14  0.91188000000E+02  0.91188000000E+02 0.  0.
    9900012    2    3    3    0    0 -0.21451821847E+02 -0.80381690003E+01  0.28826834586E+02  0.54367092710E+02  0.40000019451E+02 0.  0.
         12    1    3    3    0    0  0.21451821847E+02  0.80381690003E+01 -0.28826834586E+02  0.36820907290E+02  0.00000000000E+00 0. -1.
         11    1    4    4    0    0 -0.39377665387E+00 -0.22062443712E+01 -0.11149435306E+01  0.25031327604E+01  0.51100000000E-03 0.  1.
        -11    1    4    4    0    0 -0.25843020430E+02  0.71604223207E+01  0.12477896611E+02  0.29577546498E+02  0.51100000000E-03 0. -1.
        -12    1    4    4    0    0  0.47849752371E+01 -0.12992346950E+02  0.17463881506E+02  0.22286413451E+02  0.00000000000E+00 0.  1.
</event>
<event>
 8    1  0.1210161E-006  0.9118800E+02  0.7816164E-02  0.1184000E+00
        -11   -1    0    0    0    0  0.00000000000E+00  0.00000000000E+00  0.45593999997E+02  0.45594000000E+02  0.51100000000E-03 0.  1.
         11   -1    0    0    0    0 -0.00000000000E+00 -0.00000000000E+00 -0.45593999997E+02  0.45594000000E+02  0.51100000000E-03 0. -1.
         23    2    1    2    0    0 -0.36082248300E-15 -0.35527136788E-14  0.35527136788E-14  0.91188000000E+02  0.91188000000E+02 0.  0.
    9900012    2    3    3    0    0  0.16602002017E+00 -0.20308495586E+02 -0.30713511857E+02  0.54367049901E+02  0.39999921859E+02 0.  0.
        -12    1    3    3    0    0 -0.16602002017E+00  0.20308495586E+02  0.30713511857E+02  0.36820950099E+02  0.00000000000E+00 0.  1.
         11    1    4    4    0    0 -0.78593127527E+01  0.63724123029E+01 -0.14698050796E+02  0.17844022332E+02  0.51100000000E-03 0. -1.
        -11    1    4    4    0    0  0.44510153165E+01 -0.29213672109E+01  0.27908733175E+01  0.60112309774E+01  0.51100000000E-03 0.  1.
         12    1    4    4    0    0  0.35743174564E+01 -0.23759540678E+02 -0.18806334378E+02  0.30511796592E+02  0.00000000000E+00 0. -1.
</event>
<event>
 8    1  0.1210161E-006  0.9118800E+02  0.7816164E-02  0.1184000E+00
        -11   -1    0    0    0    0  0.00000000000E+00  0.00000000000E+00  0.45593999997E+02  0.45594000000E+02  0.51100000000E-03 0. -1.
         11   -1    0    0    0    0 -0.00000000000E+00 -0.00000000000E+00 -0.45593999997E+02  0.45594000000E+02  0.51100000000E-03 0.  1.
         23    2    1    2    0    0  0.00000000000E+00  0.88817841970E-15 -0.14210854715E-13  0.91188000000E+02  0.91188000000E+02 0.  0.
    9900012    2    3    3    0    0 -0.31607275116E+01  0.21365692935E+01  0.36622732404E+02  0.54367086710E+02  0.40000005773E+02 0.  0.
        -12    1    3    3    0    0  0.31607275116E+01 -0.21365692935E+01 -0.36622732404E+02  0.36820913290E+02  0.00000000000E+00 0.  1.
         11    1    4    4    0    0 -0.18452601853E+01 -0.13992168800E+00 -0.28707276271E+01  0.34155000513E+01  0.51100000000E-03 0.  1.
        -11    1    4    4    0    0  0.24363075646E+01  0.15891859511E+02  0.12065956849E+02  0.20101594668E+02  0.51100000000E-03 0. -1.
         12    1    4    4    0    0 -0.37517748909E+01 -0.13615368529E+02  0.27427503182E+02  0.30849991991E+02  0.00000000000E+00 0. -1.
</event>
<event>
 8    1  0.1210161E-006  0.9118800E+02  0.7816164E-02  0.1184000E+00
        -11   -1    0    0    0    0  0.00000000000E+00  0.00000000000E+00  0.45593999997E+02  0.45594000000E+02  0.51100000000E-03 0.  1.
         11   -1    0    0    0    0 -0.00000000000E+00 -0.00000000000E+00 -0.45593999997E+02  0.45594000000E+02  0.51100000000E-03 0. -1.
         23    2    1    2    0    0  0.00000000000E+00 -0.17763568394E-14 -0.35527136788E-14  0.91188000000E+02  0.91188000000E+02 0.  0.
    9900012    2    3    3    0    0 -0.20016084352E+02 -0.71041461641E+01 -0.30077680829E+02  0.54367090049E+02  0.40000013385E+02 0.  0.
        -12    1    3    3    0    0  0.20016084352E+02  0.71041461641E+01  0.30077680829E+02  0.36820909951E+02  0.00000000000E+00 0.  1.
         11    1    4    4    0    0 -0.11836838551E+02  0.86555529310E+00 -0.24220936538E+02  0.26972461880E+02  0.51100000000E-03 0. -1.
        -11    1    4    4    0    0 -0.67202077342E+01  0.81298395732E+01 -0.31161052504E+01  0.10998436056E+02  0.51100000000E-03 0.  1.
         12    1    4    4    0    0 -0.14590380672E+01 -0.16099541030E+02 -0.27406390413E+01  0.16396192114E+02  0.00000000000E+00 0. -1.
</event>
<event>
 8    1  0.1210161E-006  0.9118800E+02  0.7816164E-02  0.1184000E+00
        -11   -1    0    0    0    0  0.00000000000E+00  0.00000000000E+00  0.45593999997E+02  0.45594000000E+02  0.51100000000E-03 0. -1.
         11   -1    0    0    0    0 -0.00000000000E+00 -0.00000000000E+00 -0.45593999997E+02  0.45594000000E+02  0.51100000000E-03 0.  1.
         23    2    1    2    0    0  0.00000000000E+00 -0.15543122345E-14  0.00000000000E+00  0.91188000000E+02  0.91188000000E+02 0.  0.
    9900012    2    3    3    0    0 -0.36470244626E+02  0.12782675521E+01  0.49058338833E+01  0.54367083158E+02  0.39999997674E+02 0.  0.
         12    1    3    3    0    0  0.36470244626E+02 -0.12782675521E+01 -0.49058338833E+01  0.36820916842E+02  0.00000000000E+00 0. -1.
         11    1    4    4    0    0 -0.50957374308E+00 -0.12785852785E+02  0.22058612000E+01  0.12984741843E+02  0.51100000000E-03 0. -1.
        -11    1    4    4    0    0 -0.31699710688E+02  0.16702500158E+02  0.43778916341E+01  0.36097245112E+02  0.51100000000E-03 0.  1.
        -12    1    4    4    0    0 -0.42609601950E+01 -0.26383798211E+01 -0.16779189509E+01  0.52850962024E+01  0.00000000000E+00 0.  1.
</event>
<event>
 8    1  0.1210161E-006  0.9118800E+02  0.7816164E-02  0.1184000E+00
        -11   -1    0    0    0    0  0.00000000000E+00  0.00000000000E+00  0.45593999997E+02  0.45594000000E+02  0.51100000000E-03 0.  1.
         11   -1    0    0    0    0 -0.00000000000E+00 -0.00000000000E+00 -0.45593999997E+02  0.45594000000E+02  0.51100000000E-03 0. -1.
         23    2    1    2    0    0  0.00000000000E+00  0.53290705182E-14  0.35527136788E-14  0.91188000000E+02  0.91188000000E+02 0.  0.
    9900012    2    3    3    0    0  0.22943123339E+02  0.13131545500E+02  0.25631164688E+02  0.54367068466E+02  0.39999964181E+02 0.  0.
        -12    1    3    3    0    0 -0.22943123339E+02 -0.13131545500E+02 -0.25631164688E+02  0.36820931534E+02  0.00000000000E+00 0.  1.
         11    1    4    4    0    0  0.13889744778E+02 -0.49128286484E+01 -0.18810925233E+01  0.14852589157E+02  0.51100000000E-03 0. -1.
        -11    1    4    4    0    0  0.56950762341E+01 -0.32992456520E+01  0.46542779331E+01  0.80610928865E+01  0.51100000000E-03 0.  1.
         12    1    4    4    0    0  0.33583023267E+01  0.21343619800E+02  0.22857979278E+02  0.31453386422E+02  0.00000000000E+00 0. -1.
</event>
<event>
 8    1  0.1210161E-006  0.9118800E+02  0.7816164E-02  0.1184000E+00
        -11   -1    0    0    0    0  0.00000000000E+00  0.00000000000E+00  0.45593999997E+02  0.45594000000E+02  0.51100000000E-03 0.  1.
         11   -1    0    0    0    0 -0.00000000000E+00 -0.00000000000E+00 -0.45593999997E+02  0.45594000000E+02  0.51100000000E-03 0. -1.
         23    2    1    2    0    0  0.35527136788E-14  0.55511151231E-16  0.00000000000E+00  0.91188000000E+02  0.91188000000E+02 0.  0.
    9900012    2    3    3    0    0 -0.22613753531E+02  0.33343841849E+00  0.29056611118E+02  0.54367086383E+02  0.40000005028E+02 0.  0.
         12    1    3    3    0    0  0.22613753531E+02 -0.33343841849E+00 -0.29056611118E+02  0.36820913617E+02  0.00000000000E+00 0. -1.
         11    1    4    4    0    0 -0.12392092447E+01 -0.62355263975E+01  0.55064533932E+01  0.84106158061E+01  0.51100000000E-03 0. -1.
        -11    1    4    4    0    0 -0.23614470036E+02 -0.58607185515E+01  0.22735927803E+02  0.33300354809E+02  0.51100000000E-03 0.  1.
        -12    1    4    4    0    0  0.22399257502E+01  0.12429683367E+02  0.81422992117E+00  0.12656115768E+02  0.00000000000E+00 0.  1.
</event>
<event>
 8    1  0.1210161E-006  0.9118800E+02  0.7816164E-02  0.1184000E+00
        -11   -1    0    0    0    0  0.00000000000E+00  0.00000000000E+00  0.45593999997E+02  0.45594000000E+02  0.51100000000E-03 0.  1.
         11   -1    0    0    0    0 -0.00000000000E+00 -0.00000000000E+00 -0.45593999997E+02  0.45594000000E+02  0.51100000000E-03 0. -1.
         23    2    1    2    0    0  0.17763568394E-14  0.00000000000E+00  0.00000000000E+00  0.91188000000E+02  0.91188000000E+02 0.  0.
    9900012    2    3    3    0    0 -0.90423402753E+01  0.33377677762E+02  0.12647012147E+02  0.54367079226E+02  0.39999988710E+02 0.  0.
         12    1    3    3    0    0  0.90423402753E+01 -0.33377677762E+02 -0.12647012147E+02  0.36820920774E+02  0.00000000000E+00 0. -1.
         11    1    4    4    0    0 -0.85052893061E+01  0.18833653069E+01  0.17977849393E+02  0.19977239052E+02  0.51100000000E-03 0. -1.
        -11    1    4    4    0    0  0.44633753481E+01  0.25946963059E+02 -0.26765025176E+01  0.26463754032E+02  0.51100000000E-03 0.  1.
         12    1    4    4    0    0 -0.50004263174E+01  0.55473493965E+01 -0.26543347286E+01  0.79260861422E+01  0.00000000000E+00 0. -1.
</event>
<event>
 8    1  0.1210161E-006  0.9118800E+02  0.7816164E-02  0.1184000E+00
        -11   -1    0    0    0    0  0.00000000000E+00  0.00000000000E+00  0.45593999997E+02  0.45594000000E+02  0.51100000000E-03 0.  1.
         11   -1    0    0    0    0 -0.00000000000E+00 -0.00000000000E+00 -0.45593999997E+02  0.45594000000E+02  0.51100000000E-03 0. -1.
         23    2    1    2    0    0 -0.71054273576E-14  0.00000000000E+00 -0.17763568394E-14  0.91188000000E+02  0.91188000000E+02 0.  0.
    9900012    2    3    3    0    0  0.33539037826E+02  0.11382223655E+02  0.10067501723E+02  0.54367127325E+02  0.40000098363E+02 0.  0.
         12    1    3    3    0    0 -0.33539037826E+02 -0.11382223655E+02 -0.10067501723E+02  0.36820872675E+02  0.00000000000E+00 0. -1.
         11    1    4    4    0    0  0.23861177174E+02 -0.49578161716E+01 -0.11677472627E+01  0.24398757166E+02  0.51100000000E-03 0. -1.
        -11    1    4    4    0    0  0.14021800104E+02  0.39248694425E+01  0.48501180034E+01  0.15347283903E+02  0.51100000000E-03 0.  1.
        -12    1    4    4    0    0 -0.43439394524E+01  0.12415170384E+02  0.63851309825E+01  0.14621086256E+02  0.00000000000E+00 0.  1.
</event>
<event>
 8    1  0.1210161E-006  0.9118800E+02  0.7816164E-02  0.1184000E+00
        -11   -1    0    0    0    0  0.00000000000E+00  0.00000000000E+00  0.45593999997E+02  0.45594000000E+02  0.51100000000E-03 0. -1.
         11   -1    0    0    0    0 -0.00000000000E+00 -0.00000000000E+00 -0.45593999997E+02  0.45594000000E+02  0.51100000000E-03 0.  1.
         23    2    1    2    0    0  0.71054273576E-14  0.88470897275E-16  0.00000000000E+00  0.91188000000E+02  0.91188000000E+02 0.  0.
    9900012    2    3    3    0    0 -0.26692671336E+02  0.14406262287E-01  0.25362998202E+02  0.54367074042E+02  0.39999976894E+02 0.  0.
        -12    1    3    3    0    0  0.26692671336E+02 -0.14406262287E-01 -0.25362998202E+02  0.36820925958E+02  0.00000000000E+00 0.  1.
         11    1    4    4    0    0 -0.22718681079E+02 -0.38841011859E+01  0.76018736139E+01  0.24269594036E+02  0.51100000000E-03 0. -1.
        -11    1    4    4    0    0  0.99620838961E+01  0.61861516821E+00  0.73269004946E+01  0.12381812121E+02  0.51100000000E-03 0.  1.
        -12    1    4    4    0    0 -0.13936074153E+02  0.32798922800E+01  0.10434224094E+02  0.17715667885E+02  0.00000000000E+00 0.  1.
</event>
<event>
 8    1  0.1210161E-006  0.9118800E+02  0.7816164E-02  0.1184000E+00
        -11   -1    0    0    0    0  0.00000000000E+00  0.00000000000E+00  0.45593999997E+02  0.45594000000E+02  0.51100000000E-03 0. -1.
         11   -1    0    0    0    0 -0.00000000000E+00 -0.00000000000E+00 -0.45593999997E+02  0.45594000000E+02  0.51100000000E-03 0.  1.
         23    2    1    2    0    0  0.00000000000E+00  0.35527136788E-14  0.00000000000E+00  0.91188000000E+02  0.91188000000E+02 0.  0.
    9900012    2    3    3    0    0 -0.22164058922E+01 -0.23834091426E+02  0.27978576055E+02  0.54367121585E+02  0.40000085277E+02 0.  0.
        -12    1    3    3    0    0  0.22164058922E+01  0.23834091426E+02 -0.27978576055E+02  0.36820878415E+02  0.00000000000E+00 0.  1.
         11    1    4    4    0    0  0.15700785019E+01 -0.15894373125E+02  0.13802034603E+02  0.21109059737E+02  0.51100000000E-03 0. -1.
        -11    1    4    4    0    0 -0.12260457728E+02  0.10505999317E+01  0.16604558788E+02  0.20667219376E+02  0.51100000000E-03 0.  1.
         12    1    4    4    0    0  0.84739733337E+01 -0.89903182324E+01 -0.24280173359E+01  0.12590842472E+02  0.00000000000E+00 0. -1.
</event>
<event>
 8    1  0.1210161E-006  0.9118800E+02  0.7816164E-02  0.1184000E+00
        -11   -1    0    0    0    0  0.00000000000E+00  0.00000000000E+00  0.45593999997E+02  0.45594000000E+02  0.51100000000E-03 0.  1.
         11   -1    0    0    0    0 -0.00000000000E+00 -0.00000000000E+00 -0.45593999997E+02  0.45594000000E+02  0.51100000000E-03 0. -1.
         23    2    1    2    0    0  0.35527136788E-14 -0.17763568394E-14  0.00000000000E+00  0.91188000000E+02  0.91188000000E+02 0.  0.
    9900012    2    3    3    0    0 -0.25810727873E+02  0.10352891107E+02  0.24133036797E+02  0.54367088921E+02  0.40000010813E+02 0.  0.
         12    1    3    3    0    0  0.25810727873E+02 -0.10352891107E+02 -0.24133036797E+02  0.36820911079E+02  0.00000000000E+00 0. -1.
         11    1    4    4    0    0  0.16254996369E+01  0.95523577941E+01  0.18555640046E+01  0.98657440942E+01  0.51100000000E-03 0. -1.
        -11    1    4    4    0    0  0.41997452378E+01  0.18713634645E+01  0.91360361618E+01  0.10227757246E+02  0.51100000000E-03 0.  1.
        -12    1    4    4    0    0 -0.31635972748E+02 -0.10708301514E+01  0.13141436631E+02  0.34273587581E+02  0.00000000000E+00 0.  1.
</event>
<event>
 8    1  0.1210161E-006  0.9118800E+02  0.7816164E-02  0.1184000E+00
        -11   -1    0    0    0    0  0.00000000000E+00  0.00000000000E+00  0.45593999997E+02  0.45594000000E+02  0.51100000000E-03 0.  1.
         11   -1    0    0    0    0 -0.00000000000E+00 -0.00000000000E+00 -0.45593999997E+02  0.45594000000E+02  0.51100000000E-03 0. -1.
         23    2    1    2    0    0  0.00000000000E+00 -0.35527136788E-14  0.00000000000E+00  0.91188000000E+02  0.91188000000E+02 0.  0.
    9900012    2    3    3    0    0  0.27458120513E+02 -0.22656979972E+02 -0.94070688839E+01  0.54367081101E+02  0.39999992986E+02 0.  0.
         12    1    3    3    0    0 -0.27458120513E+02  0.22656979972E+02  0.94070688839E+01  0.36820918899E+02  0.00000000000E+00 0. -1.
         11    1    4    4    0    0  0.11473570652E+02 -0.10067654704E+02 -0.15208737977E+02  0.21547765682E+02  0.51100000000E-03 0. -1.
        -11    1    4    4    0    0  0.13694803384E+02 -0.19930760190E+02  0.66565518805E+01  0.25081716941E+02  0.51100000000E-03 0.  1.
         12    1    4    4    0    0  0.22897464771E+01  0.73414349219E+01 -0.85488278696E+00  0.77375984789E+01  0.00000000000E+00 0. -1.
</event>
<event>
 8    1  0.1210161E-006  0.9118800E+02  0.7816164E-02  0.1184000E+00
        -11   -1    0    0    0    0  0.00000000000E+00  0.00000000000E+00  0.45593999997E+02  0.45594000000E+02  0.51100000000E-03 0. -1.
         11   -1    0    0    0    0 -0.00000000000E+00 -0.00000000000E+00 -0.45593999997E+02  0.45594000000E+02  0.51100000000E-03 0.  1.
         23    2    1    2    0    0 -0.88817841970E-15  0.44408920985E-15  0.00000000000E+00  0.91188000000E+02  0.91188000000E+02 0.  0.
    9900012    2    3    3    0    0 -0.20831724561E+01 -0.37298588515E+01 -0.36572244838E+02  0.54367074604E+02  0.39999978175E+02 0.  0.
         12    1    3    3    0    0  0.20831724561E+01  0.37298588515E+01  0.36572244838E+02  0.36820925396E+02  0.00000000000E+00 0. -1.
         11    1    4    4    0    0 -0.14130473515E+02 -0.58500184255E+01 -0.70562462829E+01  0.16842909761E+02  0.51100000000E-03 0. -1.
        -11    1    4    4    0    0  0.66414317349E+00 -0.77912245470E+01 -0.75280424520E+01  0.10854293598E+02  0.51100000000E-03 0.  1.
        -12    1    4    4    0    0  0.11383157886E+02  0.99113841210E+01 -0.21987956103E+02  0.26669871245E+02  0.00000000000E+00 0.  1.
</event>
<event>
 8    1  0.1210161E-006  0.9118800E+02  0.7816164E-02  0.1184000E+00
        -11   -1    0    0    0    0  0.00000000000E+00  0.00000000000E+00  0.45593999997E+02  0.45594000000E+02  0.51100000000E-03 0.  1.
         11   -1    0    0    0    0 -0.00000000000E+00 -0.00000000000E+00 -0.45593999997E+02  0.45594000000E+02  0.51100000000E-03 0. -1.
         23    2    1    2    0    0  0.00000000000E+00  0.88817841970E-15  0.35527136788E-14  0.91188000000E+02  0.91188000000E+02 0.  0.
    9900012    2    3    3    0    0  0.32008833741E+02  0.77601854820E+01  0.16462026376E+02  0.54367024611E+02  0.39999864206E+02 0.  0.
         12    1    3    3    0    0 -0.32008833741E+02 -0.77601854820E+01 -0.16462026376E+02  0.36820975389E+02  0.00000000000E+00 0. -1.
         11    1    4    4    0    0  0.13559777731E+02  0.11214749596E+01  0.79563900942E+01  0.15761644007E+02  0.51100000000E-03 0. -1.
        -11    1    4    4    0    0  0.15042870932E+02 -0.22625906563E+01 -0.97100950947E+01  0.18046972858E+02  0.51100000000E-03 0.  1.
         12    1    4    4    0    0  0.34061850785E+01  0.89013011786E+01  0.18215731377E+02  0.20558407746E+02  0.00000000000E+00 0. -1.
</event>
<event>
 8    1  0.1210161E-006  0.9118800E+02  0.7816164E-02  0.1184000E+00
        -11   -1    0    0    0    0  0.00000000000E+00  0.00000000000E+00  0.45593999997E+02  0.45594000000E+02  0.51100000000E-03 0.  1.
         11   -1    0    0    0    0 -0.00000000000E+00 -0.00000000000E+00 -0.45593999997E+02  0.45594000000E+02  0.51100000000E-03 0. -1.
         23    2    1    2    0    0  0.17763568394E-14  0.00000000000E+00  0.00000000000E+00  0.91188000000E+02  0.91188000000E+02 0.  0.
    9900012    2    3    3    0    0 -0.95395143759E+01  0.16028989185E+02  0.31746647038E+02  0.54367076234E+02  0.39999981890E+02 0.  0.
         12    1    3    3    0    0  0.95395143759E+01 -0.16028989185E+02 -0.31746647038E+02  0.36820923766E+02  0.00000000000E+00 0. -1.
         11    1    4    4    0    0  0.52077877421E-01 -0.49657423870E+00 -0.25274174052E+01  0.25762641714E+01  0.51100000000E-03 0. -1.
        -11    1    4    4    0    0  0.49376697280E+01  0.18956061023E+02  0.31047427474E+02  0.36710428830E+02  0.51100000000E-03 0.  1.
        -12    1    4    4    0    0 -0.14529261981E+02 -0.24304975995E+01  0.32266369695E+01  0.15080383232E+02  0.00000000000E+00 0.  1.
</event>
<event>
 8    1  0.1210161E-006  0.9118800E+02  0.7816164E-02  0.1184000E+00
        -11   -1    0    0    0    0  0.00000000000E+00  0.00000000000E+00  0.45593999997E+02  0.45594000000E+02  0.51100000000E-03 0.  1.
         11   -1    0    0    0    0 -0.00000000000E+00 -0.00000000000E+00 -0.45593999997E+02  0.45594000000E+02  0.51100000000E-03 0. -1.
         23    2    1    2    0    0 -0.88817841970E-15  0.00000000000E+00  0.00000000000E+00  0.91188000000E+02  0.91188000000E+02 0.  0.
    9900012    2    3    3    0    0 -0.50559968520E+01  0.46245942546E+01  0.36177757885E+02  0.54367080106E+02  0.39999990719E+02 0.  0.
         12    1    3    3    0    0  0.50559968520E+01 -0.46245942546E+01 -0.36177757885E+02  0.36820919894E+02  0.00000000000E+00 0. -1.
         11    1    4    4    0    0  0.12388668215E+02 -0.83492227341E+00  0.11366618861E+02  0.16833782104E+02  0.51100000000E-03 0. -1.
        -11    1    4    4    0    0 -0.62403624328E+01 -0.13585938045E+01  0.23499770538E+02  0.24352148078E+02  0.51100000000E-03 0.  1.
         12    1    4    4    0    0 -0.11204302634E+02  0.68181103325E+01  0.13113684864E+01  0.13181149924E+02  0.00000000000E+00 0. -1.
</event>
<event>
 8    1  0.1210161E-006  0.9118800E+02  0.7816164E-02  0.1184000E+00
        -11   -1    0    0    0    0  0.00000000000E+00  0.00000000000E+00  0.45593999997E+02  0.45594000000E+02  0.51100000000E-03 0.  1.
         11   -1    0    0    0    0 -0.00000000000E+00 -0.00000000000E+00 -0.45593999997E+02  0.45594000000E+02  0.51100000000E-03 0. -1.
         23    2    1    2    0    0  0.00000000000E+00  0.35527136788E-14  0.00000000000E+00  0.91188000000E+02  0.91188000000E+02 0.  0.
    9900012    2    3    3    0    0  0.10074913479E+02  0.28840362541E+02 -0.20555032156E+02  0.54367085562E+02  0.40000003156E+02 0.  0.
        -12    1    3    3    0    0 -0.10074913479E+02 -0.28840362541E+02  0.20555032156E+02  0.36820914438E+02  0.00000000000E+00 0.  1.
         11    1    4    4    0    0 -0.41631728008E+01  0.16681863323E+02 -0.12454757415E+02  0.21230580638E+02  0.51100000000E-03 0. -1.
        -11    1    4    4    0    0  0.11840543459E+02 -0.49903453404E+01 -0.91732368865E+01  0.15787662628E+02  0.51100000000E-03 0.  1.
        -12    1    4    4    0    0  0.23975428207E+01  0.17148844558E+02  0.10729621450E+01  0.17348842296E+02  0.00000000000E+00 0.  1.
</event>
<event>
 8    1  0.1210161E-006  0.9118800E+02  0.7816164E-02  0.1184000E+00
        -11   -1    0    0    0    0  0.00000000000E+00  0.00000000000E+00  0.45593999997E+02  0.45594000000E+02  0.51100000000E-03 0. -1.
         11   -1    0    0    0    0 -0.00000000000E+00 -0.00000000000E+00 -0.45593999997E+02  0.45594000000E+02  0.51100000000E-03 0.  1.
         23    2    1    2    0    0  0.00000000000E+00 -0.35527136788E-14 -0.17763568394E-14  0.91188000000E+02  0.91188000000E+02 0.  0.
    9900012    2    3    3    0    0  0.27474571359E+02 -0.20406811740E+02 -0.13582759551E+02  0.54367063105E+02  0.39999951961E+02 0.  0.
         12    1    3    3    0    0 -0.27474571359E+02  0.20406811740E+02  0.13582759551E+02  0.36820936895E+02  0.00000000000E+00 0. -1.
         11    1    4    4    0    0  0.20924640924E+02  0.25219908906E+01  0.21600566642E+01  0.21186478729E+02  0.51100000000E-03 0. -1.
        -11    1    4    4    0    0  0.12018496479E+02 -0.16955128509E+02 -0.13480230443E+02  0.24771702675E+02  0.51100000000E-03 0.  1.
         12    1    4    4    0    0 -0.54685660437E+01 -0.59736741217E+01 -0.22625857727E+01  0.84088817012E+01  0.00000000000E+00 0. -1.
</event>
<event>
 8    1  0.1210161E-006  0.9118800E+02  0.7816164E-02  0.1184000E+00
        -11   -1    0    0    0    0  0.00000000000E+00  0.00000000000E+00  0.45593999997E+02  0.45594000000E+02  0.51100000000E-03 0. -1.
         11   -1    0    0    0    0 -0.00000000000E+00 -0.00000000000E+00 -0.45593999997E+02  0.45594000000E+02  0.51100000000E-03 0.  1.
         23    2    1    2    0    0 -0.35527136788E-14  0.35527136788E-14  0.00000000000E+00  0.91188000000E+02  0.91188000000E+02 0.  0.
    9900012    2    3    3    0    0  0.27151235267E+02 -0.19285576631E+02 -0.15705277170E+02  0.54367098687E+02  0.40000033076E+02 0.  0.
        -12    1    3    3    0    0 -0.27151235267E+02  0.19285576631E+02  0.15705277170E+02  0.36820901313E+02  0.00000000000E+00 0.  1.
         11    1    4    4    0    0  0.87337261834E+01 -0.87430040593E+01  0.41288130146E+01  0.13029397154E+02  0.51100000000E-03 0. -1.
        -11    1    4    4    0    0  0.20465639996E+01  0.69724285680E+01 -0.15300233750E+02  0.16938132642E+02  0.51100000000E-03 0.  1.
        -12    1    4    4    0    0  0.16370945084E+02 -0.17515001140E+02 -0.45338564351E+01  0.24399568891E+02  0.00000000000E+00 0.  1.
</event>
<event>
 8    1  0.1210161E-006  0.9118800E+02  0.7816164E-02  0.1184000E+00
        -11   -1    0    0    0    0  0.00000000000E+00  0.00000000000E+00  0.45593999997E+02  0.45594000000E+02  0.51100000000E-03 0.  1.
         11   -1    0    0    0    0 -0.00000000000E+00 -0.00000000000E+00 -0.45593999997E+02  0.45594000000E+02  0.51100000000E-03 0. -1.
         23    2    1    2    0    0 -0.88817841970E-15 -0.17763568394E-14  0.00000000000E+00  0.91188000000E+02  0.91188000000E+02 0.  0.
    9900012    2    3    3    0    0 -0.78989291791E+01 -0.14048744905E+02  0.33106184593E+02  0.54367085102E+02  0.40000002107E+02 0.  0.
         12    1    3    3    0    0  0.78989291791E+01  0.14048744905E+02 -0.33106184593E+02  0.36820914898E+02  0.00000000000E+00 0. -1.
         11    1    4    4    0    0 -0.20771900447E+01 -0.40074473944E+01  0.20331034521E+02  0.20826073035E+02  0.51100000000E-03 0. -1.
        -11    1    4    4    0    0  0.82285658502E+01 -0.98915728626E+01  0.14498633442E+02  0.19384604241E+02  0.51100000000E-03 0.  1.
         12    1    4    4    0    0 -0.14050304985E+02 -0.14972464775E+00 -0.17234833687E+01  0.14156407827E+02  0.00000000000E+00 0. -1.
</event>
<event>
 8    1  0.1210161E-006  0.9118800E+02  0.7816164E-02  0.1184000E+00
        -11   -1    0    0    0    0  0.00000000000E+00  0.00000000000E+00  0.45593999997E+02  0.45594000000E+02  0.51100000000E-03 0. -1.
         11   -1    0    0    0    0 -0.00000000000E+00 -0.00000000000E+00 -0.45593999997E+02  0.45594000000E+02  0.51100000000E-03 0.  1.
         23    2    1    2    0    0  0.00000000000E+00  0.17763568394E-14 -0.26645352591E-14  0.91188000000E+02  0.91188000000E+02 0.  0.
    9900012    2    3    3    0    0 -0.33073704261E+02 -0.15509293412E+02  0.46230148428E+01  0.54367077117E+02  0.39999983904E+02 0.  0.
         12    1    3    3    0    0  0.33073704261E+02  0.15509293412E+02 -0.46230148428E+01  0.36820922883E+02  0.00000000000E+00 0. -1.
         11    1    4    4    0    0 -0.29951301693E+01 -0.23774543613E+01  0.43630982935E+01  0.58016998329E+01  0.51100000000E-03 0. -1.
        -11    1    4    4    0    0 -0.13611448895E+02  0.14844723572E+01  0.16326880226E+02  0.21308266410E+02  0.51100000000E-03 0.  1.
        -12    1    4    4    0    0 -0.16467125197E+02 -0.14616311408E+02 -0.16066963677E+02  0.27257110875E+02  0.00000000000E+00 0.  1.
</event>
<event>
 8    1  0.1210161E-006  0.9118800E+02  0.7816164E-02  0.1184000E+00
        -11   -1    0    0    0    0  0.00000000000E+00  0.00000000000E+00  0.45593999997E+02  0.45594000000E+02  0.51100000000E-03 0. -1.
         11   -1    0    0    0    0 -0.00000000000E+00 -0.00000000000E+00 -0.45593999997E+02  0.45594000000E+02  0.51100000000E-03 0.  1.
         23    2    1    2    0    0  0.00000000000E+00  0.77715611724E-15  0.35527136788E-14  0.91188000000E+02  0.91188000000E+02 0.  0.
    9900012    2    3    3    0    0  0.21938296438E+02 -0.58163492699E+00 -0.29566072766E+02  0.54367084631E+02  0.40000001033E+02 0.  0.
         12    1    3    3    0    0 -0.21938296438E+02  0.58163492699E+00  0.29566072766E+02  0.36820915369E+02  0.00000000000E+00 0. -1.
         11    1    4    4    0    0  0.38156166063E+01 -0.11852488709E+02  0.34963178590E+01  0.12933083836E+02  0.51100000000E-03 0. -1.
        -11    1    4    4    0    0  0.16092247892E+02  0.36159163743E+01 -0.26176781682E+02  0.30939605571E+02  0.51100000000E-03 0.  1.
         12    1    4    4    0    0  0.20304319400E+01  0.76549374075E+01 -0.68856089437E+01  0.10494395223E+02  0.00000000000E+00 0. -1.
</event>
<event>
 8    1  0.1210161E-006  0.9118800E+02  0.7816164E-02  0.1184000E+00
        -11   -1    0    0    0    0  0.00000000000E+00  0.00000000000E+00  0.45593999997E+02  0.45594000000E+02  0.51100000000E-03 0.  1.
         11   -1    0    0    0    0 -0.00000000000E+00 -0.00000000000E+00 -0.45593999997E+02  0.45594000000E+02  0.51100000000E-03 0. -1.
         23    2    1    2    0    0  0.00000000000E+00  0.00000000000E+00 -0.35527136788E-14  0.91188000000E+02  0.91188000000E+02 0.  0.
    9900012    2    3    3    0    0 -0.30140414573E+02 -0.13170240896E+02 -0.16549340598E+02  0.54367075105E+02  0.39999979317E+02 0.  0.
        -12    1    3    3    0    0  0.30140414573E+02  0.13170240896E+02  0.16549340598E+02  0.36820924895E+02  0.00000000000E+00 0.  1.
         11    1    4    4    0    0 -0.75626907074E+01 -0.64773777563E+01 -0.33426961321E+01  0.10503538976E+02  0.51100000000E-03 0. -1.
        -11    1    4    4    0    0 -0.18697250791E+02 -0.64385040245E+01 -0.24751751782E+02  0.31681078544E+02  0.51100000000E-03 0.  1.
        -12    1    4    4    0    0 -0.38804730751E+01 -0.25435911555E+00  0.11545107316E+02  0.12182457584E+02  0.00000000000E+00 0.  1.
</event>
<event>
 8    1  0.1210161E-006  0.9118800E+02  0.7816164E-02  0.1184000E+00
        -11   -1    0    0    0    0  0.00000000000E+00  0.00000000000E+00  0.45593999997E+02  0.45594000000E+02  0.51100000000E-03 0. -1.
         11   -1    0    0    0    0 -0.00000000000E+00 -0.00000000000E+00 -0.45593999997E+02  0.45594000000E+02  0.51100000000E-03 0.  1.
         23    2    1    2    0    0  0.71054273576E-14  0.00000000000E+00  0.44408920985E-15  0.91188000000E+02  0.91188000000E+02 0.  0.
    9900012    2    3    3    0    0  0.34918355034E+02  0.11469165064E+02 -0.22236586898E+01  0.54367110230E+02  0.40000059391E+02 0.  0.
         12    1    3    3    0    0 -0.34918355034E+02 -0.11469165064E+02  0.22236586898E+01  0.36820889770E+02  0.00000000000E+00 0. -1.
         11    1    4    4    0    0 -0.43236478176E+01  0.21605117144E+01 -0.96472564447E+01  0.10790333567E+02  0.51100000000E-03 0. -1.
        -11    1    4    4    0    0  0.31100402196E+02  0.66344555134E+01 -0.64470597703E+00  0.31806707827E+02  0.51100000000E-03 0.  1.
         12    1    4    4    0    0  0.81416006547E+01  0.26741978359E+01  0.80683037319E+01  0.11770068836E+02  0.00000000000E+00 0. -1.
</event>
<event>
 8    1  0.1210161E-006  0.9118800E+02  0.7816164E-02  0.1184000E+00
        -11   -1    0    0    0    0  0.00000000000E+00  0.00000000000E+00  0.45593999997E+02  0.45594000000E+02  0.51100000000E-03 0.  1.
         11   -1    0    0    0    0 -0.00000000000E+00 -0.00000000000E+00 -0.45593999997E+02  0.45594000000E+02  0.51100000000E-03 0. -1.
         23    2    1    2    0    0  0.00000000000E+00  0.00000000000E+00  0.00000000000E+00  0.91188000000E+02  0.91188000000E+02 0.  0.
    9900012    2    3    3    0    0  0.21293425701E+02  0.25661188907E+01  0.29929661708E+02  0.54367087543E+02  0.40000007672E+02 0.  0.
         12    1    3    3    0    0 -0.21293425701E+02 -0.25661188907E+01 -0.29929661708E+02  0.36820912457E+02  0.00000000000E+00 0. -1.
         11    1    4    4    0    0 -0.32227569685E+01  0.50190080160E+01 -0.14261499036E+01  0.61327406395E+01  0.51100000000E-03 0. -1.
        -11    1    4    4    0    0 -0.29431649289E+00 -0.83067635270E+01  0.17134192275E+02  0.19043883209E+02  0.51100000000E-03 0.  1.
         12    1    4    4    0    0  0.24810499162E+02  0.58538744016E+01  0.14221619336E+02  0.29190463695E+02  0.00000000000E+00 0. -1.
</event>
<event>
 8    1  0.1210161E-006  0.9118800E+02  0.7816164E-02  0.1184000E+00
        -11   -1    0    0    0    0  0.00000000000E+00  0.00000000000E+00  0.45593999997E+02  0.45594000000E+02  0.51100000000E-03 0. -1.
         11   -1    0    0    0    0 -0.00000000000E+00 -0.00000000000E+00 -0.45593999997E+02  0.45594000000E+02  0.51100000000E-03 0.  1.
         23    2    1    2    0    0  0.44408920985E-15  0.35527136788E-14 -0.35527136788E-14  0.91188000000E+02  0.91188000000E+02 0.  0.
    9900012    2    3    3    0    0 -0.17902796891E+01 -0.18358191625E+02  0.31867702997E+02  0.54367098390E+02  0.40000032400E+02 0.  0.
        -12    1    3    3    0    0  0.17902796891E+01  0.18358191625E+02 -0.31867702997E+02  0.36820901610E+02  0.00000000000E+00 0.  1.
         11    1    4    4    0    0  0.96145440306E+01  0.11504043926E+01 -0.43023976834E+01  0.10595919652E+02  0.51100000000E-03 0. -1.
        -11    1    4    4    0    0 -0.33244484102E+01 -0.10584683071E+02  0.98809018620E+01  0.14856638073E+02  0.51100000000E-03 0.  1.
         12    1    4    4    0    0 -0.80803753095E+01 -0.89239129459E+01  0.26289198818E+02  0.28914540665E+02  0.00000000000E+00 0. -1.
</event>
<event>
 8    1  0.1210161E-006  0.9118800E+02  0.7816164E-02  0.1184000E+00
        -11   -1    0    0    0    0  0.00000000000E+00  0.00000000000E+00  0.45593999997E+02  0.45594000000E+02  0.51100000000E-03 0. -1.
         11   -1    0    0    0    0 -0.00000000000E+00 -0.00000000000E+00 -0.45593999997E+02  0.45594000000E+02  0.51100000000E-03 0.  1.
         23    2    1    2    0    0  0.00000000000E+00  0.00000000000E+00  0.00000000000E+00  0.91188000000E+02  0.91188000000E+02 0.  0.
    9900012    2    3    3    0    0  0.83306438328E+01 -0.33721331946E+02 -0.12216889481E+02  0.54367078726E+02  0.39999987571E+02 0.  0.
         12    1    3    3    0    0 -0.83306438328E+01  0.33721331946E+02  0.12216889481E+02  0.36820921274E+02  0.00000000000E+00 0. -1.
         11    1    4    4    0    0 -0.14333512622E+02 -0.50612351005E+01 -0.61697921888E+01  0.16405243697E+02  0.51100000000E-03 0. -1.
        -11    1    4    4    0    0  0.31776552457E+01 -0.26873393931E+01 -0.34182014549E+01  0.53854793029E+01  0.51100000000E-03 0.  1.
        -12    1    4    4    0    0  0.19486501209E+02 -0.25972757453E+02 -0.26288958373E+01  0.32576355726E+02  0.00000000000E+00 0.  1.
</event>
<event>
 8    1  0.1210161E-006  0.9118800E+02  0.7816164E-02  0.1184000E+00
        -11   -1    0    0    0    0  0.00000000000E+00  0.00000000000E+00  0.45593999997E+02  0.45594000000E+02  0.51100000000E-03 0.  1.
         11   -1    0    0    0    0 -0.00000000000E+00 -0.00000000000E+00 -0.45593999997E+02  0.45594000000E+02  0.51100000000E-03 0. -1.
         23    2    1    2    0    0 -0.35527136788E-14  0.00000000000E+00  0.00000000000E+00  0.91188000000E+02  0.91188000000E+02 0.  0.
    9900012    2    3    3    0    0 -0.28294018404E+02 -0.23207908700E+02  0.40770034167E+01  0.54367075779E+02  0.39999980853E+02 0.  0.
        -12    1    3    3    0    0  0.28294018404E+02  0.23207908700E+02 -0.40770034167E+01  0.36820924221E+02  0.00000000000E+00 0.  1.
         11    1    4    4    0    0 -0.10667431236E+02 -0.27189119796E+02  0.30768084240E+01  0.29368504811E+02  0.51100000000E-03 0. -1.
        -11    1    4    4    0    0 -0.25407607570E+01  0.87814370828E+01  0.10621874847E+00  0.91422308627E+01  0.51100000000E-03 0.  1.
        -12    1    4    4    0    0 -0.15085826411E+02 -0.48002259862E+01  0.89397624415E+00  0.15856340105E+02  0.00000000000E+00 0.  1.
</event>
<event>
 8    1  0.1210161E-006  0.9118800E+02  0.7816164E-02  0.1184000E+00
        -11   -1    0    0    0    0  0.00000000000E+00  0.00000000000E+00  0.45593999997E+02  0.45594000000E+02  0.51100000000E-03 0.  1.
         11   -1    0    0    0    0 -0.00000000000E+00 -0.00000000000E+00 -0.45593999997E+02  0.45594000000E+02  0.51100000000E-03 0. -1.
         23    2    1    2    0    0  0.00000000000E+00  0.44408920985E-15  0.00000000000E+00  0.91188000000E+02  0.91188000000E+02 0.  0.
    9900012    2    3    3    0    0 -0.35753615847E+02 -0.30186168844E+01 -0.82672232486E+01  0.54367081024E+02  0.39999992809E+02 0.  0.
        -12    1    3    3    0    0  0.35753615847E+02  0.30186168844E+01  0.82672232486E+01  0.36820918976E+02  0.00000000000E+00 0.  1.
         11    1    4    4    0    0  0.43901398351E+01  0.25968976802E+01 -0.51524115290E+01  0.72501413889E+01  0.51100000000E-03 0. -1.
        -11    1    4    4    0    0 -0.91725123744E+01 -0.28932030095E+01  0.95424465955E+01  0.13548575357E+02  0.51100000000E-03 0.  1.
         12    1    4    4    0    0 -0.30971243308E+02 -0.27223115550E+01 -0.12657258315E+02  0.33568364278E+02  0.00000000000E+00 0. -1.
</event>
<event>
 8    1  0.1210161E-006  0.9118800E+02  0.7816164E-02  0.1184000E+00
        -11   -1    0    0    0    0  0.00000000000E+00  0.00000000000E+00  0.45593999997E+02  0.45594000000E+02  0.51100000000E-03 0.  1.
         11   -1    0    0    0    0 -0.00000000000E+00 -0.00000000000E+00 -0.45593999997E+02  0.45594000000E+02  0.51100000000E-03 0. -1.
         23    2    1    2    0    0 -0.17763568394E-14  0.00000000000E+00  0.00000000000E+00  0.91188000000E+02  0.91188000000E+02 0.  0.
    9900012    2    3    3    0    0 -0.87075770975E+01 -0.87506234901E+01 -0.34689841597E+02  0.54367076324E+02  0.39999982095E+02 0.  0.
        -12    1    3    3    0    0  0.87075770975E+01  0.87506234901E+01  0.34689841597E+02  0.36820923676E+02  0.00000000000E+00 0.  1.
         11    1    4    4    0    0 -0.68339866238E+01  0.89462211103E+01 -0.11517381679E+01  0.11316569551E+02  0.51100000000E-03 0. -1.
        -11    1    4    4    0    0  0.78901572255E+01 -0.19292010159E+01 -0.73080795850E+01  0.10926318002E+02  0.51100000000E-03 0.  1.
         12    1    4    4    0    0 -0.97637476992E+01 -0.15767643585E+02 -0.26230023844E+02  0.32124188771E+02  0.00000000000E+00 0. -1.
</event>
<event>
 8    1  0.1210161E-006  0.9118800E+02  0.7816164E-02  0.1184000E+00
        -11   -1    0    0    0    0  0.00000000000E+00  0.00000000000E+00  0.45593999997E+02  0.45594000000E+02  0.51100000000E-03 0.  1.
         11   -1    0    0    0    0 -0.00000000000E+00 -0.00000000000E+00 -0.45593999997E+02  0.45594000000E+02  0.51100000000E-03 0. -1.
         23    2    1    2    0    0  0.00000000000E+00  0.35527136788E-14  0.00000000000E+00  0.91188000000E+02  0.91188000000E+02 0.  0.
    9900012    2    3    3    0    0  0.21653663394E+02 -0.26260235003E+02  0.14046229898E+02  0.54367113874E+02  0.40000067698E+02 0.  0.
         12    1    3    3    0    0 -0.21653663394E+02  0.26260235003E+02 -0.14046229898E+02  0.36820886126E+02  0.00000000000E+00 0. -1.
         11    1    4    4    0    0  0.16537335192E+02 -0.16123103678E+01  0.23293463585E+01  0.16778225612E+02  0.51100000000E-03 0. -1.
        -11    1    4    4    0    0  0.15051292936E+02 -0.18031727664E+02  0.10006141864E+02  0.25530520889E+02  0.51100000000E-03 0.  1.
        -12    1    4    4    0    0 -0.99349647339E+01 -0.66161969712E+01  0.17107416754E+01  0.12058367373E+02  0.00000000000E+00 0.  1.
</event>
<event>
 8    1  0.1210161E-006  0.9118800E+02  0.7816164E-02  0.1184000E+00
        -11   -1    0    0    0    0  0.00000000000E+00  0.00000000000E+00  0.45593999997E+02  0.45594000000E+02  0.51100000000E-03 0.  1.
         11   -1    0    0    0    0 -0.00000000000E+00 -0.00000000000E+00 -0.45593999997E+02  0.45594000000E+02  0.51100000000E-03 0. -1.
         23    2    1    2    0    0  0.35527136788E-14  0.00000000000E+00  0.00000000000E+00  0.91188000000E+02  0.91188000000E+02 0.  0.
    9900012    2    3    3    0    0  0.21075847891E+02  0.17830779769E+02 -0.24364965236E+02  0.54367087430E+02  0.40000007415E+02 0.  0.
        -12    1    3    3    0    0 -0.21075847891E+02 -0.17830779769E+02  0.24364965236E+02  0.36820912570E+02  0.00000000000E+00 0.  1.
         11    1    4    4    0    0  0.16918189966E+02 -0.11387440784E+01  0.53092359483E+01  0.17768226598E+02  0.51100000000E-03 0. -1.
        -11    1    4    4    0    0  0.20699051713E+01  0.10264168906E+02 -0.80906425893E+01  0.13232390884E+02  0.51100000000E-03 0.  1.
         12    1    4    4    0    0  0.20877527530E+01  0.87053549417E+01 -0.21583558595E+02  0.23366469948E+02  0.00000000000E+00 0. -1.
</event>
<event>
 8    1  0.1210161E-006  0.9118800E+02  0.7816164E-02  0.1184000E+00
        -11   -1    0    0    0    0  0.00000000000E+00  0.00000000000E+00  0.45593999997E+02  0.45594000000E+02  0.51100000000E-03 0.  1.
         11   -1    0    0    0    0 -0.00000000000E+00 -0.00000000000E+00 -0.45593999997E+02  0.45594000000E+02  0.51100000000E-03 0. -1.
         23    2    1    2    0    0 -0.35527136788E-14  0.00000000000E+00  0.19984014443E-14  0.91188000000E+02  0.91188000000E+02 0.  0.
    9900012    2    3    3    0    0  0.23453484609E+02  0.28374106954E+02  0.79044691384E+00  0.54367072635E+02  0.39999973685E+02 0.  0.
        -12    1    3    3    0    0 -0.23453484609E+02 -0.28374106954E+02 -0.79044691384E+00  0.36820927365E+02  0.00000000000E+00 0.  1.
         11    1    4    4    0    0  0.11418026179E+02  0.13444412783E+02 -0.10181438296E+02  0.20366277101E+02  0.51100000000E-03 0. -1.
        -11    1    4    4    0    0  0.85174632399E+00  0.97902841806E+01 -0.71084724822E+01  0.12128706338E+02  0.51100000000E-03 0.  1.
        -12    1    4    4    0    0  0.11183712106E+02  0.51394099897E+01  0.18080357692E+02  0.21872089196E+02  0.00000000000E+00 0.  1.
</event>
<event>
 8    1  0.1210161E-006  0.9118800E+02  0.7816164E-02  0.1184000E+00
        -11   -1    0    0    0    0  0.00000000000E+00  0.00000000000E+00  0.45593999997E+02  0.45594000000E+02  0.51100000000E-03 0.  1.
         11   -1    0    0    0    0 -0.00000000000E+00 -0.00000000000E+00 -0.45593999997E+02  0.45594000000E+02  0.51100000000E-03 0. -1.
         23    2    1    2    0    0  0.22204460493E-15  0.00000000000E+00 -0.44408920985E-15  0.91188000000E+02  0.91188000000E+02 0.  0.
    9900012    2    3    3    0    0 -0.19084293041E+01 -0.36566532779E+02 -0.38764046247E+01  0.54367082919E+02  0.39999997130E+02 0.  0.
        -12    1    3    3    0    0  0.19084293041E+01  0.36566532779E+02  0.38764046247E+01  0.36820917081E+02  0.00000000000E+00 0.  1.
         11    1    4    4    0    0  0.75524872574E+01  0.44229853855E+01 -0.55540861257E+01  0.10365844705E+02  0.51100000000E-03 0.  1.
        -11    1    4    4    0    0 -0.16643341248E+01 -0.16891664947E+02 -0.52075335863E+01  0.17754344795E+02  0.51100000000E-03 0. -1.
        -12    1    4    4    0    0 -0.77965824367E+01 -0.24097853217E+02  0.68852150872E+01  0.26246893419E+02  0.00000000000E+00 0.  1.
</event>
<event>
 8    1  0.1210161E-006  0.9118800E+02  0.7816164E-02  0.1184000E+00
        -11   -1    0    0    0    0  0.00000000000E+00  0.00000000000E+00  0.45593999997E+02  0.45594000000E+02  0.51100000000E-03 0.  1.
         11   -1    0    0    0    0 -0.00000000000E+00 -0.00000000000E+00 -0.45593999997E+02  0.45594000000E+02  0.51100000000E-03 0. -1.
         23    2    1    2    0    0  0.00000000000E+00  0.00000000000E+00  0.00000000000E+00  0.91188000000E+02  0.91188000000E+02 0.  0.
    9900012    2    3    3    0    0 -0.88480423911E+01 -0.32309097032E+02 -0.15284411857E+02  0.54367097635E+02  0.40000030679E+02 0.  0.
        -12    1    3    3    0    0  0.88480423911E+01  0.32309097032E+02  0.15284411857E+02  0.36820902365E+02  0.00000000000E+00 0.  1.
         11    1    4    4    0    0  0.66815466967E+01 -0.33765523315E+01 -0.44381781777E+01  0.87029648802E+01  0.51100000000E-03 0. -1.
        -11    1    4    4    0    0 -0.13037803993E+02 -0.30312598112E+02 -0.18266393217E+02  0.37716031853E+02  0.51100000000E-03 0.  1.
        -12    1    4    4    0    0 -0.24917850947E+01  0.13800534121E+01  0.74201595382E+01  0.79481009022E+01  0.00000000000E+00 0.  1.
</event>
<event>
 8    1  0.1210161E-006  0.9118800E+02  0.7816164E-02  0.1184000E+00
        -11   -1    0    0    0    0  0.00000000000E+00  0.00000000000E+00  0.45593999997E+02  0.45594000000E+02  0.51100000000E-03 0.  1.
         11   -1    0    0    0    0 -0.00000000000E+00 -0.00000000000E+00 -0.45593999997E+02  0.45594000000E+02  0.51100000000E-03 0. -1.
         23    2    1    2    0    0  0.17763568394E-14  0.00000000000E+00  0.00000000000E+00  0.91188000000E+02  0.91188000000E+02 0.  0.
    9900012    2    3    3    0    0 -0.10283872646E+02 -0.80032898081E+01 -0.34437902995E+02  0.54367084109E+02  0.39999999844E+02 0.  0.
        -12    1    3    3    0    0  0.10283872646E+02  0.80032898081E+01  0.34437902995E+02  0.36820915891E+02  0.00000000000E+00 0.  1.
         11    1    4    4    0    0  0.64402894310E+01 -0.86158744489E+01 -0.30907307836E+02  0.32725713108E+02  0.51100000000E-03 0. -1.
        -11    1    4    4    0    0 -0.84906355973E+01 -0.62004999053E+01 -0.30352749353E+01  0.10943033680E+02  0.51100000000E-03 0.  1.
         12    1    4    4    0    0 -0.82335264798E+01  0.68130845461E+01 -0.49532022316E+00  0.10698337322E+02  0.00000000000E+00 0. -1.
</event>
<event>
 8    1  0.1210161E-006  0.9118800E+02  0.7816164E-02  0.1184000E+00
        -11   -1    0    0    0    0  0.00000000000E+00  0.00000000000E+00  0.45593999997E+02  0.45594000000E+02  0.51100000000E-03 0. -1.
         11   -1    0    0    0    0 -0.00000000000E+00 -0.00000000000E+00 -0.45593999997E+02  0.45594000000E+02  0.51100000000E-03 0.  1.
         23    2    1    2    0    0  0.00000000000E+00 -0.17763568394E-14  0.00000000000E+00  0.91188000000E+02  0.91188000000E+02 0.  0.
    9900012    2    3    3    0    0 -0.23829077439E+02  0.13444354245E+02 -0.24641516484E+02  0.54367083019E+02  0.39999997359E+02 0.  0.
         12    1    3    3    0    0  0.23829077439E+02 -0.13444354245E+02  0.24641516484E+02  0.36820916981E+02  0.00000000000E+00 0. -1.
         11    1    4    4    0    0 -0.15398245030E+01  0.50835369336E+01  0.77622202678E+01  0.94056084865E+01  0.51100000000E-03 0. -1.
        -11    1    4    4    0    0  0.26221523796E+01  0.52330037914E+01 -0.42160573847E+01  0.72135394859E+01  0.51100000000E-03 0.  1.
        -12    1    4    4    0    0 -0.24911405316E+02  0.31278135200E+01 -0.28187679367E+02  0.37747935047E+02  0.00000000000E+00 0.  1.
</event>
<event>
 8    1  0.1210161E-006  0.9118800E+02  0.7816164E-02  0.1184000E+00
        -11   -1    0    0    0    0  0.00000000000E+00  0.00000000000E+00  0.45593999997E+02  0.45594000000E+02  0.51100000000E-03 0.  1.
         11   -1    0    0    0    0 -0.00000000000E+00 -0.00000000000E+00 -0.45593999997E+02  0.45594000000E+02  0.51100000000E-03 0. -1.
         23    2    1    2    0    0  0.00000000000E+00 -0.55511151231E-15  0.00000000000E+00  0.91188000000E+02  0.91188000000E+02 0.  0.
    9900012    2    3    3    0    0 -0.94999861907E+01 -0.95654352578E+00  0.35561432290E+02  0.54367079592E+02  0.39999989546E+02 0.  0.
         12    1    3    3    0    0  0.94999861907E+01  0.95654352578E+00 -0.35561432290E+02  0.36820920408E+02  0.00000000000E+00 0. -1.
         11    1    4    4    0    0 -0.10747256699E+02  0.47772032801E+01  0.29781190623E+01  0.12132369560E+02  0.51100000000E-03 0. -1.
        -11    1    4    4    0    0 -0.96404947175E+01 -0.46885689974E+01  0.28685402241E+02  0.30623097812E+02  0.51100000000E-03 0.  1.
        -12    1    4    4    0    0  0.10887765226E+02 -0.10451778085E+01  0.38979109869E+01  0.11611612219E+02  0.00000000000E+00 0.  1.
</event>
<event>
 8    1  0.1210161E-006  0.9118800E+02  0.7816164E-02  0.1184000E+00
        -11   -1    0    0    0    0  0.00000000000E+00  0.00000000000E+00  0.45593999997E+02  0.45594000000E+02  0.51100000000E-03 0. -1.
         11   -1    0    0    0    0 -0.00000000000E+00 -0.00000000000E+00 -0.45593999997E+02  0.45594000000E+02  0.51100000000E-03 0.  1.
         23    2    1    2    0    0 -0.35527136788E-14  0.17763568394E-14  0.00000000000E+00  0.91188000000E+02  0.91188000000E+02 0.  0.
    9900012    2    3    3    0    0 -0.28175656035E+02 -0.41211237857E+01 -0.23343705095E+02  0.54367084452E+02  0.40000000626E+02 0.  0.
         12    1    3    3    0    0  0.28175656035E+02  0.41211237857E+01  0.23343705095E+02  0.36820915548E+02  0.00000000000E+00 0. -1.
         11    1    4    4    0    0  0.64493941378E+01  0.59417019243E+01 -0.69690188679E-01  0.87694562822E+01  0.51100000000E-03 0. -1.
        -11    1    4    4    0    0 -0.26693504008E+02 -0.12411791488E+02 -0.12420013173E+02  0.31950781706E+02  0.51100000000E-03 0.  1.
        -12    1    4    4    0    0 -0.79315461648E+01  0.23489657785E+01 -0.10854001733E+02  0.13646846464E+02  0.00000000000E+00 0.  1.
</event>
<event>
 8    1  0.1210161E-006  0.9118800E+02  0.7816164E-02  0.1184000E+00
        -11   -1    0    0    0    0  0.00000000000E+00  0.00000000000E+00  0.45593999997E+02  0.45594000000E+02  0.51100000000E-03 0.  1.
         11   -1    0    0    0    0 -0.00000000000E+00 -0.00000000000E+00 -0.45593999997E+02  0.45594000000E+02  0.51100000000E-03 0. -1.
         23    2    1    2    0    0  0.44408920985E-15 -0.35527136788E-14  0.00000000000E+00  0.91188000000E+02  0.91188000000E+02 0.  0.
    9900012    2    3    3    0    0 -0.26164897809E+01  0.26647038830E+02 -0.25275859448E+02  0.54367085182E+02  0.40000002290E+02 0.  0.
        -12    1    3    3    0    0  0.26164897809E+01 -0.26647038830E+02  0.25275859448E+02  0.36820914818E+02  0.00000000000E+00 0.  1.
         11    1    4    4    0    0  0.32087455918E+01  0.59794034763E+01 -0.12812658204E+02  0.14498742177E+02  0.51100000000E-03 0. -1.
        -11    1    4    4    0    0 -0.19690665715E+01 -0.83369610904E+01 -0.36355790936E+01  0.93058894789E+01  0.51100000000E-03 0.  1.
        -12    1    4    4    0    0 -0.38561688012E+01  0.29004596444E+02 -0.88276221509E+01  0.30562453526E+02  0.00000000000E+00 0.  1.
</event>
<event>
 8    1  0.1210161E-006  0.9118800E+02  0.7816164E-02  0.1184000E+00
        -11   -1    0    0    0    0  0.00000000000E+00  0.00000000000E+00  0.45593999997E+02  0.45594000000E+02  0.51100000000E-03 0.  1.
         11   -1    0    0    0    0 -0.00000000000E+00 -0.00000000000E+00 -0.45593999997E+02  0.45594000000E+02  0.51100000000E-03 0. -1.
         23    2    1    2    0    0 -0.17763568394E-14  0.00000000000E+00  0.35527136788E-14  0.91188000000E+02  0.91188000000E+02 0.  0.
    9900012    2    3    3    0    0  0.86304667514E+01 -0.22587857746E+02  0.27768437224E+02  0.54367049717E+02  0.39999921439E+02 0.  0.
         12    1    3    3    0    0 -0.86304667514E+01  0.22587857746E+02 -0.27768437224E+02  0.36820950283E+02  0.00000000000E+00 0. -1.
         11    1    4    4    0    0  0.20294221578E+02 -0.20987378111E+02  0.19009974162E+02  0.34838263265E+02  0.51100000000E-03 0. -1.
        -11    1    4    4    0    0 -0.69129622302E+01 -0.21092021041E+01  0.11819649255E+02  0.13854309405E+02  0.51100000000E-03 0.  1.
         12    1    4    4    0    0 -0.47507925964E+01  0.50872246881E+00 -0.30611861933E+01  0.56744770468E+01  0.00000000000E+00 0. -1.
</event>
<event>
 8    1  0.1210161E-006  0.9118800E+02  0.7816164E-02  0.1184000E+00
        -11   -1    0    0    0    0  0.00000000000E+00  0.00000000000E+00  0.45593999997E+02  0.45594000000E+02  0.51100000000E-03 0. -1.
         11   -1    0    0    0    0 -0.00000000000E+00 -0.00000000000E+00 -0.45593999997E+02  0.45594000000E+02  0.51100000000E-03 0.  1.
         23    2    1    2    0    0 -0.88817841970E-15 -0.35527136788E-14  0.00000000000E+00  0.91188000000E+02  0.91188000000E+02 0.  0.
    9900012    2    3    3    0    0  0.78325717571E+01  0.23868775512E+02 -0.26920491685E+02  0.54367075278E+02  0.39999979712E+02 0.  0.
         12    1    3    3    0    0 -0.78325717571E+01 -0.23868775512E+02  0.26920491685E+02  0.36820924722E+02  0.00000000000E+00 0. -1.
         11    1    4    4    0    0 -0.11114231576E+02 -0.70611931593E+00 -0.58531089393E+01  0.12581082327E+02  0.51100000000E-03 0. -1.
        -11    1    4    4    0    0 -0.26996306912E+01  0.75982271817E+01 -0.19799721280E+01  0.83030929214E+01  0.51100000000E-03 0.  1.
        -12    1    4    4    0    0  0.21646434024E+02  0.16976667646E+02 -0.19087410618E+02  0.33482900030E+02  0.00000000000E+00 0.  1.
</event>
<event>
 8    1  0.1210161E-006  0.9118800E+02  0.7816164E-02  0.1184000E+00
        -11   -1    0    0    0    0  0.00000000000E+00  0.00000000000E+00  0.45593999997E+02  0.45594000000E+02  0.51100000000E-03 0.  1.
         11   -1    0    0    0    0 -0.00000000000E+00 -0.00000000000E+00 -0.45593999997E+02  0.45594000000E+02  0.51100000000E-03 0. -1.
         23    2    1    2    0    0 -0.88817841970E-15  0.00000000000E+00  0.00000000000E+00  0.91188000000E+02  0.91188000000E+02 0.  0.
    9900012    2    3    3    0    0  0.36750083367E+01 -0.21905098485E+02  0.29367322420E+02  0.54367100336E+02  0.40000036836E+02 0.  0.
         12    1    3    3    0    0 -0.36750083367E+01  0.21905098485E+02 -0.29367322420E+02  0.36820899664E+02  0.00000000000E+00 0. -1.
         11    1    4    4    0    0 -0.52567607031E+01  0.63205162689E+01  0.12045635944E+02  0.14583545679E+02  0.51100000000E-03 0. -1.
        -11    1    4    4    0    0  0.53087619701E+01 -0.29276925304E+02  0.97276663598E+01  0.31304133944E+02  0.51100000000E-03 0.  1.
        -12    1    4    4    0    0  0.36230070697E+01  0.10513105501E+01  0.75940201164E+01  0.84794207130E+01  0.00000000000E+00 0.  1.
</event>
<event>
 8    1  0.1210161E-006  0.9118800E+02  0.7816164E-02  0.1184000E+00
        -11   -1    0    0    0    0  0.00000000000E+00  0.00000000000E+00  0.45593999997E+02  0.45594000000E+02  0.51100000000E-03 0. -1.
         11   -1    0    0    0    0 -0.00000000000E+00 -0.00000000000E+00 -0.45593999997E+02  0.45594000000E+02  0.51100000000E-03 0.  1.
         23    2    1    2    0    0  0.17763568394E-14  0.00000000000E+00  0.00000000000E+00  0.91188000000E+02  0.91188000000E+02 0.  0.
    9900012    2    3    3    0    0  0.45829890988E+01 -0.42896033715E+01 -0.36281887028E+02  0.54367084578E+02  0.40000000913E+02 0.  0.
         12    1    3    3    0    0 -0.45829890988E+01  0.42896033715E+01  0.36281887028E+02  0.36820915422E+02  0.00000000000E+00 0. -1.
         11    1    4    4    0    0  0.14122695461E+02 -0.51801760349E+01 -0.31530191408E+02  0.34934763793E+02  0.51100000000E-03 0.  1.
        -11    1    4    4    0    0  0.83955217057E+00  0.18382452325E+01 -0.82069265849E+01  0.84520788930E+01  0.51100000000E-03 0. -1.
         12    1    4    4    0    0 -0.10379258533E+02 -0.94767256908E+00  0.34552309643E+01  0.10980241892E+02  0.00000000000E+00 0. -1.
</event>
<event>
 8    1  0.1210161E-006  0.9118800E+02  0.7816164E-02  0.1184000E+00
        -11   -1    0    0    0    0  0.00000000000E+00  0.00000000000E+00  0.45593999997E+02  0.45594000000E+02  0.51100000000E-03 0.  1.
         11   -1    0    0    0    0 -0.00000000000E+00 -0.00000000000E+00 -0.45593999997E+02  0.45594000000E+02  0.51100000000E-03 0. -1.
         23    2    1    2    0    0  0.17763568394E-14  0.00000000000E+00  0.35527136788E-14  0.91188000000E+02  0.91188000000E+02 0.  0.
    9900012    2    3    3    0    0  0.15954189258E+02  0.24059489969E+02 -0.22855680108E+02  0.54367118348E+02  0.40000077897E+02 0.  0.
        -12    1    3    3    0    0 -0.15954189258E+02 -0.24059489969E+02  0.22855680108E+02  0.36820881652E+02  0.00000000000E+00 0.  1.
         11    1    4    4    0    0  0.29721633876E+01 -0.77638234419E+01 -0.64020282787E+01  0.10492696316E+02  0.51100000000E-03 0.  1.
        -11    1    4    4    0    0  0.15346921383E+02  0.25307552149E+02 -0.43345322443E+01  0.29913013251E+02  0.51100000000E-03 0. -1.
        -12    1    4    4    0    0 -0.23648955134E+01  0.65157612623E+01 -0.12119119585E+02  0.13961408781E+02  0.00000000000E+00 0.  1.
</event>
<event>
 8    1  0.1210161E-006  0.9118800E+02  0.7816164E-02  0.1184000E+00
        -11   -1    0    0    0    0  0.00000000000E+00  0.00000000000E+00  0.45593999997E+02  0.45594000000E+02  0.51100000000E-03 0.  1.
         11   -1    0    0    0    0 -0.00000000000E+00 -0.00000000000E+00 -0.45593999997E+02  0.45594000000E+02  0.51100000000E-03 0. -1.
         23    2    1    2    0    0  0.00000000000E+00  0.22204460493E-15  0.00000000000E+00  0.91188000000E+02  0.91188000000E+02 0.  0.
    9900012    2    3    3    0    0 -0.11393720377E+02  0.51911328966E+00  0.35009896076E+02  0.54367093359E+02  0.40000020930E+02 0.  0.
         12    1    3    3    0    0  0.11393720377E+02 -0.51911328966E+00 -0.35009896076E+02  0.36820906641E+02  0.00000000000E+00 0. -1.
         11    1    4    4    0    0  0.76840012295E+00 -0.91458626782E+00  0.30455588282E+02  0.30479005309E+02  0.51100000000E-03 0.  1.
        -11    1    4    4    0    0 -0.42622530281E+00  0.28401239983E+01  0.10337675587E+02  0.10729189585E+02  0.51100000000E-03 0. -1.
         12    1    4    4    0    0 -0.11735895197E+02 -0.14064244408E+01 -0.57833677931E+01  0.13158898465E+02  0.00000000000E+00 0. -1.
</event>
<event>
 8    1  0.1210161E-006  0.9118800E+02  0.7816164E-02  0.1184000E+00
        -11   -1    0    0    0    0  0.00000000000E+00  0.00000000000E+00  0.45593999997E+02  0.45594000000E+02  0.51100000000E-03 0. -1.
         11   -1    0    0    0    0 -0.00000000000E+00 -0.00000000000E+00 -0.45593999997E+02  0.45594000000E+02  0.51100000000E-03 0.  1.
         23    2    1    2    0    0  0.00000000000E+00 -0.17763568394E-14  0.00000000000E+00  0.91188000000E+02  0.91188000000E+02 0.  0.
    9900012    2    3    3    0    0  0.23504366097E+02  0.10866713684E+02  0.26177077343E+02  0.54367081080E+02  0.39999992937E+02 0.  0.
        -12    1    3    3    0    0 -0.23504366097E+02 -0.10866713684E+02 -0.26177077343E+02  0.36820918920E+02  0.00000000000E+00 0.  1.
         11    1    4    4    0    0  0.31289078521E+02  0.51566447313E+01  0.20922395973E+02  0.37991368402E+02  0.51100000000E-03 0. -1.
        -11    1    4    4    0    0  0.30674608400E+01  0.24516900012E+00  0.23788344224E+01  0.38895086212E+01  0.51100000000E-03 0.  1.
        -12    1    4    4    0    0 -0.10852173265E+02  0.54648999528E+01  0.28758469484E+01  0.12486204056E+02  0.00000000000E+00 0.  1.
</event>
<event>
 8    1  0.1210161E-006  0.9118800E+02  0.7816164E-02  0.1184000E+00
        -11   -1    0    0    0    0  0.00000000000E+00  0.00000000000E+00  0.45593999997E+02  0.45594000000E+02  0.51100000000E-03 0. -1.
         11   -1    0    0    0    0 -0.00000000000E+00 -0.00000000000E+00 -0.45593999997E+02  0.45594000000E+02  0.51100000000E-03 0.  1.
         23    2    1    2    0    0  0.00000000000E+00  0.00000000000E+00  0.00000000000E+00  0.91188000000E+02  0.91188000000E+02 0.  0.
    9900012    2    3    3    0    0  0.13176787080E+02  0.25949685419E+02  0.22555857256E+02  0.54367074052E+02  0.39999976916E+02 0.  0.
        -12    1    3    3    0    0 -0.13176787080E+02 -0.25949685419E+02 -0.22555857256E+02  0.36820925948E+02  0.00000000000E+00 0.  1.
         11    1    4    4    0    0 -0.62439978288E+01  0.45694698249E+01  0.73952532926E+00  0.77726740148E+01  0.51100000000E-03 0. -1.
        -11    1    4    4    0    0 -0.16884971233E+01  0.88523228459E+01 -0.49456193808E+01  0.10279775952E+02  0.51100000000E-03 0.  1.
         12    1    4    4    0    0  0.21109282032E+02  0.12527892748E+02  0.26761951308E+02  0.36314624085E+02  0.00000000000E+00 0. -1.
</event>
<event>
 8    1  0.1210161E-006  0.9118800E+02  0.7816164E-02  0.1184000E+00
        -11   -1    0    0    0    0  0.00000000000E+00  0.00000000000E+00  0.45593999997E+02  0.45594000000E+02  0.51100000000E-03 0.  1.
         11   -1    0    0    0    0 -0.00000000000E+00 -0.00000000000E+00 -0.45593999997E+02  0.45594000000E+02  0.51100000000E-03 0. -1.
         23    2    1    2    0    0  0.00000000000E+00  0.88817841970E-15  0.35527136788E-14  0.91188000000E+02  0.91188000000E+02 0.  0.
    9900012    2    3    3    0    0 -0.33808036111E+02 -0.38688933937E+01 -0.14065074755E+02  0.54367109603E+02  0.40000057962E+02 0.  0.
        -12    1    3    3    0    0  0.33808036111E+02  0.38688933937E+01  0.14065074755E+02  0.36820890397E+02  0.00000000000E+00 0.  1.
         11    1    4    4    0    0 -0.22777581976E+02  0.12033140727E+02 -0.12168014202E+02  0.28489915519E+02  0.51100000000E-03 0. -1.
        -11    1    4    4    0    0 -0.14734798610E+02 -0.83120130165E+01  0.10033875407E+01  0.16947289969E+02  0.51100000000E-03 0.  1.
        -12    1    4    4    0    0  0.37043444755E+01 -0.75900211038E+01 -0.29004480939E+01  0.89299041145E+01  0.00000000000E+00 0.  1.
</event>
<event>
 8    1  0.1210161E-006  0.9118800E+02  0.7816164E-02  0.1184000E+00
        -11   -1    0    0    0    0  0.00000000000E+00  0.00000000000E+00  0.45593999997E+02  0.45594000000E+02  0.51100000000E-03 0. -1.
         11   -1    0    0    0    0 -0.00000000000E+00 -0.00000000000E+00 -0.45593999997E+02  0.45594000000E+02  0.51100000000E-03 0.  1.
         23    2    1    2    0    0  0.00000000000E+00 -0.17763568394E-14  0.00000000000E+00  0.91188000000E+02  0.91188000000E+02 0.  0.
    9900012    2    3    3    0    0  0.96841128405E+01  0.12991599089E+02  0.33063770664E+02  0.54367127945E+02  0.40000099776E+02 0.  0.
        -12    1    3    3    0    0 -0.96841128405E+01 -0.12991599089E+02 -0.33063770664E+02  0.36820872055E+02  0.00000000000E+00 0.  1.
         11    1    4    4    0    0 -0.22411830682E+01  0.11535644286E+02  0.34116435246E+01  0.12236555988E+02  0.51100000000E-03 0. -1.
        -11    1    4    4    0    0  0.81829651860E+01 -0.87213399503E+01  0.16127185984E+01  0.12067458361E+02  0.51100000000E-03 0.  1.
        -12    1    4    4    0    0  0.37423307227E+01  0.10177294753E+02  0.28039408541E+02  0.30063113595E+02  0.00000000000E+00 0.  1.
</event>
<event>
 8    1  0.1210161E-006  0.9118800E+02  0.7816164E-02  0.1184000E+00
        -11   -1    0    0    0    0  0.00000000000E+00  0.00000000000E+00  0.45593999997E+02  0.45594000000E+02  0.51100000000E-03 0.  1.
         11   -1    0    0    0    0 -0.00000000000E+00 -0.00000000000E+00 -0.45593999997E+02  0.45594000000E+02  0.51100000000E-03 0. -1.
         23    2    1    2    0    0 -0.35527136788E-14 -0.35527136788E-14 -0.17763568394E-14  0.91188000000E+02  0.91188000000E+02 0.  0.
    9900012    2    3    3    0    0 -0.19309418157E+02 -0.29476908064E+02 -0.10678840070E+02  0.54367090671E+02  0.40000014803E+02 0.  0.
        -12    1    3    3    0    0  0.19309418157E+02  0.29476908064E+02  0.10678840070E+02  0.36820909329E+02  0.00000000000E+00 0.  1.
         11    1    4    4    0    0 -0.40142678419E+01  0.51157657770E+01 -0.37839442710E+01  0.75235390807E+01  0.51100000000E-03 0. -1.
        -11    1    4    4    0    0 -0.20340514005E+02 -0.21053028657E+02  0.28545688156E+01  0.29412838847E+02  0.51100000000E-03 0.  1.
         12    1    4    4    0    0  0.50453636908E+01 -0.13539645184E+02 -0.97494646148E+01  0.17430712744E+02  0.00000000000E+00 0. -1.
</event>
<event>
 8    1  0.1210161E-006  0.9118800E+02  0.7816164E-02  0.1184000E+00
        -11   -1    0    0    0    0  0.00000000000E+00  0.00000000000E+00  0.45593999997E+02  0.45594000000E+02  0.51100000000E-03 0.  1.
         11   -1    0    0    0    0 -0.00000000000E+00 -0.00000000000E+00 -0.45593999997E+02  0.45594000000E+02  0.51100000000E-03 0. -1.
         23    2    1    2    0    0 -0.71054273576E-14  0.00000000000E+00 -0.44408920985E-15  0.91188000000E+02  0.91188000000E+02 0.  0.
    9900012    2    3    3    0    0 -0.35841873488E+02  0.83620153038E+01 -0.11031336972E+01  0.54367080688E+02  0.39999992044E+02 0.  0.
         12    1    3    3    0    0  0.35841873488E+02 -0.83620153038E+01  0.11031336972E+01  0.36820919312E+02  0.00000000000E+00 0. -1.
         11    1    4    4    0    0 -0.68393670094E+01 -0.74481981993E+00  0.20832745808E+01  0.71883051475E+01  0.51100000000E-03 0. -1.
        -11    1    4    4    0    0 -0.30851252933E+02  0.11881967496E+02 -0.13970518166E+02  0.35890894906E+02  0.51100000000E-03 0.  1.
         12    1    4    4    0    0  0.18487464545E+01 -0.27751323726E+01  0.10784109888E+02  0.11287880634E+02  0.00000000000E+00 0. -1.
</event>
<event>
 8    1  0.1210161E-006  0.9118800E+02  0.7816164E-02  0.1184000E+00
        -11   -1    0    0    0    0  0.00000000000E+00  0.00000000000E+00  0.45593999997E+02  0.45594000000E+02  0.51100000000E-03 0.  1.
         11   -1    0    0    0    0 -0.00000000000E+00 -0.00000000000E+00 -0.45593999997E+02  0.45594000000E+02  0.51100000000E-03 0. -1.
         23    2    1    2    0    0  0.00000000000E+00  0.00000000000E+00  0.00000000000E+00  0.91188000000E+02  0.91188000000E+02 0.  0.
    9900012    2    3    3    0    0 -0.34661497127E+02 -0.66617468161E+01  0.10487381266E+02  0.54367035598E+02  0.39999889252E+02 0.  0.
         12    1    3    3    0    0  0.34661497127E+02  0.66617468161E+01 -0.10487381266E+02  0.36820964402E+02  0.00000000000E+00 0. -1.
         11    1    4    4    0    0 -0.50328364824E+00  0.19801838466E+01 -0.14711494416E+01  0.25176781839E+01  0.51100000000E-03 0. -1.
        -11    1    4    4    0    0 -0.36993734720E+02 -0.14158596938E+01  0.18783321153E+02  0.41513301736E+02  0.51100000000E-03 0.  1.
        -12    1    4    4    0    0  0.28355212422E+01 -0.72260709689E+01 -0.68247904446E+01  0.10336055678E+02  0.00000000000E+00 0.  1.
</event>
<event>
 8    1  0.1210161E-006  0.9118800E+02  0.7816164E-02  0.1184000E+00
        -11   -1    0    0    0    0  0.00000000000E+00  0.00000000000E+00  0.45593999997E+02  0.45594000000E+02  0.51100000000E-03 0.  1.
         11   -1    0    0    0    0 -0.00000000000E+00 -0.00000000000E+00 -0.45593999997E+02  0.45594000000E+02  0.51100000000E-03 0. -1.
         23    2    1    2    0    0  0.00000000000E+00  0.00000000000E+00  0.00000000000E+00  0.91188000000E+02  0.91188000000E+02 0.  0.
    9900012    2    3    3    0    0  0.28844806396E+02 -0.17885365957E+02 -0.14278327221E+02  0.54367084753E+02  0.40000001310E+02 0.  0.
        -12    1    3    3    0    0 -0.28844806396E+02  0.17885365957E+02  0.14278327221E+02  0.36820915247E+02  0.00000000000E+00 0.  1.
         11    1    4    4    0    0  0.45311548212E+00 -0.12149855335E+02  0.57423956270E+01  0.13446166967E+02  0.51100000000E-03 0. -1.
        -11    1    4    4    0    0  0.93492437785E+01  0.79225700422E+01 -0.69192700820E+01  0.14073086869E+02  0.51100000000E-03 0.  1.
         12    1    4    4    0    0  0.19042447136E+02 -0.13658080664E+02 -0.13101452766E+02  0.26847830916E+02  0.00000000000E+00 0. -1.
</event>
<event>
 8    1  0.1210161E-006  0.9118800E+02  0.7816164E-02  0.1184000E+00
        -11   -1    0    0    0    0  0.00000000000E+00  0.00000000000E+00  0.45593999997E+02  0.45594000000E+02  0.51100000000E-03 0. -1.
         11   -1    0    0    0    0 -0.00000000000E+00 -0.00000000000E+00 -0.45593999997E+02  0.45594000000E+02  0.51100000000E-03 0.  1.
         23    2    1    2    0    0 -0.35527136788E-14 -0.35527136788E-14 -0.71054273576E-14  0.91188000000E+02  0.91188000000E+02 0.  0.
    9900012    2    3    3    0    0  0.15974236393E+02  0.25067261310E+02  0.21730979630E+02  0.54367091625E+02  0.40000016976E+02 0.  0.
        -12    1    3    3    0    0 -0.15974236393E+02 -0.25067261310E+02 -0.21730979630E+02  0.36820908375E+02  0.00000000000E+00 0.  1.
         11    1    4    4    0    0 -0.98020962724E+01  0.74819522275E+01  0.15857354715E+02  0.20087717623E+02  0.51100000000E-03 0. -1.
        -11    1    4    4    0    0  0.16097037124E+01  0.54237155650E+01 -0.21626872982E+01  0.60568187345E+01  0.51100000000E-03 0.  1.
        -12    1    4    4    0    0  0.24166628953E+02  0.12161593517E+02  0.80363122134E+01  0.28222555268E+02  0.00000000000E+00 0.  1.
</event>
<event>
 8    1  0.1210161E-006  0.9118800E+02  0.7816164E-02  0.1184000E+00
        -11   -1    0    0    0    0  0.00000000000E+00  0.00000000000E+00  0.45593999997E+02  0.45594000000E+02  0.51100000000E-03 0. -1.
         11   -1    0    0    0    0 -0.00000000000E+00 -0.00000000000E+00 -0.45593999997E+02  0.45594000000E+02  0.51100000000E-03 0.  1.
         23    2    1    2    0    0  0.00000000000E+00  0.00000000000E+00 -0.71054273576E-14  0.91188000000E+02  0.91188000000E+02 0.  0.
    9900012    2    3    3    0    0 -0.61896312806E+01 -0.13832266526E+02  0.33557947625E+02  0.54367095863E+02  0.40000026640E+02 0.  0.
        -12    1    3    3    0    0  0.61896312806E+01  0.13832266526E+02 -0.33557947625E+02  0.36820904137E+02  0.00000000000E+00 0.  1.
         11    1    4    4    0    0 -0.23318100102E+01 -0.13517653200E+02  0.33392303140E+02  0.36100002704E+02  0.51100000000E-03 0. -1.
        -11    1    4    4    0    0  0.31416025270E+00  0.29949387063E+01 -0.79833250600E+01  0.85323990644E+01  0.51100000000E-03 0.  1.
        -12    1    4    4    0    0 -0.41719815231E+01 -0.33095520323E+01  0.81489695451E+01  0.97346940954E+01  0.00000000000E+00 0.  1.
</event>
<event>
 8    1  0.1210161E-006  0.9118800E+02  0.7816164E-02  0.1184000E+00
        -11   -1    0    0    0    0  0.00000000000E+00  0.00000000000E+00  0.45593999997E+02  0.45594000000E+02  0.51100000000E-03 0. -1.
         11   -1    0    0    0    0 -0.00000000000E+00 -0.00000000000E+00 -0.45593999997E+02  0.45594000000E+02  0.51100000000E-03 0.  1.
         23    2    1    2    0    0  0.00000000000E+00  0.00000000000E+00  0.00000000000E+00  0.91188000000E+02  0.91188000000E+02 0.  0.
    9900012    2    3    3    0    0  0.24253350144E+02  0.26208051993E+01  0.27580544035E+02  0.54367081729E+02  0.39999994417E+02 0.  0.
        -12    1    3    3    0    0 -0.24253350144E+02 -0.26208051993E+01 -0.27580544035E+02  0.36820918271E+02  0.00000000000E+00 0.  1.
         11    1    4    4    0    0  0.28903216808E+02  0.30649058510E+01  0.29043763941E+02  0.41089290744E+02  0.51100000000E-03 0. -1.
        -11    1    4    4    0    0  0.15989123066E+01 -0.27391074160E+01  0.36853510922E+01  0.48622055627E+01  0.51100000000E-03 0.  1.
        -12    1    4    4    0    0 -0.62487789703E+01  0.22950067643E+01 -0.51485709988E+01  0.84155854222E+01  0.00000000000E+00 0.  1.
</event>
<event>
 8    1  0.1210161E-006  0.9118800E+02  0.7816164E-02  0.1184000E+00
        -11   -1    0    0    0    0  0.00000000000E+00  0.00000000000E+00  0.45593999997E+02  0.45594000000E+02  0.51100000000E-03 0.  1.
         11   -1    0    0    0    0 -0.00000000000E+00 -0.00000000000E+00 -0.45593999997E+02  0.45594000000E+02  0.51100000000E-03 0. -1.
         23    2    1    2    0    0  0.37816971776E-15  0.00000000000E+00  0.00000000000E+00  0.91188000000E+02  0.91188000000E+02 0.  0.
    9900012    2    3    3    0    0  0.10321521005E-01 -0.36126655055E+02  0.71165061446E+01  0.54367082417E+02  0.39999995986E+02 0.  0.
        -12    1    3    3    0    0 -0.10321521005E-01  0.36126655055E+02 -0.71165061446E+01  0.36820917583E+02  0.00000000000E+00 0.  1.
         11    1    4    4    0    0 -0.19586819344E+01 -0.27033722529E+02  0.22200476462E+01  0.27195352554E+02  0.51100000000E-03 0. -1.
        -11    1    4    4    0    0 -0.22233535949E+01  0.75504301897E+01  0.61121478568E+01  0.99654728408E+01  0.51100000000E-03 0.  1.
        -12    1    4    4    0    0  0.41923570503E+01 -0.16643362715E+02 -0.12156893585E+01  0.17206257022E+02  0.00000000000E+00 0.  1.
</event>
<event>
 8    1  0.1210161E-006  0.9118800E+02  0.7816164E-02  0.1184000E+00
        -11   -1    0    0    0    0  0.00000000000E+00  0.00000000000E+00  0.45593999997E+02  0.45594000000E+02  0.51100000000E-03 0. -1.
         11   -1    0    0    0    0 -0.00000000000E+00 -0.00000000000E+00 -0.45593999997E+02  0.45594000000E+02  0.51100000000E-03 0.  1.
         23    2    1    2    0    0  0.00000000000E+00  0.00000000000E+00  0.00000000000E+00  0.91188000000E+02  0.91188000000E+02 0.  0.
    9900012    2    3    3    0    0  0.27541672179E+02  0.19725254296E+02 -0.14427464724E+02  0.54367067070E+02  0.39999960999E+02 0.  0.
         12    1    3    3    0    0 -0.27541672179E+02 -0.19725254296E+02  0.14427464724E+02  0.36820932930E+02  0.00000000000E+00 0. -1.
         11    1    4    4    0    0  0.20533896606E+00 -0.25793356282E+01 -0.11441385073E+02  0.11730320926E+02  0.51100000000E-03 0. -1.
        -11    1    4    4    0    0  0.86521424701E+01  0.64761306015E+01  0.10168939277E+02  0.14839378800E+02  0.51100000000E-03 0.  1.
        -12    1    4    4    0    0  0.18684190743E+02  0.15828459323E+02 -0.13155018929E+02  0.27797367344E+02  0.00000000000E+00 0.  1.
</event>
<event>
 8    1  0.1210161E-006  0.9118800E+02  0.7816164E-02  0.1184000E+00
        -11   -1    0    0    0    0  0.00000000000E+00  0.00000000000E+00  0.45593999997E+02  0.45594000000E+02  0.51100000000E-03 0. -1.
         11   -1    0    0    0    0 -0.00000000000E+00 -0.00000000000E+00 -0.45593999997E+02  0.45594000000E+02  0.51100000000E-03 0.  1.
         23    2    1    2    0    0 -0.44408920985E-15 -0.88817841970E-15  0.00000000000E+00  0.91188000000E+02  0.91188000000E+02 0.  0.
    9900012    2    3    3    0    0  0.39045115572E+01  0.74203830404E+01 -0.35853481917E+02  0.54367089358E+02  0.40000011809E+02 0.  0.
         12    1    3    3    0    0 -0.39045115572E+01 -0.74203830404E+01  0.35853481917E+02  0.36820910642E+02  0.00000000000E+00 0. -1.
         11    1    4    4    0    0 -0.18809806535E+01  0.40958958511E+01 -0.11181029655E+02  0.12055284129E+02  0.51100000000E-03 0. -1.
        -11    1    4    4    0    0 -0.13684865601E+02  0.10161462873E+01 -0.15388022555E+02  0.20617937293E+02  0.51100000000E-03 0.  1.
         12    1    4    4    0    0  0.19470357812E+02  0.23083409020E+01 -0.92844297071E+01  0.21693867936E+02  0.00000000000E+00 0. -1.
</event>
<event>
 8    1  0.1210161E-006  0.9118800E+02  0.7816164E-02  0.1184000E+00
        -11   -1    0    0    0    0  0.00000000000E+00  0.00000000000E+00  0.45593999997E+02  0.45594000000E+02  0.51100000000E-03 0.  1.
         11   -1    0    0    0    0 -0.00000000000E+00 -0.00000000000E+00 -0.45593999997E+02  0.45594000000E+02  0.51100000000E-03 0. -1.
         23    2    1    2    0    0 -0.35527136788E-14  0.00000000000E+00  0.00000000000E+00  0.91188000000E+02  0.91188000000E+02 0.  0.
    9900012    2    3    3    0    0 -0.20512292682E+02 -0.21805274687E+01  0.30500346051E+02  0.54367082571E+02  0.39999996336E+02 0.  0.
         12    1    3    3    0    0  0.20512292682E+02  0.21805274687E+01 -0.30500346051E+02  0.36820917429E+02  0.00000000000E+00 0. -1.
         11    1    4    4    0    0 -0.51129381724E+00 -0.31500914741E+01  0.77571722316E+01  0.83879806244E+01  0.51100000000E-03 0. -1.
        -11    1    4    4    0    0 -0.21603857505E+02  0.12593744003E+02  0.23371665319E+02  0.34228113988E+02  0.51100000000E-03 0.  1.
         12    1    4    4    0    0  0.16028586399E+01 -0.11624179998E+02 -0.62849149973E+00  0.11750987959E+02  0.00000000000E+00 0. -1.
</event>
<event>
 8    1  0.1210161E-006  0.9118800E+02  0.7816164E-02  0.1184000E+00
        -11   -1    0    0    0    0  0.00000000000E+00  0.00000000000E+00  0.45593999997E+02  0.45594000000E+02  0.51100000000E-03 0.  1.
         11   -1    0    0    0    0 -0.00000000000E+00 -0.00000000000E+00 -0.45593999997E+02  0.45594000000E+02  0.51100000000E-03 0. -1.
         23    2    1    2    0    0  0.00000000000E+00  0.00000000000E+00  0.00000000000E+00  0.91188000000E+02  0.91188000000E+02 0.  0.
    9900012    2    3    3    0    0 -0.22074050291E+02  0.18103830024E+02  0.23254437582E+02  0.54367065397E+02  0.39999957185E+02 0.  0.
         12    1    3    3    0    0  0.22074050291E+02 -0.18103830024E+02 -0.23254437582E+02  0.36820934603E+02  0.00000000000E+00 0. -1.
         11    1    4    4    0    0 -0.16419066877E+02  0.21034558825E+02  0.13347622453E+02  0.29836176825E+02  0.51100000000E-03 0. -1.
        -11    1    4    4    0    0 -0.27145621976E+01  0.70034425270E+01  0.11811114611E+02  0.13997124125E+02  0.51100000000E-03 0.  1.
         12    1    4    4    0    0 -0.29404212163E+01 -0.99341713284E+01 -0.19042994819E+01  0.10533764447E+02  0.00000000000E+00 0. -1.
</event>
<event>
 8    1  0.1210161E-006  0.9118800E+02  0.7816164E-02  0.1184000E+00
        -11   -1    0    0    0    0  0.00000000000E+00  0.00000000000E+00  0.45593999997E+02  0.45594000000E+02  0.51100000000E-03 0. -1.
         11   -1    0    0    0    0 -0.00000000000E+00 -0.00000000000E+00 -0.45593999997E+02  0.45594000000E+02  0.51100000000E-03 0.  1.
         23    2    1    2    0    0  0.00000000000E+00  0.00000000000E+00  0.88817841970E-15  0.91188000000E+02  0.91188000000E+02 0.  0.
    9900012    2    3    3    0    0  0.62096963734E+01 -0.36017873908E+02  0.44644654660E+01  0.54367095316E+02  0.40000025391E+02 0.  0.
         12    1    3    3    0    0 -0.62096963734E+01  0.36017873908E+02 -0.44644654660E+01  0.36820904684E+02  0.00000000000E+00 0. -1.
         11    1    4    4    0    0  0.77747207139E+01  0.12931509632E+01 -0.18341439131E+01  0.80921323363E+01  0.51100000000E-03 0. -1.
        -11    1    4    4    0    0  0.43561023486E+01  0.11075004233E+01 -0.40486125785E+01  0.60492519315E+01  0.51100000000E-03 0.  1.
        -12    1    4    4    0    0 -0.59211266891E+01 -0.38418525294E+02  0.10347221958E+02  0.40225711048E+02  0.00000000000E+00 0.  1.
</event>
<event>
 8    1  0.1210161E-006  0.9118800E+02  0.7816164E-02  0.1184000E+00
        -11   -1    0    0    0    0  0.00000000000E+00  0.00000000000E+00  0.45593999997E+02  0.45594000000E+02  0.51100000000E-03 0.  1.
         11   -1    0    0    0    0 -0.00000000000E+00 -0.00000000000E+00 -0.45593999997E+02  0.45594000000E+02  0.51100000000E-03 0. -1.
         23    2    1    2    0    0  0.00000000000E+00  0.00000000000E+00  0.00000000000E+00  0.91188000000E+02  0.91188000000E+02 0.  0.
    9900012    2    3    3    0    0  0.65199423059E+01  0.20090714542E+02 -0.30160126893E+02  0.54367085934E+02  0.40000004003E+02 0.  0.
        -12    1    3    3    0    0 -0.65199423059E+01 -0.20090714542E+02  0.30160126893E+02  0.36820914066E+02  0.00000000000E+00 0.  1.
         11    1    4    4    0    0  0.14973501806E+01 -0.56027824075E+01 -0.25053729360E+02  0.25716193019E+02  0.51100000000E-03 0.  1.
        -11    1    4    4    0    0  0.24110284835E+01  0.83577596769E+01 -0.67955948108E+01  0.11038356502E+02  0.51100000000E-03 0. -1.
        -12    1    4    4    0    0  0.26115636418E+01  0.17335737273E+02  0.16891972785E+01  0.17612536413E+02  0.00000000000E+00 0.  1.
</event>
<event>
 8    1  0.1210161E-006  0.9118800E+02  0.7816164E-02  0.1184000E+00
        -11   -1    0    0    0    0  0.00000000000E+00  0.00000000000E+00  0.45593999997E+02  0.45594000000E+02  0.51100000000E-03 0.  1.
         11   -1    0    0    0    0 -0.00000000000E+00 -0.00000000000E+00 -0.45593999997E+02  0.45594000000E+02  0.51100000000E-03 0. -1.
         23    2    1    2    0    0  0.35527136788E-14  0.00000000000E+00  0.35527136788E-14  0.91188000000E+02  0.91188000000E+02 0.  0.
    9900012    2    3    3    0    0  0.17243081776E+02  0.29095443274E+02  0.14557422105E+02  0.54366983898E+02  0.39999771391E+02 0.  0.
         12    1    3    3    0    0 -0.17243081776E+02 -0.29095443274E+02 -0.14557422105E+02  0.36821016102E+02  0.00000000000E+00 0. -1.
         11    1    4    4    0    0 -0.53234496454E+01  0.24307056891E+02  0.40067403966E+01  0.25203692184E+02  0.51100000000E-03 0. -1.
        -11    1    4    4    0    0  0.21981969738E+02  0.71555791656E+01  0.58160617025E+01  0.23837698730E+02  0.51100000000E-03 0.  1.
        -12    1    4    4    0    0  0.58456168377E+00 -0.23671927827E+01  0.47346200057E+01  0.53255929840E+01  0.00000000000E+00 0.  1.
</event>
<event>
 8    1  0.1210161E-006  0.9118800E+02  0.7816164E-02  0.1184000E+00
        -11   -1    0    0    0    0  0.00000000000E+00  0.00000000000E+00  0.45593999997E+02  0.45594000000E+02  0.51100000000E-03 0.  1.
         11   -1    0    0    0    0 -0.00000000000E+00 -0.00000000000E+00 -0.45593999997E+02  0.45594000000E+02  0.51100000000E-03 0. -1.
         23    2    1    2    0    0  0.00000000000E+00  0.17763568394E-14  0.00000000000E+00  0.91188000000E+02  0.91188000000E+02 0.  0.
    9900012    2    3    3    0    0 -0.10248361728E+02 -0.15808954382E+02 -0.31635872089E+02  0.54367077149E+02  0.39999983977E+02 0.  0.
        -12    1    3    3    0    0  0.10248361728E+02  0.15808954382E+02  0.31635872089E+02  0.36820922851E+02  0.00000000000E+00 0.  1.
         11    1    4    4    0    0 -0.22163201357E+01 -0.19099131211E+01 -0.12748922483E+02  0.13080323689E+02  0.51100000000E-03 0. -1.
        -11    1    4    4    0    0 -0.21818183161E+01  0.10957696459E+02 -0.60556288921E+01  0.12708347036E+02  0.51100000000E-03 0.  1.
         12    1    4    4    0    0 -0.58502232766E+01 -0.24856737720E+02 -0.12831320714E+02  0.28578406424E+02  0.00000000000E+00 0. -1.
</event>
<event>
 8    1  0.1210161E-006  0.9118800E+02  0.7816164E-02  0.1184000E+00
        -11   -1    0    0    0    0  0.00000000000E+00  0.00000000000E+00  0.45593999997E+02  0.45594000000E+02  0.51100000000E-03 0. -1.
         11   -1    0    0    0    0 -0.00000000000E+00 -0.00000000000E+00 -0.45593999997E+02  0.45594000000E+02  0.51100000000E-03 0.  1.
         23    2    1    2    0    0  0.00000000000E+00  0.00000000000E+00  0.00000000000E+00  0.91188000000E+02  0.91188000000E+02 0.  0.
    9900012    2    3    3    0    0 -0.21539154869E+02  0.24033651071E+02  0.17726503633E+02  0.54367075143E+02  0.39999979404E+02 0.  0.
        -12    1    3    3    0    0  0.21539154869E+02 -0.24033651071E+02 -0.17726503633E+02  0.36820924857E+02  0.00000000000E+00 0.  1.
         11    1    4    4    0    0 -0.67299148763E+01  0.60935443694E+01  0.23439786315E+02  0.25136559430E+02  0.51100000000E-03 0. -1.
        -11    1    4    4    0    0 -0.66797716637E+01 -0.19944255926E+01 -0.56895942868E-01  0.69713929980E+01  0.51100000000E-03 0.  1.
        -12    1    4    4    0    0 -0.81294683289E+01  0.19934532294E+02 -0.56563867394E+01  0.22259122715E+02  0.00000000000E+00 0.  1.
</event>
<event>
 8    1  0.1210161E-006  0.9118800E+02  0.7816164E-02  0.1184000E+00
        -11   -1    0    0    0    0  0.00000000000E+00  0.00000000000E+00  0.45593999997E+02  0.45594000000E+02  0.51100000000E-03 0. -1.
         11   -1    0    0    0    0 -0.00000000000E+00 -0.00000000000E+00 -0.45593999997E+02  0.45594000000E+02  0.51100000000E-03 0.  1.
         23    2    1    2    0    0  0.88817841970E-15  0.00000000000E+00  0.00000000000E+00  0.91188000000E+02  0.91188000000E+02 0.  0.
    9900012    2    3    3    0    0 -0.89418587962E+00 -0.14003564071E+02  0.34042329389E+02  0.54367087935E+02  0.40000008565E+02 0.  0.
        -12    1    3    3    0    0  0.89418587962E+00  0.14003564071E+02 -0.34042329389E+02  0.36820912065E+02  0.00000000000E+00 0.  1.
         11    1    4    4    0    0  0.16754483869E+01  0.84646434238E+01  0.22574402671E+02  0.24167353430E+02  0.51100000000E-03 0. -1.
        -11    1    4    4    0    0  0.34518546056E+01 -0.15789075587E+02  0.13408563974E+02  0.20999995148E+02  0.51100000000E-03 0.  1.
        -12    1    4    4    0    0 -0.60214888722E+01 -0.66791319082E+01 -0.19406372558E+01  0.91997393574E+01  0.00000000000E+00 0.  1.
</event>
<event>
 8    1  0.1210161E-006  0.9118800E+02  0.7816164E-02  0.1184000E+00
        -11   -1    0    0    0    0  0.00000000000E+00  0.00000000000E+00  0.45593999997E+02  0.45594000000E+02  0.51100000000E-03 0. -1.
         11   -1    0    0    0    0 -0.00000000000E+00 -0.00000000000E+00 -0.45593999997E+02  0.45594000000E+02  0.51100000000E-03 0.  1.
         23    2    1    2    0    0  0.00000000000E+00 -0.17763568394E-14 -0.71054273576E-14  0.91188000000E+02  0.91188000000E+02 0.  0.
    9900012    2    3    3    0    0  0.48361430644E+01  0.14029923847E+02  0.33697959600E+02  0.54367088495E+02  0.40000009841E+02 0.  0.
        -12    1    3    3    0    0 -0.48361430644E+01 -0.14029923847E+02 -0.33697959600E+02  0.36820911505E+02  0.00000000000E+00 0.  1.
         11    1    4    4    0    0  0.14319161259E+02  0.78042594093E+01  0.20546603062E+02  0.26231807825E+02  0.51100000000E-03 0. -1.
        -11    1    4    4    0    0  0.54872190947E+01 -0.33726421480E+01  0.64956362953E+01  0.91475450037E+01  0.51100000000E-03 0.  1.
        -12    1    4    4    0    0 -0.14970237289E+02  0.95983065860E+01  0.66557202418E+01  0.18987735667E+02  0.00000000000E+00 0.  1.
</event>
<event>
 8    1  0.1210161E-006  0.9118800E+02  0.7816164E-02  0.1184000E+00
        -11   -1    0    0    0    0  0.00000000000E+00  0.00000000000E+00  0.45593999997E+02  0.45594000000E+02  0.51100000000E-03 0.  1.
         11   -1    0    0    0    0 -0.00000000000E+00 -0.00000000000E+00 -0.45593999997E+02  0.45594000000E+02  0.51100000000E-03 0. -1.
         23    2    1    2    0    0 -0.22204460493E-15  0.00000000000E+00  0.71054273576E-14  0.91188000000E+02  0.91188000000E+02 0.  0.
    9900012    2    3    3    0    0 -0.94652508057E+00  0.15064398549E+02 -0.33584935603E+02  0.54367083216E+02  0.39999997807E+02 0.  0.
        -12    1    3    3    0    0  0.94652508057E+00 -0.15064398549E+02  0.33584935603E+02  0.36820916784E+02  0.00000000000E+00 0.  1.
         11    1    4    4    0    0  0.12664430840E+01  0.17669076157E+01 -0.92396111527E+01  0.94919047152E+01  0.51100000000E-03 0. -1.
        -11    1    4    4    0    0 -0.30650278006E+01 -0.11973525587E+02 -0.91148365353E+01  0.15357081615E+02  0.51100000000E-03 0.  1.
         12    1    4    4    0    0  0.85205963609E+00  0.25271016521E+02 -0.15230487915E+02  0.29518096886E+02  0.00000000000E+00 0. -1.
</event>
<event>
 8    1  0.1210161E-006  0.9118800E+02  0.7816164E-02  0.1184000E+00
        -11   -1    0    0    0    0  0.00000000000E+00  0.00000000000E+00  0.45593999997E+02  0.45594000000E+02  0.51100000000E-03 0.  1.
         11   -1    0    0    0    0 -0.00000000000E+00 -0.00000000000E+00 -0.45593999997E+02  0.45594000000E+02  0.51100000000E-03 0. -1.
         23    2    1    2    0    0  0.00000000000E+00 -0.17763568394E-14  0.00000000000E+00  0.91188000000E+02  0.91188000000E+02 0.  0.
    9900012    2    3    3    0    0 -0.11467218790E+02  0.91691669113E+01 -0.33766958035E+02  0.54367106697E+02  0.40000051338E+02 0.  0.
        -12    1    3    3    0    0  0.11467218790E+02 -0.91691669113E+01  0.33766958035E+02  0.36820893303E+02  0.00000000000E+00 0.  1.
         11    1    4    4    0    0 -0.71474123082E+01 -0.44543715413E+01 -0.23331700103E+02  0.24805143791E+02  0.51100000000E-03 0. -1.
        -11    1    4    4    0    0 -0.95032791803E+01 -0.24584865480E+01 -0.22260846259E+00  0.98186570402E+01  0.51100000000E-03 0.  1.
         12    1    4    4    0    0  0.51834726981E+01  0.16082025001E+02 -0.10212649470E+02  0.19743305866E+02  0.00000000000E+00 0. -1.
</event>
<event>
 8    1  0.1210161E-006  0.9118800E+02  0.7816164E-02  0.1184000E+00
        -11   -1    0    0    0    0  0.00000000000E+00  0.00000000000E+00  0.45593999997E+02  0.45594000000E+02  0.51100000000E-03 0. -1.
         11   -1    0    0    0    0 -0.00000000000E+00 -0.00000000000E+00 -0.45593999997E+02  0.45594000000E+02  0.51100000000E-03 0.  1.
         23    2    1    2    0    0  0.00000000000E+00  0.00000000000E+00  0.00000000000E+00  0.91188000000E+02  0.91188000000E+02 0.  0.
    9900012    2    3    3    0    0  0.32022540857E+02  0.97582471473E+01 -0.15333408300E+02  0.54367083112E+02  0.39999997571E+02 0.  0.
        -12    1    3    3    0    0 -0.32022540857E+02 -0.97582471473E+01  0.15333408300E+02  0.36820916888E+02  0.00000000000E+00 0.  1.
         11    1    4    4    0    0  0.10021246523E+02  0.13143237678E+02 -0.14886944838E+02  0.22243902657E+02  0.51100000000E-03 0. -1.
        -11    1    4    4    0    0  0.94957667712E+01 -0.81310060440E+01 -0.97298311562E+01  0.15841479112E+02  0.51100000000E-03 0.  1.
        -12    1    4    4    0    0  0.12505527563E+02  0.47460155133E+01  0.92833676941E+01  0.16281701343E+02  0.00000000000E+00 0.  1.
</event>
<event>
 8    1  0.1210161E-006  0.9118800E+02  0.7816164E-02  0.1184000E+00
        -11   -1    0    0    0    0  0.00000000000E+00  0.00000000000E+00  0.45593999997E+02  0.45594000000E+02  0.51100000000E-03 0. -1.
         11   -1    0    0    0    0 -0.00000000000E+00 -0.00000000000E+00 -0.45593999997E+02  0.45594000000E+02  0.51100000000E-03 0.  1.
         23    2    1    2    0    0  0.00000000000E+00  0.00000000000E+00  0.00000000000E+00  0.91188000000E+02  0.91188000000E+02 0.  0.
    9900012    2    3    3    0    0 -0.18915378638E+02 -0.46649036412E+01  0.31244638849E+02  0.54367077527E+02  0.39999984838E+02 0.  0.
        -12    1    3    3    0    0  0.18915378638E+02  0.46649036412E+01 -0.31244638849E+02  0.36820922473E+02  0.00000000000E+00 0.  1.
         11    1    4    4    0    0 -0.26973272966E+02 -0.84083208406E+01  0.22624271891E+02  0.36195510670E+02  0.51100000000E-03 0. -1.
        -11    1    4    4    0    0  0.27562199741E+01  0.21727283945E+00 -0.35121254108E+01  0.44697853634E+01  0.51100000000E-03 0.  1.
         12    1    4    4    0    0  0.53016743537E+01  0.35261443600E+01  0.12132492369E+02  0.13701781493E+02  0.00000000000E+00 0. -1.
</event>
<event>
 8    1  0.1210161E-006  0.9118800E+02  0.7816164E-02  0.1184000E+00
        -11   -1    0    0    0    0  0.00000000000E+00  0.00000000000E+00  0.45593999997E+02  0.45594000000E+02  0.51100000000E-03 0.  1.
         11   -1    0    0    0    0 -0.00000000000E+00 -0.00000000000E+00 -0.45593999997E+02  0.45594000000E+02  0.51100000000E-03 0. -1.
         23    2    1    2    0    0  0.00000000000E+00  0.00000000000E+00  0.00000000000E+00  0.91188000000E+02  0.91188000000E+02 0.  0.
    9900012    2    3    3    0    0  0.32684714283E+01 -0.32402950571E+02 -0.17179300299E+02  0.54367320077E+02  0.40000537777E+02 0.  0.
        -12    1    3    3    0    0 -0.32684714283E+01  0.32402950571E+02  0.17179300299E+02  0.36820679923E+02  0.00000000000E+00 0.  1.
         11    1    4    4    0    0 -0.10513316171E+00 -0.33195268304E+02 -0.16823684132E+02  0.37215228587E+02  0.51100000000E-03 0. -1.
        -11    1    4    4    0    0  0.24412154560E+00 -0.63914594944E+01 -0.49328399033E+01  0.80773299778E+01  0.51100000000E-03 0.  1.
        -12    1    4    4    0    0  0.31294830444E+01  0.71837772275E+01  0.45772237359E+01  0.90747615125E+01  0.00000000000E+00 0.  1.
</event>
<event>
 8    1  0.1210161E-006  0.9118800E+02  0.7816164E-02  0.1184000E+00
        -11   -1    0    0    0    0  0.00000000000E+00  0.00000000000E+00  0.45593999997E+02  0.45594000000E+02  0.51100000000E-03 0.  1.
         11   -1    0    0    0    0 -0.00000000000E+00 -0.00000000000E+00 -0.45593999997E+02  0.45594000000E+02  0.51100000000E-03 0. -1.
         23    2    1    2    0    0  0.17763568394E-14 -0.17763568394E-14 -0.35527136788E-14  0.91188000000E+02  0.91188000000E+02 0.  0.
    9900012    2    3    3    0    0 -0.14275303071E+02 -0.12883743145E+02  0.31400748840E+02  0.54367052933E+02  0.39999928770E+02 0.  0.
         12    1    3    3    0    0  0.14275303071E+02  0.12883743145E+02 -0.31400748840E+02  0.36820947067E+02  0.00000000000E+00 0. -1.
         11    1    4    4    0    0  0.76160363665E+01  0.42433909427E+01  0.80372052770E+01  0.11857784176E+02  0.51100000000E-03 0. -1.
        -11    1    4    4    0    0 -0.11767468367E+00  0.15198648554E+01  0.11308195830E+02  0.11410483324E+02  0.51100000000E-03 0.  1.
         12    1    4    4    0    0 -0.21773664754E+02 -0.18646998943E+02  0.12055347734E+02  0.31098785433E+02  0.00000000000E+00 0. -1.
</event>
<event>
 8    1  0.1210161E-006  0.9118800E+02  0.7816164E-02  0.1184000E+00
        -11   -1    0    0    0    0  0.00000000000E+00  0.00000000000E+00  0.45593999997E+02  0.45594000000E+02  0.51100000000E-03 0.  1.
         11   -1    0    0    0    0 -0.00000000000E+00 -0.00000000000E+00 -0.45593999997E+02  0.45594000000E+02  0.51100000000E-03 0. -1.
         23    2    1    2    0    0 -0.35527136788E-14  0.35527136788E-14  0.00000000000E+00  0.91188000000E+02  0.91188000000E+02 0.  0.
    9900012    2    3    3    0    0 -0.11950037582E+02  0.91485335227E+01 -0.33604793323E+02  0.54367065763E+02  0.39999958020E+02 0.  0.
        -12    1    3    3    0    0  0.11950037582E+02 -0.91485335227E+01  0.33604793323E+02  0.36820934237E+02  0.00000000000E+00 0.  1.
         11    1    4    4    0    0  0.11317745524E+02  0.80674275072E+01 -0.71970803272E+01  0.15651604257E+02  0.51100000000E-03 0. -1.
        -11    1    4    4    0    0 -0.24935031656E+02 -0.29361060582E-01 -0.19888094655E+02  0.31895030569E+02  0.51100000000E-03 0.  1.
        -12    1    4    4    0    0  0.16672485499E+01  0.11104670761E+01 -0.65196183407E+01  0.68204309367E+01  0.00000000000E+00 0.  1.
</event>
<event>
 8    1  0.1210161E-006  0.9118800E+02  0.7816164E-02  0.1184000E+00
        -11   -1    0    0    0    0  0.00000000000E+00  0.00000000000E+00  0.45593999997E+02  0.45594000000E+02  0.51100000000E-03 0.  1.
         11   -1    0    0    0    0 -0.00000000000E+00 -0.00000000000E+00 -0.45593999997E+02  0.45594000000E+02  0.51100000000E-03 0. -1.
         23    2    1    2    0    0  0.00000000000E+00  0.00000000000E+00  0.17763568394E-14  0.91188000000E+02  0.91188000000E+02 0.  0.
    9900012    2    3    3    0    0 -0.29017055153E+02 -0.19071895085E+02 -0.12249619863E+02  0.54367083951E+02  0.39999999482E+02 0.  0.
        -12    1    3    3    0    0  0.29017055153E+02  0.19071895085E+02  0.12249619863E+02  0.36820916049E+02  0.00000000000E+00 0.  1.
         11    1    4    4    0    0 -0.16642840785E+02 -0.15013408950E+00 -0.34932074389E+01  0.17006151479E+02  0.51100000000E-03 0. -1.
        -11    1    4    4    0    0  0.51146832623E+01  0.30860292074E+01 -0.69902172416E+01  0.91949278675E+01  0.51100000000E-03 0.  1.
        -12    1    4    4    0    0 -0.17488897630E+02 -0.22007790203E+02 -0.17661951829E+01  0.28166004604E+02  0.00000000000E+00 0.  1.
</event>
<event>
 8    1  0.1210161E-006  0.9118800E+02  0.7816164E-02  0.1184000E+00
        -11   -1    0    0    0    0  0.00000000000E+00  0.00000000000E+00  0.45593999997E+02  0.45594000000E+02  0.51100000000E-03 0. -1.
         11   -1    0    0    0    0 -0.00000000000E+00 -0.00000000000E+00 -0.45593999997E+02  0.45594000000E+02  0.51100000000E-03 0.  1.
         23    2    1    2    0    0  0.00000000000E+00 -0.17763568394E-14 -0.35527136788E-14  0.91188000000E+02  0.91188000000E+02 0.  0.
    9900012    2    3    3    0    0  0.21026174477E+02  0.71746357381E+01  0.29363309969E+02  0.54367090404E+02  0.40000014195E+02 0.  0.
        -12    1    3    3    0    0 -0.21026174477E+02 -0.71746357381E+01 -0.29363309969E+02  0.36820909596E+02  0.00000000000E+00 0.  1.
         11    1    4    4    0    0  0.16493696289E+02  0.61960490629E+01  0.34975293709E+01  0.17962899355E+02  0.51100000000E-03 0. -1.
        -11    1    4    4    0    0  0.50528005940E+00 -0.81134584774E+01 -0.58079671807E+00  0.81498982504E+01  0.51100000000E-03 0.  1.
         12    1    4    4    0    0  0.40271981279E+01  0.90920451526E+01  0.26446577317E+02  0.28254292799E+02  0.00000000000E+00 0. -1.
</event>
<event>
 8    1  0.1210161E-006  0.9118800E+02  0.7816164E-02  0.1184000E+00
        -11   -1    0    0    0    0  0.00000000000E+00  0.00000000000E+00  0.45593999997E+02  0.45594000000E+02  0.51100000000E-03 0. -1.
         11   -1    0    0    0    0 -0.00000000000E+00 -0.00000000000E+00 -0.45593999997E+02  0.45594000000E+02  0.51100000000E-03 0.  1.
         23    2    1    2    0    0 -0.35527136788E-14  0.17763568394E-14  0.00000000000E+00  0.91188000000E+02  0.91188000000E+02 0.  0.
    9900012    2    3    3    0    0 -0.23491406866E+02  0.87705993818E+01 -0.26963134463E+02  0.54367078907E+02  0.39999987984E+02 0.  0.
         12    1    3    3    0    0  0.23491406866E+02 -0.87705993818E+01  0.26963134463E+02  0.36820921093E+02  0.00000000000E+00 0. -1.
         11    1    4    4    0    0 -0.69159480694E+01 -0.74267954791E+01 -0.11041442474E+02  0.14996702336E+02  0.51100000000E-03 0. -1.
        -11    1    4    4    0    0 -0.52856054900E+01  0.21632007491E+02 -0.14911566411E+02  0.26799928854E+02  0.51100000000E-03 0.  1.
        -12    1    4    4    0    0 -0.11289853306E+02 -0.54346126302E+01 -0.10101255781E+01  0.12570447717E+02  0.00000000000E+00 0.  1.
</event>
<event>
 8    1  0.1210161E-006  0.9118800E+02  0.7816164E-02  0.1184000E+00
        -11   -1    0    0    0    0  0.00000000000E+00  0.00000000000E+00  0.45593999997E+02  0.45594000000E+02  0.51100000000E-03 0.  1.
         11   -1    0    0    0    0 -0.00000000000E+00 -0.00000000000E+00 -0.45593999997E+02  0.45594000000E+02  0.51100000000E-03 0. -1.
         23    2    1    2    0    0  0.35527136788E-14  0.00000000000E+00  0.00000000000E+00  0.91188000000E+02  0.91188000000E+02 0.  0.
    9900012    2    3    3    0    0  0.22277175767E+02 -0.98830223890E+01  0.27601326468E+02  0.54367083193E+02  0.39999997755E+02 0.  0.
         12    1    3    3    0    0 -0.22277175767E+02  0.98830223890E+01 -0.27601326468E+02  0.36820916807E+02  0.00000000000E+00 0. -1.
         11    1    4    4    0    0  0.11207917993E+02 -0.14994921325E+02 -0.38107128395E+00  0.18724590966E+02  0.51100000000E-03 0. -1.
        -11    1    4    4    0    0  0.12441824834E+02  0.25518436971E+01  0.70833031596E+01  0.14542492749E+02  0.51100000000E-03 0.  1.
         12    1    4    4    0    0 -0.13725670599E+01  0.25600552385E+01  0.20899094593E+02  0.21099999478E+02  0.00000000000E+00 0. -1.
</event>
<event>
 8    1  0.1210161E-006  0.9118800E+02  0.7816164E-02  0.1184000E+00
        -11   -1    0    0    0    0  0.00000000000E+00  0.00000000000E+00  0.45593999997E+02  0.45594000000E+02  0.51100000000E-03 0. -1.
         11   -1    0    0    0    0 -0.00000000000E+00 -0.00000000000E+00 -0.45593999997E+02  0.45594000000E+02  0.51100000000E-03 0.  1.
         23    2    1    2    0    0  0.44408920985E-15  0.35527136788E-14  0.00000000000E+00  0.91188000000E+02  0.91188000000E+02 0.  0.
    9900012    2    3    3    0    0  0.24981750391E+01 -0.27086642291E+02  0.24816627786E+02  0.54366917944E+02  0.39999621034E+02 0.  0.
        -12    1    3    3    0    0 -0.24981750391E+01  0.27086642291E+02 -0.24816627786E+02  0.36821082056E+02  0.00000000000E+00 0.  1.
         11    1    4    4    0    0 -0.65654882015E+01 -0.74828359597E+01 -0.69099862584E+01  0.12118018802E+02  0.51100000000E-03 0.  1.
        -11    1    4    4    0    0  0.23082691577E+01 -0.17755330774E+02  0.12637276976E+02  0.21915306228E+02  0.51100000000E-03 0. -1.
        -12    1    4    4    0    0  0.67553940829E+01 -0.18484755566E+01  0.19089337068E+02  0.20333592914E+02  0.00000000000E+00 0.  1.
</event>
<event>
 8    1  0.1210161E-006  0.9118800E+02  0.7816164E-02  0.1184000E+00
        -11   -1    0    0    0    0  0.00000000000E+00  0.00000000000E+00  0.45593999997E+02  0.45594000000E+02  0.51100000000E-03 0.  1.
         11   -1    0    0    0    0 -0.00000000000E+00 -0.00000000000E+00 -0.45593999997E+02  0.45594000000E+02  0.51100000000E-03 0. -1.
         23    2    1    2    0    0 -0.88817841970E-15  0.00000000000E+00  0.00000000000E+00  0.91188000000E+02  0.91188000000E+02 0.  0.
    9900012    2    3    3    0    0 -0.47263354829E+01 -0.29221327122E+02  0.21898709363E+02  0.54367113568E+02  0.40000067001E+02 0.  0.
         12    1    3    3    0    0  0.47263354829E+01  0.29221327122E+02 -0.21898709363E+02  0.36820886432E+02  0.00000000000E+00 0. -1.
         11    1    4    4    0    0  0.41463900086E+01  0.34909228006E+01  0.88841889160E+00  0.54925750328E+01  0.51100000000E-03 0. -1.
        -11    1    4    4    0    0 -0.72865170812E+01 -0.24011734159E+02 -0.10423636807E+01  0.25114601944E+02  0.51100000000E-03 0.  1.
        -12    1    4    4    0    0 -0.15862084103E+01 -0.87005157632E+01  0.22052654152E+02  0.23759936591E+02  0.00000000000E+00 0.  1.
</event>
<event>
 8    1  0.1210161E-006  0.9118800E+02  0.7816164E-02  0.1184000E+00
        -11   -1    0    0    0    0  0.00000000000E+00  0.00000000000E+00  0.45593999997E+02  0.45594000000E+02  0.51100000000E-03 0.  1.
         11   -1    0    0    0    0 -0.00000000000E+00 -0.00000000000E+00 -0.45593999997E+02  0.45594000000E+02  0.51100000000E-03 0. -1.
         23    2    1    2    0    0  0.00000000000E+00  0.00000000000E+00  0.00000000000E+00  0.91188000000E+02  0.91188000000E+02 0.  0.
    9900012    2    3    3    0    0  0.67569239647E+01 -0.27128542330E+02 -0.23961745215E+02  0.54367094740E+02  0.40000024079E+02 0.  0.
         12    1    3    3    0    0 -0.67569239647E+01  0.27128542330E+02  0.23961745215E+02  0.36820905260E+02  0.00000000000E+00 0. -1.
         11    1    4    4    0    0  0.23131142011E+02 -0.15702518455E+02 -0.15625486999E+02  0.32027717071E+02  0.51100000000E-03 0. -1.
        -11    1    4    4    0    0 -0.99523797771E+01 -0.93794822526E+01 -0.73556397071E+01  0.15528360709E+02  0.51100000000E-03 0.  1.
         12    1    4    4    0    0 -0.64218382690E+01 -0.20465416226E+01 -0.98061850837E+00  0.68110169597E+01  0.00000000000E+00 0. -1.
</event>
<event>
 8    1  0.1210161E-006  0.9118800E+02  0.7816164E-02  0.1184000E+00
        -11   -1    0    0    0    0  0.00000000000E+00  0.00000000000E+00  0.45593999997E+02  0.45594000000E+02  0.51100000000E-03 0.  1.
         11   -1    0    0    0    0 -0.00000000000E+00 -0.00000000000E+00 -0.45593999997E+02  0.45594000000E+02  0.51100000000E-03 0. -1.
         23    2    1    2    0    0  0.35527136788E-14  0.00000000000E+00  0.17763568394E-14  0.91188000000E+02  0.91188000000E+02 0.  0.
    9900012    2    3    3    0    0 -0.30416828293E+02 -0.20720425164E+02 -0.11224890701E+01  0.54367089581E+02  0.40000012318E+02 0.  0.
         12    1    3    3    0    0  0.30416828293E+02  0.20720425164E+02  0.11224890701E+01  0.36820910419E+02  0.00000000000E+00 0. -1.
         11    1    4    4    0    0 -0.17483036073E+02 -0.16692634734E+02  0.35846494539E+01  0.24436659278E+02  0.51100000000E-03 0. -1.
        -11    1    4    4    0    0 -0.13733822885E+02 -0.82271566862E+00 -0.14264397847E+02  0.19818370223E+02  0.51100000000E-03 0.  1.
         12    1    4    4    0    0  0.80003066444E+00 -0.32050747607E+01  0.95572593233E+01  0.10112060080E+02  0.00000000000E+00 0. -1.
</event>
<event>
 8    1  0.1210161E-006  0.9118800E+02  0.7816164E-02  0.1184000E+00
        -11   -1    0    0    0    0  0.00000000000E+00  0.00000000000E+00  0.45593999997E+02  0.45594000000E+02  0.51100000000E-03 0.  1.
         11   -1    0    0    0    0 -0.00000000000E+00 -0.00000000000E+00 -0.45593999997E+02  0.45594000000E+02  0.51100000000E-03 0. -1.
         23    2    1    2    0    0  0.00000000000E+00  0.88817841970E-15 -0.35527136788E-14  0.91188000000E+02  0.91188000000E+02 0.  0.
    9900012    2    3    3    0    0  0.24858489516E+02 -0.61098630267E+01 -0.26467060781E+02  0.54367078859E+02  0.39999987876E+02 0.  0.
        -12    1    3    3    0    0 -0.24858489516E+02  0.61098630267E+01  0.26467060781E+02  0.36820921141E+02  0.00000000000E+00 0.  1.
         11    1    4    4    0    0 -0.70216094453E+01  0.73162089439E+00 -0.12166843105E+02  0.14066639248E+02  0.51100000000E-03 0. -1.
        -11    1    4    4    0    0  0.97070979198E+01  0.10269114015E+01  0.39439469566E+01  0.10527915981E+02  0.51100000000E-03 0.  1.
         12    1    4    4    0    0  0.22173001042E+02 -0.78683953226E+01 -0.18244164633E+02  0.29772523630E+02  0.00000000000E+00 0. -1.
</event>
<event>
 8    1  0.1210161E-006  0.9118800E+02  0.7816164E-02  0.1184000E+00
        -11   -1    0    0    0    0  0.00000000000E+00  0.00000000000E+00  0.45593999997E+02  0.45594000000E+02  0.51100000000E-03 0.  1.
         11   -1    0    0    0    0 -0.00000000000E+00 -0.00000000000E+00 -0.45593999997E+02  0.45594000000E+02  0.51100000000E-03 0. -1.
         23    2    1    2    0    0  0.00000000000E+00  0.00000000000E+00 -0.35527136788E-14  0.91188000000E+02  0.91188000000E+02 0.  0.
    9900012    2    3    3    0    0  0.13338897912E+02 -0.27221266692E+02 -0.20901075564E+02  0.54367102162E+02  0.40000040998E+02 0.  0.
         12    1    3    3    0    0 -0.13338897912E+02  0.27221266692E+02  0.20901075564E+02  0.36820897838E+02  0.00000000000E+00 0. -1.
         11    1    4    4    0    0  0.80155813161E+01 -0.85683801364E+01 -0.19102291119E+02  0.22417943890E+02  0.51100000000E-03 0. -1.
        -11    1    4    4    0    0  0.79864558436E+01 -0.21605922692E+02 -0.81684057104E+01  0.24440176441E+02  0.51100000000E-03 0.  1.
         12    1    4    4    0    0 -0.26631392473E+01  0.29530361365E+01  0.63696212655E+01  0.75089818311E+01  0.00000000000E+00 0. -1.
</event>
<event>
 8    1  0.1210161E-006  0.9118800E+02  0.7816164E-02  0.1184000E+00
        -11   -1    0    0    0    0  0.00000000000E+00  0.00000000000E+00  0.45593999997E+02  0.45594000000E+02  0.51100000000E-03 0.  1.
         11   -1    0    0    0    0 -0.00000000000E+00 -0.00000000000E+00 -0.45593999997E+02  0.45594000000E+02  0.51100000000E-03 0. -1.
         23    2    1    2    0    0  0.35527136788E-14 -0.17763568394E-14  0.00000000000E+00  0.91188000000E+02  0.91188000000E+02 0.  0.
    9900012    2    3    3    0    0  0.16628060191E+02 -0.13987108154E+02  0.29726223793E+02  0.54367082559E+02  0.39999996310E+02 0.  0.
         12    1    3    3    0    0 -0.16628060191E+02  0.13987108154E+02 -0.29726223793E+02  0.36820917441E+02  0.00000000000E+00 0. -1.
         11    1    4    4    0    0  0.15667466764E+02  0.39970197719E+01  0.26547342221E+02  0.31083871399E+02  0.51100000000E-03 0. -1.
        -11    1    4    4    0    0  0.44830199449E+01 -0.10260589714E+02  0.77731985193E+01  0.13630839467E+02  0.51100000000E-03 0.  1.
         12    1    4    4    0    0 -0.35224265182E+01 -0.77235382119E+01 -0.45943169475E+01  0.96523716931E+01  0.00000000000E+00 0. -1.
</event>
<event>
 8    1  0.1210161E-006  0.9118800E+02  0.7816164E-02  0.1184000E+00
        -11   -1    0    0    0    0  0.00000000000E+00  0.00000000000E+00  0.45593999997E+02  0.45594000000E+02  0.51100000000E-03 0.  1.
         11   -1    0    0    0    0 -0.00000000000E+00 -0.00000000000E+00 -0.45593999997E+02  0.45594000000E+02  0.51100000000E-03 0. -1.
         23    2    1    2    0    0 -0.35527136788E-14  0.00000000000E+00 -0.35527136788E-14  0.91188000000E+02  0.91188000000E+02 0.  0.
    9900012    2    3    3    0    0 -0.10002005226E+02 -0.24043873920E+02 -0.26031523673E+02  0.54366970596E+02  0.39999741068E+02 0.  0.
        -12    1    3    3    0    0  0.10002005226E+02  0.24043873920E+02  0.26031523673E+02  0.36821029404E+02  0.00000000000E+00 0.  1.
         11    1    4    4    0    0 -0.16342682273E+02 -0.12386294827E+02 -0.27188789518E+02  0.34054865132E+02  0.51100000000E-03 0. -1.
        -11    1    4    4    0    0  0.23249305685E+01 -0.63289938877E+01  0.81963002578E+01  0.10613237204E+02  0.51100000000E-03 0.  1.
        -12    1    4    4    0    0  0.40157464786E+01 -0.53285852051E+01 -0.70390344127E+01  0.96988682604E+01  0.00000000000E+00 0.  1.
</event>
<event>
 8    1  0.1210161E-006  0.9118800E+02  0.7816164E-02  0.1184000E+00
        -11   -1    0    0    0    0  0.00000000000E+00  0.00000000000E+00  0.45593999997E+02  0.45594000000E+02  0.51100000000E-03 0.  1.
         11   -1    0    0    0    0 -0.00000000000E+00 -0.00000000000E+00 -0.45593999997E+02  0.45594000000E+02  0.51100000000E-03 0. -1.
         23    2    1    2    0    0  0.17763568394E-14  0.17763568394E-14  0.00000000000E+00  0.91188000000E+02  0.91188000000E+02 0.  0.
    9900012    2    3    3    0    0  0.14362502985E+02  0.11516059638E+02  0.31888541978E+02  0.54367078894E+02  0.39999987955E+02 0.  0.
         12    1    3    3    0    0 -0.14362502985E+02 -0.11516059638E+02 -0.31888541978E+02  0.36820921106E+02  0.00000000000E+00 0. -1.
         11    1    4    4    0    0 -0.27838874198E+01 -0.90812439114E+01  0.70422839889E+01  0.11824245608E+02  0.51100000000E-03 0. -1.
        -11    1    4    4    0    0  0.11709637307E+02  0.92030268120E+01  0.25897132682E+02  0.29874283084E+02  0.51100000000E-03 0.  1.
         12    1    4    4    0    0  0.54367530975E+01  0.11394276738E+02 -0.10508746928E+01  0.12668550203E+02  0.00000000000E+00 0. -1.
</event>
<event>
 8    1  0.1210161E-006  0.9118800E+02  0.7816164E-02  0.1184000E+00
        -11   -1    0    0    0    0  0.00000000000E+00  0.00000000000E+00  0.45593999997E+02  0.45594000000E+02  0.51100000000E-03 0.  1.
         11   -1    0    0    0    0 -0.00000000000E+00 -0.00000000000E+00 -0.45593999997E+02  0.45594000000E+02  0.51100000000E-03 0. -1.
         23    2    1    2    0    0  0.17763568394E-14 -0.71054273576E-14  0.00000000000E+00  0.91188000000E+02  0.91188000000E+02 0.  0.
    9900012    2    3    3    0    0  0.90296081577E+01 -0.35340253910E+02 -0.50310835139E+01  0.54367093286E+02  0.40000020765E+02 0.  0.
        -12    1    3    3    0    0 -0.90296081577E+01  0.35340253910E+02  0.50310835139E+01  0.36820906714E+02  0.00000000000E+00 0.  1.
         11    1    4    4    0    0 -0.75342650313E+00 -0.17405238900E+02 -0.64644808571E+01  0.18582236294E+02  0.51100000000E-03 0. -1.
        -11    1    4    4    0    0  0.17354601867E+02 -0.21133422934E+02  0.26574360044E+01  0.27474820059E+02  0.51100000000E-03 0.  1.
         12    1    4    4    0    0 -0.75715672060E+01  0.31984079244E+01 -0.12240386612E+01  0.83100369343E+01  0.00000000000E+00 0. -1.
</event>
<event>
 8    1  0.1210161E-006  0.9118800E+02  0.7816164E-02  0.1184000E+00
        -11   -1    0    0    0    0  0.00000000000E+00  0.00000000000E+00  0.45593999997E+02  0.45594000000E+02  0.51100000000E-03 0.  1.
         11   -1    0    0    0    0 -0.00000000000E+00 -0.00000000000E+00 -0.45593999997E+02  0.45594000000E+02  0.51100000000E-03 0. -1.
         23    2    1    2    0    0 -0.17763568394E-14 -0.17763568394E-14  0.00000000000E+00  0.91188000000E+02  0.91188000000E+02 0.  0.
    9900012    2    3    3    0    0  0.14369119282E+02  0.15928254053E+02 -0.29926540773E+02  0.54367099567E+02  0.40000035082E+02 0.  0.
        -12    1    3    3    0    0 -0.14369119282E+02 -0.15928254053E+02  0.29926540773E+02  0.36820900433E+02  0.00000000000E+00 0.  1.
         11    1    4    4    0    0 -0.32921596283E+01  0.11983457232E+02 -0.22161164309E+02  0.25407848513E+02  0.51100000000E-03 0. -1.
        -11    1    4    4    0    0  0.19078812497E+02 -0.37181397217E+01 -0.83266305406E+01  0.21146120819E+02  0.51100000000E-03 0.  1.
        -12    1    4    4    0    0 -0.14175335869E+01  0.76629365426E+01  0.56125407706E+00  0.78131302347E+01  0.00000000000E+00 0.  1.
</event>
<event>
 8    1  0.1210161E-006  0.9118800E+02  0.7816164E-02  0.1184000E+00
        -11   -1    0    0    0    0  0.00000000000E+00  0.00000000000E+00  0.45593999997E+02  0.45594000000E+02  0.51100000000E-03 0.  1.
         11   -1    0    0    0    0 -0.00000000000E+00 -0.00000000000E+00 -0.45593999997E+02  0.45594000000E+02  0.51100000000E-03 0. -1.
         23    2    1    2    0    0  0.00000000000E+00  0.00000000000E+00  0.88817841970E-15  0.91188000000E+02  0.91188000000E+02 0.  0.
    9900012    2    3    3    0    0 -0.32904969325E+02 -0.15729648296E+02 -0.50613825337E+01  0.54367130443E+02  0.40000105470E+02 0.  0.
        -12    1    3    3    0    0  0.32904969325E+02  0.15729648296E+02  0.50613825337E+01  0.36820869557E+02  0.00000000000E+00 0.  1.
         11    1    4    4    0    0 -0.17088208694E+02 -0.13881715936E+02  0.75394902343E+00  0.22029011623E+02  0.51100000000E-03 0. -1.
        -11    1    4    4    0    0 -0.18181248834E+02 -0.11437275996E+02 -0.64899541929E+01  0.22438551581E+02  0.51100000000E-03 0.  1.
         12    1    4    4    0    0  0.23644882026E+01  0.95893436355E+01  0.67462263578E+00  0.98995672391E+01  0.00000000000E+00 0. -1.
</event>
<event>
 8    1  0.1210161E-006  0.9118800E+02  0.7816164E-02  0.1184000E+00
        -11   -1    0    0    0    0  0.00000000000E+00  0.00000000000E+00  0.45593999997E+02  0.45594000000E+02  0.51100000000E-03 0.  1.
         11   -1    0    0    0    0 -0.00000000000E+00 -0.00000000000E+00 -0.45593999997E+02  0.45594000000E+02  0.51100000000E-03 0. -1.
         23    2    1    2    0    0 -0.88817841970E-15  0.88817841970E-15  0.00000000000E+00  0.91188000000E+02  0.91188000000E+02 0.  0.
    9900012    2    3    3    0    0 -0.65922779073E+01  0.76308556210E+01 -0.35413157535E+02  0.54367084584E+02  0.40000000926E+02 0.  0.
        -12    1    3    3    0    0  0.65922779073E+01 -0.76308556210E+01  0.35413157535E+02  0.36820915416E+02  0.00000000000E+00 0.  1.
         11    1    4    4    0    0  0.77120249380E+01  0.22683927526E+01 -0.10733154851E+02  0.13409755689E+02  0.51100000000E-03 0. -1.
        -11    1    4    4    0    0  0.87903188107E+01  0.33166425666E+01 -0.56558525985E+01  0.10966243276E+02  0.51100000000E-03 0.  1.
        -12    1    4    4    0    0 -0.23094621656E+02  0.20458203019E+01 -0.19024150085E+02  0.29991085619E+02  0.00000000000E+00 0.  1.
</event>
<event>
 8    1  0.1210161E-006  0.9118800E+02  0.7816164E-02  0.1184000E+00
        -11   -1    0    0    0    0  0.00000000000E+00  0.00000000000E+00  0.45593999997E+02  0.45594000000E+02  0.51100000000E-03 0.  1.
         11   -1    0    0    0    0 -0.00000000000E+00 -0.00000000000E+00 -0.45593999997E+02  0.45594000000E+02  0.51100000000E-03 0. -1.
         23    2    1    2    0    0 -0.88817841970E-15  0.00000000000E+00  0.00000000000E+00  0.91188000000E+02  0.91188000000E+02 0.  0.
    9900012    2    3    3    0    0  0.36299314859E+01  0.22777921478E+02 -0.28701371580E+02  0.54367097784E+02  0.40000031017E+02 0.  0.
        -12    1    3    3    0    0 -0.36299314859E+01 -0.22777921478E+02  0.28701371580E+02  0.36820902216E+02  0.00000000000E+00 0.  1.
         11    1    4    4    0    0  0.18397054808E+02  0.87517401569E+01 -0.70647672051E+01  0.21562827211E+02  0.51100000000E-03 0. -1.
        -11    1    4    4    0    0 -0.35744268403E+01 -0.24169852689E+01 -0.16879357592E+01  0.46333003804E+01  0.51100000000E-03 0.  1.
        -12    1    4    4    0    0 -0.11192696482E+02  0.16443166590E+02 -0.19948668616E+02  0.28170970193E+02  0.00000000000E+00 0.  1.
</event>
<event>
 8    1  0.1210161E-006  0.9118800E+02  0.7816164E-02  0.1184000E+00
        -11   -1    0    0    0    0  0.00000000000E+00  0.00000000000E+00  0.45593999997E+02  0.45594000000E+02  0.51100000000E-03 0.  1.
         11   -1    0    0    0    0 -0.00000000000E+00 -0.00000000000E+00 -0.45593999997E+02  0.45594000000E+02  0.51100000000E-03 0. -1.
         23    2    1    2    0    0 -0.15543122345E-14 -0.17763568394E-14  0.00000000000E+00  0.91188000000E+02  0.91188000000E+02 0.  0.
    9900012    2    3    3    0    0  0.13518788054E+01 -0.13151090596E+02  0.34365691937E+02  0.54367088245E+02  0.40000009272E+02 0.  0.
         12    1    3    3    0    0 -0.13518788054E+01  0.13151090596E+02 -0.34365691937E+02  0.36820911755E+02  0.00000000000E+00 0. -1.
         11    1    4    4    0    0  0.28818380929E+01  0.25985531405E+01  0.60358975698E+01  0.71756204576E+01  0.51100000000E-03 0. -1.
        -11    1    4    4    0    0 -0.16669952435E+02 -0.10628894664E+02  0.23032651719E+02  0.30353974393E+02  0.51100000000E-03 0.  1.
         12    1    4    4    0    0  0.15139993148E+02 -0.51207490719E+01  0.52971426478E+01  0.16837493394E+02  0.00000000000E+00 0. -1.
</event>
<event>
 8    1  0.1210161E-006  0.9118800E+02  0.7816164E-02  0.1184000E+00
        -11   -1    0    0    0    0  0.00000000000E+00  0.00000000000E+00  0.45593999997E+02  0.45594000000E+02  0.51100000000E-03 0. -1.
         11   -1    0    0    0    0 -0.00000000000E+00 -0.00000000000E+00 -0.45593999997E+02  0.45594000000E+02  0.51100000000E-03 0.  1.
         23    2    1    2    0    0  0.00000000000E+00 -0.17763568394E-14  0.00000000000E+00  0.91188000000E+02  0.91188000000E+02 0.  0.
    9900012    2    3    3    0    0 -0.17844541470E+02 -0.15268013765E+02  0.28359116465E+02  0.54367090298E+02  0.40000013952E+02 0.  0.
        -12    1    3    3    0    0  0.17844541470E+02  0.15268013765E+02 -0.28359116465E+02  0.36820909702E+02  0.00000000000E+00 0.  1.
         11    1    4    4    0    0 -0.10502330685E+02 -0.35082279363E+01  0.12839774234E+01  0.11146982164E+02  0.51100000000E-03 0. -1.
        -11    1    4    4    0    0 -0.16666374849E+02 -0.26017021290E+01  0.50477493980E+01  0.17607290502E+02  0.51100000000E-03 0.  1.
         12    1    4    4    0    0  0.93241640638E+01 -0.91580837000E+01  0.22027389644E+02  0.25612817632E+02  0.00000000000E+00 0. -1.
</event>
<event>
 8    1  0.1210161E-006  0.9118800E+02  0.7816164E-02  0.1184000E+00
        -11   -1    0    0    0    0  0.00000000000E+00  0.00000000000E+00  0.45593999997E+02  0.45594000000E+02  0.51100000000E-03 0. -1.
         11   -1    0    0    0    0 -0.00000000000E+00 -0.00000000000E+00 -0.45593999997E+02  0.45594000000E+02  0.51100000000E-03 0.  1.
         23    2    1    2    0    0  0.71054273576E-14  0.35527136788E-14  0.00000000000E+00  0.91188000000E+02  0.91188000000E+02 0.  0.
    9900012    2    3    3    0    0  0.24783787206E+02  0.27063648444E+02  0.30175155363E+01  0.54367047061E+02  0.39999915384E+02 0.  0.
        -12    1    3    3    0    0 -0.24783787206E+02 -0.27063648444E+02 -0.30175155363E+01  0.36820952939E+02  0.00000000000E+00 0.  1.
         11    1    4    4    0    0  0.23337853872E+02  0.83675481533E+01 -0.12910693853E+02  0.27952769120E+02  0.51100000000E-03 0. -1.
        -11    1    4    4    0    0 -0.34047701995E+01  0.89586241085E+01  0.43428196976E+01  0.10521857688E+02  0.51100000000E-03 0.  1.
        -12    1    4    4    0    0  0.48507035336E+01  0.97374761818E+01  0.11585389692E+02  0.15892420252E+02  0.00000000000E+00 0.  1.
</event>
<event>
 8    1  0.1210161E-006  0.9118800E+02  0.7816164E-02  0.1184000E+00
        -11   -1    0    0    0    0  0.00000000000E+00  0.00000000000E+00  0.45593999997E+02  0.45594000000E+02  0.51100000000E-03 0. -1.
         11   -1    0    0    0    0 -0.00000000000E+00 -0.00000000000E+00 -0.45593999997E+02  0.45594000000E+02  0.51100000000E-03 0.  1.
         23    2    1    2    0    0  0.10658141036E-13  0.00000000000E+00  0.17763568394E-14  0.91188000000E+02  0.91188000000E+02 0.  0.
    9900012    2    3    3    0    0 -0.30112924140E+02 -0.18050676794E+02 -0.11097890461E+02  0.54367105040E+02  0.40000047560E+02 0.  0.
         12    1    3    3    0    0  0.30112924140E+02  0.18050676794E+02  0.11097890461E+02  0.36820894960E+02  0.00000000000E+00 0. -1.
         11    1    4    4    0    0  0.21769709548E+01 -0.19006701820E+01 -0.31655978905E+01  0.42863457565E+01  0.51100000000E-03 0. -1.
        -11    1    4    4    0    0 -0.36764846609E+01 -0.88501652576E+01 -0.16719384578E+02  0.19271216502E+02  0.51100000000E-03 0.  1.
        -12    1    4    4    0    0 -0.28613410434E+02 -0.72998413541E+01  0.87870920080E+01  0.30809542781E+02  0.00000000000E+00 0.  1.
</event>
<event>
 8    1  0.1210161E-006  0.9118800E+02  0.7816164E-02  0.1184000E+00
        -11   -1    0    0    0    0  0.00000000000E+00  0.00000000000E+00  0.45593999997E+02  0.45594000000E+02  0.51100000000E-03 0. -1.
         11   -1    0    0    0    0 -0.00000000000E+00 -0.00000000000E+00 -0.45593999997E+02  0.45594000000E+02  0.51100000000E-03 0.  1.
         23    2    1    2    0    0 -0.35527136788E-14  0.00000000000E+00  0.44408920985E-15  0.91188000000E+02  0.91188000000E+02 0.  0.
    9900012    2    3    3    0    0 -0.17104425960E+02 -0.32377322012E+02 -0.38636541461E+01  0.54367079432E+02  0.39999989182E+02 0.  0.
         12    1    3    3    0    0  0.17104425960E+02  0.32377322012E+02  0.38636541461E+01  0.36820920568E+02  0.00000000000E+00 0. -1.
         11    1    4    4    0    0 -0.19484107568E+01  0.64496696500E+01 -0.53275892897E+01  0.85893975907E+01  0.51100000000E-03 0. -1.
        -11    1    4    4    0    0 -0.57356808441E+01 -0.28591717855E+02 -0.63186252952E+01  0.29838052727E+02  0.51100000000E-03 0.  1.
         12    1    4    4    0    0 -0.94203343586E+01 -0.10235273807E+02  0.77825604389E+01  0.15939629115E+02  0.00000000000E+00 0. -1.
</event>
<event>
 8    1  0.1210161E-006  0.9118800E+02  0.7816164E-02  0.1184000E+00
        -11   -1    0    0    0    0  0.00000000000E+00  0.00000000000E+00  0.45593999997E+02  0.45594000000E+02  0.51100000000E-03 0. -1.
         11   -1    0    0    0    0 -0.00000000000E+00 -0.00000000000E+00 -0.45593999997E+02  0.45594000000E+02  0.51100000000E-03 0.  1.
         23    2    1    2    0    0  0.88817841970E-15  0.35527136788E-14  0.00000000000E+00  0.91188000000E+02  0.91188000000E+02 0.  0.
    9900012    2    3    3    0    0 -0.69079693547E+01  0.29845417181E+02 -0.20428169040E+02  0.54367094829E+02  0.40000024281E+02 0.  0.
         12    1    3    3    0    0  0.69079693547E+01 -0.29845417181E+02  0.20428169040E+02  0.36820905171E+02  0.00000000000E+00 0. -1.
         11    1    4    4    0    0 -0.12686321590E+02  0.44736583088E+01 -0.10252364854E+02  0.16913525933E+02  0.51100000000E-03 0. -1.
        -11    1    4    4    0    0  0.36595083922E+01  0.28117110822E+02 -0.18268806905E+01  0.28413050100E+02  0.51100000000E-03 0.  1.
        -12    1    4    4    0    0  0.21188438428E+01 -0.27453519500E+01 -0.83489234952E+01  0.90405187953E+01  0.00000000000E+00 0.  1.
</event>
<event>
 8    1  0.1210161E-006  0.9118800E+02  0.7816164E-02  0.1184000E+00
        -11   -1    0    0    0    0  0.00000000000E+00  0.00000000000E+00  0.45593999997E+02  0.45594000000E+02  0.51100000000E-03 0. -1.
         11   -1    0    0    0    0 -0.00000000000E+00 -0.00000000000E+00 -0.45593999997E+02  0.45594000000E+02  0.51100000000E-03 0.  1.
         23    2    1    2    0    0 -0.35527136788E-14  0.00000000000E+00 -0.35527136788E-14  0.91188000000E+02  0.91188000000E+02 0.  0.
    9900012    2    3    3    0    0 -0.20432612973E+02  0.40385183904E+01 -0.30364095588E+02  0.54367087402E+02  0.40000007350E+02 0.  0.
         12    1    3    3    0    0  0.20432612973E+02 -0.40385183904E+01  0.30364095588E+02  0.36820912598E+02  0.00000000000E+00 0. -1.
         11    1    4    4    0    0 -0.93753571834E+01  0.79683148457E+01 -0.93919318399E+01  0.15479009908E+02  0.51100000000E-03 0. -1.
        -11    1    4    4    0    0  0.10161930312E+02  0.25140503312E+01 -0.53034167382E+01  0.11735054585E+02  0.51100000000E-03 0.  1.
        -12    1    4    4    0    0 -0.21219186102E+02 -0.64438467865E+01 -0.15668747010E+02  0.27153022909E+02  0.00000000000E+00 0.  1.
</event>
<event>
 8    1  0.1210161E-006  0.9118800E+02  0.7816164E-02  0.1184000E+00
        -11   -1    0    0    0    0  0.00000000000E+00  0.00000000000E+00  0.45593999997E+02  0.45594000000E+02  0.51100000000E-03 0. -1.
         11   -1    0    0    0    0 -0.00000000000E+00 -0.00000000000E+00 -0.45593999997E+02  0.45594000000E+02  0.51100000000E-03 0.  1.
         23    2    1    2    0    0  0.00000000000E+00 -0.88817841970E-15  0.00000000000E+00  0.91188000000E+02  0.91188000000E+02 0.  0.
    9900012    2    3    3    0    0 -0.33869904724E+02  0.20670209020E+01 -0.14294700402E+02  0.54367061921E+02  0.39999949262E+02 0.  0.
        -12    1    3    3    0    0  0.33869904724E+02 -0.20670209020E+01  0.14294700402E+02  0.36820938079E+02  0.00000000000E+00 0.  1.
         11    1    4    4    0    0  0.59478321252E+00 -0.13452551172E+01 -0.17849302727E+01  0.23128888300E+01  0.51100000000E-03 0. -1.
        -11    1    4    4    0    0  0.61613546295E+01 -0.46716015724E+01  0.22948699158E+01  0.80655179817E+01  0.51100000000E-03 0.  1.
         12    1    4    4    0    0 -0.40626042566E+02  0.80838775915E+01 -0.14804640045E+02  0.43988655110E+02  0.00000000000E+00 0. -1.
</event>
<event>
 8    1  0.1210161E-006  0.9118800E+02  0.7816164E-02  0.1184000E+00
        -11   -1    0    0    0    0  0.00000000000E+00  0.00000000000E+00  0.45593999997E+02  0.45594000000E+02  0.51100000000E-03 0.  1.
         11   -1    0    0    0    0 -0.00000000000E+00 -0.00000000000E+00 -0.45593999997E+02  0.45594000000E+02  0.51100000000E-03 0. -1.
         23    2    1    2    0    0  0.00000000000E+00  0.44408920985E-15 -0.44408920985E-15  0.91188000000E+02  0.91188000000E+02 0.  0.
    9900012    2    3    3    0    0  0.36416859492E+02 -0.37767329841E+01 -0.39151432763E+01  0.54367085914E+02  0.40000003957E+02 0.  0.
        -12    1    3    3    0    0 -0.36416859492E+02  0.37767329841E+01  0.39151432763E+01  0.36820914086E+02  0.00000000000E+00 0.  1.
         11    1    4    4    0    0  0.44339807605E+01  0.84866913406E+01  0.30019768440E+01  0.10034738688E+02  0.51100000000E-03 0. -1.
        -11    1    4    4    0    0  0.12044348147E+02 -0.61278768986E+01  0.10534076433E+02  0.17134292052E+02  0.51100000000E-03 0.  1.
         12    1    4    4    0    0  0.19938530584E+02 -0.61355474261E+01 -0.17451196554E+02  0.27198055174E+02  0.00000000000E+00 0. -1.
</event>
<event>
 8    1  0.1210161E-006  0.9118800E+02  0.7816164E-02  0.1184000E+00
        -11   -1    0    0    0    0  0.00000000000E+00  0.00000000000E+00  0.45593999997E+02  0.45594000000E+02  0.51100000000E-03 0. -1.
         11   -1    0    0    0    0 -0.00000000000E+00 -0.00000000000E+00 -0.45593999997E+02  0.45594000000E+02  0.51100000000E-03 0.  1.
         23    2    1    2    0    0  0.88817841970E-15  0.17763568394E-14  0.00000000000E+00  0.91188000000E+02  0.91188000000E+02 0.  0.
    9900012    2    3    3    0    0 -0.72085474238E+01 -0.15234318370E+02  0.32737316903E+02  0.54367088412E+02  0.40000009654E+02 0.  0.
        -12    1    3    3    0    0  0.72085474238E+01  0.15234318370E+02 -0.32737316903E+02  0.36820911588E+02  0.00000000000E+00 0.  1.
         11    1    4    4    0    0 -0.66917247262E+01 -0.17353279690E+02  0.15074859567E+02  0.23940904057E+02  0.51100000000E-03 0. -1.
        -11    1    4    4    0    0  0.10143810770E+02 -0.29087516457E+01  0.15004067437E+02  0.18343384992E+02  0.51100000000E-03 0.  1.
         12    1    4    4    0    0 -0.10660633467E+02  0.50277129662E+01  0.26583898986E+01  0.12082799363E+02  0.00000000000E+00 0. -1.
</event>
<event>
 8    1  0.1210161E-006  0.9118800E+02  0.7816164E-02  0.1184000E+00
        -11   -1    0    0    0    0  0.00000000000E+00  0.00000000000E+00  0.45593999997E+02  0.45594000000E+02  0.51100000000E-03 0. -1.
         11   -1    0    0    0    0 -0.00000000000E+00 -0.00000000000E+00 -0.45593999997E+02  0.45594000000E+02  0.51100000000E-03 0.  1.
         23    2    1    2    0    0  0.00000000000E+00  0.88817841970E-15  0.00000000000E+00  0.91188000000E+02  0.91188000000E+02 0.  0.
    9900012    2    3    3    0    0  0.30296055665E+02 -0.72546111787E+01  0.19629047425E+02  0.54367083729E+02  0.39999998976E+02 0.  0.
        -12    1    3    3    0    0 -0.30296055665E+02  0.72546111787E+01 -0.19629047425E+02  0.36820916271E+02  0.00000000000E+00 0.  1.
         11    1    4    4    0    0  0.47750499108E+01 -0.33959425996E+01  0.17244411120E+02  0.18212722007E+02  0.51100000000E-03 0. -1.
        -11    1    4    4    0    0  0.19531472219E+02  0.87633961819E+01  0.48941377343E+01  0.21959692714E+02  0.51100000000E-03 0.  1.
        -12    1    4    4    0    0  0.59895335354E+01 -0.12622064761E+02 -0.25095014285E+01  0.14194669007E+02  0.00000000000E+00 0.  1.
</event>
<event>
 8    1  0.1210161E-006  0.9118800E+02  0.7816164E-02  0.1184000E+00
        -11   -1    0    0    0    0  0.00000000000E+00  0.00000000000E+00  0.45593999997E+02  0.45594000000E+02  0.51100000000E-03 0.  1.
         11   -1    0    0    0    0 -0.00000000000E+00 -0.00000000000E+00 -0.45593999997E+02  0.45594000000E+02  0.51100000000E-03 0. -1.
         23    2    1    2    0    0  0.00000000000E+00  0.17763568394E-14  0.17763568394E-14  0.91188000000E+02  0.91188000000E+02 0.  0.
    9900012    2    3    3    0    0  0.31046051845E+02  0.12821745100E+02  0.15083898025E+02  0.54367102915E+02  0.40000042714E+02 0.  0.
         12    1    3    3    0    0 -0.31046051845E+02 -0.12821745100E+02 -0.15083898025E+02  0.36820897085E+02  0.00000000000E+00 0. -1.
         11    1    4    4    0    0  0.81998620851E+01  0.25772071031E+01  0.78084471993E+01  0.11612561414E+02  0.51100000000E-03 0. -1.
        -11    1    4    4    0    0  0.35087619249E+01  0.12276244698E+02  0.16801668989E+02  0.21102456615E+02  0.51100000000E-03 0.  1.
         12    1    4    4    0    0  0.19337427835E+02 -0.20317067014E+01 -0.95262181632E+01  0.21652084885E+02  0.00000000000E+00 0. -1.
</event>
<event>
 8    1  0.1210161E-006  0.9118800E+02  0.7816164E-02  0.1184000E+00
        -11   -1    0    0    0    0  0.00000000000E+00  0.00000000000E+00  0.45593999997E+02  0.45594000000E+02  0.51100000000E-03 0.  1.
         11   -1    0    0    0    0 -0.00000000000E+00 -0.00000000000E+00 -0.45593999997E+02  0.45594000000E+02  0.51100000000E-03 0. -1.
         23    2    1    2    0    0  0.00000000000E+00 -0.44408920985E-15  0.00000000000E+00  0.91188000000E+02  0.91188000000E+02 0.  0.
    9900012    2    3    3    0    0  0.32637158987E+02  0.26691479488E+01 -0.16836539035E+02  0.54367115380E+02  0.40000071132E+02 0.  0.
         12    1    3    3    0    0 -0.32637158987E+02 -0.26691479488E+01  0.16836539035E+02  0.36820884620E+02  0.00000000000E+00 0. -1.
         11    1    4    4    0    0  0.30532611725E+02  0.48780653064E+01 -0.19050937237E+02  0.36317683155E+02  0.51100000000E-03 0. -1.
        -11    1    4    4    0    0  0.85239007260E+01 -0.17300999127E+01  0.60140926635E+01  0.10574471151E+02  0.51100000000E-03 0.  1.
         12    1    4    4    0    0 -0.64193534647E+01 -0.47881744490E+00 -0.37996944619E+01  0.74749610738E+01  0.00000000000E+00 0. -1.
</event>
<event>
 8    1  0.1210161E-006  0.9118800E+02  0.7816164E-02  0.1184000E+00
        -11   -1    0    0    0    0  0.00000000000E+00  0.00000000000E+00  0.45593999997E+02  0.45594000000E+02  0.51100000000E-03 0.  1.
         11   -1    0    0    0    0 -0.00000000000E+00 -0.00000000000E+00 -0.45593999997E+02  0.45594000000E+02  0.51100000000E-03 0. -1.
         23    2    1    2    0    0  0.00000000000E+00  0.35527136788E-14  0.00000000000E+00  0.91188000000E+02  0.91188000000E+02 0.  0.
    9900012    2    3    3    0    0 -0.89602529941E+01 -0.19799338482E+02 -0.29723388065E+02  0.54367085616E+02  0.40000003279E+02 0.  0.
        -12    1    3    3    0    0  0.89602529941E+01  0.19799338482E+02  0.29723388065E+02  0.36820914384E+02  0.00000000000E+00 0.  1.
         11    1    4    4    0    0  0.25206347743E+01 -0.40544151639E+00 -0.26557938914E+02  0.26680369228E+02  0.51100000000E-03 0.  1.
        -11    1    4    4    0    0 -0.67977848374E+01 -0.36135851683E+01  0.51328060829E+01  0.92527603995E+01  0.51100000000E-03 0. -1.
        -12    1    4    4    0    0 -0.46831029309E+01 -0.15780311797E+02 -0.82982552333E+01  0.18433955989E+02  0.00000000000E+00 0.  1.
</event>
<event>
 8    1  0.1210161E-006  0.9118800E+02  0.7816164E-02  0.1184000E+00
        -11   -1    0    0    0    0  0.00000000000E+00  0.00000000000E+00  0.45593999997E+02  0.45594000000E+02  0.51100000000E-03 0. -1.
         11   -1    0    0    0    0 -0.00000000000E+00 -0.00000000000E+00 -0.45593999997E+02  0.45594000000E+02  0.51100000000E-03 0.  1.
         23    2    1    2    0    0  0.71054273576E-14 -0.55511151231E-15 -0.22204460493E-15  0.91188000000E+02  0.91188000000E+02 0.  0.
    9900012    2    3    3    0    0  0.36767837919E+02  0.52140662898E+00  0.19063844249E+01  0.54367081059E+02  0.39999992890E+02 0.  0.
        -12    1    3    3    0    0 -0.36767837919E+02 -0.52140662898E+00 -0.19063844249E+01  0.36820918941E+02  0.00000000000E+00 0.  1.
         11    1    4    4    0    0  0.13739586833E+02 -0.11650880622E+02  0.71648033076E+01  0.19386945925E+02  0.51100000000E-03 0. -1.
        -11    1    4    4    0    0 -0.39605873754E+01  0.16022456394E+00  0.21703606855E+01  0.45191138551E+01  0.51100000000E-03 0.  1.
        -12    1    4    4    0    0  0.26988838461E+02  0.12012062687E+02 -0.74287795683E+01  0.30461021278E+02  0.00000000000E+00 0.  1.
</event>
<event>
 8    1  0.1210161E-006  0.9118800E+02  0.7816164E-02  0.1184000E+00
        -11   -1    0    0    0    0  0.00000000000E+00  0.00000000000E+00  0.45593999997E+02  0.45594000000E+02  0.51100000000E-03 0. -1.
         11   -1    0    0    0    0 -0.00000000000E+00 -0.00000000000E+00 -0.45593999997E+02  0.45594000000E+02  0.51100000000E-03 0.  1.
         23    2    1    2    0    0 -0.35527136788E-14  0.35527136788E-14  0.00000000000E+00  0.91188000000E+02  0.91188000000E+02 0.  0.
    9900012    2    3    3    0    0  0.14885174921E+02 -0.17809086313E+02 -0.28584048881E+02  0.54367084230E+02  0.40000000119E+02 0.  0.
         12    1    3    3    0    0 -0.14885174921E+02  0.17809086313E+02  0.28584048881E+02  0.36820915770E+02  0.00000000000E+00 0. -1.
         11    1    4    4    0    0  0.73438501578E+00 -0.25475909366E+00  0.87904895314E+01  0.88247906496E+01  0.51100000000E-03 0. -1.
        -11    1    4    4    0    0 -0.22277710426E+01 -0.47072052955E+01 -0.74149659065E+01  0.90610410642E+01  0.51100000000E-03 0.  1.
         12    1    4    4    0    0  0.16378560947E+02 -0.12847121924E+02 -0.29959572505E+02  0.36481252516E+02  0.00000000000E+00 0. -1.
</event>
<event>
 8    1  0.1210161E-006  0.9118800E+02  0.7816164E-02  0.1184000E+00
        -11   -1    0    0    0    0  0.00000000000E+00  0.00000000000E+00  0.45593999997E+02  0.45594000000E+02  0.51100000000E-03 0.  1.
         11   -1    0    0    0    0 -0.00000000000E+00 -0.00000000000E+00 -0.45593999997E+02  0.45594000000E+02  0.51100000000E-03 0. -1.
         23    2    1    2    0    0 -0.35527136788E-14 -0.35527136788E-14  0.00000000000E+00  0.91188000000E+02  0.91188000000E+02 0.  0.
    9900012    2    3    3    0    0  0.25545933027E+02  0.20812891443E+02  0.16431883604E+02  0.54367109962E+02  0.40000058780E+02 0.  0.
         12    1    3    3    0    0 -0.25545933027E+02 -0.20812891443E+02 -0.16431883604E+02  0.36820890038E+02  0.00000000000E+00 0. -1.
         11    1    4    4    0    0  0.92570784964E+01  0.70551692886E+01  0.53219658631E+01  0.12798134118E+02  0.51100000000E-03 0. -1.
        -11    1    4    4    0    0  0.13342670169E+02  0.22773046555E+02  0.16033928509E+02  0.30882444209E+02  0.51100000000E-03 0.  1.
         12    1    4    4    0    0  0.29461843613E+01 -0.90153244006E+01 -0.49240107682E+01  0.10686531635E+02  0.00000000000E+00 0. -1.
</event>
<event>
 8    1  0.1210161E-006  0.9118800E+02  0.7816164E-02  0.1184000E+00
        -11   -1    0    0    0    0  0.00000000000E+00  0.00000000000E+00  0.45593999997E+02  0.45594000000E+02  0.51100000000E-03 0. -1.
         11   -1    0    0    0    0 -0.00000000000E+00 -0.00000000000E+00 -0.45593999997E+02  0.45594000000E+02  0.51100000000E-03 0.  1.
         23    2    1    2    0    0  0.00000000000E+00  0.00000000000E+00  0.00000000000E+00  0.91188000000E+02  0.91188000000E+02 0.  0.
    9900012    2    3    3    0    0  0.24372742365E+02  0.14356626089E+02 -0.23571948299E+02  0.54367081630E+02  0.39999994192E+02 0.  0.
         12    1    3    3    0    0 -0.24372742365E+02 -0.14356626089E+02  0.23571948299E+02  0.36820918370E+02  0.00000000000E+00 0. -1.
         11    1    4    4    0    0  0.75469572115E+01  0.23255484638E+02 -0.18014231439E+02  0.30369172914E+02  0.51100000000E-03 0. -1.
        -11    1    4    4    0    0  0.18605253562E+02 -0.60493548416E+01 -0.30379748727E+01  0.19798470792E+02  0.51100000000E-03 0.  1.
        -12    1    4    4    0    0 -0.17794684085E+01 -0.28495037076E+01 -0.25197419871E+01  0.41994379241E+01  0.00000000000E+00 0.  1.
</event>
<event>
 8    1  0.1210161E-006  0.9118800E+02  0.7816164E-02  0.1184000E+00
        -11   -1    0    0    0    0  0.00000000000E+00  0.00000000000E+00  0.45593999997E+02  0.45594000000E+02  0.51100000000E-03 0. -1.
         11   -1    0    0    0    0 -0.00000000000E+00 -0.00000000000E+00 -0.45593999997E+02  0.45594000000E+02  0.51100000000E-03 0.  1.
         23    2    1    2    0    0  0.00000000000E+00  0.00000000000E+00  0.17763568394E-14  0.91188000000E+02  0.91188000000E+02 0.  0.
    9900012    2    3    3    0    0 -0.13103976205E+02 -0.31590701994E+02 -0.13641600275E+02  0.54367083350E+02  0.39999998113E+02 0.  0.
         12    1    3    3    0    0  0.13103976205E+02  0.31590701994E+02  0.13641600275E+02  0.36820916650E+02  0.00000000000E+00 0. -1.
         11    1    4    4    0    0  0.43293547568E+01  0.35397697746E+01 -0.68955226564E+01  0.88781482097E+01  0.51100000000E-03 0. -1.
        -11    1    4    4    0    0 -0.13766764174E+02 -0.14804085773E+02 -0.12846546724E+02  0.23952421890E+02  0.51100000000E-03 0.  1.
         12    1    4    4    0    0 -0.36665667874E+01 -0.20326385996E+02  0.61004691059E+01  0.21536513250E+02  0.00000000000E+00 0. -1.
</event>
<event>
 8    1  0.1210161E-006  0.9118800E+02  0.7816164E-02  0.1184000E+00
        -11   -1    0    0    0    0  0.00000000000E+00  0.00000000000E+00  0.45593999997E+02  0.45594000000E+02  0.51100000000E-03 0.  1.
         11   -1    0    0    0    0 -0.00000000000E+00 -0.00000000000E+00 -0.45593999997E+02  0.45594000000E+02  0.51100000000E-03 0. -1.
         23    2    1    2    0    0 -0.88817841970E-15 -0.17763568394E-14  0.71054273576E-14  0.91188000000E+02  0.91188000000E+02 0.  0.
    9900012    2    3    3    0    0 -0.67527692558E+01 -0.13678962595E+02  0.33512175121E+02  0.54367084861E+02  0.40000001558E+02 0.  0.
         12    1    3    3    0    0  0.67527692558E+01  0.13678962595E+02 -0.33512175121E+02  0.36820915139E+02  0.00000000000E+00 0. -1.
         11    1    4    4    0    0 -0.70443556429E+01 -0.11291883971E+02  0.27925022363E+02  0.30934389670E+02  0.51100000000E-03 0. -1.
        -11    1    4    4    0    0 -0.90756090670E+01 -0.55878439128E+01  0.79007475329E+01  0.13266969939E+02  0.51100000000E-03 0.  1.
         12    1    4    4    0    0  0.93671954541E+01  0.32007652885E+01 -0.23135947748E+01  0.10165725252E+02  0.00000000000E+00 0. -1.
</event>
<event>
 8    1  0.1210161E-006  0.9118800E+02  0.7816164E-02  0.1184000E+00
        -11   -1    0    0    0    0  0.00000000000E+00  0.00000000000E+00  0.45593999997E+02  0.45594000000E+02  0.51100000000E-03 0. -1.
         11   -1    0    0    0    0 -0.00000000000E+00 -0.00000000000E+00 -0.45593999997E+02  0.45594000000E+02  0.51100000000E-03 0.  1.
         23    2    1    2    0    0 -0.71054273576E-14  0.00000000000E+00 -0.17763568394E-14  0.91188000000E+02  0.91188000000E+02 0.  0.
    9900012    2    3    3    0    0 -0.31619194578E+02 -0.16827345710E+02 -0.85351594315E+01  0.54367055201E+02  0.39999933941E+02 0.  0.
         12    1    3    3    0    0  0.31619194578E+02  0.16827345710E+02  0.85351594315E+01  0.36820944799E+02  0.00000000000E+00 0. -1.
         11    1    4    4    0    0 -0.44293224272E+01 -0.14461512068E+02 -0.16487797600E+02  0.22374130116E+02  0.51100000000E-03 0. -1.
        -11    1    4    4    0    0 -0.20475949870E+02  0.34273186620E+01  0.11071017315E+01  0.20790303288E+02  0.51100000000E-03 0.  1.
        -12    1    4    4    0    0 -0.67139222803E+01 -0.57931523040E+01  0.68455364375E+01  0.11202621797E+02  0.00000000000E+00 0.  1.
</event>
<event>
 8    1  0.1210161E-006  0.9118800E+02  0.7816164E-02  0.1184000E+00
        -11   -1    0    0    0    0  0.00000000000E+00  0.00000000000E+00  0.45593999997E+02  0.45594000000E+02  0.51100000000E-03 0. -1.
         11   -1    0    0    0    0 -0.00000000000E+00 -0.00000000000E+00 -0.45593999997E+02  0.45594000000E+02  0.51100000000E-03 0.  1.
         23    2    1    2    0    0  0.00000000000E+00 -0.17763568394E-14 -0.17763568394E-14  0.91188000000E+02  0.91188000000E+02 0.  0.
    9900012    2    3    3    0    0  0.34235346008E+02 -0.40302969540E+01 -0.12941315101E+02  0.54367084118E+02  0.39999999864E+02 0.  0.
         12    1    3    3    0    0 -0.34235346008E+02  0.40302969540E+01  0.12941315101E+02  0.36820915882E+02  0.00000000000E+00 0. -1.
         11    1    4    4    0    0  0.39980281266E+01  0.10244877154E+02 -0.73609967973E+01  0.13233518463E+02  0.51100000000E-03 0. -1.
        -11    1    4    4    0    0  0.11388155924E+01 -0.11404513366E+02 -0.63728693371E+00  0.11478935533E+02  0.51100000000E-03 0.  1.
        -12    1    4    4    0    0  0.29098502289E+02 -0.28706607415E+01 -0.49430313698E+01  0.29654630122E+02  0.00000000000E+00 0.  1.
</event>
<event>
 8    1  0.1210161E-006  0.9118800E+02  0.7816164E-02  0.1184000E+00
        -11   -1    0    0    0    0  0.00000000000E+00  0.00000000000E+00  0.45593999997E+02  0.45594000000E+02  0.51100000000E-03 0. -1.
         11   -1    0    0    0    0 -0.00000000000E+00 -0.00000000000E+00 -0.45593999997E+02  0.45594000000E+02  0.51100000000E-03 0.  1.
         23    2    1    2    0    0  0.00000000000E+00  0.00000000000E+00  0.35527136788E-14  0.91188000000E+02  0.91188000000E+02 0.  0.
    9900012    2    3    3    0    0  0.18151865609E+02  0.61664367804E+01  0.31436678747E+02  0.54367082870E+02  0.39999997018E+02 0.  0.
        -12    1    3    3    0    0 -0.18151865609E+02 -0.61664367804E+01 -0.31436678747E+02  0.36820917130E+02  0.00000000000E+00 0.  1.
         11    1    4    4    0    0  0.17390584445E+02  0.80283915600E+00  0.34731247571E+02  0.38850180645E+02  0.51100000000E-03 0. -1.
        -11    1    4    4    0    0 -0.66906110508E+01  0.31005348539E+01 -0.16935980305E+01  0.75660998647E+01  0.51100000000E-03 0.  1.
         12    1    4    4    0    0  0.74518922146E+01  0.22630627705E+01 -0.16009707934E+01  0.79508023597E+01  0.00000000000E+00 0. -1.
</event>
<event>
 8    1  0.1210161E-006  0.9118800E+02  0.7816164E-02  0.1184000E+00
        -11   -1    0    0    0    0  0.00000000000E+00  0.00000000000E+00  0.45593999997E+02  0.45594000000E+02  0.51100000000E-03 0. -1.
         11   -1    0    0    0    0 -0.00000000000E+00 -0.00000000000E+00 -0.45593999997E+02  0.45594000000E+02  0.51100000000E-03 0.  1.
         23    2    1    2    0    0  0.00000000000E+00  0.00000000000E+00  0.00000000000E+00  0.91188000000E+02  0.91188000000E+02 0.  0.
    9900012    2    3    3    0    0 -0.89093118403E+01  0.10975216550E+02 -0.33999248380E+02  0.54367080590E+02  0.39999991821E+02 0.  0.
         12    1    3    3    0    0  0.89093118403E+01 -0.10975216550E+02  0.33999248380E+02  0.36820919410E+02  0.00000000000E+00 0. -1.
         11    1    4    4    0    0 -0.52073415443E+01 -0.38347757403E+01 -0.12134718822E+02  0.13750393161E+02  0.51100000000E-03 0. -1.
        -11    1    4    4    0    0 -0.13634306082E+02 -0.18318622710E+01 -0.41734594256E+01  0.14375944684E+02  0.51100000000E-03 0.  1.
        -12    1    4    4    0    0  0.99323357857E+01  0.16641854561E+02 -0.17691070132E+02  0.26240742745E+02  0.00000000000E+00 0.  1.
</event>
<event>
 8    1  0.1210161E-006  0.9118800E+02  0.7816164E-02  0.1184000E+00
        -11   -1    0    0    0    0  0.00000000000E+00  0.00000000000E+00  0.45593999997E+02  0.45594000000E+02  0.51100000000E-03 0.  1.
         11   -1    0    0    0    0 -0.00000000000E+00 -0.00000000000E+00 -0.45593999997E+02  0.45594000000E+02  0.51100000000E-03 0. -1.
         23    2    1    2    0    0  0.13322676296E-14 -0.71054273576E-14  0.35527136788E-14  0.91188000000E+02  0.91188000000E+02 0.  0.
    9900012    2    3    3    0    0 -0.13224411619E+01  0.32405361493E+02 -0.17433400090E+02  0.54367085524E+02  0.40000003070E+02 0.  0.
        -12    1    3    3    0    0  0.13224411619E+01 -0.32405361493E+02  0.17433400090E+02  0.36820914476E+02  0.00000000000E+00 0.  1.
         11    1    4    4    0    0  0.83350304462E+01  0.11392576912E+02 -0.68549460417E+00  0.14132708316E+02  0.51100000000E-03 0. -1.
        -11    1    4    4    0    0 -0.66893903709E+01  0.28079646611E+02 -0.12340631312E+02  0.31392764752E+02  0.51100000000E-03 0.  1.
        -12    1    4    4    0    0 -0.29680812371E+01 -0.70668620299E+01 -0.44072741737E+01  0.88416124560E+01  0.00000000000E+00 0.  1.
</event>
<event>
 8    1  0.1210161E-006  0.9118800E+02  0.7816164E-02  0.1184000E+00
        -11   -1    0    0    0    0  0.00000000000E+00  0.00000000000E+00  0.45593999997E+02  0.45594000000E+02  0.51100000000E-03 0. -1.
         11   -1    0    0    0    0 -0.00000000000E+00 -0.00000000000E+00 -0.45593999997E+02  0.45594000000E+02  0.51100000000E-03 0.  1.
         23    2    1    2    0    0  0.71054273576E-14  0.00000000000E+00 -0.10269562978E-14  0.91188000000E+02  0.91188000000E+02 0.  0.
    9900012    2    3    3    0    0 -0.34449031157E+02 -0.13001064413E+02 -0.12509414830E+00  0.54367094633E+02  0.40000023834E+02 0.  0.
        -12    1    3    3    0    0  0.34449031157E+02  0.13001064413E+02  0.12509414830E+00  0.36820905367E+02  0.00000000000E+00 0.  1.
         11    1    4    4    0    0 -0.18836299078E+02 -0.12716748325E+02  0.14438476598E+02  0.26925665408E+02  0.51100000000E-03 0. -1.
        -11    1    4    4    0    0 -0.22759415470E+01  0.56722687177E+00  0.39586596041E+01  0.46013739657E+01  0.51100000000E-03 0.  1.
        -12    1    4    4    0    0 -0.13336790532E+02 -0.85154295912E+00 -0.18522230350E+02  0.22840055259E+02  0.00000000000E+00 0.  1.
</event>
<event>
 8    1  0.1210161E-006  0.9118800E+02  0.7816164E-02  0.1184000E+00
        -11   -1    0    0    0    0  0.00000000000E+00  0.00000000000E+00  0.45593999997E+02  0.45594000000E+02  0.51100000000E-03 0. -1.
         11   -1    0    0    0    0 -0.00000000000E+00 -0.00000000000E+00 -0.45593999997E+02  0.45594000000E+02  0.51100000000E-03 0.  1.
         23    2    1    2    0    0  0.00000000000E+00  0.17763568394E-14  0.00000000000E+00  0.91188000000E+02  0.91188000000E+02 0.  0.
    9900012    2    3    3    0    0  0.32257160760E+02  0.14409543974E+02  0.10373979350E+02  0.54367097983E+02  0.40000031472E+02 0.  0.
        -12    1    3    3    0    0 -0.32257160760E+02 -0.14409543974E+02 -0.10373979350E+02  0.36820902017E+02  0.00000000000E+00 0.  1.
         11    1    4    4    0    0 -0.19567133789E+01 -0.18004276917E+01  0.90272197110E+01  0.94106834551E+01  0.51100000000E-03 0. -1.
        -11    1    4    4    0    0  0.16265493644E+02  0.17572324979E+02  0.87499684930E+01  0.25493427340E+02  0.51100000000E-03 0.  1.
        -12    1    4    4    0    0  0.17948380495E+02 -0.13623533141E+01 -0.74032088538E+01  0.19462987188E+02  0.00000000000E+00 0.  1.
</event>
<event>
 8    1  0.1210161E-006  0.9118800E+02  0.7816164E-02  0.1184000E+00
        -11   -1    0    0    0    0  0.00000000000E+00  0.00000000000E+00  0.45593999997E+02  0.45594000000E+02  0.51100000000E-03 0. -1.
         11   -1    0    0    0    0 -0.00000000000E+00 -0.00000000000E+00 -0.45593999997E+02  0.45594000000E+02  0.51100000000E-03 0.  1.
         23    2    1    2    0    0  0.00000000000E+00  0.00000000000E+00  0.00000000000E+00  0.91188000000E+02  0.91188000000E+02 0.  0.
    9900012    2    3    3    0    0 -0.18415011418E+02 -0.18899508993E+02 -0.25680312211E+02  0.54367047799E+02  0.39999917068E+02 0.  0.
         12    1    3    3    0    0  0.18415011418E+02  0.18899508993E+02  0.25680312211E+02  0.36820952201E+02  0.00000000000E+00 0. -1.
         11    1    4    4    0    0 -0.67369720216E+01 -0.74686926631E+01 -0.21655366323E+01  0.10288717669E+02  0.51100000000E-03 0. -1.
        -11    1    4    4    0    0 -0.18511191661E+02 -0.11068971251E+02 -0.28406636219E+02  0.35666837858E+02  0.51100000000E-03 0.  1.
         12    1    4    4    0    0  0.68331522639E+01 -0.36184507919E+00  0.48918606397E+01  0.84114922720E+01  0.00000000000E+00 0. -1.
</event>
<event>
 8    1  0.1210161E-006  0.9118800E+02  0.7816164E-02  0.1184000E+00
        -11   -1    0    0    0    0  0.00000000000E+00  0.00000000000E+00  0.45593999997E+02  0.45594000000E+02  0.51100000000E-03 0.  1.
         11   -1    0    0    0    0 -0.00000000000E+00 -0.00000000000E+00 -0.45593999997E+02  0.45594000000E+02  0.51100000000E-03 0. -1.
         23    2    1    2    0    0  0.00000000000E+00  0.44408920985E-15 -0.17763568394E-14  0.91188000000E+02  0.91188000000E+02 0.  0.
    9900012    2    3    3    0    0  0.35009992530E+02 -0.32323680839E+01 -0.10937642011E+02  0.54367084841E+02  0.40000001511E+02 0.  0.
        -12    1    3    3    0    0 -0.35009992530E+02  0.32323680839E+01  0.10937642011E+02  0.36820915159E+02  0.00000000000E+00 0.  1.
         11    1    4    4    0    0  0.57100140432E+01 -0.48759577638E+01 -0.38214613662E+01  0.84251285879E+01  0.51100000000E-03 0. -1.
        -11    1    4    4    0    0  0.10434195318E+01  0.58561171887E+01  0.10721943550E+02  0.12261439826E+02  0.51100000000E-03 0.  1.
        -12    1    4    4    0    0  0.28256558955E+02 -0.42125275088E+01 -0.17838124195E+02  0.33680516427E+02  0.00000000000E+00 0.  1.
</event>
<event>
 8    1  0.1210161E-006  0.9118800E+02  0.7816164E-02  0.1184000E+00
        -11   -1    0    0    0    0  0.00000000000E+00  0.00000000000E+00  0.45593999997E+02  0.45594000000E+02  0.51100000000E-03 0.  1.
         11   -1    0    0    0    0 -0.00000000000E+00 -0.00000000000E+00 -0.45593999997E+02  0.45594000000E+02  0.51100000000E-03 0. -1.
         23    2    1    2    0    0 -0.71054273576E-14  0.88817841970E-15  0.17763568394E-14  0.91188000000E+02  0.91188000000E+02 0.  0.
    9900012    2    3    3    0    0  0.33886571074E+02  0.44578116634E+01  0.13697053816E+02  0.54367067540E+02  0.39999962071E+02 0.  0.
        -12    1    3    3    0    0 -0.33886571074E+02 -0.44578116634E+01 -0.13697053816E+02  0.36820932460E+02  0.00000000000E+00 0.  1.
         11    1    4    4    0    0  0.88888677517E+01 -0.34270653860E+01  0.48347587982E+01  0.10683241080E+02  0.51100000000E-03 0. -1.
        -11    1    4    4    0    0  0.28164832932E+02  0.71914715439E+01 -0.49580721292E+01  0.29488261335E+02  0.51100000000E-03 0.  1.
         12    1    4    4    0    0 -0.31671296094E+01  0.69340550550E+00  0.13820367147E+02  0.14195565126E+02  0.00000000000E+00 0. -1.
</event>
<event>
 8    1  0.1210161E-006  0.9118800E+02  0.7816164E-02  0.1184000E+00
        -11   -1    0    0    0    0  0.00000000000E+00  0.00000000000E+00  0.45593999997E+02  0.45594000000E+02  0.51100000000E-03 0.  1.
         11   -1    0    0    0    0 -0.00000000000E+00 -0.00000000000E+00 -0.45593999997E+02  0.45594000000E+02  0.51100000000E-03 0. -1.
         23    2    1    2    0    0  0.17763568394E-14  0.00000000000E+00  0.00000000000E+00  0.91188000000E+02  0.91188000000E+02 0.  0.
    9900012    2    3    3    0    0 -0.51586651120E+01 -0.29746518366E+02 -0.21078818506E+02  0.54367030835E+02  0.39999878395E+02 0.  0.
         12    1    3    3    0    0  0.51586651120E+01  0.29746518366E+02  0.21078818506E+02  0.36820969165E+02  0.00000000000E+00 0. -1.
         11    1    4    4    0    0  0.12194613816E+01 -0.15497800223E+01 -0.62646089391E+01  0.65676654604E+01  0.51100000000E-03 0. -1.
        -11    1    4    4    0    0  0.98822723268E+01  0.27665623080E+01 -0.14706401033E+01  0.10367061103E+02  0.51100000000E-03 0.  1.
        -12    1    4    4    0    0 -0.16260398820E+02 -0.30963300651E+02 -0.13343569464E+02  0.37432304271E+02  0.00000000000E+00 0.  1.
</event>
<event>
 8    1  0.1210161E-006  0.9118800E+02  0.7816164E-02  0.1184000E+00
        -11   -1    0    0    0    0  0.00000000000E+00  0.00000000000E+00  0.45593999997E+02  0.45594000000E+02  0.51100000000E-03 0.  1.
         11   -1    0    0    0    0 -0.00000000000E+00 -0.00000000000E+00 -0.45593999997E+02  0.45594000000E+02  0.51100000000E-03 0. -1.
         23    2    1    2    0    0 -0.35527136788E-14  0.35527136788E-14  0.00000000000E+00  0.91188000000E+02  0.91188000000E+02 0.  0.
    9900012    2    3    3    0    0 -0.17478258859E+02  0.18644628639E+02 -0.26507908801E+02  0.54367069283E+02  0.39999966045E+02 0.  0.
        -12    1    3    3    0    0  0.17478258859E+02 -0.18644628639E+02  0.26507908801E+02  0.36820930717E+02  0.00000000000E+00 0.  1.
         11    1    4    4    0    0 -0.64951980239E+01  0.13561363934E+02 -0.69849040697E+01  0.16579718763E+02  0.51100000000E-03 0. -1.
        -11    1    4    4    0    0 -0.19116926196E+02 -0.19960265878E+01 -0.52987909255E+01  0.19937857830E+02  0.51100000000E-03 0.  1.
         12    1    4    4    0    0  0.81338653609E+01  0.70792912932E+01 -0.14224213806E+02  0.17849492691E+02  0.00000000000E+00 0. -1.
</event>
<event>
 8    1  0.1210161E-006  0.9118800E+02  0.7816164E-02  0.1184000E+00
        -11   -1    0    0    0    0  0.00000000000E+00  0.00000000000E+00  0.45593999997E+02  0.45594000000E+02  0.51100000000E-03 0.  1.
         11   -1    0    0    0    0 -0.00000000000E+00 -0.00000000000E+00 -0.45593999997E+02  0.45594000000E+02  0.51100000000E-03 0. -1.
         23    2    1    2    0    0 -0.17763568394E-14 -0.35527136788E-14 -0.35527136788E-14  0.91188000000E+02  0.91188000000E+02 0.  0.
    9900012    2    3    3    0    0 -0.94046848123E+01  0.27334241380E+02  0.22807250696E+02  0.54367088380E+02  0.40000009579E+02 0.  0.
         12    1    3    3    0    0  0.94046848123E+01 -0.27334241380E+02 -0.22807250696E+02  0.36820911620E+02  0.00000000000E+00 0. -1.
         11    1    4    4    0    0  0.92022789820E+01  0.37427435058E+01 -0.50701991688E+01  0.11153339737E+02  0.51100000000E-03 0. -1.
        -11    1    4    4    0    0 -0.47309608000E+01 -0.66305937268E+00  0.63147157939E+01  0.79181610013E+01  0.51100000000E-03 0.  1.
        -12    1    4    4    0    0 -0.13876002994E+02  0.24254557247E+02  0.21562734071E+02  0.35295587641E+02  0.00000000000E+00 0.  1.
</event>
<event>
 8    1  0.1210161E-006  0.9118800E+02  0.7816164E-02  0.1184000E+00
        -11   -1    0    0    0    0  0.00000000000E+00  0.00000000000E+00  0.45593999997E+02  0.45594000000E+02  0.51100000000E-03 0. -1.
         11   -1    0    0    0    0 -0.00000000000E+00 -0.00000000000E+00 -0.45593999997E+02  0.45594000000E+02  0.51100000000E-03 0.  1.
         23    2    1    2    0    0  0.35527136788E-14  0.00000000000E+00 -0.35527136788E-14  0.91188000000E+02  0.91188000000E+02 0.  0.
    9900012    2    3    3    0    0 -0.25395859816E+02 -0.91045848876E+01  0.25058663825E+02  0.54367084823E+02  0.40000001471E+02 0.  0.
        -12    1    3    3    0    0  0.25395859816E+02  0.91045848876E+01 -0.25058663825E+02  0.36820915177E+02  0.00000000000E+00 0.  1.
         11    1    4    4    0    0 -0.65998475424E+01 -0.10515956646E+02  0.98711075042E+01  0.15861339647E+02  0.51100000000E-03 0. -1.
        -11    1    4    4    0    0 -0.98442045098E+01  0.15021164091E+02  0.12771627429E+02  0.22037654152E+02  0.51100000000E-03 0.  1.
        -12    1    4    4    0    0 -0.89518077637E+01 -0.13609792333E+02  0.24159288921E+01  0.16468091024E+02  0.00000000000E+00 0.  1.
</event>
<event>
 8    1  0.1210161E-006  0.9118800E+02  0.7816164E-02  0.1184000E+00
        -11   -1    0    0    0    0  0.00000000000E+00  0.00000000000E+00  0.45593999997E+02  0.45594000000E+02  0.51100000000E-03 0.  1.
         11   -1    0    0    0    0 -0.00000000000E+00 -0.00000000000E+00 -0.45593999997E+02  0.45594000000E+02  0.51100000000E-03 0. -1.
         23    2    1    2    0    0  0.00000000000E+00  0.71054273576E-14  0.00000000000E+00  0.91188000000E+02  0.91188000000E+02 0.  0.
    9900012    2    3    3    0    0 -0.68044860895E+01  0.30174925409E+02 -0.19973814575E+02  0.54367076287E+02  0.39999982012E+02 0.  0.
        -12    1    3    3    0    0  0.68044860895E+01 -0.30174925409E+02  0.19973814575E+02  0.36820923713E+02  0.00000000000E+00 0.  1.
         11    1    4    4    0    0  0.60345061593E+00  0.38512310305E+02 -0.19476647029E+02  0.43161348188E+02  0.51100000000E-03 0. -1.
        -11    1    4    4    0    0 -0.52231849584E+01 -0.54108424336E+01 -0.45866707433E-02  0.75205650220E+01  0.51100000000E-03 0.  1.
         12    1    4    4    0    0 -0.21847517471E+01 -0.29265424628E+01 -0.49258087583E+00  0.36851630768E+01  0.00000000000E+00 0. -1.
</event>
<event>
 8    1  0.1210161E-006  0.9118800E+02  0.7816164E-02  0.1184000E+00
        -11   -1    0    0    0    0  0.00000000000E+00  0.00000000000E+00  0.45593999997E+02  0.45594000000E+02  0.51100000000E-03 0.  1.
         11   -1    0    0    0    0 -0.00000000000E+00 -0.00000000000E+00 -0.45593999997E+02  0.45594000000E+02  0.51100000000E-03 0. -1.
         23    2    1    2    0    0  0.00000000000E+00  0.17763568394E-14  0.00000000000E+00  0.91188000000E+02  0.91188000000E+02 0.  0.
    9900012    2    3    3    0    0 -0.26669747911E+02  0.51363926974E+01  0.24862049336E+02  0.54367089083E+02  0.40000011182E+02 0.  0.
         12    1    3    3    0    0  0.26669747911E+02 -0.51363926974E+01 -0.24862049336E+02  0.36820910917E+02  0.00000000000E+00 0. -1.
         11    1    4    4    0    0 -0.77721398766E+01 -0.10505952108E+02  0.15789275053E+02  0.20495911664E+02  0.51100000000E-03 0. -1.
        -11    1    4    4    0    0  0.27678731580E+00  0.86248353707E+01  0.10274654998E+02  0.13417635111E+02  0.51100000000E-03 0.  1.
         12    1    4    4    0    0 -0.19174395350E+02  0.70175094346E+01 -0.12018807149E+01  0.20453542308E+02  0.00000000000E+00 0. -1.
</event>
<event>
 8    1  0.1210161E-006  0.9118800E+02  0.7816164E-02  0.1184000E+00
        -11   -1    0    0    0    0  0.00000000000E+00  0.00000000000E+00  0.45593999997E+02  0.45594000000E+02  0.51100000000E-03 0. -1.
         11   -1    0    0    0    0 -0.00000000000E+00 -0.00000000000E+00 -0.45593999997E+02  0.45594000000E+02  0.51100000000E-03 0.  1.
         23    2    1    2    0    0  0.00000000000E+00  0.00000000000E+00  0.00000000000E+00  0.91188000000E+02  0.91188000000E+02 0.  0.
    9900012    2    3    3    0    0 -0.24892054167E+02 -0.26957046846E+02 -0.30793153479E+01  0.54367096720E+02  0.40000028594E+02 0.  0.
         12    1    3    3    0    0  0.24892054167E+02  0.26957046846E+02  0.30793153479E+01  0.36820903280E+02  0.00000000000E+00 0. -1.
         11    1    4    4    0    0  0.29931080522E+01  0.43922450563E+01  0.46706998409E+00  0.53356037220E+01  0.51100000000E-03 0. -1.
        -11    1    4    4    0    0 -0.20448671001E+02 -0.50659788771E+01 -0.50892850235E+01  0.21672865755E+02  0.51100000000E-03 0.  1.
        -12    1    4    4    0    0 -0.74364912177E+01 -0.26283313025E+02  0.15428996916E+01  0.27358627244E+02  0.00000000000E+00 0.  1.
</event>
<event>
 8    1  0.1210161E-006  0.9118800E+02  0.7816164E-02  0.1184000E+00
        -11   -1    0    0    0    0  0.00000000000E+00  0.00000000000E+00  0.45593999997E+02  0.45594000000E+02  0.51100000000E-03 0.  1.
         11   -1    0    0    0    0 -0.00000000000E+00 -0.00000000000E+00 -0.45593999997E+02  0.45594000000E+02  0.51100000000E-03 0. -1.
         23    2    1    2    0    0  0.71054273576E-14 -0.35527136788E-14  0.00000000000E+00  0.91188000000E+02  0.91188000000E+02 0.  0.
    9900012    2    3    3    0    0 -0.32023126491E+02  0.17244399362E+02  0.57386371255E+01  0.54367056290E+02  0.39999936425E+02 0.  0.
        -12    1    3    3    0    0  0.32023126491E+02 -0.17244399362E+02 -0.57386371255E+01  0.36820943710E+02  0.00000000000E+00 0.  1.
         11    1    4    4    0    0 -0.46495608895E+01  0.12463446566E+02 -0.49239309079E+01  0.14184534275E+02  0.51100000000E-03 0. -1.
        -11    1    4    4    0    0 -0.55047342209E+01  0.13693850576E+02  0.14353300592E+01  0.14828479864E+02  0.51100000000E-03 0.  1.
         12    1    4    4    0    0 -0.21868831380E+02 -0.89128977791E+01  0.92272379742E+01  0.25354042151E+02  0.00000000000E+00 0. -1.
</event>
<event>
 8    1  0.1210161E-006  0.9118800E+02  0.7816164E-02  0.1184000E+00
        -11   -1    0    0    0    0  0.00000000000E+00  0.00000000000E+00  0.45593999997E+02  0.45594000000E+02  0.51100000000E-03 0.  1.
         11   -1    0    0    0    0 -0.00000000000E+00 -0.00000000000E+00 -0.45593999997E+02  0.45594000000E+02  0.51100000000E-03 0. -1.
         23    2    1    2    0    0  0.00000000000E+00  0.00000000000E+00  0.00000000000E+00  0.91188000000E+02  0.91188000000E+02 0.  0.
    9900012    2    3    3    0    0  0.19991286344E+02  0.29269571954E+02  0.99710285851E+01  0.54367071398E+02  0.39999970866E+02 0.  0.
        -12    1    3    3    0    0 -0.19991286344E+02 -0.29269571954E+02 -0.99710285851E+01  0.36820928602E+02  0.00000000000E+00 0.  1.
         11    1    4    4    0    0  0.18998986260E+01 -0.56986435851E+01 -0.15624040212E+01  0.62068720049E+01  0.51100000000E-03 0. -1.
        -11    1    4    4    0    0  0.43848260056E+01  0.13119429623E+02  0.16875685592E+02  0.21820515512E+02  0.51100000000E-03 0.  1.
         12    1    4    4    0    0  0.13706561713E+02  0.21848785917E+02 -0.53422529861E+01  0.26339683881E+02  0.00000000000E+00 0. -1.
</event>
<event>
 8    1  0.1210161E-006  0.9118800E+02  0.7816164E-02  0.1184000E+00
        -11   -1    0    0    0    0  0.00000000000E+00  0.00000000000E+00  0.45593999997E+02  0.45594000000E+02  0.51100000000E-03 0.  1.
         11   -1    0    0    0    0 -0.00000000000E+00 -0.00000000000E+00 -0.45593999997E+02  0.45594000000E+02  0.51100000000E-03 0. -1.
         23    2    1    2    0    0  0.00000000000E+00  0.00000000000E+00 -0.35527136788E-14  0.91188000000E+02  0.91188000000E+02 0.  0.
    9900012    2    3    3    0    0 -0.19672698763E+02 -0.41072249936E+01 -0.30852811160E+02  0.54367077547E+02  0.39999984885E+02 0.  0.
        -12    1    3    3    0    0  0.19672698763E+02  0.41072249936E+01  0.30852811160E+02  0.36820922453E+02  0.00000000000E+00 0.  1.
         11    1    4    4    0    0 -0.12391331765E+02 -0.87057158724E+01 -0.45645158529E+01  0.15816744197E+02  0.51100000000E-03 0. -1.
        -11    1    4    4    0    0  0.19971799275E+01 -0.65984432675E+00  0.50374215370E+01  0.54589136466E+01  0.51100000000E-03 0.  1.
         12    1    4    4    0    0 -0.92785469255E+01  0.52583352056E+01 -0.31325716844E+02  0.33091419703E+02  0.00000000000E+00 0. -1.
</event>
<event>
 8    1  0.1210161E-006  0.9118800E+02  0.7816164E-02  0.1184000E+00
        -11   -1    0    0    0    0  0.00000000000E+00  0.00000000000E+00  0.45593999997E+02  0.45594000000E+02  0.51100000000E-03 0. -1.
         11   -1    0    0    0    0 -0.00000000000E+00 -0.00000000000E+00 -0.45593999997E+02  0.45594000000E+02  0.51100000000E-03 0.  1.
         23    2    1    2    0    0 -0.17763568394E-14  0.00000000000E+00 -0.35527136788E-14  0.91188000000E+02  0.91188000000E+02 0.  0.
    9900012    2    3    3    0    0 -0.10968859459E+02  0.26211907334E+02 -0.23417995517E+02  0.54367048383E+02  0.39999918400E+02 0.  0.
         12    1    3    3    0    0  0.10968859459E+02 -0.26211907334E+02  0.23417995517E+02  0.36820951617E+02  0.00000000000E+00 0. -1.
         11    1    4    4    0    0  0.96219596006E+00  0.25449707474E+02 -0.69246540920E+01  0.26392503976E+02  0.51100000000E-03 0.  1.
        -11    1    4    4    0    0 -0.15642744465E+02 -0.69574162653E-01 -0.18031805233E+02  0.23871453562E+02  0.51100000000E-03 0. -1.
         12    1    4    4    0    0  0.37116890455E+01  0.83177402281E+00  0.15384638079E+01  0.41030908452E+01  0.00000000000E+00 0. -1.
</event>
<event>
 8    1  0.1210161E-006  0.9118800E+02  0.7816164E-02  0.1184000E+00
        -11   -1    0    0    0    0  0.00000000000E+00  0.00000000000E+00  0.45593999997E+02  0.45594000000E+02  0.51100000000E-03 0.  1.
         11   -1    0    0    0    0 -0.00000000000E+00 -0.00000000000E+00 -0.45593999997E+02  0.45594000000E+02  0.51100000000E-03 0. -1.
         23    2    1    2    0    0  0.00000000000E+00  0.00000000000E+00  0.00000000000E+00  0.91188000000E+02  0.91188000000E+02 0.  0.
    9900012    2    3    3    0    0  0.19218447004E+02 -0.11048898052E+02  0.29399868481E+02  0.54367093980E+02  0.40000022347E+02 0.  0.
         12    1    3    3    0    0 -0.19218447004E+02  0.11048898052E+02 -0.29399868481E+02  0.36820906020E+02  0.00000000000E+00 0. -1.
         11    1    4    4    0    0  0.11955850445E+02 -0.17664838590E+02  0.35916646173E+01  0.21630740561E+02  0.51100000000E-03 0. -1.
        -11    1    4    4    0    0  0.97301348679E+01  0.58501839701E+00  0.24104885978E+02  0.26001217267E+02  0.51100000000E-03 0.  1.
         12    1    4    4    0    0 -0.24675383085E+01  0.60309221408E+01  0.17033178857E+01  0.67351361524E+01  0.00000000000E+00 0. -1.
</event>
<event>
 8    1  0.1210161E-006  0.9118800E+02  0.7816164E-02  0.1184000E+00
        -11   -1    0    0    0    0  0.00000000000E+00  0.00000000000E+00  0.45593999997E+02  0.45594000000E+02  0.51100000000E-03 0. -1.
         11   -1    0    0    0    0 -0.00000000000E+00 -0.00000000000E+00 -0.45593999997E+02  0.45594000000E+02  0.51100000000E-03 0.  1.
         23    2    1    2    0    0  0.71054273576E-14  0.88817841970E-15  0.00000000000E+00  0.91188000000E+02  0.91188000000E+02 0.  0.
    9900012    2    3    3    0    0  0.34432770784E+02  0.37231328005E+01  0.12502183049E+02  0.54367054837E+02  0.39999933112E+02 0.  0.
        -12    1    3    3    0    0 -0.34432770784E+02 -0.37231328005E+01 -0.12502183049E+02  0.36820945163E+02  0.00000000000E+00 0.  1.
         11    1    4    4    0    0  0.39883770064E+00  0.31574083184E+01  0.12080236452E+02  0.12492414170E+02  0.51100000000E-03 0. -1.
        -11    1    4    4    0    0  0.80824723402E+01 -0.10766683421E+02 -0.11593230483E+01  0.13512655594E+02  0.51100000000E-03 0.  1.
         12    1    4    4    0    0  0.25951460743E+02  0.11332407903E+02  0.15812696450E+01  0.28361985073E+02  0.00000000000E+00 0. -1.
</event>
<event>
 8    1  0.1210161E-006  0.9118800E+02  0.7816164E-02  0.1184000E+00
        -11   -1    0    0    0    0  0.00000000000E+00  0.00000000000E+00  0.45593999997E+02  0.45594000000E+02  0.51100000000E-03 0.  1.
         11   -1    0    0    0    0 -0.00000000000E+00 -0.00000000000E+00 -0.45593999997E+02  0.45594000000E+02  0.51100000000E-03 0. -1.
         23    2    1    2    0    0 -0.71054273576E-14  0.13322676296E-14  0.00000000000E+00  0.91188000000E+02  0.91188000000E+02 0.  0.
    9900012    2    3    3    0    0  0.34932729343E+02  0.22921783270E+01 -0.11411843709E+02  0.54367084236E+02  0.40000000134E+02 0.  0.
        -12    1    3    3    0    0 -0.34932729343E+02 -0.22921783270E+01  0.11411843709E+02  0.36820915764E+02  0.00000000000E+00 0.  1.
         11    1    4    4    0    0  0.11557347187E+02 -0.38786983970E+01 -0.42032081298E+01  0.12895097289E+02  0.51100000000E-03 0. -1.
        -11    1    4    4    0    0  0.13790461982E+02  0.17726812610E+02  0.39001979153E+01  0.22795356348E+02  0.51100000000E-03 0.  1.
        -12    1    4    4    0    0  0.95849201741E+01 -0.11555935886E+02 -0.11108833494E+02  0.18676630599E+02  0.00000000000E+00 0.  1.
</event>
<event>
 8    1  0.1210161E-006  0.9118800E+02  0.7816164E-02  0.1184000E+00
        -11   -1    0    0    0    0  0.00000000000E+00  0.00000000000E+00  0.45593999997E+02  0.45594000000E+02  0.51100000000E-03 0. -1.
         11   -1    0    0    0    0 -0.00000000000E+00 -0.00000000000E+00 -0.45593999997E+02  0.45594000000E+02  0.51100000000E-03 0.  1.
         23    2    1    2    0    0 -0.13322676296E-14  0.71054273576E-14  0.00000000000E+00  0.91188000000E+02  0.91188000000E+02 0.  0.
    9900012    2    3    3    0    0 -0.23240478762E+01 -0.32128994216E+02  0.17835515269E+02  0.54367094623E+02  0.40000023812E+02 0.  0.
        -12    1    3    3    0    0  0.23240478762E+01  0.32128994216E+02 -0.17835515269E+02  0.36820905377E+02  0.00000000000E+00 0.  1.
         11    1    4    4    0    0 -0.29674862499E+01 -0.11017836574E+00  0.13333974018E+02  0.13660636050E+02  0.51100000000E-03 0. -1.
        -11    1    4    4    0    0 -0.10360260805E+02 -0.58472811411E+01 -0.36324130625E+00  0.11902001731E+02  0.51100000000E-03 0.  1.
        -12    1    4    4    0    0  0.11003699179E+02 -0.26171534709E+02  0.48647825572E+01  0.28804456842E+02  0.00000000000E+00 0.  1.
</event>
<event>
 8    1  0.1210161E-006  0.9118800E+02  0.7816164E-02  0.1184000E+00
        -11   -1    0    0    0    0  0.00000000000E+00  0.00000000000E+00  0.45593999997E+02  0.45594000000E+02  0.51100000000E-03 0.  1.
         11   -1    0    0    0    0 -0.00000000000E+00 -0.00000000000E+00 -0.45593999997E+02  0.45594000000E+02  0.51100000000E-03 0. -1.
         23    2    1    2    0    0  0.00000000000E+00  0.00000000000E+00  0.00000000000E+00  0.91188000000E+02  0.91188000000E+02 0.  0.
    9900012    2    3    3    0    0 -0.11647914999E+02 -0.14262529755E+02  0.31885511749E+02  0.54367088301E+02  0.40000009400E+02 0.  0.
         12    1    3    3    0    0  0.11647914999E+02  0.14262529755E+02 -0.31885511749E+02  0.36820911699E+02  0.00000000000E+00 0. -1.
         11    1    4    4    0    0 -0.11421168329E+02 -0.33126459954E+01  0.58522970666E+01  0.13253908507E+02  0.51100000000E-03 0.  1.
        -11    1    4    4    0    0 -0.11745189288E+00 -0.94623616796E+01  0.32823820903E+02  0.34160698214E+02  0.51100000000E-03 0. -1.
        -12    1    4    4    0    0 -0.10929477730E+00 -0.14875220796E+01 -0.67906062205E+01  0.69524815806E+01  0.00000000000E+00 0.  1.
</event>
<event>
 8    1  0.1210161E-006  0.9118800E+02  0.7816164E-02  0.1184000E+00
        -11   -1    0    0    0    0  0.00000000000E+00  0.00000000000E+00  0.45593999997E+02  0.45594000000E+02  0.51100000000E-03 0.  1.
         11   -1    0    0    0    0 -0.00000000000E+00 -0.00000000000E+00 -0.45593999997E+02  0.45594000000E+02  0.51100000000E-03 0. -1.
         23    2    1    2    0    0  0.00000000000E+00  0.00000000000E+00 -0.33306690739E-15  0.91188000000E+02  0.91188000000E+02 0.  0.
    9900012    2    3    3    0    0 -0.26827475367E+02  0.25213123655E+02 -0.60370682211E+00  0.54367088809E+02  0.40000010558E+02 0.  0.
        -12    1    3    3    0    0  0.26827475367E+02 -0.25213123655E+02  0.60370682211E+00  0.36820911191E+02  0.00000000000E+00 0.  1.
         11    1    4    4    0    0 -0.76117432401E+01  0.17749082181E+02 -0.91659073140E+01  0.21377146923E+02  0.51100000000E-03 0. -1.
        -11    1    4    4    0    0 -0.21450596421E+02 -0.22020900411E+01  0.34782441048E+01  0.21842057359E+02  0.51100000000E-03 0.  1.
        -12    1    4    4    0    0  0.22348642937E+01  0.96661315155E+01  0.50839563870E+01  0.11147884527E+02  0.00000000000E+00 0.  1.
</event>
<event>
 8    1  0.1210161E-006  0.9118800E+02  0.7816164E-02  0.1184000E+00
        -11   -1    0    0    0    0  0.00000000000E+00  0.00000000000E+00  0.45593999997E+02  0.45594000000E+02  0.51100000000E-03 0. -1.
         11   -1    0    0    0    0 -0.00000000000E+00 -0.00000000000E+00 -0.45593999997E+02  0.45594000000E+02  0.51100000000E-03 0.  1.
         23    2    1    2    0    0  0.00000000000E+00  0.00000000000E+00  0.17763568394E-14  0.91188000000E+02  0.91188000000E+02 0.  0.
    9900012    2    3    3    0    0 -0.12661556720E+02  0.33167675606E+02 -0.97657502846E+01  0.54367087432E+02  0.40000007420E+02 0.  0.
        -12    1    3    3    0    0  0.12661556720E+02 -0.33167675606E+02  0.97657502846E+01  0.36820912568E+02  0.00000000000E+00 0.  1.
         11    1    4    4    0    0 -0.11057820431E+02  0.24615626433E+01  0.33351184388E+00  0.11333398155E+02  0.51100000000E-03 0. -1.
        -11    1    4    4    0    0 -0.11043386609E+02  0.22115377675E+02  0.28117438335E+01  0.24878750394E+02  0.51100000000E-03 0.  1.
        -12    1    4    4    0    0  0.94396503191E+01  0.85907352872E+01 -0.12911005962E+02  0.18154938884E+02  0.00000000000E+00 0.  1.
</event>
<event>
 8    1  0.1210161E-006  0.9118800E+02  0.7816164E-02  0.1184000E+00
        -11   -1    0    0    0    0  0.00000000000E+00  0.00000000000E+00  0.45593999997E+02  0.45594000000E+02  0.51100000000E-03 0. -1.
         11   -1    0    0    0    0 -0.00000000000E+00 -0.00000000000E+00 -0.45593999997E+02  0.45594000000E+02  0.51100000000E-03 0.  1.
         23    2    1    2    0    0  0.00000000000E+00  0.88817841970E-15  0.00000000000E+00  0.91188000000E+02  0.91188000000E+02 0.  0.
    9900012    2    3    3    0    0 -0.19772621315E+02 -0.58395659212E+01  0.30507711450E+02  0.54367115413E+02  0.40000071207E+02 0.  0.
        -12    1    3    3    0    0  0.19772621315E+02  0.58395659212E+01 -0.30507711450E+02  0.36820884587E+02  0.00000000000E+00 0.  1.
         11    1    4    4    0    0 -0.26794625762E+01  0.34819325811E+01  0.85387472584E+01  0.96027901779E+01  0.51100000000E-03 0. -1.
        -11    1    4    4    0    0 -0.11842833100E+02 -0.12533436784E+02  0.30026141195E+02  0.34625263736E+02  0.51100000000E-03 0.  1.
        -12    1    4    4    0    0 -0.52503256388E+01  0.32119382821E+01 -0.80571770026E+01  0.10139061500E+02  0.00000000000E+00 0.  1.
</event>
<event>
 8    1  0.1210161E-006  0.9118800E+02  0.7816164E-02  0.1184000E+00
        -11   -1    0    0    0    0  0.00000000000E+00  0.00000000000E+00  0.45593999997E+02  0.45594000000E+02  0.51100000000E-03 0.  1.
         11   -1    0    0    0    0 -0.00000000000E+00 -0.00000000000E+00 -0.45593999997E+02  0.45594000000E+02  0.51100000000E-03 0. -1.
         23    2    1    2    0    0 -0.88817841970E-15  0.00000000000E+00  0.00000000000E+00  0.91188000000E+02  0.91188000000E+02 0.  0.
    9900012    2    3    3    0    0 -0.38861971028E+00 -0.36256677692E+02 -0.64094350782E+01  0.54367101579E+02  0.40000039669E+02 0.  0.
        -12    1    3    3    0    0  0.38861971028E+00  0.36256677692E+02  0.64094350782E+01  0.36820898421E+02  0.00000000000E+00 0.  1.
         11    1    4    4    0    0  0.70236686991E+01  0.43693720513E+01 -0.47549884240E+01  0.95411345914E+01  0.51100000000E-03 0. -1.
        -11    1    4    4    0    0  0.25124333943E+01  0.44717979372E-01 -0.15675436651E+01  0.29616743004E+01  0.51100000000E-03 0.  1.
         12    1    4    4    0    0 -0.99247218037E+01 -0.40670767723E+02 -0.86902989041E-01  0.41864292687E+02  0.00000000000E+00 0. -1.
</event>
<event>
 8    1  0.1210161E-006  0.9118800E+02  0.7816164E-02  0.1184000E+00
        -11   -1    0    0    0    0  0.00000000000E+00  0.00000000000E+00  0.45593999997E+02  0.45594000000E+02  0.51100000000E-03 0.  1.
         11   -1    0    0    0    0 -0.00000000000E+00 -0.00000000000E+00 -0.45593999997E+02  0.45594000000E+02  0.51100000000E-03 0. -1.
         23    2    1    2    0    0  0.00000000000E+00  0.00000000000E+00  0.00000000000E+00  0.91188000000E+02  0.91188000000E+02 0.  0.
    9900012    2    3    3    0    0 -0.11401798291E+02 -0.13580177312E+02 -0.32270089117E+02  0.54367070195E+02  0.39999968124E+02 0.  0.
        -12    1    3    3    0    0  0.11401798291E+02  0.13580177312E+02  0.32270089117E+02  0.36820929805E+02  0.00000000000E+00 0.  1.
         11    1    4    4    0    0 -0.18941968986E+02 -0.18030458468E+02 -0.13514244109E+02  0.29436888690E+02  0.51100000000E-03 0. -1.
        -11    1    4    4    0    0 -0.27397335411E+01 -0.26026320169E+01 -0.29180562126E+01  0.47743989793E+01  0.51100000000E-03 0.  1.
         12    1    4    4    0    0  0.10279904236E+02  0.70529131738E+01 -0.15837788795E+02  0.20155782526E+02  0.00000000000E+00 0. -1.
</event>
<event>
 8    1  0.1210161E-006  0.9118800E+02  0.7816164E-02  0.1184000E+00
        -11   -1    0    0    0    0  0.00000000000E+00  0.00000000000E+00  0.45593999997E+02  0.45594000000E+02  0.51100000000E-03 0.  1.
         11   -1    0    0    0    0 -0.00000000000E+00 -0.00000000000E+00 -0.45593999997E+02  0.45594000000E+02  0.51100000000E-03 0. -1.
         23    2    1    2    0    0  0.71054273576E-14  0.00000000000E+00  0.00000000000E+00  0.91188000000E+02  0.91188000000E+02 0.  0.
    9900012    2    3    3    0    0  0.34971736060E+02 -0.11041808275E+02  0.32918743668E+01  0.54367078096E+02  0.39999986136E+02 0.  0.
         12    1    3    3    0    0 -0.34971736060E+02  0.11041808275E+02 -0.32918743668E+01  0.36820921904E+02  0.00000000000E+00 0. -1.
         11    1    4    4    0    0 -0.46282700874E+01 -0.19750039688E+01 -0.67519958370E+00  0.50771467792E+01  0.51100000000E-03 0. -1.
        -11    1    4    4    0    0  0.12051703278E+02  0.97101899540E+01  0.38597238565E+01  0.15950824724E+02  0.51100000000E-03 0.  1.
        -12    1    4    4    0    0  0.27548302869E+02 -0.18776994260E+02  0.10735009401E+00  0.33339106593E+02  0.00000000000E+00 0.  1.
</event>
<event>
 8    1  0.1210161E-006  0.9118800E+02  0.7816164E-02  0.1184000E+00
        -11   -1    0    0    0    0  0.00000000000E+00  0.00000000000E+00  0.45593999997E+02  0.45594000000E+02  0.51100000000E-03 0.  1.
         11   -1    0    0    0    0 -0.00000000000E+00 -0.00000000000E+00 -0.45593999997E+02  0.45594000000E+02  0.51100000000E-03 0. -1.
         23    2    1    2    0    0 -0.17763568394E-14  0.00000000000E+00 -0.35527136788E-14  0.91188000000E+02  0.91188000000E+02 0.  0.
    9900012    2    3    3    0    0  0.10643615650E+02 -0.16485252211E+02 -0.31156544352E+02  0.54367077273E+02  0.39999984258E+02 0.  0.
        -12    1    3    3    0    0 -0.10643615650E+02  0.16485252211E+02  0.31156544352E+02  0.36820922727E+02  0.00000000000E+00 0.  1.
         11    1    4    4    0    0  0.32113910661E+01 -0.13242863501E+02 -0.22034654349E+02  0.25907768310E+02  0.51100000000E-03 0. -1.
        -11    1    4    4    0    0 -0.30108401906E+01 -0.26227123058E+01 -0.15634498656E+02  0.16136335612E+02  0.51100000000E-03 0.  1.
        -12    1    4    4    0    0  0.10443064775E+02 -0.61967640423E+00  0.65126086529E+01  0.12322973351E+02  0.00000000000E+00 0.  1.
</event>
<event>
 8    1  0.1210161E-006  0.9118800E+02  0.7816164E-02  0.1184000E+00
        -11   -1    0    0    0    0  0.00000000000E+00  0.00000000000E+00  0.45593999997E+02  0.45594000000E+02  0.51100000000E-03 0. -1.
         11   -1    0    0    0    0 -0.00000000000E+00 -0.00000000000E+00 -0.45593999997E+02  0.45594000000E+02  0.51100000000E-03 0.  1.
         23    2    1    2    0    0  0.00000000000E+00  0.00000000000E+00  0.00000000000E+00  0.91188000000E+02  0.91188000000E+02 0.  0.
    9900012    2    3    3    0    0 -0.20294883011E+02 -0.29413861689E+02 -0.88725248028E+01  0.54367092457E+02  0.40000018874E+02 0.  0.
        -12    1    3    3    0    0  0.20294883011E+02  0.29413861689E+02  0.88725248028E+01  0.36820907543E+02  0.00000000000E+00 0.  1.
         11    1    4    4    0    0 -0.21597899505E+02 -0.12332989325E+02 -0.70704705370E+01  0.25856593793E+02  0.51100000000E-03 0. -1.
        -11    1    4    4    0    0 -0.10016088903E+02 -0.52414806961E+01  0.24946997600E+01  0.11576643899E+02  0.51100000000E-03 0.  1.
        -12    1    4    4    0    0  0.11319105397E+02 -0.11839391668E+02 -0.42967540258E+01  0.16933854765E+02  0.00000000000E+00 0.  1.
</event>
<event>
 8    1  0.1210161E-006  0.9118800E+02  0.7816164E-02  0.1184000E+00
        -11   -1    0    0    0    0  0.00000000000E+00  0.00000000000E+00  0.45593999997E+02  0.45594000000E+02  0.51100000000E-03 0.  1.
         11   -1    0    0    0    0 -0.00000000000E+00 -0.00000000000E+00 -0.45593999997E+02  0.45594000000E+02  0.51100000000E-03 0. -1.
         23    2    1    2    0    0  0.00000000000E+00  0.00000000000E+00  0.00000000000E+00  0.91188000000E+02  0.91188000000E+02 0.  0.
    9900012    2    3    3    0    0  0.25913243024E+02 -0.21713847129E+02 -0.14587395567E+02  0.54367089764E+02  0.40000012735E+02 0.  0.
        -12    1    3    3    0    0 -0.25913243024E+02  0.21713847129E+02  0.14587395567E+02  0.36820910236E+02  0.00000000000E+00 0.  1.
         11    1    4    4    0    0  0.21652751462E+02 -0.79682438280E+01 -0.15967405532E+02  0.28058734741E+02  0.51100000000E-03 0. -1.
        -11    1    4    4    0    0  0.10901445558E+01  0.41507159519E+01 -0.54109079700E+01  0.69061409910E+01  0.51100000000E-03 0.  1.
         12    1    4    4    0    0  0.31703470062E+01 -0.17896319253E+02  0.67909179352E+01  0.19402214032E+02  0.00000000000E+00 0. -1.
</event>
<event>
 8    1  0.1210161E-006  0.9118800E+02  0.7816164E-02  0.1184000E+00
        -11   -1    0    0    0    0  0.00000000000E+00  0.00000000000E+00  0.45593999997E+02  0.45594000000E+02  0.51100000000E-03 0.  1.
         11   -1    0    0    0    0 -0.00000000000E+00 -0.00000000000E+00 -0.45593999997E+02  0.45594000000E+02  0.51100000000E-03 0. -1.
         23    2    1    2    0    0  0.88817841970E-15  0.00000000000E+00  0.00000000000E+00  0.91188000000E+02  0.91188000000E+02 0.  0.
    9900012    2    3    3    0    0 -0.59084633361E+01  0.35688771964E+02  0.68688951267E+01  0.54367080625E+02  0.39999991902E+02 0.  0.
        -12    1    3    3    0    0  0.59084633361E+01 -0.35688771964E+02 -0.68688951267E+01  0.36820919375E+02  0.00000000000E+00 0.  1.
         11    1    4    4    0    0 -0.28868383483E+01  0.46806484415E+01 -0.10772084887E+02  0.12094631807E+02  0.51100000000E-03 0.  1.
        -11    1    4    4    0    0  0.25972328149E+01  0.35334960534E+01 -0.46924500461E+01  0.64226396715E+01  0.51100000000E-03 0. -1.
         12    1    4    4    0    0 -0.56188578027E+01  0.27474627470E+02  0.22333430060E+02  0.35849809146E+02  0.00000000000E+00 0. -1.
</event>
<event>
 8    1  0.1210161E-006  0.9118800E+02  0.7816164E-02  0.1184000E+00
        -11   -1    0    0    0    0  0.00000000000E+00  0.00000000000E+00  0.45593999997E+02  0.45594000000E+02  0.51100000000E-03 0. -1.
         11   -1    0    0    0    0 -0.00000000000E+00 -0.00000000000E+00 -0.45593999997E+02  0.45594000000E+02  0.51100000000E-03 0.  1.
         23    2    1    2    0    0  0.00000000000E+00  0.00000000000E+00 -0.71054273576E-14  0.91188000000E+02  0.91188000000E+02 0.  0.
    9900012    2    3    3    0    0  0.99198499995E+01 -0.99412259085E+01 -0.34037449556E+02  0.54367090602E+02  0.40000014646E+02 0.  0.
         12    1    3    3    0    0 -0.99198499995E+01  0.99412259085E+01  0.34037449556E+02  0.36820909398E+02  0.00000000000E+00 0. -1.
         11    1    4    4    0    0 -0.35697862427E+01 -0.10522249976E+02 -0.46977200217E+01  0.12063568794E+02  0.51100000000E-03 0. -1.
        -11    1    4    4    0    0  0.10400383864E+02 -0.33300170722E+01 -0.33858496636E+02  0.35576042402E+02  0.51100000000E-03 0.  1.
         12    1    4    4    0    0  0.30892523787E+01  0.39110411395E+01  0.45187671018E+01  0.67274794072E+01  0.00000000000E+00 0. -1.
</event>
<event>
 8    1  0.1210161E-006  0.9118800E+02  0.7816164E-02  0.1184000E+00
        -11   -1    0    0    0    0  0.00000000000E+00  0.00000000000E+00  0.45593999997E+02  0.45594000000E+02  0.51100000000E-03 0. -1.
         11   -1    0    0    0    0 -0.00000000000E+00 -0.00000000000E+00 -0.45593999997E+02  0.45594000000E+02  0.51100000000E-03 0.  1.
         23    2    1    2    0    0  0.00000000000E+00  0.17763568394E-14  0.00000000000E+00  0.91188000000E+02  0.91188000000E+02 0.  0.
    9900012    2    3    3    0    0  0.34192688075E+02 -0.86315340042E+01 -0.10589461226E+02  0.54367082221E+02  0.39999995539E+02 0.  0.
         12    1    3    3    0    0 -0.34192688075E+02  0.86315340042E+01  0.10589461226E+02  0.36820917779E+02  0.00000000000E+00 0. -1.
         11    1    4    4    0    0  0.79640317174E+01  0.20125592269E+01  0.10356025706E+01  0.82794123453E+01  0.51100000000E-03 0. -1.
        -11    1    4    4    0    0  0.24280242717E+02 -0.18076283357E+02  0.21163993726E+01  0.30344049713E+02  0.51100000000E-03 0.  1.
        -12    1    4    4    0    0  0.19484136401E+01  0.74321901263E+01 -0.13741463169E+02  0.15743620162E+02  0.00000000000E+00 0.  1.
</event>
<event>
 8    1  0.1210161E-006  0.9118800E+02  0.7816164E-02  0.1184000E+00
        -11   -1    0    0    0    0  0.00000000000E+00  0.00000000000E+00  0.45593999997E+02  0.45594000000E+02  0.51100000000E-03 0.  1.
         11   -1    0    0    0    0 -0.00000000000E+00 -0.00000000000E+00 -0.45593999997E+02  0.45594000000E+02  0.51100000000E-03 0. -1.
         23    2    1    2    0    0  0.71054273576E-14  0.00000000000E+00  0.00000000000E+00  0.91188000000E+02  0.91188000000E+02 0.  0.
    9900012    2    3    3    0    0 -0.28798396847E+02 -0.81077479625E+01  0.21463833683E+02  0.54367090257E+02  0.40000013859E+02 0.  0.
         12    1    3    3    0    0  0.28798396847E+02  0.81077479625E+01 -0.21463833683E+02  0.36820909743E+02  0.00000000000E+00 0. -1.
         11    1    4    4    0    0 -0.12896187591E+02  0.60765311337E+01  0.28248857504E-01  0.14256110383E+02  0.51100000000E-03 0. -1.
        -11    1    4    4    0    0  0.44967544775E+01 -0.23394860877E+01  0.14745056822E+02  0.15592007469E+02  0.51100000000E-03 0.  1.
        -12    1    4    4    0    0 -0.20398963733E+02 -0.11844793009E+02  0.66905280033E+01  0.24518972405E+02  0.00000000000E+00 0.  1.
</event>
<event>
 8    1  0.1210161E-006  0.9118800E+02  0.7816164E-02  0.1184000E+00
        -11   -1    0    0    0    0  0.00000000000E+00  0.00000000000E+00  0.45593999997E+02  0.45594000000E+02  0.51100000000E-03 0. -1.
         11   -1    0    0    0    0 -0.00000000000E+00 -0.00000000000E+00 -0.45593999997E+02  0.45594000000E+02  0.51100000000E-03 0.  1.
         23    2    1    2    0    0  0.00000000000E+00  0.88817841970E-15 -0.35527136788E-14  0.91188000000E+02  0.91188000000E+02 0.  0.
    9900012    2    3    3    0    0 -0.30683122948E+02  0.35460589123E+01  0.20043735863E+02  0.54367083187E+02  0.39999997741E+02 0.  0.
        -12    1    3    3    0    0  0.30683122948E+02 -0.35460589123E+01 -0.20043735863E+02  0.36820916813E+02  0.00000000000E+00 0.  1.
         11    1    4    4    0    0 -0.13998317832E+02  0.57566379225E+01  0.14026976445E+02  0.20636081284E+02  0.51100000000E-03 0. -1.
        -11    1    4    4    0    0 -0.13844425058E+02 -0.14776649549E+02  0.27024789433E+01  0.20428432876E+02  0.51100000000E-03 0.  1.
        -12    1    4    4    0    0 -0.28403800571E+01  0.12566070538E+02  0.33142804742E+01  0.13302569027E+02  0.00000000000E+00 0.  1.
</event>
<event>
 8    1  0.1210161E-006  0.9118800E+02  0.7816164E-02  0.1184000E+00
        -11   -1    0    0    0    0  0.00000000000E+00  0.00000000000E+00  0.45593999997E+02  0.45594000000E+02  0.51100000000E-03 0.  1.
         11   -1    0    0    0    0 -0.00000000000E+00 -0.00000000000E+00 -0.45593999997E+02  0.45594000000E+02  0.51100000000E-03 0. -1.
         23    2    1    2    0    0  0.00000000000E+00 -0.17763568394E-14  0.00000000000E+00  0.91188000000E+02  0.91188000000E+02 0.  0.
    9900012    2    3    3    0    0  0.29365710972E+02  0.87717166861E+01  0.20408084277E+02  0.54367110571E+02  0.40000060168E+02 0.  0.
         12    1    3    3    0    0 -0.29365710972E+02 -0.87717166861E+01 -0.20408084277E+02  0.36820889429E+02  0.00000000000E+00 0. -1.
         11    1    4    4    0    0  0.24928619456E+01 -0.79712672728E+01  0.28706173799E+01  0.88315291438E+01  0.51100000000E-03 0. -1.
        -11    1    4    4    0    0  0.30049852557E+02  0.20979850647E+02  0.16223602847E+02  0.40079334593E+02  0.51100000000E-03 0.  1.
        -12    1    4    4    0    0 -0.31770035305E+01 -0.42368666879E+01  0.13138640502E+01  0.54562468333E+01  0.00000000000E+00 0.  1.
</event>
<event>
 8    1  0.1210161E-006  0.9118800E+02  0.7816164E-02  0.1184000E+00
        -11   -1    0    0    0    0  0.00000000000E+00  0.00000000000E+00  0.45593999997E+02  0.45594000000E+02  0.51100000000E-03 0.  1.
         11   -1    0    0    0    0 -0.00000000000E+00 -0.00000000000E+00 -0.45593999997E+02  0.45594000000E+02  0.51100000000E-03 0. -1.
         23    2    1    2    0    0 -0.17763568394E-14 -0.35527136788E-14  0.00000000000E+00  0.91188000000E+02  0.91188000000E+02 0.  0.
    9900012    2    3    3    0    0  0.15648569145E+02 -0.16615002093E+02  0.28893652698E+02  0.54367093207E+02  0.40000020585E+02 0.  0.
         12    1    3    3    0    0 -0.15648569145E+02  0.16615002093E+02 -0.28893652698E+02  0.36820906793E+02  0.00000000000E+00 0. -1.
         11    1    4    4    0    0  0.49307168084E+01  0.88264042200E+01  0.43137308727E+01  0.10992072325E+02  0.51100000000E-03 0. -1.
        -11    1    4    4    0    0 -0.62195389902E+01 -0.13045213500E+02  0.12804428476E+02  0.19308382879E+02  0.51100000000E-03 0.  1.
        -12    1    4    4    0    0  0.16937391326E+02 -0.12396192812E+02  0.11775493348E+02  0.24066638003E+02  0.00000000000E+00 0.  1.
</event>
<event>
 8    1  0.1210161E-006  0.9118800E+02  0.7816164E-02  0.1184000E+00
        -11   -1    0    0    0    0  0.00000000000E+00  0.00000000000E+00  0.45593999997E+02  0.45594000000E+02  0.51100000000E-03 0.  1.
         11   -1    0    0    0    0 -0.00000000000E+00 -0.00000000000E+00 -0.45593999997E+02  0.45594000000E+02  0.51100000000E-03 0. -1.
         23    2    1    2    0    0  0.00000000000E+00  0.00000000000E+00 -0.35388358910E-15  0.91188000000E+02  0.91188000000E+02 0.  0.
    9900012    2    3    3    0    0 -0.18418542922E+02 -0.31883151445E+02  0.40204183060E-01  0.54367086299E+02  0.40000004835E+02 0.  0.
         12    1    3    3    0    0  0.18418542922E+02  0.31883151445E+02 -0.40204183060E-01  0.36820913701E+02  0.00000000000E+00 0. -1.
         11    1    4    4    0    0  0.52118024168E+01 -0.15196771286E+02  0.14302146705E+01  0.16129174071E+02  0.51100000000E-03 0. -1.
        -11    1    4    4    0    0  0.17731277782E+01  0.40546943480E+01  0.27070347398E+01  0.51877322326E+01  0.51100000000E-03 0.  1.
         12    1    4    4    0    0 -0.25403473117E+02 -0.20741074507E+02 -0.40970452273E+01  0.33050179995E+02  0.00000000000E+00 0. -1.
</event>
<event>
 8    1  0.1210161E-006  0.9118800E+02  0.7816164E-02  0.1184000E+00
        -11   -1    0    0    0    0  0.00000000000E+00  0.00000000000E+00  0.45593999997E+02  0.45594000000E+02  0.51100000000E-03 0.  1.
         11   -1    0    0    0    0 -0.00000000000E+00 -0.00000000000E+00 -0.45593999997E+02  0.45594000000E+02  0.51100000000E-03 0. -1.
         23    2    1    2    0    0  0.88817841970E-15  0.00000000000E+00  0.17763568394E-14  0.91188000000E+02  0.91188000000E+02 0.  0.
    9900012    2    3    3    0    0 -0.66044478836E+01  0.34777831017E+02 -0.10132394022E+02  0.54367059345E+02  0.39999943388E+02 0.  0.
        -12    1    3    3    0    0  0.66044478836E+01 -0.34777831017E+02  0.10132394022E+02  0.36820940655E+02  0.00000000000E+00 0.  1.
         11    1    4    4    0    0 -0.82335426646E+01  0.22006051225E+01 -0.15775914738E+02  0.17930794009E+02  0.51100000000E-03 0. -1.
        -11    1    4    4    0    0  0.78961339155E+01  0.11115941592E+02  0.18760074271E+01  0.13763447694E+02  0.51100000000E-03 0.  1.
         12    1    4    4    0    0 -0.62670391346E+01  0.21461284303E+02  0.37675132884E+01  0.22672817642E+02  0.00000000000E+00 0. -1.
</event>
<event>
 8    1  0.1210161E-006  0.9118800E+02  0.7816164E-02  0.1184000E+00
        -11   -1    0    0    0    0  0.00000000000E+00  0.00000000000E+00  0.45593999997E+02  0.45594000000E+02  0.51100000000E-03 0.  1.
         11   -1    0    0    0    0 -0.00000000000E+00 -0.00000000000E+00 -0.45593999997E+02  0.45594000000E+02  0.51100000000E-03 0. -1.
         23    2    1    2    0    0  0.00000000000E+00  0.71054273576E-14  0.00000000000E+00  0.91188000000E+02  0.91188000000E+02 0.  0.
    9900012    2    3    3    0    0  0.19413576675E+01 -0.36542600655E+02 -0.40803349341E+01  0.54367086576E+02  0.40000005466E+02 0.  0.
        -12    1    3    3    0    0 -0.19413576675E+01  0.36542600655E+02  0.40803349341E+01  0.36820913424E+02  0.00000000000E+00 0.  1.
         11    1    4    4    0    0  0.63336791835E+01 -0.30118694971E+02 -0.96835060300E+01  0.32264865846E+02  0.51100000000E-03 0. -1.
        -11    1    4    4    0    0 -0.69784911001E+00  0.35562082308E+01  0.99631062226E+01  0.10601749678E+02  0.51100000000E-03 0.  1.
        -12    1    4    4    0    0 -0.36944724060E+01 -0.99801139146E+01 -0.43599351267E+01  0.11500471052E+02  0.00000000000E+00 0.  1.
</event>
<event>
 8    1  0.1210161E-006  0.9118800E+02  0.7816164E-02  0.1184000E+00
        -11   -1    0    0    0    0  0.00000000000E+00  0.00000000000E+00  0.45593999997E+02  0.45594000000E+02  0.51100000000E-03 0.  1.
         11   -1    0    0    0    0 -0.00000000000E+00 -0.00000000000E+00 -0.45593999997E+02  0.45594000000E+02  0.51100000000E-03 0. -1.
         23    2    1    2    0    0  0.00000000000E+00  0.00000000000E+00 -0.35527136788E-14  0.91188000000E+02  0.91188000000E+02 0.  0.
    9900012    2    3    3    0    0 -0.18583988751E+02  0.13209427286E+02  0.28912415706E+02  0.54367063169E+02  0.39999952107E+02 0.  0.
         12    1    3    3    0    0  0.18583988751E+02 -0.13209427286E+02 -0.28912415706E+02  0.36820936831E+02  0.00000000000E+00 0. -1.
         11    1    4    4    0    0 -0.25491596311E+01 -0.59362865890E+01  0.50593337167E+01  0.82057645110E+01  0.51100000000E-03 0. -1.
        -11    1    4    4    0    0 -0.22218589182E+02  0.16635200720E+02  0.27053772164E+02  0.38759543299E+02  0.51100000000E-03 0.  1.
        -12    1    4    4    0    0  0.61837600617E+01  0.25105131553E+01 -0.32006901745E+01  0.74017553592E+01  0.00000000000E+00 0.  1.
</event>
<event>
 8    1  0.1210161E-006  0.9118800E+02  0.7816164E-02  0.1184000E+00
        -11   -1    0    0    0    0  0.00000000000E+00  0.00000000000E+00  0.45593999997E+02  0.45594000000E+02  0.51100000000E-03 0. -1.
         11   -1    0    0    0    0 -0.00000000000E+00 -0.00000000000E+00 -0.45593999997E+02  0.45594000000E+02  0.51100000000E-03 0.  1.
         23    2    1    2    0    0  0.00000000000E+00 -0.13322676296E-14  0.00000000000E+00  0.91188000000E+02  0.91188000000E+02 0.  0.
    9900012    2    3    3    0    0 -0.21299753969E+02  0.26979586194E+01  0.29913363884E+02  0.54367247174E+02  0.40000371580E+02 0.  0.
        -12    1    3    3    0    0  0.21299753969E+02 -0.26979586194E+01 -0.29913363884E+02  0.36820752826E+02  0.00000000000E+00 0.  1.
         11    1    4    4    0    0  0.22828513377E+01  0.10010306577E+02  0.20020144330E+02  0.22499418376E+02  0.51100000000E-03 0. -1.
        -11    1    4    4    0    0 -0.26375655700E+02 -0.71100501213E+01  0.99334058200E+01  0.29067173543E+02  0.51100000000E-03 0.  1.
        -12    1    4    4    0    0  0.27930503937E+01 -0.20229783647E+00 -0.40186266274E-01  0.28006552541E+01  0.00000000000E+00 0.  1.
</event>
<event>
 8    1  0.1210161E-006  0.9118800E+02  0.7816164E-02  0.1184000E+00
        -11   -1    0    0    0    0  0.00000000000E+00  0.00000000000E+00  0.45593999997E+02  0.45594000000E+02  0.51100000000E-03 0. -1.
         11   -1    0    0    0    0 -0.00000000000E+00 -0.00000000000E+00 -0.45593999997E+02  0.45594000000E+02  0.51100000000E-03 0.  1.
         23    2    1    2    0    0 -0.71054273576E-14  0.00000000000E+00  0.00000000000E+00  0.91188000000E+02  0.91188000000E+02 0.  0.
    9900012    2    3    3    0    0  0.35489086275E+02  0.51072098755E+01  0.83796359389E+01  0.54367120925E+02  0.40000083774E+02 0.  0.
         12    1    3    3    0    0 -0.35489086275E+02 -0.51072098755E+01 -0.83796359389E+01  0.36820879075E+02  0.00000000000E+00 0. -1.
         11    1    4    4    0    0  0.10258179768E+02 -0.79492771753E+00  0.16701845569E+02  0.19616671682E+02  0.51100000000E-03 0.  1.
        -11    1    4    4    0    0 -0.24889390759E+01 -0.39922825004E+00  0.32029590478E+01  0.40759229436E+01  0.51100000000E-03 0. -1.
        -12    1    4    4    0    0  0.27719845583E+02  0.63013658431E+01 -0.11525168678E+02  0.30674526300E+02  0.00000000000E+00 0.  1.
</event>
<event>
 8    1  0.1210161E-006  0.9118800E+02  0.7816164E-02  0.1184000E+00
        -11   -1    0    0    0    0  0.00000000000E+00  0.00000000000E+00  0.45593999997E+02  0.45594000000E+02  0.51100000000E-03 0. -1.
         11   -1    0    0    0    0 -0.00000000000E+00 -0.00000000000E+00 -0.45593999997E+02  0.45594000000E+02  0.51100000000E-03 0.  1.
         23    2    1    2    0    0  0.17763568394E-14 -0.17763568394E-14  0.00000000000E+00  0.91188000000E+02  0.91188000000E+02 0.  0.
    9900012    2    3    3    0    0  0.11961947441E+02 -0.13323959966E+02  0.32173958153E+02  0.54367086391E+02  0.40000005046E+02 0.  0.
        -12    1    3    3    0    0 -0.11961947441E+02  0.13323959966E+02 -0.32173958153E+02  0.36820913609E+02  0.00000000000E+00 0.  1.
         11    1    4    4    0    0 -0.15057874210E+01  0.11496694446E+01  0.21684365927E+02  0.21766967210E+02  0.51100000000E-03 0. -1.
        -11    1    4    4    0    0  0.62131629266E+01  0.21218993055E+01  0.12756499594E+02  0.14346920658E+02  0.51100000000E-03 0.  1.
         12    1    4    4    0    0  0.72545719349E+01 -0.16595528716E+02 -0.22669073684E+01  0.18253198523E+02  0.00000000000E+00 0. -1.
</event>
<event>
 8    1  0.1210161E-006  0.9118800E+02  0.7816164E-02  0.1184000E+00
        -11   -1    0    0    0    0  0.00000000000E+00  0.00000000000E+00  0.45593999997E+02  0.45594000000E+02  0.51100000000E-03 0. -1.
         11   -1    0    0    0    0 -0.00000000000E+00 -0.00000000000E+00 -0.45593999997E+02  0.45594000000E+02  0.51100000000E-03 0.  1.
         23    2    1    2    0    0  0.00000000000E+00  0.44408920985E-15  0.17763568394E-14  0.91188000000E+02  0.91188000000E+02 0.  0.
    9900012    2    3    3    0    0  0.34603908052E+02  0.21523699988E+01  0.12398237830E+02  0.54367089495E+02  0.40000012122E+02 0.  0.
        -12    1    3    3    0    0 -0.34603908052E+02 -0.21523699988E+01 -0.12398237830E+02  0.36820910505E+02  0.00000000000E+00 0.  1.
         11    1    4    4    0    0  0.13519463121E+02 -0.10170798271E+02  0.62685167813E+00  0.16929677015E+02  0.51100000000E-03 0. -1.
        -11    1    4    4    0    0  0.10737577184E+02 -0.60652807973E+01 -0.16332336678E+01  0.12439881326E+02  0.51100000000E-03 0.  1.
         12    1    4    4    0    0  0.10346867748E+02  0.18388449067E+02  0.13404619820E+02  0.24997531154E+02  0.00000000000E+00 0. -1.
</event>
<event>
 8    1  0.1210161E-006  0.9118800E+02  0.7816164E-02  0.1184000E+00
        -11   -1    0    0    0    0  0.00000000000E+00  0.00000000000E+00  0.45593999997E+02  0.45594000000E+02  0.51100000000E-03 0.  1.
         11   -1    0    0    0    0 -0.00000000000E+00 -0.00000000000E+00 -0.45593999997E+02  0.45594000000E+02  0.51100000000E-03 0. -1.
         23    2    1    2    0    0  0.00000000000E+00  0.71054273576E-14  0.44408920985E-15  0.91188000000E+02  0.91188000000E+02 0.  0.
    9900012    2    3    3    0    0  0.11697487368E+02 -0.34850765661E+02  0.20911414437E+01  0.54367082705E+02  0.39999996643E+02 0.  0.
         12    1    3    3    0    0 -0.11697487368E+02  0.34850765661E+02 -0.20911414437E+01  0.36820917295E+02  0.00000000000E+00 0. -1.
         11    1    4    4    0    0  0.19919431589E+01 -0.12846613335E+02  0.50374968868E+01  0.13942011579E+02  0.51100000000E-03 0. -1.
        -11    1    4    4    0    0  0.21296601561E+02 -0.12062188916E+02  0.14968839461E+01  0.24521058323E+02  0.51100000000E-03 0.  1.
         12    1    4    4    0    0 -0.11591057351E+02 -0.99419634110E+01 -0.44432393892E+01  0.15904012803E+02  0.00000000000E+00 0. -1.
</event>
<event>
 8    1  0.1210161E-006  0.9118800E+02  0.7816164E-02  0.1184000E+00
        -11   -1    0    0    0    0  0.00000000000E+00  0.00000000000E+00  0.45593999997E+02  0.45594000000E+02  0.51100000000E-03 0. -1.
         11   -1    0    0    0    0 -0.00000000000E+00 -0.00000000000E+00 -0.45593999997E+02  0.45594000000E+02  0.51100000000E-03 0.  1.
         23    2    1    2    0    0 -0.44408920985E-15  0.00000000000E+00  0.00000000000E+00  0.91188000000E+02  0.91188000000E+02 0.  0.
    9900012    2    3    3    0    0  0.37296581931E+01  0.84585764341E+01  0.35641591514E+02  0.54367069659E+02  0.39999966901E+02 0.  0.
        -12    1    3    3    0    0 -0.37296581931E+01 -0.84585764341E+01 -0.35641591514E+02  0.36820930341E+02  0.00000000000E+00 0.  1.
         11    1    4    4    0    0 -0.42221452077E+01  0.15469829159E+02  0.10826204177E+02  0.19348096069E+02  0.51100000000E-03 0. -1.
        -11    1    4    4    0    0 -0.39980846427E+01 -0.95270579819E+01  0.43997613791E+01  0.11229755788E+02  0.51100000000E-03 0.  1.
         12    1    4    4    0    0  0.11949888044E+02  0.25158052572E+01  0.20415625958E+02  0.23789217802E+02  0.00000000000E+00 0. -1.
</event>
<event>
 8    1  0.1210161E-006  0.9118800E+02  0.7816164E-02  0.1184000E+00
        -11   -1    0    0    0    0  0.00000000000E+00  0.00000000000E+00  0.45593999997E+02  0.45594000000E+02  0.51100000000E-03 0.  1.
         11   -1    0    0    0    0 -0.00000000000E+00 -0.00000000000E+00 -0.45593999997E+02  0.45594000000E+02  0.51100000000E-03 0. -1.
         23    2    1    2    0    0 -0.71054273576E-14  0.00000000000E+00 -0.17763568394E-14  0.91188000000E+02  0.91188000000E+02 0.  0.
    9900012    2    3    3    0    0 -0.29742226489E+02  0.15845962964E+02 -0.14835415135E+02  0.54367026072E+02  0.39999867536E+02 0.  0.
        -12    1    3    3    0    0  0.29742226489E+02 -0.15845962964E+02  0.14835415135E+02  0.36820973928E+02  0.00000000000E+00 0.  1.
         11    1    4    4    0    0 -0.27506458219E+02  0.11037360429E+02 -0.15088632717E+02  0.33258012667E+02  0.51100000000E-03 0. -1.
        -11    1    4    4    0    0 -0.57852818397E+01  0.94732304415E+01 -0.59335637019E+01  0.12586451423E+02  0.51100000000E-03 0.  1.
        -12    1    4    4    0    0  0.35495135701E+01 -0.46646279068E+01  0.61867812833E+01  0.85225619822E+01  0.00000000000E+00 0.  1.
</event>
<event>
 8    1  0.1210161E-006  0.9118800E+02  0.7816164E-02  0.1184000E+00
        -11   -1    0    0    0    0  0.00000000000E+00  0.00000000000E+00  0.45593999997E+02  0.45594000000E+02  0.51100000000E-03 0. -1.
         11   -1    0    0    0    0 -0.00000000000E+00 -0.00000000000E+00 -0.45593999997E+02  0.45594000000E+02  0.51100000000E-03 0.  1.
         23    2    1    2    0    0  0.71054273576E-14 -0.22204460493E-14  0.17763568394E-14  0.91188000000E+02  0.91188000000E+02 0.  0.
    9900012    2    3    3    0    0 -0.35384843367E+02  0.30084126430E+01 -0.97284577213E+01  0.54367074206E+02  0.39999977266E+02 0.  0.
         12    1    3    3    0    0  0.35384843367E+02 -0.30084126430E+01  0.97284577213E+01  0.36820925794E+02  0.00000000000E+00 0. -1.
         11    1    4    4    0    0  0.50871939974E+00 -0.62439482039E+01  0.92054003990E+01  0.11134858839E+02  0.51100000000E-03 0. -1.
        -11    1    4    4    0    0 -0.29716583088E+02  0.12072211716E+02 -0.15564548513E+02  0.35652051509E+02  0.51100000000E-03 0.  1.
         12    1    4    4    0    0 -0.61769796790E+01 -0.28198508692E+01 -0.33693096075E+01  0.75801638577E+01  0.00000000000E+00 0. -1.
</event>
<event>
 8    1  0.1210161E-006  0.9118800E+02  0.7816164E-02  0.1184000E+00
        -11   -1    0    0    0    0  0.00000000000E+00  0.00000000000E+00  0.45593999997E+02  0.45594000000E+02  0.51100000000E-03 0. -1.
         11   -1    0    0    0    0 -0.00000000000E+00 -0.00000000000E+00 -0.45593999997E+02  0.45594000000E+02  0.51100000000E-03 0.  1.
         23    2    1    2    0    0 -0.88817841970E-15  0.00000000000E+00  0.71054273576E-14  0.91188000000E+02  0.91188000000E+02 0.  0.
    9900012    2    3    3    0    0 -0.76368494383E+01 -0.25131188221E+02  0.25804670260E+02  0.54367094280E+02  0.40000023031E+02 0.  0.
        -12    1    3    3    0    0  0.76368494383E+01  0.25131188221E+02 -0.25804670260E+02  0.36820905720E+02  0.00000000000E+00 0.  1.
         11    1    4    4    0    0 -0.12208518939E+01 -0.13408549757E+02  0.79639076885E+01  0.15643002009E+02  0.51100000000E-03 0. -1.
        -11    1    4    4    0    0  0.37506828159E+01 -0.13163910653E+02 -0.42757626809E+01  0.14340094561E+02  0.51100000000E-03 0.  1.
         12    1    4    4    0    0 -0.10166680360E+02  0.14412721880E+01  0.22116525253E+02  0.24383997710E+02  0.00000000000E+00 0. -1.
</event>
<event>
 8    1  0.1210161E-006  0.9118800E+02  0.7816164E-02  0.1184000E+00
        -11   -1    0    0    0    0  0.00000000000E+00  0.00000000000E+00  0.45593999997E+02  0.45594000000E+02  0.51100000000E-03 0. -1.
         11   -1    0    0    0    0 -0.00000000000E+00 -0.00000000000E+00 -0.45593999997E+02  0.45594000000E+02  0.51100000000E-03 0.  1.
         23    2    1    2    0    0  0.00000000000E+00  0.17763568394E-14  0.35527136788E-14  0.91188000000E+02  0.91188000000E+02 0.  0.
    9900012    2    3    3    0    0 -0.15939643568E+02  0.14604293939E+02  0.29806413415E+02  0.54367083129E+02  0.39999997609E+02 0.  0.
        -12    1    3    3    0    0  0.15939643568E+02 -0.14604293939E+02 -0.29806413415E+02  0.36820916871E+02  0.00000000000E+00 0.  1.
         11    1    4    4    0    0  0.62925326130E+01  0.85233080160E+01  0.19690775606E+02  0.22359995314E+02  0.51100000000E-03 0.  1.
        -11    1    4    4    0    0 -0.10720851520E+02 -0.59561666616E+01  0.91909583996E+01  0.15326000626E+02  0.51100000000E-03 0. -1.
         12    1    4    4    0    0 -0.11511324661E+02  0.12037152585E+02  0.92467940966E+00  0.16681087189E+02  0.00000000000E+00 0. -1.
</event>
<event>
 8    1  0.1210161E-006  0.9118800E+02  0.7816164E-02  0.1184000E+00
        -11   -1    0    0    0    0  0.00000000000E+00  0.00000000000E+00  0.45593999997E+02  0.45594000000E+02  0.51100000000E-03 0.  1.
         11   -1    0    0    0    0 -0.00000000000E+00 -0.00000000000E+00 -0.45593999997E+02  0.45594000000E+02  0.51100000000E-03 0. -1.
         23    2    1    2    0    0  0.26645352591E-14  0.00000000000E+00 -0.35527136788E-14  0.91188000000E+02  0.91188000000E+02 0.  0.
    9900012    2    3    3    0    0 -0.39538062594E+01 -0.19873418972E+02  0.30743979750E+02  0.54367113856E+02  0.40000067656E+02 0.  0.
         12    1    3    3    0    0  0.39538062594E+01  0.19873418972E+02 -0.30743979750E+02  0.36820886144E+02  0.00000000000E+00 0. -1.
         11    1    4    4    0    0  0.44535373901E+01 -0.53827373926E+00  0.43446670720E+01  0.62449872803E+01  0.51100000000E-03 0. -1.
        -11    1    4    4    0    0  0.58247548099E+01 -0.68620645790E+01  0.27726911676E+02  0.29151283509E+02  0.51100000000E-03 0.  1.
         12    1    4    4    0    0 -0.14232098459E+02 -0.12473080654E+02 -0.13275989973E+01  0.18970843066E+02  0.00000000000E+00 0. -1.
</event>
<event>
 8    1  0.1210161E-006  0.9118800E+02  0.7816164E-02  0.1184000E+00
        -11   -1    0    0    0    0  0.00000000000E+00  0.00000000000E+00  0.45593999997E+02  0.45594000000E+02  0.51100000000E-03 0.  1.
         11   -1    0    0    0    0 -0.00000000000E+00 -0.00000000000E+00 -0.45593999997E+02  0.45594000000E+02  0.51100000000E-03 0. -1.
         23    2    1    2    0    0  0.35527136788E-14  0.00000000000E+00  0.35527136788E-14  0.91188000000E+02  0.91188000000E+02 0.  0.
    9900012    2    3    3    0    0 -0.28171902943E+02 -0.14816953841E+02 -0.18508948340E+02  0.54367090109E+02  0.40000013521E+02 0.  0.
        -12    1    3    3    0    0  0.28171902943E+02  0.14816953841E+02  0.18508948340E+02  0.36820909891E+02  0.00000000000E+00 0.  1.
         11    1    4    4    0    0  0.17850477947E+01 -0.62217975824E-02  0.18434997079E+01  0.25661110214E+01  0.51100000000E-03 0. -1.
        -11    1    4    4    0    0  0.44969700537E+01 -0.40182634609E+01  0.48759802173E+01  0.77552797658E+01  0.51100000000E-03 0.  1.
         12    1    4    4    0    0 -0.34453920792E+02 -0.10792468582E+02 -0.25228428265E+02  0.44045699322E+02  0.00000000000E+00 0. -1.
</event>
<event>
 8    1  0.1210161E-006  0.9118800E+02  0.7816164E-02  0.1184000E+00
        -11   -1    0    0    0    0  0.00000000000E+00  0.00000000000E+00  0.45593999997E+02  0.45594000000E+02  0.51100000000E-03 0. -1.
         11   -1    0    0    0    0 -0.00000000000E+00 -0.00000000000E+00 -0.45593999997E+02  0.45594000000E+02  0.51100000000E-03 0.  1.
         23    2    1    2    0    0  0.00000000000E+00  0.00000000000E+00  0.00000000000E+00  0.91188000000E+02  0.91188000000E+02 0.  0.
    9900012    2    3    3    0    0 -0.28276149488E+02 -0.10285104840E+02  0.21223932064E+02  0.54367091488E+02  0.40000016665E+02 0.  0.
        -12    1    3    3    0    0  0.28276149488E+02  0.10285104840E+02 -0.21223932064E+02  0.36820908512E+02  0.00000000000E+00 0.  1.
         11    1    4    4    0    0 -0.24543336424E+02 -0.27066990214E+01  0.26737666484E+01  0.24836477423E+02  0.51100000000E-03 0. -1.
        -11    1    4    4    0    0  0.25015690589E+01  0.46636828377E+01  0.14146404301E+02  0.15103924665E+02  0.51100000000E-03 0.  1.
        -12    1    4    4    0    0 -0.62343821224E+01 -0.12242088656E+02  0.44037611147E+01  0.14426689401E+02  0.00000000000E+00 0.  1.
</event>
<event>
 8    1  0.1210161E-006  0.9118800E+02  0.7816164E-02  0.1184000E+00
        -11   -1    0    0    0    0  0.00000000000E+00  0.00000000000E+00  0.45593999997E+02  0.45594000000E+02  0.51100000000E-03 0.  1.
         11   -1    0    0    0    0 -0.00000000000E+00 -0.00000000000E+00 -0.45593999997E+02  0.45594000000E+02  0.51100000000E-03 0. -1.
         23    2    1    2    0    0  0.17763568394E-14 -0.88817841970E-15 -0.71054273576E-14  0.91188000000E+02  0.91188000000E+02 0.  0.
    9900012    2    3    3    0    0  0.74930421537E+01 -0.44404023597E+01 -0.35775922485E+02  0.54367089046E+02  0.40000011099E+02 0.  0.
        -12    1    3    3    0    0 -0.74930421537E+01  0.44404023597E+01  0.35775922485E+02  0.36820910954E+02  0.00000000000E+00 0.  1.
         11    1    4    4    0    0 -0.14290224062E+02  0.69385206724E+01 -0.15746082722E+02  0.22367223659E+02  0.51100000000E-03 0. -1.
        -11    1    4    4    0    0  0.11436889385E+02 -0.55500182349E+01 -0.13082492300E+02  0.18241621262E+02  0.51100000000E-03 0.  1.
         12    1    4    4    0    0  0.10346376830E+02 -0.58289047973E+01 -0.69473474620E+01  0.13758244125E+02  0.00000000000E+00 0. -1.
</event>
<event>
 8    1  0.1210161E-006  0.9118800E+02  0.7816164E-02  0.1184000E+00
        -11   -1    0    0    0    0  0.00000000000E+00  0.00000000000E+00  0.45593999997E+02  0.45594000000E+02  0.51100000000E-03 0.  1.
         11   -1    0    0    0    0 -0.00000000000E+00 -0.00000000000E+00 -0.45593999997E+02  0.45594000000E+02  0.51100000000E-03 0. -1.
         23    2    1    2    0    0  0.00000000000E+00 -0.44408920985E-15  0.00000000000E+00  0.91188000000E+02  0.91188000000E+02 0.  0.
    9900012    2    3    3    0    0 -0.30815711514E+02 -0.36785156474E+01 -0.19814993385E+02  0.54367170076E+02  0.40000195821E+02 0.  0.
         12    1    3    3    0    0  0.30815711514E+02  0.36785156474E+01  0.19814993385E+02  0.36820829924E+02  0.00000000000E+00 0. -1.
         11    1    4    4    0    0 -0.13038297768E+02 -0.20524205250E+02 -0.40188008618E+01  0.24645303213E+02  0.51100000000E-03 0. -1.
        -11    1    4    4    0    0 -0.11287099169E+02  0.83237593771E+01 -0.61758028590E+01  0.15323972038E+02  0.51100000000E-03 0.  1.
         12    1    4    4    0    0 -0.64903145774E+01  0.85219302259E+01 -0.96203896642E+01  0.14397894825E+02  0.00000000000E+00 0. -1.
</event>
<event>
 8    1  0.1210161E-006  0.9118800E+02  0.7816164E-02  0.1184000E+00
        -11   -1    0    0    0    0  0.00000000000E+00  0.00000000000E+00  0.45593999997E+02  0.45594000000E+02  0.51100000000E-03 0.  1.
         11   -1    0    0    0    0 -0.00000000000E+00 -0.00000000000E+00 -0.45593999997E+02  0.45594000000E+02  0.51100000000E-03 0. -1.
         23    2    1    2    0    0 -0.35527136788E-14  0.00000000000E+00 -0.35527136788E-14  0.91188000000E+02  0.91188000000E+02 0.  0.
    9900012    2    3    3    0    0 -0.16594974495E+02  0.11402177328E+02 -0.30828188806E+02  0.54367081334E+02  0.39999993518E+02 0.  0.
        -12    1    3    3    0    0  0.16594974495E+02 -0.11402177328E+02  0.30828188806E+02  0.36820918666E+02  0.00000000000E+00 0.  1.
         11    1    4    4    0    0 -0.29290778701E+01 -0.13463162598E+01 -0.26621320784E+02  0.26815793577E+02  0.51100000000E-03 0. -1.
        -11    1    4    4    0    0  0.21502630847E+01  0.83732259055E+01 -0.67202966589E+01  0.10949745698E+02  0.51100000000E-03 0.  1.
        -12    1    4    4    0    0 -0.15816159709E+02  0.43752676822E+01  0.25134286365E+01  0.16601542060E+02  0.00000000000E+00 0.  1.
</event>
<event>
 8    1  0.1210161E-006  0.9118800E+02  0.7816164E-02  0.1184000E+00
        -11   -1    0    0    0    0  0.00000000000E+00  0.00000000000E+00  0.45593999997E+02  0.45594000000E+02  0.51100000000E-03 0. -1.
         11   -1    0    0    0    0 -0.00000000000E+00 -0.00000000000E+00 -0.45593999997E+02  0.45594000000E+02  0.51100000000E-03 0.  1.
         23    2    1    2    0    0  0.00000000000E+00 -0.35527136788E-14 -0.44408920985E-15  0.91188000000E+02  0.91188000000E+02 0.  0.
    9900012    2    3    3    0    0  0.24857083790E+02  0.27158445153E+02 -0.56991064020E+00  0.54367074485E+02  0.39999977903E+02 0.  0.
         12    1    3    3    0    0 -0.24857083790E+02 -0.27158445153E+02  0.56991064020E+00  0.36820925515E+02  0.00000000000E+00 0. -1.
         11    1    4    4    0    0  0.30143331226E+02  0.10832074131E+02  0.78056250872E+00  0.32040030048E+02  0.51100000000E-03 0. -1.
        -11    1    4    4    0    0 -0.52116272552E+01  0.15103475108E+02 -0.63400088046E+01  0.17189291169E+02  0.51100000000E-03 0.  1.
         12    1    4    4    0    0 -0.74620181009E-01  0.12228959144E+01  0.49895356557E+01  0.51377532686E+01  0.00000000000E+00 0. -1.
</event>
<event>
 8    1  0.1210161E-006  0.9118800E+02  0.7816164E-02  0.1184000E+00
        -11   -1    0    0    0    0  0.00000000000E+00  0.00000000000E+00  0.45593999997E+02  0.45594000000E+02  0.51100000000E-03 0.  1.
         11   -1    0    0    0    0 -0.00000000000E+00 -0.00000000000E+00 -0.45593999997E+02  0.45594000000E+02  0.51100000000E-03 0. -1.
         23    2    1    2    0    0  0.00000000000E+00 -0.17763568394E-14  0.35527136788E-14  0.91188000000E+02  0.91188000000E+02 0.  0.
    9900012    2    3    3    0    0  0.25675265534E+02 -0.15767508185E+02  0.21164731209E+02  0.54367089884E+02  0.40000013009E+02 0.  0.
        -12    1    3    3    0    0 -0.25675265534E+02  0.15767508185E+02 -0.21164731209E+02  0.36820910116E+02  0.00000000000E+00 0.  1.
         11    1    4    4    0    0  0.76022520240E+01  0.82362961321E+01  0.70143217734E+00  0.11230441540E+02  0.51100000000E-03 0. -1.
        -11    1    4    4    0    0  0.14444335567E+01 -0.19327692309E+02  0.51537671330E+01  0.20055108931E+02  0.51100000000E-03 0.  1.
         12    1    4    4    0    0  0.16628579954E+02 -0.46761120076E+01  0.15309531898E+02  0.23081539414E+02  0.00000000000E+00 0. -1.
</event>
<event>
 8    1  0.1210161E-006  0.9118800E+02  0.7816164E-02  0.1184000E+00
        -11   -1    0    0    0    0  0.00000000000E+00  0.00000000000E+00  0.45593999997E+02  0.45594000000E+02  0.51100000000E-03 0.  1.
         11   -1    0    0    0    0 -0.00000000000E+00 -0.00000000000E+00 -0.45593999997E+02  0.45594000000E+02  0.51100000000E-03 0. -1.
         23    2    1    2    0    0  0.00000000000E+00  0.00000000000E+00  0.88817841970E-15  0.91188000000E+02  0.91188000000E+02 0.  0.
    9900012    2    3    3    0    0 -0.25073770838E+02 -0.26922876799E+02 -0.14993263213E+01  0.54367037783E+02  0.39999894233E+02 0.  0.
        -12    1    3    3    0    0  0.25073770838E+02  0.26922876799E+02  0.14993263213E+01  0.36820962217E+02  0.00000000000E+00 0.  1.
         11    1    4    4    0    0 -0.11532085590E+01 -0.27388961558E+02 -0.90498617814E+01  0.28868410135E+02  0.51100000000E-03 0. -1.
        -11    1    4    4    0    0 -0.14303945983E+02  0.14047306293E+01  0.65168537363E+01  0.15781176183E+02  0.51100000000E-03 0.  1.
         12    1    4    4    0    0 -0.96166162965E+01 -0.93864586999E+00  0.10336817238E+01  0.97174514647E+01  0.00000000000E+00 0. -1.
</event>
<event>
 8    1  0.1210161E-006  0.9118800E+02  0.7816164E-02  0.1184000E+00
        -11   -1    0    0    0    0  0.00000000000E+00  0.00000000000E+00  0.45593999997E+02  0.45594000000E+02  0.51100000000E-03 0.  1.
         11   -1    0    0    0    0 -0.00000000000E+00 -0.00000000000E+00 -0.45593999997E+02  0.45594000000E+02  0.51100000000E-03 0. -1.
         23    2    1    2    0    0  0.35527136788E-14  0.00000000000E+00  0.35527136788E-14  0.91188000000E+02  0.91188000000E+02 0.  0.
    9900012    2    3    3    0    0  0.19267949796E+02 -0.20558455361E+02  0.23703921828E+02  0.54367083577E+02  0.39999998631E+02 0.  0.
         12    1    3    3    0    0 -0.19267949796E+02  0.20558455361E+02 -0.23703921828E+02  0.36820916423E+02  0.00000000000E+00 0. -1.
         11    1    4    4    0    0 -0.62243526609E+01  0.64039309698E+00  0.13633608914E+02  0.15000932026E+02  0.51100000000E-03 0. -1.
        -11    1    4    4    0    0  0.14838234197E+01 -0.27961351151E+01  0.85057156032E+01  0.90756433219E+01  0.51100000000E-03 0.  1.
        -12    1    4    4    0    0  0.24008479037E+02 -0.18402713343E+02  0.15645973110E+01  0.30290508229E+02  0.00000000000E+00 0.  1.
</event>
<event>
 8    1  0.1210161E-006  0.9118800E+02  0.7816164E-02  0.1184000E+00
        -11   -1    0    0    0    0  0.00000000000E+00  0.00000000000E+00  0.45593999997E+02  0.45594000000E+02  0.51100000000E-03 0. -1.
         11   -1    0    0    0    0 -0.00000000000E+00 -0.00000000000E+00 -0.45593999997E+02  0.45594000000E+02  0.51100000000E-03 0.  1.
         23    2    1    2    0    0  0.00000000000E+00  0.00000000000E+00  0.35527136788E-14  0.91188000000E+02  0.91188000000E+02 0.  0.
    9900012    2    3    3    0    0 -0.96146484743E+01 -0.20384344222E+02  0.29117298368E+02  0.54367081776E+02  0.39999994524E+02 0.  0.
         12    1    3    3    0    0  0.96146484743E+01  0.20384344222E+02 -0.29117298368E+02  0.36820918224E+02  0.00000000000E+00 0. -1.
         11    1    4    4    0    0  0.43982495067E+01  0.77365451835E+01  0.11055520203E+02  0.14192366163E+02  0.51100000000E-03 0. -1.
        -11    1    4    4    0    0 -0.15844039639E+02 -0.19082354609E+02  0.69970849381E+01  0.25770701337E+02  0.51100000000E-03 0.  1.
        -12    1    4    4    0    0  0.18311416582E+01 -0.90385347962E+01  0.11064693227E+02  0.14404014275E+02  0.00000000000E+00 0.  1.
</event>
<event>
 8    1  0.1210161E-006  0.9118800E+02  0.7816164E-02  0.1184000E+00
        -11   -1    0    0    0    0  0.00000000000E+00  0.00000000000E+00  0.45593999997E+02  0.45594000000E+02  0.51100000000E-03 0.  1.
         11   -1    0    0    0    0 -0.00000000000E+00 -0.00000000000E+00 -0.45593999997E+02  0.45594000000E+02  0.51100000000E-03 0. -1.
         23    2    1    2    0    0 -0.17763568394E-14  0.88817841970E-15  0.00000000000E+00  0.91188000000E+02  0.91188000000E+02 0.  0.
    9900012    2    3    3    0    0 -0.10623294806E+02 -0.56120673108E+01  0.34805596147E+02  0.54367092689E+02  0.40000019404E+02 0.  0.
         12    1    3    3    0    0  0.10623294806E+02  0.56120673108E+01 -0.34805596147E+02  0.36820907311E+02  0.00000000000E+00 0. -1.
         11    1    4    4    0    0 -0.48664557306E+01 -0.44505364946E+01  0.23414920646E+01  0.69980177063E+01  0.51100000000E-03 0. -1.
        -11    1    4    4    0    0 -0.15907255997E+02  0.66025672614E+01  0.29641096042E+02  0.34281616978E+02  0.51100000000E-03 0.  1.
        -12    1    4    4    0    0  0.10150416922E+02 -0.77640980776E+01  0.28230080408E+01  0.13087458005E+02  0.00000000000E+00 0.  1.
</event>
<event>
 8    1  0.1210161E-006  0.9118800E+02  0.7816164E-02  0.1184000E+00
        -11   -1    0    0    0    0  0.00000000000E+00  0.00000000000E+00  0.45593999997E+02  0.45594000000E+02  0.51100000000E-03 0.  1.
         11   -1    0    0    0    0 -0.00000000000E+00 -0.00000000000E+00 -0.45593999997E+02  0.45594000000E+02  0.51100000000E-03 0. -1.
         23    2    1    2    0    0  0.00000000000E+00  0.35527136788E-14 -0.35527136788E-14  0.91188000000E+02  0.91188000000E+02 0.  0.
    9900012    2    3    3    0    0 -0.94383481933E+01  0.17902742237E+02  0.30760199598E+02  0.54367075575E+02  0.39999980388E+02 0.  0.
         12    1    3    3    0    0  0.94383481933E+01 -0.17902742237E+02 -0.30760199598E+02  0.36820924425E+02  0.00000000000E+00 0. -1.
         11    1    4    4    0    0  0.26438856458E+01 -0.17660483211E+00  0.68871025173E+01  0.73792616108E+01  0.51100000000E-03 0. -1.
        -11    1    4    4    0    0 -0.38576756871E+01  0.52595562114E+00 -0.84465212969E+01  0.93006458540E+01  0.51100000000E-03 0.  1.
        -12    1    4    4    0    0 -0.82245581520E+01  0.17553391448E+02  0.32319618377E+02  0.37687168110E+02  0.00000000000E+00 0.  1.
</event>
<event>
 8    1  0.1210161E-006  0.9118800E+02  0.7816164E-02  0.1184000E+00
        -11   -1    0    0    0    0  0.00000000000E+00  0.00000000000E+00  0.45593999997E+02  0.45594000000E+02  0.51100000000E-03 0.  1.
         11   -1    0    0    0    0 -0.00000000000E+00 -0.00000000000E+00 -0.45593999997E+02  0.45594000000E+02  0.51100000000E-03 0. -1.
         23    2    1    2    0    0  0.00000000000E+00  0.00000000000E+00  0.00000000000E+00  0.91188000000E+02  0.91188000000E+02 0.  0.
    9900012    2    3    3    0    0  0.58880673610E+01  0.35134337131E+02  0.93106442276E+01  0.54367094541E+02  0.40000023624E+02 0.  0.
         12    1    3    3    0    0 -0.58880673610E+01 -0.35134337131E+02 -0.93106442276E+01  0.36820905459E+02  0.00000000000E+00 0. -1.
         11    1    4    4    0    0  0.73274871761E+01  0.65334098984E+01 -0.48951507108E+01  0.10969959615E+02  0.51100000000E-03 0. -1.
        -11    1    4    4    0    0 -0.91662506183E+01  0.26967137553E+02  0.18925364585E+02  0.34196726205E+02  0.51100000000E-03 0.  1.
        -12    1    4    4    0    0  0.77268308032E+01  0.16337896803E+01 -0.47195696465E+01  0.92004087208E+01  0.00000000000E+00 0.  1.
</event>
<event>
 8    1  0.1210161E-006  0.9118800E+02  0.7816164E-02  0.1184000E+00
        -11   -1    0    0    0    0  0.00000000000E+00  0.00000000000E+00  0.45593999997E+02  0.45594000000E+02  0.51100000000E-03 0. -1.
         11   -1    0    0    0    0 -0.00000000000E+00 -0.00000000000E+00 -0.45593999997E+02  0.45594000000E+02  0.51100000000E-03 0.  1.
         23    2    1    2    0    0 -0.88817841970E-15  0.00000000000E+00  0.00000000000E+00  0.91188000000E+02  0.91188000000E+02 0.  0.
    9900012    2    3    3    0    0 -0.46939189001E+01 -0.18660804841E+02 -0.31393010841E+02  0.54367086898E+02  0.40000006202E+02 0.  0.
         12    1    3    3    0    0  0.46939189001E+01  0.18660804841E+02  0.31393010841E+02  0.36820913102E+02  0.00000000000E+00 0. -1.
         11    1    4    4    0    0  0.78797601502E-01 -0.10047632471E+01  0.65540141019E+01  0.66310526580E+01  0.51100000000E-03 0. -1.
        -11    1    4    4    0    0  0.50072034023E+01 -0.16298285805E+02 -0.31863975924E+02  0.36138887200E+02  0.51100000000E-03 0.  1.
        -12    1    4    4    0    0 -0.97799199039E+01 -0.13577557894E+01 -0.60830490187E+01  0.11597147040E+02  0.00000000000E+00 0.  1.
</event>
<event>
 8    1  0.1210161E-006  0.9118800E+02  0.7816164E-02  0.1184000E+00
        -11   -1    0    0    0    0  0.00000000000E+00  0.00000000000E+00  0.45593999997E+02  0.45594000000E+02  0.51100000000E-03 0.  1.
         11   -1    0    0    0    0 -0.00000000000E+00 -0.00000000000E+00 -0.45593999997E+02  0.45594000000E+02  0.51100000000E-03 0. -1.
         23    2    1    2    0    0 -0.66613381478E-15  0.00000000000E+00  0.00000000000E+00  0.91188000000E+02  0.91188000000E+02 0.  0.
    9900012    2    3    3    0    0 -0.17002952181E+01 -0.15853548426E+02 -0.33189666309E+02  0.54367082694E+02  0.39999996618E+02 0.  0.
        -12    1    3    3    0    0  0.17002952181E+01  0.15853548426E+02  0.33189666309E+02  0.36820917306E+02  0.00000000000E+00 0.  1.
         11    1    4    4    0    0 -0.13759148002E+02  0.50499216622E+01 -0.23620900583E+02  0.27798611605E+02  0.51100000000E-03 0. -1.
        -11    1    4    4    0    0  0.51324252157E+01 -0.91458275288E+01 -0.11887821338E+01  0.10554674462E+02  0.51100000000E-03 0.  1.
         12    1    4    4    0    0  0.69264275685E+01 -0.11757642559E+02 -0.83799835920E+01  0.16013796627E+02  0.00000000000E+00 0. -1.
</event>
<event>
 8    1  0.1210161E-006  0.9118800E+02  0.7816164E-02  0.1184000E+00
        -11   -1    0    0    0    0  0.00000000000E+00  0.00000000000E+00  0.45593999997E+02  0.45594000000E+02  0.51100000000E-03 0.  1.
         11   -1    0    0    0    0 -0.00000000000E+00 -0.00000000000E+00 -0.45593999997E+02  0.45594000000E+02  0.51100000000E-03 0. -1.
         23    2    1    2    0    0  0.44408920985E-14  0.00000000000E+00  0.71054273576E-14  0.91188000000E+02  0.91188000000E+02 0.  0.
    9900012    2    3    3    0    0  0.61043448914E+01 -0.15410483427E+01  0.36278680119E+02  0.54367075409E+02  0.39999980010E+02 0.  0.
         12    1    3    3    0    0 -0.61043448914E+01  0.15410483427E+01 -0.36278680119E+02  0.36820924591E+02  0.00000000000E+00 0. -1.
         11    1    4    4    0    0 -0.13608267640E+02 -0.22433291012E+01  0.21917196000E+02  0.25895577892E+02  0.51100000000E-03 0. -1.
        -11    1    4    4    0    0  0.87841523938E+01  0.13778271395E+01 -0.16805456871E+01  0.90489764599E+01  0.51100000000E-03 0.  1.
         12    1    4    4    0    0  0.10928460138E+02 -0.67554638093E+00  0.16042029806E+02  0.19422521057E+02  0.00000000000E+00 0. -1.
</event>
<event>
 8    1  0.1210161E-006  0.9118800E+02  0.7816164E-02  0.1184000E+00
        -11   -1    0    0    0    0  0.00000000000E+00  0.00000000000E+00  0.45593999997E+02  0.45594000000E+02  0.51100000000E-03 0. -1.
         11   -1    0    0    0    0 -0.00000000000E+00 -0.00000000000E+00 -0.45593999997E+02  0.45594000000E+02  0.51100000000E-03 0.  1.
         23    2    1    2    0    0  0.17763568394E-14 -0.17763568394E-14  0.00000000000E+00  0.91188000000E+02  0.91188000000E+02 0.  0.
    9900012    2    3    3    0    0  0.12647229566E+02 -0.12641903036E+02 -0.32187114800E+02  0.54367075416E+02  0.39999980025E+02 0.  0.
         12    1    3    3    0    0 -0.12647229566E+02  0.12641903036E+02  0.32187114800E+02  0.36820924584E+02  0.00000000000E+00 0. -1.
         11    1    4    4    0    0 -0.50267830245E+00  0.55725491012E+01  0.48311345918E+01  0.73922831836E+01  0.51100000000E-03 0. -1.
        -11    1    4    4    0    0  0.80675142874E+01 -0.34039039512E+01 -0.25553557847E+01  0.91214687597E+01  0.51100000000E-03 0.  1.
         12    1    4    4    0    0  0.50823935815E+01 -0.14810548186E+02 -0.34462893607E+02  0.37853323472E+02  0.00000000000E+00 0. -1.
</event>
<event>
 8    1  0.1210161E-006  0.9118800E+02  0.7816164E-02  0.1184000E+00
        -11   -1    0    0    0    0  0.00000000000E+00  0.00000000000E+00  0.45593999997E+02  0.45594000000E+02  0.51100000000E-03 0.  1.
         11   -1    0    0    0    0 -0.00000000000E+00 -0.00000000000E+00 -0.45593999997E+02  0.45594000000E+02  0.51100000000E-03 0. -1.
         23    2    1    2    0    0 -0.22204460493E-15  0.00000000000E+00  0.00000000000E+00  0.91188000000E+02  0.91188000000E+02 0.  0.
    9900012    2    3    3    0    0 -0.11335611143E+01 -0.23875911196E+02  0.28007797549E+02  0.54367070900E+02  0.39999969732E+02 0.  0.
         12    1    3    3    0    0  0.11335611143E+01  0.23875911196E+02 -0.28007797549E+02  0.36820929100E+02  0.00000000000E+00 0. -1.
         11    1    4    4    0    0 -0.13028656007E+01 -0.14746697726E+02  0.32739200423E+00  0.14807759398E+02  0.51100000000E-03 0. -1.
        -11    1    4    4    0    0 -0.76770241916E+01 -0.16037351160E+02  0.18269878607E+02  0.25493563839E+02  0.51100000000E-03 0.  1.
         12    1    4    4    0    0  0.78463286779E+01  0.69081376906E+01  0.94105269380E+01  0.14065747663E+02  0.00000000000E+00 0. -1.
</event>
<event>
 8    1  0.1210161E-006  0.9118800E+02  0.7816164E-02  0.1184000E+00
        -11   -1    0    0    0    0  0.00000000000E+00  0.00000000000E+00  0.45593999997E+02  0.45594000000E+02  0.51100000000E-03 0.  1.
         11   -1    0    0    0    0 -0.00000000000E+00 -0.00000000000E+00 -0.45593999997E+02  0.45594000000E+02  0.51100000000E-03 0. -1.
         23    2    1    2    0    0  0.00000000000E+00  0.00000000000E+00 -0.88817841970E-15  0.91188000000E+02  0.91188000000E+02 0.  0.
    9900012    2    3    3    0    0 -0.11642664784E+02 -0.34304998628E+02  0.65875209725E+01  0.54367081941E+02  0.39999994900E+02 0.  0.
         12    1    3    3    0    0  0.11642664784E+02  0.34304998628E+02 -0.65875209725E+01  0.36820918059E+02  0.00000000000E+00 0. -1.
         11    1    4    4    0    0  0.10919330769E+02 -0.24318554649E+02  0.10504317926E+02  0.28652479474E+02  0.51100000000E-03 0. -1.
        -11    1    4    4    0    0 -0.16187338376E+01 -0.47926737912E+00  0.12994287441E+01  0.21303783184E+01  0.51100000000E-03 0.  1.
         12    1    4    4    0    0 -0.20943261715E+02 -0.95071766004E+01 -0.52162256973E+01  0.23584224149E+02  0.00000000000E+00 0. -1.
</event>
<event>
 8    1  0.1210161E-006  0.9118800E+02  0.7816164E-02  0.1184000E+00
        -11   -1    0    0    0    0  0.00000000000E+00  0.00000000000E+00  0.45593999997E+02  0.45594000000E+02  0.51100000000E-03 0.  1.
         11   -1    0    0    0    0 -0.00000000000E+00 -0.00000000000E+00 -0.45593999997E+02  0.45594000000E+02  0.51100000000E-03 0. -1.
         23    2    1    2    0    0  0.00000000000E+00  0.17763568394E-14 -0.35527136788E-14  0.91188000000E+02  0.91188000000E+02 0.  0.
    9900012    2    3    3    0    0 -0.13179594421E+02  0.13721754590E+02  0.31524447343E+02  0.54367095090E+02  0.40000024876E+02 0.  0.
         12    1    3    3    0    0  0.13179594421E+02 -0.13721754590E+02 -0.31524447343E+02  0.36820904910E+02  0.00000000000E+00 0. -1.
         11    1    4    4    0    0 -0.10744900576E+02 -0.17041770571E+00  0.12646375469E+02  0.16595563966E+02  0.51100000000E-03 0. -1.
        -11    1    4    4    0    0 -0.60866708533E+01 -0.48989588221E+00  0.21807798324E+02  0.22646580935E+02  0.51100000000E-03 0.  1.
         12    1    4    4    0    0  0.36519770080E+01  0.14382068178E+02 -0.29297264498E+01  0.15124950189E+02  0.00000000000E+00 0. -1.
</event>
<event>
 8    1  0.1210161E-006  0.9118800E+02  0.7816164E-02  0.1184000E+00
        -11   -1    0    0    0    0  0.00000000000E+00  0.00000000000E+00  0.45593999997E+02  0.45594000000E+02  0.51100000000E-03 0. -1.
         11   -1    0    0    0    0 -0.00000000000E+00 -0.00000000000E+00 -0.45593999997E+02  0.45594000000E+02  0.51100000000E-03 0.  1.
         23    2    1    2    0    0 -0.71054273576E-14  0.35527136788E-14 -0.35527136788E-14  0.91188000000E+02  0.91188000000E+02 0.  0.
    9900012    2    3    3    0    0 -0.29224821296E+02  0.16472240416E+02 -0.15177329166E+02  0.54367133569E+02  0.40000112598E+02 0.  0.
         12    1    3    3    0    0  0.29224821296E+02 -0.16472240416E+02  0.15177329166E+02  0.36820866431E+02  0.00000000000E+00 0. -1.
         11    1    4    4    0    0  0.36469776934E+00  0.18951954791E+01 -0.36748462485E+01  0.41508150498E+01  0.51100000000E-03 0. -1.
        -11    1    4    4    0    0 -0.30795356289E+02  0.10200496140E+02 -0.21716729632E+02  0.39038704341E+02  0.51100000000E-03 0.  1.
         12    1    4    4    0    0  0.12058372235E+01  0.43765487972E+01  0.10214246714E+02  0.11177614179E+02  0.00000000000E+00 0. -1.
</event>
<event>
 8    1  0.1210161E-006  0.9118800E+02  0.7816164E-02  0.1184000E+00
        -11   -1    0    0    0    0  0.00000000000E+00  0.00000000000E+00  0.45593999997E+02  0.45594000000E+02  0.51100000000E-03 0. -1.
         11   -1    0    0    0    0 -0.00000000000E+00 -0.00000000000E+00 -0.45593999997E+02  0.45594000000E+02  0.51100000000E-03 0.  1.
         23    2    1    2    0    0  0.00000000000E+00  0.35527136788E-14  0.00000000000E+00  0.91188000000E+02  0.91188000000E+02 0.  0.
    9900012    2    3    3    0    0  0.88460650791E+01 -0.19359173582E+02 -0.30045782602E+02  0.54367088532E+02  0.40000009927E+02 0.  0.
        -12    1    3    3    0    0 -0.88460650791E+01  0.19359173582E+02  0.30045782602E+02  0.36820911468E+02  0.00000000000E+00 0.  1.
         11    1    4    4    0    0 -0.51556546464E+01  0.24573056049E+01 -0.15541574308E+02  0.16557767298E+02  0.51100000000E-03 0. -1.
        -11    1    4    4    0    0 -0.63880350294E+01 -0.57535255780E+01 -0.60418925087E+01  0.10507831054E+02  0.51100000000E-03 0.  1.
         12    1    4    4    0    0  0.20389754755E+02 -0.16062953609E+02 -0.84623157859E+01  0.27301490180E+02  0.00000000000E+00 0. -1.
</event>
<event>
 8    1  0.1210161E-006  0.9118800E+02  0.7816164E-02  0.1184000E+00
        -11   -1    0    0    0    0  0.00000000000E+00  0.00000000000E+00  0.45593999997E+02  0.45594000000E+02  0.51100000000E-03 0. -1.
         11   -1    0    0    0    0 -0.00000000000E+00 -0.00000000000E+00 -0.45593999997E+02  0.45594000000E+02  0.51100000000E-03 0.  1.
         23    2    1    2    0    0 -0.35527136788E-14 -0.35527136788E-14  0.35527136788E-14  0.91188000000E+02  0.91188000000E+02 0.  0.
    9900012    2    3    3    0    0  0.26628100727E+02  0.22297411468E+02 -0.12229083867E+02  0.54367071185E+02  0.39999970382E+02 0.  0.
         12    1    3    3    0    0 -0.26628100727E+02 -0.22297411468E+02  0.12229083867E+02  0.36820928815E+02  0.00000000000E+00 0. -1.
         11    1    4    4    0    0 -0.50147398691E+01 -0.39946876765E+01  0.29116618990E+01  0.70415141030E+01  0.51100000000E-03 0. -1.
        -11    1    4    4    0    0  0.13378211506E+02  0.18165002855E+02 -0.15430829273E+02  0.27332295259E+02  0.51100000000E-03 0.  1.
         12    1    4    4    0    0  0.18264629090E+02  0.81270962895E+01  0.29008350619E+00  0.19993261823E+02  0.00000000000E+00 0. -1.
</event>
<event>
 8    1  0.1210161E-006  0.9118800E+02  0.7816164E-02  0.1184000E+00
        -11   -1    0    0    0    0  0.00000000000E+00  0.00000000000E+00  0.45593999997E+02  0.45594000000E+02  0.51100000000E-03 0.  1.
         11   -1    0    0    0    0 -0.00000000000E+00 -0.00000000000E+00 -0.45593999997E+02  0.45594000000E+02  0.51100000000E-03 0. -1.
         23    2    1    2    0    0  0.35527136788E-14  0.88817841970E-15  0.00000000000E+00  0.91188000000E+02  0.91188000000E+02 0.  0.
    9900012    2    3    3    0    0  0.31552790663E+02 -0.28684064784E+01 -0.18760979960E+02  0.54367072209E+02  0.39999972714E+02 0.  0.
        -12    1    3    3    0    0 -0.31552790663E+02  0.28684064784E+01  0.18760979960E+02  0.36820927791E+02  0.00000000000E+00 0.  1.
         11    1    4    4    0    0  0.28350489896E+02 -0.92810942069E+01 -0.13789019546E+02  0.32863749746E+02  0.51100000000E-03 0. -1.
        -11    1    4    4    0    0 -0.17803124724E+01  0.12408527064E+02 -0.55009476456E+01  0.13689466084E+02  0.51100000000E-03 0.  1.
        -12    1    4    4    0    0  0.49826132393E+01 -0.59958393353E+01  0.52898723149E+00  0.78138563794E+01  0.00000000000E+00 0.  1.
</event>
<event>
 8    1  0.1210161E-006  0.9118800E+02  0.7816164E-02  0.1184000E+00
        -11   -1    0    0    0    0  0.00000000000E+00  0.00000000000E+00  0.45593999997E+02  0.45594000000E+02  0.51100000000E-03 0. -1.
         11   -1    0    0    0    0 -0.00000000000E+00 -0.00000000000E+00 -0.45593999997E+02  0.45594000000E+02  0.51100000000E-03 0.  1.
         23    2    1    2    0    0  0.00000000000E+00  0.00000000000E+00  0.00000000000E+00  0.91188000000E+02  0.91188000000E+02 0.  0.
    9900012    2    3    3    0    0  0.69175598708E+01  0.29219112768E+02  0.21311274799E+02  0.54367087204E+02  0.40000006899E+02 0.  0.
        -12    1    3    3    0    0 -0.69175598708E+01 -0.29219112768E+02 -0.21311274799E+02  0.36820912796E+02  0.00000000000E+00 0.  1.
         11    1    4    4    0    0  0.74429651594E+01 -0.13866679933E+01  0.42449993150E+00  0.75829268057E+01  0.51100000000E-03 0. -1.
        -11    1    4    4    0    0  0.41374770999E+01  0.69278878437E+01 -0.64419481162E+01  0.10325359196E+02  0.51100000000E-03 0.  1.
        -12    1    4    4    0    0 -0.46628823885E+01  0.23677892918E+02  0.27328722984E+02  0.36458801203E+02  0.00000000000E+00 0.  1.
</event>
<event>
 8    1  0.1210161E-006  0.9118800E+02  0.7816164E-02  0.1184000E+00
        -11   -1    0    0    0    0  0.00000000000E+00  0.00000000000E+00  0.45593999997E+02  0.45594000000E+02  0.51100000000E-03 0.  1.
         11   -1    0    0    0    0 -0.00000000000E+00 -0.00000000000E+00 -0.45593999997E+02  0.45594000000E+02  0.51100000000E-03 0. -1.
         23    2    1    2    0    0 -0.22204460493E-15  0.11102230246E-14  0.71054273576E-14  0.91188000000E+02  0.91188000000E+02 0.  0.
    9900012    2    3    3    0    0 -0.13665895869E+01 -0.88342510043E+00 -0.36784940780E+02  0.54367083727E+02  0.39999998972E+02 0.  0.
        -12    1    3    3    0    0  0.13665895869E+01  0.88342510043E+00  0.36784940780E+02  0.36820916273E+02  0.00000000000E+00 0.  1.
         11    1    4    4    0    0 -0.15314921569E+01  0.92375569089E+01 -0.32715495041E+02  0.34029127845E+02  0.51100000000E-03 0. -1.
        -11    1    4    4    0    0 -0.35907415796E+00  0.35755586420E+01 -0.54862227734E+01  0.65583682753E+01  0.51100000000E-03 0.  1.
        -12    1    4    4    0    0  0.52397672790E+00 -0.13696540651E+02  0.14167770345E+01  0.13779587606E+02  0.00000000000E+00 0.  1.
</event>
<event>
 8    1  0.1210161E-006  0.9118800E+02  0.7816164E-02  0.1184000E+00
        -11   -1    0    0    0    0  0.00000000000E+00  0.00000000000E+00  0.45593999997E+02  0.45594000000E+02  0.51100000000E-03 0.  1.
         11   -1    0    0    0    0 -0.00000000000E+00 -0.00000000000E+00 -0.45593999997E+02  0.45594000000E+02  0.51100000000E-03 0. -1.
         23    2    1    2    0    0  0.00000000000E+00  0.00000000000E+00  0.17763568394E-14  0.91188000000E+02  0.91188000000E+02 0.  0.
    9900012    2    3    3    0    0 -0.20107521782E+02  0.29134744840E+02 -0.10130660645E+02  0.54367135341E+02  0.40000116638E+02 0.  0.
         12    1    3    3    0    0  0.20107521782E+02 -0.29134744840E+02  0.10130660645E+02  0.36820864659E+02  0.00000000000E+00 0. -1.
         11    1    4    4    0    0 -0.95639849098E+00  0.70125811337E+01  0.54295373109E+00  0.70982949534E+01  0.51100000000E-03 0. -1.
        -11    1    4    4    0    0  0.10288883262E+02  0.80636193913E+01 -0.44999922895E+00  0.13079968503E+02  0.51100000000E-03 0.  1.
         12    1    4    4    0    0 -0.29440006553E+02  0.14058544315E+02 -0.10223615147E+02  0.34188871885E+02  0.00000000000E+00 0. -1.
</event>
<event>
 8    1  0.1210161E-006  0.9118800E+02  0.7816164E-02  0.1184000E+00
        -11   -1    0    0    0    0  0.00000000000E+00  0.00000000000E+00  0.45593999997E+02  0.45594000000E+02  0.51100000000E-03 0. -1.
         11   -1    0    0    0    0 -0.00000000000E+00 -0.00000000000E+00 -0.45593999997E+02  0.45594000000E+02  0.51100000000E-03 0.  1.
         23    2    1    2    0    0  0.88817841970E-15  0.00000000000E+00  0.00000000000E+00  0.91188000000E+02  0.91188000000E+02 0.  0.
    9900012    2    3    3    0    0 -0.42756544346E+01 -0.40272125276E+01 -0.36349440993E+02  0.54367061363E+02  0.39999947989E+02 0.  0.
         12    1    3    3    0    0  0.42756544346E+01  0.40272125276E+01  0.36349440993E+02  0.36820938637E+02  0.00000000000E+00 0. -1.
         11    1    4    4    0    0 -0.19103431642E+01 -0.10402890299E+02 -0.16643051087E+02  0.19719550890E+02  0.51100000000E-03 0. -1.
        -11    1    4    4    0    0 -0.13550319991E+02 -0.27411969021E+01 -0.11901882953E+02  0.18242262755E+02  0.51100000000E-03 0.  1.
        -12    1    4    4    0    0  0.11185008721E+02  0.91168746734E+01 -0.78045069534E+01  0.16405247718E+02  0.00000000000E+00 0.  1.
</event>
<event>
 8    1  0.1210161E-006  0.9118800E+02  0.7816164E-02  0.1184000E+00
        -11   -1    0    0    0    0  0.00000000000E+00  0.00000000000E+00  0.45593999997E+02  0.45594000000E+02  0.51100000000E-03 0.  1.
         11   -1    0    0    0    0 -0.00000000000E+00 -0.00000000000E+00 -0.45593999997E+02  0.45594000000E+02  0.51100000000E-03 0. -1.
         23    2    1    2    0    0  0.00000000000E+00  0.00000000000E+00 -0.11102230246E-14  0.91188000000E+02  0.91188000000E+02 0.  0.
    9900012    2    3    3    0    0 -0.26500548548E+02 -0.25504597076E+02  0.17368975224E+01  0.54367077166E+02  0.39999984015E+02 0.  0.
         12    1    3    3    0    0  0.26500548548E+02  0.25504597076E+02 -0.17368975224E+01  0.36820922834E+02  0.00000000000E+00 0. -1.
         11    1    4    4    0    0 -0.24842780314E+02 -0.98589334066E+01 -0.26208143578E+01  0.26855743703E+02  0.51100000000E-03 0. -1.
        -11    1    4    4    0    0 -0.10255705430E+02 -0.55988833583E+01 -0.34140859180E+01  0.12173042826E+02  0.51100000000E-03 0.  1.
        -12    1    4    4    0    0  0.85979371963E+01 -0.10046780311E+02  0.77717977983E+01  0.15338290637E+02  0.00000000000E+00 0.  1.
</event>
<event>
 8    1  0.1210161E-006  0.9118800E+02  0.7816164E-02  0.1184000E+00
        -11   -1    0    0    0    0  0.00000000000E+00  0.00000000000E+00  0.45593999997E+02  0.45594000000E+02  0.51100000000E-03 0.  1.
         11   -1    0    0    0    0 -0.00000000000E+00 -0.00000000000E+00 -0.45593999997E+02  0.45594000000E+02  0.51100000000E-03 0. -1.
         23    2    1    2    0    0  0.00000000000E+00 -0.17763568394E-14  0.00000000000E+00  0.91188000000E+02  0.91188000000E+02 0.  0.
    9900012    2    3    3    0    0  0.17182833962E+02  0.10125133215E+02 -0.30951761002E+02  0.54367087264E+02  0.40000007035E+02 0.  0.
        -12    1    3    3    0    0 -0.17182833962E+02 -0.10125133215E+02  0.30951761002E+02  0.36820912736E+02  0.00000000000E+00 0.  1.
         11    1    4    4    0    0  0.13591313968E+02  0.12406077164E+02 -0.19675277539E+02  0.26939768233E+02  0.51100000000E-03 0. -1.
        -11    1    4    4    0    0  0.10478636971E+02  0.55580845942E+01 -0.12120195289E+02  0.16958575153E+02  0.51100000000E-03 0.  1.
        -12    1    4    4    0    0 -0.68871169762E+01 -0.78390285431E+01  0.84371182520E+00  0.10468743878E+02  0.00000000000E+00 0.  1.
</event>
<event>
 8    1  0.1210161E-006  0.9118800E+02  0.7816164E-02  0.1184000E+00
        -11   -1    0    0    0    0  0.00000000000E+00  0.00000000000E+00  0.45593999997E+02  0.45594000000E+02  0.51100000000E-03 0.  1.
         11   -1    0    0    0    0 -0.00000000000E+00 -0.00000000000E+00 -0.45593999997E+02  0.45594000000E+02  0.51100000000E-03 0. -1.
         23    2    1    2    0    0  0.44408920985E-15  0.00000000000E+00  0.00000000000E+00  0.91188000000E+02  0.91188000000E+02 0.  0.
    9900012    2    3    3    0    0 -0.34363961504E+01 -0.55671681122E+01  0.36235038490E+02  0.54367079402E+02  0.39999989113E+02 0.  0.
         12    1    3    3    0    0  0.34363961504E+01  0.55671681122E+01 -0.36235038490E+02  0.36820920598E+02  0.00000000000E+00 0. -1.
         11    1    4    4    0    0 -0.61093068925E+01  0.28674851999E+01  0.10736413492E+02  0.12681351545E+02  0.51100000000E-03 0.  1.
        -11    1    4    4    0    0  0.47850667535E+01 -0.66114136260E+01 -0.59585514624E+01  0.10105047737E+02  0.51100000000E-03 0. -1.
        -12    1    4    4    0    0 -0.21121560114E+01 -0.18232396861E+01  0.31457176460E+02  0.31580680120E+02  0.00000000000E+00 0.  1.
</event>
<event>
 8    1  0.1210161E-006  0.9118800E+02  0.7816164E-02  0.1184000E+00
        -11   -1    0    0    0    0  0.00000000000E+00  0.00000000000E+00  0.45593999997E+02  0.45594000000E+02  0.51100000000E-03 0.  1.
         11   -1    0    0    0    0 -0.00000000000E+00 -0.00000000000E+00 -0.45593999997E+02  0.45594000000E+02  0.51100000000E-03 0. -1.
         23    2    1    2    0    0  0.00000000000E+00 -0.35527136788E-14 -0.88817841970E-15  0.91188000000E+02  0.91188000000E+02 0.  0.
    9900012    2    3    3    0    0  0.18132907614E+02 -0.31752316057E+02  0.43322475838E+01  0.54367078194E+02  0.39999986359E+02 0.  0.
         12    1    3    3    0    0 -0.18132907614E+02  0.31752316057E+02 -0.43322475838E+01  0.36820921806E+02  0.00000000000E+00 0. -1.
         11    1    4    4    0    0 -0.63035951970E+01  0.48917913289E+01  0.18659432024E+01  0.81943077261E+01  0.51100000000E-03 0. -1.
        -11    1    4    4    0    0  0.82269873900E+01 -0.21436068491E+02  0.58392387274E+01  0.23691455486E+02  0.51100000000E-03 0.  1.
         12    1    4    4    0    0  0.16209515421E+02 -0.15208038895E+02 -0.33729343460E+01  0.22481314982E+02  0.00000000000E+00 0. -1.
</event>
<event>
 8    1  0.1210161E-006  0.9118800E+02  0.7816164E-02  0.1184000E+00
        -11   -1    0    0    0    0  0.00000000000E+00  0.00000000000E+00  0.45593999997E+02  0.45594000000E+02  0.51100000000E-03 0.  1.
         11   -1    0    0    0    0 -0.00000000000E+00 -0.00000000000E+00 -0.45593999997E+02  0.45594000000E+02  0.51100000000E-03 0. -1.
         23    2    1    2    0    0  0.35527136788E-14  0.00000000000E+00 -0.13322676296E-14  0.91188000000E+02  0.91188000000E+02 0.  0.
    9900012    2    3    3    0    0  0.26825431795E+02 -0.25023682813E+02  0.31609123022E+01  0.54367083945E+02  0.39999999470E+02 0.  0.
         12    1    3    3    0    0 -0.26825431795E+02  0.25023682813E+02 -0.31609123022E+01  0.36820916055E+02  0.00000000000E+00 0. -1.
         11    1    4    4    0    0  0.13288264536E+02 -0.38512442131E+01 -0.11131891959E+02  0.17757507574E+02  0.51100000000E-03 0. -1.
        -11    1    4    4    0    0  0.14277934010E+02 -0.19086058169E+01  0.67568542745E+01  0.15910916244E+02  0.51100000000E-03 0.  1.
         12    1    4    4    0    0 -0.74076675172E+00 -0.19263832783E+02  0.75359499871E+01  0.20698660128E+02  0.00000000000E+00 0. -1.
</event>
<event>
 8    1  0.1210161E-006  0.9118800E+02  0.7816164E-02  0.1184000E+00
        -11   -1    0    0    0    0  0.00000000000E+00  0.00000000000E+00  0.45593999997E+02  0.45594000000E+02  0.51100000000E-03 0.  1.
         11   -1    0    0    0    0 -0.00000000000E+00 -0.00000000000E+00 -0.45593999997E+02  0.45594000000E+02  0.51100000000E-03 0. -1.
         23    2    1    2    0    0  0.35527136788E-14 -0.88817841970E-15  0.35527136788E-14  0.91188000000E+02  0.91188000000E+02 0.  0.
    9900012    2    3    3    0    0 -0.27590719867E+02  0.97273568332E+00 -0.24363616178E+02  0.54367084330E+02  0.40000000348E+02 0.  0.
        -12    1    3    3    0    0  0.27590719867E+02 -0.97273568332E+00  0.24363616178E+02  0.36820915670E+02  0.00000000000E+00 0.  1.
         11    1    4    4    0    0 -0.35434321433E+01  0.78439423519E+01 -0.42279271331E+01  0.95895104713E+01  0.51100000000E-03 0. -1.
        -11    1    4    4    0    0 -0.30027013820E+02 -0.10619322543E+02 -0.12069086683E+02  0.34059571692E+02  0.51100000000E-03 0.  1.
         12    1    4    4    0    0  0.59797260965E+01  0.37481158740E+01 -0.80666023622E+01  0.10718002168E+02  0.00000000000E+00 0. -1.
</event>
<event>
 8    1  0.1210161E-006  0.9118800E+02  0.7816164E-02  0.1184000E+00
        -11   -1    0    0    0    0  0.00000000000E+00  0.00000000000E+00  0.45593999997E+02  0.45594000000E+02  0.51100000000E-03 0. -1.
         11   -1    0    0    0    0 -0.00000000000E+00 -0.00000000000E+00 -0.45593999997E+02  0.45594000000E+02  0.51100000000E-03 0.  1.
         23    2    1    2    0    0  0.00000000000E+00  0.00000000000E+00 -0.35527136788E-14  0.91188000000E+02  0.91188000000E+02 0.  0.
    9900012    2    3    3    0    0  0.18946379697E+02 -0.10530584004E+02  0.29764439635E+02  0.54367077009E+02  0.39999983658E+02 0.  0.
        -12    1    3    3    0    0 -0.18946379697E+02  0.10530584004E+02 -0.29764439635E+02  0.36820922991E+02  0.00000000000E+00 0.  1.
         11    1    4    4    0    0  0.13183967002E+02  0.28408294442E+01  0.22069499398E+02  0.25864069707E+02  0.51100000000E-03 0. -1.
        -11    1    4    4    0    0  0.66183441391E+01 -0.59895458826E+01  0.15398925783E+02  0.17798990268E+02  0.51100000000E-03 0.  1.
        -12    1    4    4    0    0 -0.85593144426E+00 -0.73818675658E+01 -0.77039855456E+01  0.10704017035E+02  0.00000000000E+00 0.  1.
</event>
<event>
 8    1  0.1210161E-006  0.9118800E+02  0.7816164E-02  0.1184000E+00
        -11   -1    0    0    0    0  0.00000000000E+00  0.00000000000E+00  0.45593999997E+02  0.45594000000E+02  0.51100000000E-03 0. -1.
         11   -1    0    0    0    0 -0.00000000000E+00 -0.00000000000E+00 -0.45593999997E+02  0.45594000000E+02  0.51100000000E-03 0.  1.
         23    2    1    2    0    0  0.00000000000E+00 -0.35527136788E-14  0.00000000000E+00  0.91188000000E+02  0.91188000000E+02 0.  0.
    9900012    2    3    3    0    0  0.31472279864E+02 -0.10045296431E+02 -0.16259375385E+02  0.54367086538E+02  0.40000005381E+02 0.  0.
         12    1    3    3    0    0 -0.31472279864E+02  0.10045296431E+02  0.16259375385E+02  0.36820913462E+02  0.00000000000E+00 0. -1.
         11    1    4    4    0    0  0.15837717397E+02 -0.14401978645E+02  0.85156672059E+01  0.23038378186E+02  0.51100000000E-03 0. -1.
        -11    1    4    4    0    0  0.12898647663E+02  0.28628560111E+01 -0.10960759346E+02  0.17167099399E+02  0.51100000000E-03 0.  1.
        -12    1    4    4    0    0  0.27359148039E+01  0.14938262031E+01 -0.13814283246E+02  0.14161608953E+02  0.00000000000E+00 0.  1.
</event>
<event>
 8    1  0.1210161E-006  0.9118800E+02  0.7816164E-02  0.1184000E+00
        -11   -1    0    0    0    0  0.00000000000E+00  0.00000000000E+00  0.45593999997E+02  0.45594000000E+02  0.51100000000E-03 0.  1.
         11   -1    0    0    0    0 -0.00000000000E+00 -0.00000000000E+00 -0.45593999997E+02  0.45594000000E+02  0.51100000000E-03 0. -1.
         23    2    1    2    0    0 -0.35527136788E-14  0.17763568394E-14 -0.35527136788E-14  0.91188000000E+02  0.91188000000E+02 0.  0.
    9900012    2    3    3    0    0 -0.21399318947E+02  0.10106836992E+02 -0.28208122349E+02  0.54367120436E+02  0.40000082659E+02 0.  0.
        -12    1    3    3    0    0  0.21399318947E+02 -0.10106836992E+02  0.28208122349E+02  0.36820879564E+02  0.00000000000E+00 0.  1.
         11    1    4    4    0    0  0.96822601194E+00  0.16499526856E+02 -0.10587482040E+02  0.19628209911E+02  0.51100000000E-03 0. -1.
        -11    1    4    4    0    0 -0.34916951654E+01 -0.93410976244E+01 -0.10139260186E+02  0.14221555377E+02  0.51100000000E-03 0.  1.
        -12    1    4    4    0    0 -0.18875849794E+02  0.29484077598E+01 -0.74813801225E+01  0.20517355149E+02  0.00000000000E+00 0.  1.
</event>
<event>
 8    1  0.1210161E-006  0.9118800E+02  0.7816164E-02  0.1184000E+00
        -11   -1    0    0    0    0  0.00000000000E+00  0.00000000000E+00  0.45593999997E+02  0.45594000000E+02  0.51100000000E-03 0.  1.
         11   -1    0    0    0    0 -0.00000000000E+00 -0.00000000000E+00 -0.45593999997E+02  0.45594000000E+02  0.51100000000E-03 0. -1.
         23    2    1    2    0    0  0.00000000000E+00  0.00000000000E+00  0.00000000000E+00  0.91188000000E+02  0.91188000000E+02 0.  0.
    9900012    2    3    3    0    0 -0.16462812313E+02  0.20257422361E+02 -0.25969059139E+02  0.54367090417E+02  0.40000014224E+02 0.  0.
        -12    1    3    3    0    0  0.16462812313E+02 -0.20257422361E+02  0.25969059139E+02  0.36820909583E+02  0.00000000000E+00 0.  1.
         11    1    4    4    0    0  0.17550912859E+01  0.12836919315E+01 -0.23442007138E+02  0.23542640237E+02  0.51100000000E-03 0. -1.
        -11    1    4    4    0    0 -0.18428128555E+02  0.11099440732E+02  0.22210695147E+01  0.21626989080E+02  0.51100000000E-03 0.  1.
         12    1    4    4    0    0  0.21022495605E+00  0.78742896969E+01 -0.47481215158E+01  0.91974611004E+01  0.00000000000E+00 0. -1.
</event>
<event>
 8    1  0.1210161E-006  0.9118800E+02  0.7816164E-02  0.1184000E+00
        -11   -1    0    0    0    0  0.00000000000E+00  0.00000000000E+00  0.45593999997E+02  0.45594000000E+02  0.51100000000E-03 0.  1.
         11   -1    0    0    0    0 -0.00000000000E+00 -0.00000000000E+00 -0.45593999997E+02  0.45594000000E+02  0.51100000000E-03 0. -1.
         23    2    1    2    0    0 -0.32196467714E-14  0.00000000000E+00  0.00000000000E+00  0.91188000000E+02  0.91188000000E+02 0.  0.
    9900012    2    3    3    0    0  0.70364467587E+00  0.22444173575E+02 -0.29181209039E+02  0.54367095554E+02  0.40000025933E+02 0.  0.
        -12    1    3    3    0    0 -0.70364467587E+00 -0.22444173575E+02  0.29181209039E+02  0.36820904446E+02  0.00000000000E+00 0.  1.
         11    1    4    4    0    0 -0.12883092459E+02  0.27332965220E+02 -0.17726522200E+02  0.35032765358E+02  0.51100000000E-03 0. -1.
        -11    1    4    4    0    0  0.96303911330E+01 -0.26759250938E+01 -0.43368830990E+01  0.10895575421E+02  0.51100000000E-03 0.  1.
         12    1    4    4    0    0  0.39563460020E+01 -0.22128665519E+01 -0.71178037404E+01  0.84387547748E+01  0.00000000000E+00 0. -1.
</event>
<event>
 8    1  0.1210161E-006  0.9118800E+02  0.7816164E-02  0.1184000E+00
        -11   -1    0    0    0    0  0.00000000000E+00  0.00000000000E+00  0.45593999997E+02  0.45594000000E+02  0.51100000000E-03 0. -1.
         11   -1    0    0    0    0 -0.00000000000E+00 -0.00000000000E+00 -0.45593999997E+02  0.45594000000E+02  0.51100000000E-03 0.  1.
         23    2    1    2    0    0  0.00000000000E+00 -0.17763568394E-14 -0.35527136788E-14  0.91188000000E+02  0.91188000000E+02 0.  0.
    9900012    2    3    3    0    0  0.32334758353E+02 -0.13514884502E+02 -0.11295607818E+02  0.54367089408E+02  0.40000011923E+02 0.  0.
         12    1    3    3    0    0 -0.32334758353E+02  0.13514884502E+02  0.11295607818E+02  0.36820910592E+02  0.00000000000E+00 0. -1.
         11    1    4    4    0    0  0.51099882264E+01  0.61332617130E+01  0.28162293334E+01  0.84652245590E+01  0.51100000000E-03 0. -1.
        -11    1    4    4    0    0  0.21184007402E+02 -0.19651443112E+02 -0.21748078816E+02  0.36165181023E+02  0.51100000000E-03 0.  1.
        -12    1    4    4    0    0  0.60407627244E+01  0.32968968669E-02  0.76362416647E+01  0.97366838258E+01  0.00000000000E+00 0.  1.
</event>
<event>
 8    1  0.1210161E-006  0.9118800E+02  0.7816164E-02  0.1184000E+00
        -11   -1    0    0    0    0  0.00000000000E+00  0.00000000000E+00  0.45593999997E+02  0.45594000000E+02  0.51100000000E-03 0.  1.
         11   -1    0    0    0    0 -0.00000000000E+00 -0.00000000000E+00 -0.45593999997E+02  0.45594000000E+02  0.51100000000E-03 0. -1.
         23    2    1    2    0    0  0.00000000000E+00 -0.35527136788E-14  0.71054273576E-14  0.91188000000E+02  0.91188000000E+02 0.  0.
    9900012    2    3    3    0    0 -0.48116084636E+01 -0.19848336972E+02  0.30637722347E+02  0.54367108007E+02  0.40000054324E+02 0.  0.
         12    1    3    3    0    0  0.48116084636E+01  0.19848336972E+02 -0.30637722347E+02  0.36820891993E+02  0.00000000000E+00 0. -1.
         11    1    4    4    0    0 -0.12215530004E+02 -0.75791773213E+01  0.15397430328E+01  0.14458005084E+02  0.51100000000E-03 0. -1.
        -11    1    4    4    0    0 -0.66248246337E+01 -0.23655195662E+01  0.11802949076E+01  0.71328171556E+01  0.51100000000E-03 0.  1.
         12    1    4    4    0    0  0.14028746174E+02 -0.99036400842E+01  0.27917684406E+02  0.32776285768E+02  0.00000000000E+00 0. -1.
</event>
<event>
 8    1  0.1210161E-006  0.9118800E+02  0.7816164E-02  0.1184000E+00
        -11   -1    0    0    0    0  0.00000000000E+00  0.00000000000E+00  0.45593999997E+02  0.45594000000E+02  0.51100000000E-03 0. -1.
         11   -1    0    0    0    0 -0.00000000000E+00 -0.00000000000E+00 -0.45593999997E+02  0.45594000000E+02  0.51100000000E-03 0.  1.
         23    2    1    2    0    0  0.00000000000E+00  0.00000000000E+00  0.00000000000E+00  0.91188000000E+02  0.91188000000E+02 0.  0.
    9900012    2    3    3    0    0 -0.20991757413E+02  0.92075005557E+01  0.28815775299E+02  0.54367070465E+02  0.39999968738E+02 0.  0.
        -12    1    3    3    0    0  0.20991757413E+02 -0.92075005557E+01 -0.28815775299E+02  0.36820929535E+02  0.00000000000E+00 0.  1.
         11    1    4    4    0    0 -0.16006927833E+02  0.18623275489E+02  0.27588378077E+02  0.36934627841E+02  0.51100000000E-03 0. -1.
        -11    1    4    4    0    0  0.28509699019E+01 -0.14427173827E+01 -0.39768423401E+01  0.51014447059E+01  0.51100000000E-03 0.  1.
         12    1    4    4    0    0 -0.78357994820E+01 -0.79730575506E+01  0.52042395622E+01  0.12330997918E+02  0.00000000000E+00 0. -1.
</event>
<event>
 8    1  0.1210161E-006  0.9118800E+02  0.7816164E-02  0.1184000E+00
        -11   -1    0    0    0    0  0.00000000000E+00  0.00000000000E+00  0.45593999997E+02  0.45594000000E+02  0.51100000000E-03 0. -1.
         11   -1    0    0    0    0 -0.00000000000E+00 -0.00000000000E+00 -0.45593999997E+02  0.45594000000E+02  0.51100000000E-03 0.  1.
         23    2    1    2    0    0  0.00000000000E+00  0.00000000000E+00  0.71054273576E-14  0.91188000000E+02  0.91188000000E+02 0.  0.
    9900012    2    3    3    0    0  0.42709803192E+01 -0.37750266663E+01 -0.36377018019E+02  0.54367088290E+02  0.40000009374E+02 0.  0.
         12    1    3    3    0    0 -0.42709803192E+01  0.37750266663E+01  0.36377018019E+02  0.36820911710E+02  0.00000000000E+00 0. -1.
         11    1    4    4    0    0  0.23327936675E+01  0.22310943222E+01  0.14658801176E+00  0.32312840290E+01  0.51100000000E-03 0. -1.
        -11    1    4    4    0    0  0.11008275309E+02 -0.74548540986E+01  0.18422261035E+00  0.13296274408E+02  0.51100000000E-03 0.  1.
         12    1    4    4    0    0 -0.90700886576E+01  0.14487331100E+01 -0.36707828641E+02  0.37839529852E+02  0.00000000000E+00 0. -1.
</event>
<event>
 8    1  0.1210161E-006  0.9118800E+02  0.7816164E-02  0.1184000E+00
        -11   -1    0    0    0    0  0.00000000000E+00  0.00000000000E+00  0.45593999997E+02  0.45594000000E+02  0.51100000000E-03 0. -1.
         11   -1    0    0    0    0 -0.00000000000E+00 -0.00000000000E+00 -0.45593999997E+02  0.45594000000E+02  0.51100000000E-03 0.  1.
         23    2    1    2    0    0  0.00000000000E+00  0.00000000000E+00  0.17763568394E-14  0.91188000000E+02  0.91188000000E+02 0.  0.
    9900012    2    3    3    0    0 -0.25631945966E+02 -0.25883933886E+02 -0.53669475761E+01  0.54367098141E+02  0.40000031832E+02 0.  0.
        -12    1    3    3    0    0  0.25631945966E+02  0.25883933886E+02  0.53669475761E+01  0.36820901859E+02  0.00000000000E+00 0.  1.
         11    1    4    4    0    0 -0.20215347136E+02 -0.59885294857E+01 -0.95868527398E+00  0.21105492720E+02  0.51100000000E-03 0. -1.
        -11    1    4    4    0    0 -0.65301529336E+01 -0.12727575326E+02 -0.14803391008E+02  0.20585782876E+02  0.51100000000E-03 0.  1.
        -12    1    4    4    0    0  0.11135541039E+01 -0.71678290742E+01  0.10395128706E+02  0.12675822545E+02  0.00000000000E+00 0.  1.
</event>
<event>
 8    1  0.1210161E-006  0.9118800E+02  0.7816164E-02  0.1184000E+00
        -11   -1    0    0    0    0  0.00000000000E+00  0.00000000000E+00  0.45593999997E+02  0.45594000000E+02  0.51100000000E-03 0.  1.
         11   -1    0    0    0    0 -0.00000000000E+00 -0.00000000000E+00 -0.45593999997E+02  0.45594000000E+02  0.51100000000E-03 0. -1.
         23    2    1    2    0    0  0.35527136788E-14  0.00000000000E+00 -0.35527136788E-14  0.91188000000E+02  0.91188000000E+02 0.  0.
    9900012    2    3    3    0    0 -0.30996995342E+02 -0.47458228643E+00  0.19868067460E+02  0.54367094889E+02  0.40000024418E+02 0.  0.
         12    1    3    3    0    0  0.30996995342E+02  0.47458228643E+00 -0.19868067460E+02  0.36820905111E+02  0.00000000000E+00 0. -1.
         11    1    4    4    0    0 -0.48554713528E+01  0.78459820714E+01  0.43193186408E+00  0.92369693146E+01  0.51100000000E-03 0. -1.
        -11    1    4    4    0    0 -0.15922161031E+02  0.42754713661E+01  0.23217108086E+02  0.28475058831E+02  0.51100000000E-03 0.  1.
         12    1    4    4    0    0 -0.10219362959E+02 -0.12596035724E+02 -0.37809724901E+01  0.16655066743E+02  0.00000000000E+00 0. -1.
</event>
<event>
 8    1  0.1210161E-006  0.9118800E+02  0.7816164E-02  0.1184000E+00
        -11   -1    0    0    0    0  0.00000000000E+00  0.00000000000E+00  0.45593999997E+02  0.45594000000E+02  0.51100000000E-03 0.  1.
         11   -1    0    0    0    0 -0.00000000000E+00 -0.00000000000E+00 -0.45593999997E+02  0.45594000000E+02  0.51100000000E-03 0. -1.
         23    2    1    2    0    0  0.17763568394E-14  0.35527136788E-14 -0.35527136788E-14  0.91188000000E+02  0.91188000000E+02 0.  0.
    9900012    2    3    3    0    0 -0.86582013991E+01 -0.21836015388E+02 -0.28354926934E+02  0.54367110536E+02  0.40000060088E+02 0.  0.
        -12    1    3    3    0    0  0.86582013991E+01  0.21836015388E+02  0.28354926934E+02  0.36820889464E+02  0.00000000000E+00 0.  1.
         11    1    4    4    0    0 -0.88079948396E+01 -0.37032055635E+00 -0.15407489420E+02  0.17751299696E+02  0.51100000000E-03 0. -1.
        -11    1    4    4    0    0 -0.76465211694E+01 -0.20848240437E+02 -0.16850004279E+02  0.27875456226E+02  0.51100000000E-03 0.  1.
        -12    1    4    4    0    0  0.77963146100E+01 -0.61745439459E+00  0.39025667648E+01  0.87403546141E+01  0.00000000000E+00 0.  1.
</event>
<event>
 8    1  0.1210161E-006  0.9118800E+02  0.7816164E-02  0.1184000E+00
        -11   -1    0    0    0    0  0.00000000000E+00  0.00000000000E+00  0.45593999997E+02  0.45594000000E+02  0.51100000000E-03 0.  1.
         11   -1    0    0    0    0 -0.00000000000E+00 -0.00000000000E+00 -0.45593999997E+02  0.45594000000E+02  0.51100000000E-03 0. -1.
         23    2    1    2    0    0  0.17763568394E-14  0.00000000000E+00  0.17763568394E-14  0.91188000000E+02  0.91188000000E+02 0.  0.
    9900012    2    3    3    0    0 -0.81708688454E+01 -0.34597200307E+02 -0.95943225351E+01  0.54367076714E+02  0.39999982984E+02 0.  0.
        -12    1    3    3    0    0  0.81708688454E+01  0.34597200307E+02  0.95943225351E+01  0.36820923286E+02  0.00000000000E+00 0.  1.
         11    1    4    4    0    0 -0.10924490582E+02 -0.23860315664E+02 -0.57144505684E+01  0.26857291442E+02  0.51100000000E-03 0. -1.
        -11    1    4    4    0    0  0.64838649719E+01 -0.39587636892E+01  0.94332007749E+01  0.12111878139E+02  0.51100000000E-03 0.  1.
        -12    1    4    4    0    0 -0.37302432353E+01 -0.67781209537E+01 -0.13313072742E+02  0.15397907133E+02  0.00000000000E+00 0.  1.
</event>
<event>
 8    1  0.1210161E-006  0.9118800E+02  0.7816164E-02  0.1184000E+00
        -11   -1    0    0    0    0  0.00000000000E+00  0.00000000000E+00  0.45593999997E+02  0.45594000000E+02  0.51100000000E-03 0. -1.
         11   -1    0    0    0    0 -0.00000000000E+00 -0.00000000000E+00 -0.45593999997E+02  0.45594000000E+02  0.51100000000E-03 0.  1.
         23    2    1    2    0    0 -0.11102230246E-15  0.10658141036E-13  0.00000000000E+00  0.91188000000E+02  0.91188000000E+02 0.  0.
    9900012    2    3    3    0    0 -0.81293589983E+00  0.29652403079E+02 -0.21814074970E+02  0.54367085564E+02  0.40000003159E+02 0.  0.
         12    1    3    3    0    0  0.81293589983E+00 -0.29652403079E+02  0.21814074970E+02  0.36820914436E+02  0.00000000000E+00 0. -1.
         11    1    4    4    0    0 -0.13210354259E+02 -0.33224613015E+01 -0.36396613102E+01  0.14099622104E+02  0.51100000000E-03 0. -1.
        -11    1    4    4    0    0  0.10140767464E+02  0.20832843936E+02 -0.88898863295E+01  0.24816781226E+02  0.51100000000E-03 0.  1.
         12    1    4    4    0    0  0.22566508958E+01  0.12142020445E+02 -0.92845273300E+01  0.15450682234E+02  0.00000000000E+00 0. -1.
</event>
<event>
 8    1  0.1210161E-006  0.9118800E+02  0.7816164E-02  0.1184000E+00
        -11   -1    0    0    0    0  0.00000000000E+00  0.00000000000E+00  0.45593999997E+02  0.45594000000E+02  0.51100000000E-03 0. -1.
         11   -1    0    0    0    0 -0.00000000000E+00 -0.00000000000E+00 -0.45593999997E+02  0.45594000000E+02  0.51100000000E-03 0.  1.
         23    2    1    2    0    0  0.35527136788E-14 -0.11102230246E-14  0.35527136788E-14  0.91188000000E+02  0.91188000000E+02 0.  0.
    9900012    2    3    3    0    0 -0.24690262204E+02  0.10661571425E+01 -0.27295313783E+02  0.54367083482E+02  0.39999998414E+02 0.  0.
         12    1    3    3    0    0  0.24690262204E+02 -0.10661571425E+01  0.27295313783E+02  0.36820916518E+02  0.00000000000E+00 0. -1.
         11    1    4    4    0    0 -0.85992793922E+01 -0.53584658978E+01 -0.10966306093E+02  0.14930526864E+02  0.51100000000E-03 0. -1.
        -11    1    4    4    0    0 -0.19432703122E+02  0.67047675479E+01 -0.23679251888E+02  0.31357468468E+02  0.51100000000E-03 0.  1.
         12    1    4    4    0    0  0.33417203104E+01 -0.28014450756E+00  0.73502441978E+01  0.80790881506E+01  0.00000000000E+00 0. -1.
</event>
<event>
 8    1  0.1210161E-006  0.9118800E+02  0.7816164E-02  0.1184000E+00
        -11   -1    0    0    0    0  0.00000000000E+00  0.00000000000E+00  0.45593999997E+02  0.45594000000E+02  0.51100000000E-03 0. -1.
         11   -1    0    0    0    0 -0.00000000000E+00 -0.00000000000E+00 -0.45593999997E+02  0.45594000000E+02  0.51100000000E-03 0.  1.
         23    2    1    2    0    0  0.00000000000E+00  0.00000000000E+00  0.00000000000E+00  0.91188000000E+02  0.91188000000E+02 0.  0.
    9900012    2    3    3    0    0  0.19346663513E+02  0.32955884403E+01  0.31154874595E+02  0.54367075198E+02  0.39999979528E+02 0.  0.
        -12    1    3    3    0    0 -0.19346663513E+02 -0.32955884403E+01 -0.31154874595E+02  0.36820924802E+02  0.00000000000E+00 0.  1.
         11    1    4    4    0    0  0.13355555790E+01  0.13818612472E+02  0.28268125328E+02  0.31493247994E+02  0.51100000000E-03 0. -1.
        -11    1    4    4    0    0  0.28329897451E+01 -0.38225162123E+00 -0.25464377474E+01  0.38283537794E+01  0.51100000000E-03 0.  1.
         12    1    4    4    0    0  0.15178118189E+02 -0.10140772411E+02  0.54331870147E+01  0.19045473425E+02  0.00000000000E+00 0. -1.
</event>
<event>
 8    1  0.1210161E-006  0.9118800E+02  0.7816164E-02  0.1184000E+00
        -11   -1    0    0    0    0  0.00000000000E+00  0.00000000000E+00  0.45593999997E+02  0.45594000000E+02  0.51100000000E-03 0.  1.
         11   -1    0    0    0    0 -0.00000000000E+00 -0.00000000000E+00 -0.45593999997E+02  0.45594000000E+02  0.51100000000E-03 0. -1.
         23    2    1    2    0    0  0.00000000000E+00  0.88817841970E-15  0.13322676296E-14  0.91188000000E+02  0.91188000000E+02 0.  0.
    9900012    2    3    3    0    0 -0.36376763432E+02  0.48407271967E+01  0.30130382531E+01  0.54367082615E+02  0.39999996437E+02 0.  0.
         12    1    3    3    0    0  0.36376763432E+02 -0.48407271967E+01 -0.30130382531E+01  0.36820917385E+02  0.00000000000E+00 0. -1.
         11    1    4    4    0    0 -0.60299305087E+01 -0.75340432976E+01 -0.90567050738E+01  0.13234265276E+02  0.51100000000E-03 0. -1.
        -11    1    4    4    0    0 -0.21977954870E+02  0.12665878456E+02 -0.12525328281E+01  0.25397319073E+02  0.51100000000E-03 0.  1.
         12    1    4    4    0    0 -0.83688780530E+01 -0.29110796202E+00  0.13322276155E+02  0.15735498265E+02  0.00000000000E+00 0. -1.
</event>
<event>
 8    1  0.1210161E-006  0.9118800E+02  0.7816164E-02  0.1184000E+00
        -11   -1    0    0    0    0  0.00000000000E+00  0.00000000000E+00  0.45593999997E+02  0.45594000000E+02  0.51100000000E-03 0.  1.
         11   -1    0    0    0    0 -0.00000000000E+00 -0.00000000000E+00 -0.45593999997E+02  0.45594000000E+02  0.51100000000E-03 0. -1.
         23    2    1    2    0    0  0.00000000000E+00  0.00000000000E+00 -0.44408920985E-15  0.91188000000E+02  0.91188000000E+02 0.  0.
    9900012    2    3    3    0    0  0.29095288690E+02  0.22300799069E+02  0.34519279885E+01  0.54367119105E+02  0.40000079623E+02 0.  0.
        -12    1    3    3    0    0 -0.29095288690E+02 -0.22300799069E+02 -0.34519279885E+01  0.36820880895E+02  0.00000000000E+00 0.  1.
         11    1    4    4    0    0  0.12531418779E+01 -0.29240711177E+01 -0.53796099436E+01  0.62498607884E+01  0.51100000000E-03 0. -1.
        -11    1    4    4    0    0  0.11917261079E+02 -0.44763937710E+00 -0.71857192290E+01  0.13923219949E+02  0.51100000000E-03 0.  1.
        -12    1    4    4    0    0  0.15924885733E+02  0.25672509564E+02  0.16017257161E+02  0.34194038368E+02  0.00000000000E+00 0.  1.
</event>
<event>
 8    1  0.1210161E-006  0.9118800E+02  0.7816164E-02  0.1184000E+00
        -11   -1    0    0    0    0  0.00000000000E+00  0.00000000000E+00  0.45593999997E+02  0.45594000000E+02  0.51100000000E-03 0.  1.
         11   -1    0    0    0    0 -0.00000000000E+00 -0.00000000000E+00 -0.45593999997E+02  0.45594000000E+02  0.51100000000E-03 0. -1.
         23    2    1    2    0    0  0.35527136788E-14 -0.17763568394E-14  0.35527136788E-14  0.91188000000E+02  0.91188000000E+02 0.  0.
    9900012    2    3    3    0    0 -0.27840841700E+02 -0.94488924063E+01  0.22167227814E+02  0.54367081717E+02  0.39999994390E+02 0.  0.
        -12    1    3    3    0    0  0.27840841700E+02  0.94488924063E+01 -0.22167227814E+02  0.36820918283E+02  0.00000000000E+00 0.  1.
         11    1    4    4    0    0  0.66487744767E+01  0.45277090878E+01  0.48941096450E+01  0.94158728275E+01  0.51100000000E-03 0. -1.
        -11    1    4    4    0    0 -0.16017897757E+02 -0.38946685587E+01  0.17315061480E+02  0.23907171436E+02  0.51100000000E-03 0.  1.
         12    1    4    4    0    0 -0.18471718420E+02 -0.10081932935E+02 -0.41943311623E-01  0.21044037453E+02  0.00000000000E+00 0. -1.
</event>
<event>
 8    1  0.1210161E-006  0.9118800E+02  0.7816164E-02  0.1184000E+00
        -11   -1    0    0    0    0  0.00000000000E+00  0.00000000000E+00  0.45593999997E+02  0.45594000000E+02  0.51100000000E-03 0. -1.
         11   -1    0    0    0    0 -0.00000000000E+00 -0.00000000000E+00 -0.45593999997E+02  0.45594000000E+02  0.51100000000E-03 0.  1.
         23    2    1    2    0    0  0.00000000000E+00  0.55511151231E-16  0.00000000000E+00  0.91188000000E+02  0.91188000000E+02 0.  0.
    9900012    2    3    3    0    0 -0.12542387557E+02  0.39075348041E-01 -0.34618876033E+02  0.54367087595E+02  0.40000007791E+02 0.  0.
         12    1    3    3    0    0  0.12542387557E+02 -0.39075348041E-01  0.34618876033E+02  0.36820912405E+02  0.00000000000E+00 0. -1.
         11    1    4    4    0    0 -0.11819359242E+02 -0.60852199511E+00 -0.28811318628E+02  0.31147385656E+02  0.51100000000E-03 0. -1.
        -11    1    4    4    0    0  0.55552673692E+01 -0.92126744048E+01 -0.34243170524E+01  0.11289832274E+02  0.51100000000E-03 0.  1.
         12    1    4    4    0    0 -0.62782956845E+01  0.98602717480E+01 -0.23832403531E+01  0.11929869665E+02  0.00000000000E+00 0. -1.
</event>
<event>
 8    1  0.1210161E-006  0.9118800E+02  0.7816164E-02  0.1184000E+00
        -11   -1    0    0    0    0  0.00000000000E+00  0.00000000000E+00  0.45593999997E+02  0.45594000000E+02  0.51100000000E-03 0. -1.
         11   -1    0    0    0    0 -0.00000000000E+00 -0.00000000000E+00 -0.45593999997E+02  0.45594000000E+02  0.51100000000E-03 0.  1.
         23    2    1    2    0    0 -0.35527136788E-14  0.00000000000E+00 -0.38857805862E-15  0.91188000000E+02  0.91188000000E+02 0.  0.
    9900012    2    3    3    0    0 -0.18179882911E+02 -0.32016731486E+02  0.44748373200E+00  0.54367089101E+02  0.40000011224E+02 0.  0.
        -12    1    3    3    0    0  0.18179882911E+02  0.32016731486E+02 -0.44748373200E+00  0.36820910899E+02  0.00000000000E+00 0.  1.
         11    1    4    4    0    0  0.53657847942E+01 -0.16085390961E+02 -0.31312104943E+01  0.17243431452E+02  0.51100000000E-03 0. -1.
        -11    1    4    4    0    0 -0.38186811720E+01 -0.47245532803E+01  0.11571279804E+02  0.13068980303E+02  0.51100000000E-03 0.  1.
         12    1    4    4    0    0 -0.19726986533E+02 -0.11206787245E+02 -0.79925855775E+01  0.24054677346E+02  0.00000000000E+00 0. -1.
</event>
<event>
 8    1  0.1210161E-006  0.9118800E+02  0.7816164E-02  0.1184000E+00
        -11   -1    0    0    0    0  0.00000000000E+00  0.00000000000E+00  0.45593999997E+02  0.45594000000E+02  0.51100000000E-03 0. -1.
         11   -1    0    0    0    0 -0.00000000000E+00 -0.00000000000E+00 -0.45593999997E+02  0.45594000000E+02  0.51100000000E-03 0.  1.
         23    2    1    2    0    0 -0.17763568394E-14  0.00000000000E+00  0.00000000000E+00  0.91188000000E+02  0.91188000000E+02 0.  0.
    9900012    2    3    3    0    0  0.10952188011E+02 -0.18419022477E+02  0.29942808610E+02  0.54367046744E+02  0.39999914662E+02 0.  0.
        -12    1    3    3    0    0 -0.10952188011E+02  0.18419022477E+02 -0.29942808610E+02  0.36820953256E+02  0.00000000000E+00 0.  1.
         11    1    4    4    0    0  0.18951631444E+02 -0.15370683363E+01  0.10824808596E+02  0.21879291462E+02  0.51100000000E-03 0. -1.
        -11    1    4    4    0    0 -0.10275439203E+02 -0.19327181447E+02  0.12841715832E+02  0.25377830074E+02  0.51100000000E-03 0.  1.
        -12    1    4    4    0    0  0.22759957694E+01  0.24452273061E+01  0.62762841826E+01  0.71099252079E+01  0.00000000000E+00 0.  1.
</event>
<event>
 8    1  0.1210161E-006  0.9118800E+02  0.7816164E-02  0.1184000E+00
        -11   -1    0    0    0    0  0.00000000000E+00  0.00000000000E+00  0.45593999997E+02  0.45594000000E+02  0.51100000000E-03 0.  1.
         11   -1    0    0    0    0 -0.00000000000E+00 -0.00000000000E+00 -0.45593999997E+02  0.45594000000E+02  0.51100000000E-03 0. -1.
         23    2    1    2    0    0  0.00000000000E+00  0.00000000000E+00  0.00000000000E+00  0.91188000000E+02  0.91188000000E+02 0.  0.
    9900012    2    3    3    0    0 -0.53324784184E+01  0.16653284491E+02 -0.32403874690E+02  0.54367105044E+02  0.40000047569E+02 0.  0.
        -12    1    3    3    0    0  0.53324784184E+01 -0.16653284491E+02  0.32403874690E+02  0.36820894956E+02  0.00000000000E+00 0.  1.
         11    1    4    4    0    0 -0.11471203598E+02  0.17946524886E+02 -0.12365836255E+02  0.24628848411E+02  0.51100000000E-03 0. -1.
        -11    1    4    4    0    0  0.76753747324E+01  0.88484974789E+01 -0.10910995715E+02  0.16008032755E+02  0.51100000000E-03 0.  1.
        -12    1    4    4    0    0 -0.15366495523E+01 -0.10141737874E+02 -0.91270427199E+01  0.13730223879E+02  0.00000000000E+00 0.  1.
</event>
<event>
 8    1  0.1210161E-006  0.9118800E+02  0.7816164E-02  0.1184000E+00
        -11   -1    0    0    0    0  0.00000000000E+00  0.00000000000E+00  0.45593999997E+02  0.45594000000E+02  0.51100000000E-03 0.  1.
         11   -1    0    0    0    0 -0.00000000000E+00 -0.00000000000E+00 -0.45593999997E+02  0.45594000000E+02  0.51100000000E-03 0. -1.
         23    2    1    2    0    0  0.00000000000E+00  0.13322676296E-14 -0.71054273576E-14  0.91188000000E+02  0.91188000000E+02 0.  0.
    9900012    2    3    3    0    0 -0.96425908635E+01  0.29741356050E+01 -0.35411225587E+02  0.54367082864E+02  0.39999997006E+02 0.  0.
        -12    1    3    3    0    0  0.96425908635E+01 -0.29741356050E+01  0.35411225587E+02  0.36820917136E+02  0.00000000000E+00 0.  1.
         11    1    4    4    0    0 -0.97896147137E+01  0.11638049760E+02 -0.24955284412E+02  0.29224082172E+02  0.51100000000E-03 0. -1.
        -11    1    4    4    0    0  0.42840532407E+01 -0.14573898136E+02 -0.93692528716E+01  0.17847535367E+02  0.51100000000E-03 0.  1.
        -12    1    4    4    0    0 -0.41370293905E+01  0.59099839811E+01 -0.10866883029E+01  0.72954653246E+01  0.00000000000E+00 0.  1.
</event>
<event>
 8    1  0.1210161E-006  0.9118800E+02  0.7816164E-02  0.1184000E+00
        -11   -1    0    0    0    0  0.00000000000E+00  0.00000000000E+00  0.45593999997E+02  0.45594000000E+02  0.51100000000E-03 0.  1.
         11   -1    0    0    0    0 -0.00000000000E+00 -0.00000000000E+00 -0.45593999997E+02  0.45594000000E+02  0.51100000000E-03 0. -1.
         23    2    1    2    0    0  0.00000000000E+00  0.00000000000E+00  0.00000000000E+00  0.91188000000E+02  0.91188000000E+02 0.  0.
    9900012    2    3    3    0    0 -0.12190086905E+02 -0.25407522662E+02  0.23698938781E+02  0.54367080322E+02  0.39999991210E+02 0.  0.
         12    1    3    3    0    0  0.12190086905E+02  0.25407522662E+02 -0.23698938781E+02  0.36820919678E+02  0.00000000000E+00 0. -1.
         11    1    4    4    0    0 -0.18906265505E+02 -0.16846572929E+02  0.51359767879E+00  0.25328199258E+02  0.51100000000E-03 0. -1.
        -11    1    4    4    0    0  0.75413265951E+01  0.32189456899E-01  0.16427079129E+02  0.18075441127E+02  0.51100000000E-03 0.  1.
         12    1    4    4    0    0 -0.82514799446E+00 -0.85931391896E+01  0.67582619739E+01  0.10963439937E+02  0.00000000000E+00 0. -1.
</event>
<event>
 8    1  0.1210161E-006  0.9118800E+02  0.7816164E-02  0.1184000E+00
        -11   -1    0    0    0    0  0.00000000000E+00  0.00000000000E+00  0.45593999997E+02  0.45594000000E+02  0.51100000000E-03 0.  1.
         11   -1    0    0    0    0 -0.00000000000E+00 -0.00000000000E+00 -0.45593999997E+02  0.45594000000E+02  0.51100000000E-03 0. -1.
         23    2    1    2    0    0  0.17763568394E-14 -0.71054273576E-14  0.35527136788E-14  0.91188000000E+02  0.91188000000E+02 0.  0.
    9900012    2    3    3    0    0 -0.77311186995E+01  0.26595159124E+02 -0.24263276369E+02  0.54367092008E+02  0.40000017851E+02 0.  0.
        -12    1    3    3    0    0  0.77311186995E+01 -0.26595159124E+02  0.24263276369E+02  0.36820907992E+02  0.00000000000E+00 0.  1.
         11    1    4    4    0    0 -0.33196961465E+01  0.14597436381E+02 -0.34428467605E+01  0.15360948066E+02  0.51100000000E-03 0. -1.
        -11    1    4    4    0    0  0.27761703982E+01 -0.68285725847E+01 -0.16953633050E+02  0.18486811501E+02  0.51100000000E-03 0.  1.
        -12    1    4    4    0    0 -0.71875929511E+01  0.18826295328E+02 -0.38667965579E+01  0.20519332441E+02  0.00000000000E+00 0.  1.
</event>
<event>
 8    1  0.1210161E-006  0.9118800E+02  0.7816164E-02  0.1184000E+00
        -11   -1    0    0    0    0  0.00000000000E+00  0.00000000000E+00  0.45593999997E+02  0.45594000000E+02  0.51100000000E-03 0. -1.
         11   -1    0    0    0    0 -0.00000000000E+00 -0.00000000000E+00 -0.45593999997E+02  0.45594000000E+02  0.51100000000E-03 0.  1.
         23    2    1    2    0    0  0.00000000000E+00 -0.35527136788E-14  0.00000000000E+00  0.91188000000E+02  0.91188000000E+02 0.  0.
    9900012    2    3    3    0    0  0.11469213329E+02 -0.15487426443E+02  0.31374778649E+02  0.54367082474E+02  0.39999996116E+02 0.  0.
        -12    1    3    3    0    0 -0.11469213329E+02  0.15487426443E+02 -0.31374778649E+02  0.36820917526E+02  0.00000000000E+00 0.  1.
         11    1    4    4    0    0 -0.73407277639E+01 -0.56266705865E+01  0.39055418003E+01  0.10039868675E+02  0.51100000000E-03 0. -1.
        -11    1    4    4    0    0  0.25671278677E+02 -0.52030465742E+01  0.23245927843E+02  0.35020842424E+02  0.51100000000E-03 0.  1.
        -12    1    4    4    0    0 -0.68613375846E+01 -0.46577092821E+01  0.42233090058E+01  0.93063713748E+01  0.00000000000E+00 0.  1.
</event>
<event>
 8    1  0.1210161E-006  0.9118800E+02  0.7816164E-02  0.1184000E+00
        -11   -1    0    0    0    0  0.00000000000E+00  0.00000000000E+00  0.45593999997E+02  0.45594000000E+02  0.51100000000E-03 0. -1.
         11   -1    0    0    0    0 -0.00000000000E+00 -0.00000000000E+00 -0.45593999997E+02  0.45594000000E+02  0.51100000000E-03 0.  1.
         23    2    1    2    0    0  0.00000000000E+00 -0.35527136788E-14  0.17763568394E-14  0.91188000000E+02  0.91188000000E+02 0.  0.
    9900012    2    3    3    0    0 -0.25443186830E+02  0.25272506037E+02 -0.83495850383E+01  0.54367205769E+02  0.40000277192E+02 0.  0.
         12    1    3    3    0    0  0.25443186830E+02 -0.25272506037E+02  0.83495850383E+01  0.36820794231E+02  0.00000000000E+00 0. -1.
         11    1    4    4    0    0 -0.31234508609E+02  0.18663876486E+02 -0.43800033611E+01  0.36648591286E+02  0.51100000000E-03 0.  1.
        -11    1    4    4    0    0 -0.41764304622E+00 -0.30353668503E+01  0.30074968564E+01  0.42933571052E+01  0.51100000000E-03 0. -1.
        -12    1    4    4    0    0  0.62089648260E+01  0.96439964016E+01 -0.69770785336E+01  0.13425257378E+02  0.00000000000E+00 0.  1.
</event>
<event>
 8    1  0.1210161E-006  0.9118800E+02  0.7816164E-02  0.1184000E+00
        -11   -1    0    0    0    0  0.00000000000E+00  0.00000000000E+00  0.45593999997E+02  0.45594000000E+02  0.51100000000E-03 0. -1.
         11   -1    0    0    0    0 -0.00000000000E+00 -0.00000000000E+00 -0.45593999997E+02  0.45594000000E+02  0.51100000000E-03 0.  1.
         23    2    1    2    0    0  0.00000000000E+00 -0.88817841970E-15 -0.44408920985E-15  0.91188000000E+02  0.91188000000E+02 0.  0.
    9900012    2    3    3    0    0  0.36545129348E+02 -0.39594676584E+01  0.21341952145E+01  0.54367100331E+02  0.40000036824E+02 0.  0.
         12    1    3    3    0    0 -0.36545129348E+02  0.39594676584E+01 -0.21341952145E+01  0.36820899669E+02  0.00000000000E+00 0. -1.
         11    1    4    4    0    0  0.15174252124E+02 -0.14238074160E+01 -0.18394177308E+01  0.15351501976E+02  0.51100000000E-03 0. -1.
        -11    1    4    4    0    0  0.52904293218E+01 -0.14555861736E+02 -0.59865064367E+01  0.16604216719E+02  0.51100000000E-03 0.  1.
         12    1    4    4    0    0  0.16080447902E+02  0.12020201494E+02  0.99601193820E+01  0.22411381635E+02  0.00000000000E+00 0. -1.
</event>
<event>
 8    1  0.1210161E-006  0.9118800E+02  0.7816164E-02  0.1184000E+00
        -11   -1    0    0    0    0  0.00000000000E+00  0.00000000000E+00  0.45593999997E+02  0.45594000000E+02  0.51100000000E-03 0.  1.
         11   -1    0    0    0    0 -0.00000000000E+00 -0.00000000000E+00 -0.45593999997E+02  0.45594000000E+02  0.51100000000E-03 0. -1.
         23    2    1    2    0    0  0.00000000000E+00  0.17763568394E-14  0.00000000000E+00  0.91188000000E+02  0.91188000000E+02 0.  0.
    9900012    2    3    3    0    0 -0.33613337994E+02 -0.12373522482E+02 -0.85334539526E+01  0.54367076790E+02  0.39999983157E+02 0.  0.
        -12    1    3    3    0    0  0.33613337994E+02  0.12373522482E+02  0.85334539526E+01  0.36820923210E+02  0.00000000000E+00 0.  1.
         11    1    4    4    0    0 -0.79198311026E+01 -0.81324084739E+01 -0.20258709610E+01  0.11530999336E+02  0.51100000000E-03 0. -1.
        -11    1    4    4    0    0 -0.16529272421E+02  0.11793112783E+02  0.52117324961E+01  0.20963218068E+02  0.51100000000E-03 0.  1.
        -12    1    4    4    0    0 -0.91642344701E+01 -0.16034226791E+02 -0.11719315488E+02  0.21872859385E+02  0.00000000000E+00 0.  1.
</event>
<event>
 8    1  0.1210161E-006  0.9118800E+02  0.7816164E-02  0.1184000E+00
        -11   -1    0    0    0    0  0.00000000000E+00  0.00000000000E+00  0.45593999997E+02  0.45594000000E+02  0.51100000000E-03 0.  1.
         11   -1    0    0    0    0 -0.00000000000E+00 -0.00000000000E+00 -0.45593999997E+02  0.45594000000E+02  0.51100000000E-03 0. -1.
         23    2    1    2    0    0  0.35527136788E-14 -0.35527136788E-14 -0.17763568394E-14  0.91188000000E+02  0.91188000000E+02 0.  0.
    9900012    2    3    3    0    0 -0.24519489963E+02  0.25229440499E+02  0.10865167735E+02  0.54367055881E+02  0.39999935491E+02 0.  0.
         12    1    3    3    0    0  0.24519489963E+02 -0.25229440499E+02 -0.10865167735E+02  0.36820944119E+02  0.00000000000E+00 0. -1.
         11    1    4    4    0    0  0.87737874693E+01 -0.11553496919E+01  0.55377851597E+01  0.10439408231E+02  0.51100000000E-03 0. -1.
        -11    1    4    4    0    0 -0.46726684224E+01  0.89318150204E+01  0.13478292824E+01  0.10169945613E+02  0.51100000000E-03 0.  1.
        -12    1    4    4    0    0 -0.28620609009E+02  0.17452975171E+02  0.39795532930E+01  0.33757702037E+02  0.00000000000E+00 0.  1.
</event>
<event>
 8    1  0.1210161E-006  0.9118800E+02  0.7816164E-02  0.1184000E+00
        -11   -1    0    0    0    0  0.00000000000E+00  0.00000000000E+00  0.45593999997E+02  0.45594000000E+02  0.51100000000E-03 0. -1.
         11   -1    0    0    0    0 -0.00000000000E+00 -0.00000000000E+00 -0.45593999997E+02  0.45594000000E+02  0.51100000000E-03 0.  1.
         23    2    1    2    0    0 -0.35527136788E-14  0.17763568394E-14  0.71054273576E-14  0.91188000000E+02  0.91188000000E+02 0.  0.
    9900012    2    3    3    0    0  0.17773616033E+02 -0.92125019514E+01 -0.30903204305E+02  0.54367086712E+02  0.40000005777E+02 0.  0.
         12    1    3    3    0    0 -0.17773616033E+02  0.92125019514E+01  0.30903204305E+02  0.36820913288E+02  0.00000000000E+00 0. -1.
         11    1    4    4    0    0 -0.26101885913E+01 -0.40052550297E+01  0.51116684591E+01  0.69988789840E+01  0.51100000000E-03 0. -1.
        -11    1    4    4    0    0 -0.23823449349E+01 -0.37158313965E+01 -0.17315552830E+02  0.17869284832E+02  0.51100000000E-03 0.  1.
         12    1    4    4    0    0  0.22766149559E+02 -0.14914155252E+01 -0.18699319934E+02  0.29498922896E+02  0.00000000000E+00 0. -1.
</event>
<event>
 8    1  0.1210161E-006  0.9118800E+02  0.7816164E-02  0.1184000E+00
        -11   -1    0    0    0    0  0.00000000000E+00  0.00000000000E+00  0.45593999997E+02  0.45594000000E+02  0.51100000000E-03 0. -1.
         11   -1    0    0    0    0 -0.00000000000E+00 -0.00000000000E+00 -0.45593999997E+02  0.45594000000E+02  0.51100000000E-03 0.  1.
         23    2    1    2    0    0  0.26645352591E-14  0.88817841970E-15  0.71054273576E-14  0.91188000000E+02  0.91188000000E+02 0.  0.
    9900012    2    3    3    0    0  0.51430775772E+01  0.35373358202E+01  0.36287893921E+02  0.54367146712E+02  0.40000142558E+02 0.  0.
        -12    1    3    3    0    0 -0.51430775772E+01 -0.35373358202E+01 -0.36287893921E+02  0.36820853288E+02  0.00000000000E+00 0.  1.
         11    1    4    4    0    0 -0.49232120729E+01 -0.52218935029E+01  0.93312671982E+01  0.11771947021E+02  0.51100000000E-03 0.  1.
        -11    1    4    4    0    0 -0.19459593277E+01  0.62042302253E+01  0.29368451846E+02  0.30079647513E+02  0.51100000000E-03 0. -1.
         12    1    4    4    0    0  0.12012248978E+02  0.25549990977E+01 -0.24118251238E+01  0.12515552178E+02  0.00000000000E+00 0. -1.
</event>
<event>
 8    1  0.1210161E-006  0.9118800E+02  0.7816164E-02  0.1184000E+00
        -11   -1    0    0    0    0  0.00000000000E+00  0.00000000000E+00  0.45593999997E+02  0.45594000000E+02  0.51100000000E-03 0.  1.
         11   -1    0    0    0    0 -0.00000000000E+00 -0.00000000000E+00 -0.45593999997E+02  0.45594000000E+02  0.51100000000E-03 0. -1.
         23    2    1    2    0    0  0.17763568394E-14 -0.35527136788E-14 -0.35527136788E-14  0.91188000000E+02  0.91188000000E+02 0.  0.
    9900012    2    3    3    0    0  0.92424954365E+01 -0.27131469975E+02 -0.23113634669E+02  0.54367075345E+02  0.39999979863E+02 0.  0.
        -12    1    3    3    0    0 -0.92424954365E+01  0.27131469975E+02  0.23113634669E+02  0.36820924655E+02  0.00000000000E+00 0.  1.
         11    1    4    4    0    0 -0.34807610531E+01  0.16147823448E+01 -0.79336141047E+01  0.88128004944E+01  0.51100000000E-03 0. -1.
        -11    1    4    4    0    0  0.15224596284E+02 -0.23664460224E+01 -0.85312612273E+00  0.15431014978E+02  0.51100000000E-03 0.  1.
         12    1    4    4    0    0 -0.25013397947E+01 -0.26379806297E+02 -0.14326894441E+02  0.30123259873E+02  0.00000000000E+00 0. -1.
</event>
<event>
 8    1  0.1210161E-006  0.9118800E+02  0.7816164E-02  0.1184000E+00
        -11   -1    0    0    0    0  0.00000000000E+00  0.00000000000E+00  0.45593999997E+02  0.45594000000E+02  0.51100000000E-03 0.  1.
         11   -1    0    0    0    0 -0.00000000000E+00 -0.00000000000E+00 -0.45593999997E+02  0.45594000000E+02  0.51100000000E-03 0. -1.
         23    2    1    2    0    0  0.00000000000E+00  0.00000000000E+00  0.00000000000E+00  0.91188000000E+02  0.91188000000E+02 0.  0.
    9900012    2    3    3    0    0  0.95720044579E+01  0.14467681506E+02 -0.32478331572E+02  0.54367094264E+02  0.40000022993E+02 0.  0.
        -12    1    3    3    0    0 -0.95720044579E+01 -0.14467681506E+02  0.32478331572E+02  0.36820905736E+02  0.00000000000E+00 0.  1.
         11    1    4    4    0    0 -0.53026690560E+01  0.15347685435E+02 -0.21816951112E+02  0.27196490645E+02  0.51100000000E-03 0. -1.
        -11    1    4    4    0    0  0.16357034011E+01  0.37855558157E+01  0.47730243263E+01  0.63077507822E+01  0.51100000000E-03 0.  1.
         12    1    4    4    0    0  0.13238970113E+02 -0.46655597440E+01 -0.15434404787E+02  0.20862852837E+02  0.00000000000E+00 0. -1.
</event>
<event>
 8    1  0.1210161E-006  0.9118800E+02  0.7816164E-02  0.1184000E+00
        -11   -1    0    0    0    0  0.00000000000E+00  0.00000000000E+00  0.45593999997E+02  0.45594000000E+02  0.51100000000E-03 0. -1.
         11   -1    0    0    0    0 -0.00000000000E+00 -0.00000000000E+00 -0.45593999997E+02  0.45594000000E+02  0.51100000000E-03 0.  1.
         23    2    1    2    0    0  0.35527136788E-14 -0.17763568394E-14  0.00000000000E+00  0.91188000000E+02  0.91188000000E+02 0.  0.
    9900012    2    3    3    0    0 -0.31839017227E+02  0.11588155722E+02 -0.14414292133E+02  0.54367079469E+02  0.39999989265E+02 0.  0.
         12    1    3    3    0    0  0.31839017227E+02 -0.11588155722E+02  0.14414292133E+02  0.36820920531E+02  0.00000000000E+00 0. -1.
         11    1    4    4    0    0  0.79779739293E+01  0.14383267399E+01 -0.36877901931E+01  0.89059894789E+01  0.51100000000E-03 0.  1.
        -11    1    4    4    0    0 -0.10895904198E+02 -0.25185602539E+01  0.21045910593E+01  0.11379506924E+02  0.51100000000E-03 0. -1.
        -12    1    4    4    0    0 -0.28921086959E+02  0.12668389236E+02 -0.12831092999E+02  0.34081583066E+02  0.00000000000E+00 0.  1.
</event>
<event>
 8    1  0.1210161E-006  0.9118800E+02  0.7816164E-02  0.1184000E+00
        -11   -1    0    0    0    0  0.00000000000E+00  0.00000000000E+00  0.45593999997E+02  0.45594000000E+02  0.51100000000E-03 0.  1.
         11   -1    0    0    0    0 -0.00000000000E+00 -0.00000000000E+00 -0.45593999997E+02  0.45594000000E+02  0.51100000000E-03 0. -1.
         23    2    1    2    0    0  0.00000000000E+00 -0.88817841970E-15  0.17763568394E-14  0.91188000000E+02  0.91188000000E+02 0.  0.
    9900012    2    3    3    0    0 -0.35017212221E+02  0.44647576280E+01 -0.10470886990E+02  0.54367099865E+02  0.40000035762E+02 0.  0.
        -12    1    3    3    0    0  0.35017212221E+02 -0.44647576280E+01  0.10470886990E+02  0.36820900135E+02  0.00000000000E+00 0.  1.
         11    1    4    4    0    0 -0.34206129009E+02  0.57956255869E+01 -0.13915648869E+00  0.34693917370E+02  0.51100000000E-03 0.  1.
        -11    1    4    4    0    0 -0.22734533719E+01 -0.55673711052E+01  0.21693522441E+01  0.63929883996E+01  0.51100000000E-03 0. -1.
        -12    1    4    4    0    0  0.14623701599E+01  0.42365031464E+01 -0.12501082746E+02  0.13280194095E+02  0.00000000000E+00 0.  1.
</event>
<event>
 8    1  0.1210161E-006  0.9118800E+02  0.7816164E-02  0.1184000E+00
        -11   -1    0    0    0    0  0.00000000000E+00  0.00000000000E+00  0.45593999997E+02  0.45594000000E+02  0.51100000000E-03 0. -1.
         11   -1    0    0    0    0 -0.00000000000E+00 -0.00000000000E+00 -0.45593999997E+02  0.45594000000E+02  0.51100000000E-03 0.  1.
         23    2    1    2    0    0 -0.35527136788E-14  0.00000000000E+00 -0.17763568394E-14  0.91188000000E+02  0.91188000000E+02 0.  0.
    9900012    2    3    3    0    0  0.25042618219E+02 -0.23075998590E+02  0.14005220505E+02  0.54367073347E+02  0.39999975309E+02 0.  0.
        -12    1    3    3    0    0 -0.25042618219E+02  0.23075998590E+02 -0.14005220505E+02  0.36820926653E+02  0.00000000000E+00 0.  1.
         11    1    4    4    0    0  0.47357504271E+01 -0.18058632278E+02  0.16787030020E+02  0.25106690523E+02  0.51100000000E-03 0. -1.
        -11    1    4    4    0    0  0.17145441170E+02 -0.12054164484E+02 -0.43069945827E+01  0.21396710890E+02  0.51100000000E-03 0.  1.
         12    1    4    4    0    0  0.31614266225E+01  0.70367981718E+01  0.15251850673E+01  0.78636719343E+01  0.00000000000E+00 0. -1.
</event>
<event>
 8    1  0.1210161E-006  0.9118800E+02  0.7816164E-02  0.1184000E+00
        -11   -1    0    0    0    0  0.00000000000E+00  0.00000000000E+00  0.45593999997E+02  0.45594000000E+02  0.51100000000E-03 0.  1.
         11   -1    0    0    0    0 -0.00000000000E+00 -0.00000000000E+00 -0.45593999997E+02  0.45594000000E+02  0.51100000000E-03 0. -1.
         23    2    1    2    0    0 -0.17763568394E-14  0.00000000000E+00 -0.35527136788E-14  0.91188000000E+02  0.91188000000E+02 0.  0.
    9900012    2    3    3    0    0  0.78971941777E+01 -0.26340406862E+02 -0.24486735130E+02  0.54367042559E+02  0.39999905122E+02 0.  0.
        -12    1    3    3    0    0 -0.78971941777E+01  0.26340406862E+02  0.24486735130E+02  0.36820957441E+02  0.00000000000E+00 0.  1.
         11    1    4    4    0    0 -0.56981946869E+01 -0.15537050656E+02 -0.17297072917E+02  0.23938631906E+02  0.51100000000E-03 0. -1.
        -11    1    4    4    0    0 -0.37241371161E+01 -0.10092737428E+02  0.17910965920E+01  0.10905987956E+02  0.51100000000E-03 0.  1.
         12    1    4    4    0    0  0.17319525981E+02 -0.71061877910E+00 -0.89807588048E+01  0.19522422697E+02  0.00000000000E+00 0. -1.
</event>
<event>
 8    1  0.1210161E-006  0.9118800E+02  0.7816164E-02  0.1184000E+00
        -11   -1    0    0    0    0  0.00000000000E+00  0.00000000000E+00  0.45593999997E+02  0.45594000000E+02  0.51100000000E-03 0.  1.
         11   -1    0    0    0    0 -0.00000000000E+00 -0.00000000000E+00 -0.45593999997E+02  0.45594000000E+02  0.51100000000E-03 0. -1.
         23    2    1    2    0    0 -0.35527136788E-14  0.35527136788E-14 -0.35527136788E-14  0.91188000000E+02  0.91188000000E+02 0.  0.
    9900012    2    3    3    0    0  0.25108832018E+02 -0.22400052211E+02  0.14952061210E+02  0.54367083135E+02  0.39999997623E+02 0.  0.
         12    1    3    3    0    0 -0.25108832018E+02  0.22400052211E+02 -0.14952061210E+02  0.36820916865E+02  0.00000000000E+00 0. -1.
         11    1    4    4    0    0 -0.12442614288E+01  0.12613597957E+01  0.48989434879E+01  0.52094973458E+01  0.51100000000E-03 0. -1.
        -11    1    4    4    0    0  0.10535117298E+02 -0.21486788905E+02  0.19267234885E+02  0.30722908949E+02  0.51100000000E-03 0.  1.
         12    1    4    4    0    0  0.15817976149E+02 -0.21746231017E+01 -0.92141171638E+01  0.18434676840E+02  0.00000000000E+00 0. -1.
</event>
<event>
 8    1  0.1210161E-006  0.9118800E+02  0.7816164E-02  0.1184000E+00
        -11   -1    0    0    0    0  0.00000000000E+00  0.00000000000E+00  0.45593999997E+02  0.45594000000E+02  0.51100000000E-03 0.  1.
         11   -1    0    0    0    0 -0.00000000000E+00 -0.00000000000E+00 -0.45593999997E+02  0.45594000000E+02  0.51100000000E-03 0. -1.
         23    2    1    2    0    0  0.00000000000E+00  0.00000000000E+00  0.00000000000E+00  0.91188000000E+02  0.91188000000E+02 0.  0.
    9900012    2    3    3    0    0  0.35982836927E+01  0.16715486230E+02 -0.32610225505E+02  0.54367055785E+02  0.39999935272E+02 0.  0.
        -12    1    3    3    0    0 -0.35982836927E+01 -0.16715486230E+02  0.32610225505E+02  0.36820944215E+02  0.00000000000E+00 0.  1.
         11    1    4    4    0    0 -0.75613216606E+01  0.23314197447E+02 -0.25105749985E+02  0.35085952608E+02  0.51100000000E-03 0. -1.
        -11    1    4    4    0    0  0.58943826735E+01 -0.81848473685E+01 -0.90689142020E+01  0.13563947752E+02  0.51100000000E-03 0.  1.
         12    1    4    4    0    0  0.52652226799E+01  0.15861361524E+01  0.15644386823E+01  0.57171554250E+01  0.00000000000E+00 0. -1.
</event>
<event>
 8    1  0.1210161E-006  0.9118800E+02  0.7816164E-02  0.1184000E+00
        -11   -1    0    0    0    0  0.00000000000E+00  0.00000000000E+00  0.45593999997E+02  0.45594000000E+02  0.51100000000E-03 0.  1.
         11   -1    0    0    0    0 -0.00000000000E+00 -0.00000000000E+00 -0.45593999997E+02  0.45594000000E+02  0.51100000000E-03 0. -1.
         23    2    1    2    0    0  0.88817841970E-15  0.00000000000E+00 -0.35527136788E-14  0.91188000000E+02  0.91188000000E+02 0.  0.
    9900012    2    3    3    0    0 -0.33714704845E+01 -0.32062959739E+02  0.17787027311E+02  0.54367101844E+02  0.40000040274E+02 0.  0.
         12    1    3    3    0    0  0.33714704845E+01  0.32062959739E+02 -0.17787027311E+02  0.36820898156E+02  0.00000000000E+00 0. -1.
         11    1    4    4    0    0 -0.15573676774E+01 -0.37291786356E+01 -0.95115947663E+01  0.10334534466E+02  0.51100000000E-03 0. -1.
        -11    1    4    4    0    0 -0.77797464465E+01 -0.13102732768E+02  0.22146706231E+02  0.26882757632E+02  0.51100000000E-03 0.  1.
        -12    1    4    4    0    0  0.59656436394E+01 -0.15231048335E+02  0.51519158471E+01  0.17149809746E+02  0.00000000000E+00 0.  1.
</event>
<event>
 8    1  0.1210161E-006  0.9118800E+02  0.7816164E-02  0.1184000E+00
        -11   -1    0    0    0    0  0.00000000000E+00  0.00000000000E+00  0.45593999997E+02  0.45594000000E+02  0.51100000000E-03 0.  1.
         11   -1    0    0    0    0 -0.00000000000E+00 -0.00000000000E+00 -0.45593999997E+02  0.45594000000E+02  0.51100000000E-03 0. -1.
         23    2    1    2    0    0 -0.17763568394E-14  0.00000000000E+00  0.00000000000E+00  0.91188000000E+02  0.91188000000E+02 0.  0.
    9900012    2    3    3    0    0 -0.64765269034E+01  0.16441978382E+02  0.32303178814E+02  0.54367089971E+02  0.40000013208E+02 0.  0.
         12    1    3    3    0    0  0.64765269034E+01 -0.16441978382E+02 -0.32303178814E+02  0.36820910029E+02  0.00000000000E+00 0. -1.
         11    1    4    4    0    0  0.37320660578E+01 -0.22275461974E+00 -0.98946095173E+00  0.38674241966E+01  0.51100000000E-03 0. -1.
        -11    1    4    4    0    0 -0.13902302321E+02  0.22834331071E+02  0.14575456333E+02  0.30448721038E+02  0.51100000000E-03 0.  1.
         12    1    4    4    0    0  0.36937093601E+01 -0.61695980690E+01  0.18717183433E+02  0.20050944736E+02  0.00000000000E+00 0. -1.
</event>
<event>
 8    1  0.1210161E-006  0.9118800E+02  0.7816164E-02  0.1184000E+00
        -11   -1    0    0    0    0  0.00000000000E+00  0.00000000000E+00  0.45593999997E+02  0.45594000000E+02  0.51100000000E-03 0.  1.
         11   -1    0    0    0    0 -0.00000000000E+00 -0.00000000000E+00 -0.45593999997E+02  0.45594000000E+02  0.51100000000E-03 0. -1.
         23    2    1    2    0    0  0.00000000000E+00 -0.17763568394E-14  0.17763568394E-14  0.91188000000E+02  0.91188000000E+02 0.  0.
    9900012    2    3    3    0    0  0.33887570146E+02  0.11426251413E+02 -0.87665728459E+01  0.54367089756E+02  0.40000012716E+02 0.  0.
        -12    1    3    3    0    0 -0.33887570146E+02 -0.11426251413E+02  0.87665728459E+01  0.36820910244E+02  0.00000000000E+00 0.  1.
         11    1    4    4    0    0  0.31656491517E+01  0.32623260927E+01 -0.10532037224E+02  0.11471177552E+02  0.51100000000E-03 0. -1.
        -11    1    4    4    0    0  0.69353095279E+01  0.11383924388E+02 -0.95112145314E+01  0.16375452813E+02  0.51100000000E-03 0.  1.
        -12    1    4    4    0    0  0.23786611466E+02 -0.32199990676E+01  0.11276678909E+02  0.26520459390E+02  0.00000000000E+00 0.  1.
</event>
<event>
 8    1  0.1210161E-006  0.9118800E+02  0.7816164E-02  0.1184000E+00
        -11   -1    0    0    0    0  0.00000000000E+00  0.00000000000E+00  0.45593999997E+02  0.45594000000E+02  0.51100000000E-03 0. -1.
         11   -1    0    0    0    0 -0.00000000000E+00 -0.00000000000E+00 -0.45593999997E+02  0.45594000000E+02  0.51100000000E-03 0.  1.
         23    2    1    2    0    0  0.88817841970E-15  0.71054273576E-14  0.00000000000E+00  0.91188000000E+02  0.91188000000E+02 0.  0.
    9900012    2    3    3    0    0  0.29720603986E+01 -0.35273228508E+02  0.10136295239E+02  0.54367105475E+02  0.40000048552E+02 0.  0.
         12    1    3    3    0    0 -0.29720603986E+01  0.35273228508E+02 -0.10136295239E+02  0.36820894525E+02  0.00000000000E+00 0. -1.
         11    1    4    4    0    0  0.13809150354E+02 -0.59221895170E+01  0.90164062223E+01  0.17523143085E+02  0.51100000000E-03 0. -1.
        -11    1    4    4    0    0  0.19290658020E+01 -0.89942281629E+01 -0.69144788068E+01  0.11507712742E+02  0.51100000000E-03 0.  1.
         12    1    4    4    0    0 -0.12766155757E+02 -0.20356810828E+02  0.80343678236E+01  0.25336249648E+02  0.00000000000E+00 0. -1.
</event>
<event>
 8    1  0.1210161E-006  0.9118800E+02  0.7816164E-02  0.1184000E+00
        -11   -1    0    0    0    0  0.00000000000E+00  0.00000000000E+00  0.45593999997E+02  0.45594000000E+02  0.51100000000E-03 0.  1.
         11   -1    0    0    0    0 -0.00000000000E+00 -0.00000000000E+00 -0.45593999997E+02  0.45594000000E+02  0.51100000000E-03 0. -1.
         23    2    1    2    0    0  0.00000000000E+00  0.00000000000E+00  0.00000000000E+00  0.91188000000E+02  0.91188000000E+02 0.  0.
    9900012    2    3    3    0    0  0.14435099267E+02 -0.23887439290E+02 -0.24016618039E+02  0.54367084902E+02  0.40000001651E+02 0.  0.
        -12    1    3    3    0    0 -0.14435099267E+02  0.23887439290E+02  0.24016618039E+02  0.36820915098E+02  0.00000000000E+00 0.  1.
         11    1    4    4    0    0  0.21033613594E+02 -0.13774283741E+02 -0.93495172277E+01  0.26824564601E+02  0.51100000000E-03 0. -1.
        -11    1    4    4    0    0 -0.40575746637E+00  0.51168191747E+01  0.52185276346E+00  0.51593418336E+01  0.51100000000E-03 0.  1.
         12    1    4    4    0    0 -0.61927568607E+01 -0.15229974723E+02 -0.15188953574E+02  0.22383178467E+02  0.00000000000E+00 0. -1.
</event>
<event>
 8    1  0.1210161E-006  0.9118800E+02  0.7816164E-02  0.1184000E+00
        -11   -1    0    0    0    0  0.00000000000E+00  0.00000000000E+00  0.45593999997E+02  0.45594000000E+02  0.51100000000E-03 0.  1.
         11   -1    0    0    0    0 -0.00000000000E+00 -0.00000000000E+00 -0.45593999997E+02  0.45594000000E+02  0.51100000000E-03 0. -1.
         23    2    1    2    0    0 -0.44408920985E-15  0.00000000000E+00 -0.71054273576E-14  0.91188000000E+02  0.91188000000E+02 0.  0.
    9900012    2    3    3    0    0  0.33541717410E+01 -0.16561878813E+02 -0.32714419662E+02  0.54367088119E+02  0.40000008986E+02 0.  0.
        -12    1    3    3    0    0 -0.33541717410E+01  0.16561878813E+02  0.32714419662E+02  0.36820911881E+02  0.00000000000E+00 0.  1.
         11    1    4    4    0    0 -0.98334295377E+00 -0.19629672069E+01 -0.44707629790E+01  0.49807555146E+01  0.51100000000E-03 0. -1.
        -11    1    4    4    0    0  0.15296201531E+02  0.26124467946E+01 -0.12767860188E+01  0.15570126599E+02  0.51100000000E-03 0.  1.
        -12    1    4    4    0    0 -0.10958686836E+02 -0.17211358400E+02 -0.26966870665E+02  0.33816206005E+02  0.00000000000E+00 0.  1.
</event>
<event>
 8    1  0.1210161E-006  0.9118800E+02  0.7816164E-02  0.1184000E+00
        -11   -1    0    0    0    0  0.00000000000E+00  0.00000000000E+00  0.45593999997E+02  0.45594000000E+02  0.51100000000E-03 0.  1.
         11   -1    0    0    0    0 -0.00000000000E+00 -0.00000000000E+00 -0.45593999997E+02  0.45594000000E+02  0.51100000000E-03 0. -1.
         23    2    1    2    0    0 -0.35527136788E-14  0.00000000000E+00 -0.61062266354E-15  0.91188000000E+02  0.91188000000E+02 0.  0.
    9900012    2    3    3    0    0 -0.18115289653E+02  0.32055740746E+02  0.23891010663E+00  0.54366928424E+02  0.39999644927E+02 0.  0.
         12    1    3    3    0    0  0.18115289653E+02 -0.32055740746E+02 -0.23891010663E+00  0.36821071576E+02  0.00000000000E+00 0. -1.
         11    1    4    4    0    0 -0.26483475260E+00  0.37218023241E+01 -0.97503009466E+01  0.10439842853E+02  0.51100000000E-03 0. -1.
        -11    1    4    4    0    0 -0.23688367665E+02  0.28215692997E+02  0.75928056519E+01  0.37615353140E+02  0.51100000000E-03 0.  1.
         12    1    4    4    0    0  0.58379127646E+01  0.11824542441E+00  0.23964054014E+01  0.63117324306E+01  0.00000000000E+00 0. -1.
</event>
<event>
 8    1  0.1210161E-006  0.9118800E+02  0.7816164E-02  0.1184000E+00
        -11   -1    0    0    0    0  0.00000000000E+00  0.00000000000E+00  0.45593999997E+02  0.45594000000E+02  0.51100000000E-03 0.  1.
         11   -1    0    0    0    0 -0.00000000000E+00 -0.00000000000E+00 -0.45593999997E+02  0.45594000000E+02  0.51100000000E-03 0. -1.
         23    2    1    2    0    0  0.71054273576E-14 -0.66613381478E-15  0.00000000000E+00  0.91188000000E+02  0.91188000000E+02 0.  0.
    9900012    2    3    3    0    0  0.35782345269E+02  0.10721370515E+01 -0.86169734992E+01  0.54367109963E+02  0.40000058782E+02 0.  0.
         12    1    3    3    0    0 -0.35782345269E+02 -0.10721370515E+01  0.86169734992E+01  0.36820890037E+02  0.00000000000E+00 0. -1.
         11    1    4    4    0    0  0.83545522934E+01 -0.89127718828E+01 -0.70450991817E+01  0.14102108686E+02  0.51100000000E-03 0. -1.
        -11    1    4    4    0    0  0.81496138345E+01 -0.88542538105E+01  0.41127771747E+01  0.12717269854E+02  0.51100000000E-03 0.  1.
        -12    1    4    4    0    0  0.19278179142E+02  0.18839162745E+02 -0.56846514922E+01  0.27547731423E+02  0.00000000000E+00 0.  1.
</event>
<event>
 8    1  0.1210161E-006  0.9118800E+02  0.7816164E-02  0.1184000E+00
        -11   -1    0    0    0    0  0.00000000000E+00  0.00000000000E+00  0.45593999997E+02  0.45594000000E+02  0.51100000000E-03 0.  1.
         11   -1    0    0    0    0 -0.00000000000E+00 -0.00000000000E+00 -0.45593999997E+02  0.45594000000E+02  0.51100000000E-03 0. -1.
         23    2    1    2    0    0  0.00000000000E+00 -0.17763568394E-14  0.71054273576E-14  0.91188000000E+02  0.91188000000E+02 0.  0.
    9900012    2    3    3    0    0  0.59570631580E+01  0.64180025444E+01 -0.35764527602E+02  0.54367098426E+02  0.40000032481E+02 0.  0.
        -12    1    3    3    0    0 -0.59570631580E+01 -0.64180025444E+01  0.35764527602E+02  0.36820901574E+02  0.00000000000E+00 0.  1.
         11    1    4    4    0    0 -0.86479713422E+00 -0.56796981453E+01 -0.47225972004E+01  0.74370538309E+01  0.51100000000E-03 0. -1.
        -11    1    4    4    0    0 -0.78044850096E+01 -0.70987102107E+01 -0.59344797539E+01  0.12104533165E+02  0.51100000000E-03 0.  1.
         12    1    4    4    0    0  0.14626345302E+02  0.19196410900E+02 -0.25107450648E+02  0.34825511430E+02  0.00000000000E+00 0. -1.
</event>
<event>
 8    1  0.1210161E-006  0.9118800E+02  0.7816164E-02  0.1184000E+00
        -11   -1    0    0    0    0  0.00000000000E+00  0.00000000000E+00  0.45593999997E+02  0.45594000000E+02  0.51100000000E-03 0.  1.
         11   -1    0    0    0    0 -0.00000000000E+00 -0.00000000000E+00 -0.45593999997E+02  0.45594000000E+02  0.51100000000E-03 0. -1.
         23    2    1    2    0    0  0.00000000000E+00  0.00000000000E+00  0.00000000000E+00  0.91188000000E+02  0.91188000000E+02 0.  0.
    9900012    2    3    3    0    0 -0.32244176178E+02  0.17767590199E+02 -0.63737321054E+00  0.54367076554E+02  0.39999982619E+02 0.  0.
         12    1    3    3    0    0  0.32244176178E+02 -0.17767590199E+02  0.63737321054E+00  0.36820923446E+02  0.00000000000E+00 0. -1.
         11    1    4    4    0    0 -0.64702630680E+01  0.11965989925E+02 -0.27285044792E+01  0.13874219113E+02  0.51100000000E-03 0. -1.
        -11    1    4    4    0    0 -0.32207077759E+02  0.70639179632E+00  0.11868464952E+01  0.32236678676E+02  0.51100000000E-03 0.  1.
        -12    1    4    4    0    0  0.64331646498E+01  0.50952084773E+01  0.90428477349E+00  0.82561787645E+01  0.00000000000E+00 0.  1.
</event>
<event>
 8    1  0.1210161E-006  0.9118800E+02  0.7816164E-02  0.1184000E+00
        -11   -1    0    0    0    0  0.00000000000E+00  0.00000000000E+00  0.45593999997E+02  0.45594000000E+02  0.51100000000E-03 0. -1.
         11   -1    0    0    0    0 -0.00000000000E+00 -0.00000000000E+00 -0.45593999997E+02  0.45594000000E+02  0.51100000000E-03 0.  1.
         23    2    1    2    0    0  0.00000000000E+00  0.00000000000E+00 -0.71054273576E-14  0.91188000000E+02  0.91188000000E+02 0.  0.
    9900012    2    3    3    0    0  0.10991726540E+02 -0.88282292205E+01  0.34015044015E+02  0.54367096931E+02  0.40000029073E+02 0.  0.
        -12    1    3    3    0    0 -0.10991726540E+02  0.88282292205E+01 -0.34015044015E+02  0.36820903069E+02  0.00000000000E+00 0.  1.
         11    1    4    4    0    0 -0.10889643036E+02 -0.80795182919E+01  0.18008366493E+02  0.22542497761E+02  0.51100000000E-03 0. -1.
        -11    1    4    4    0    0  0.10677460101E+02 -0.28481544525E+01  0.17114270959E+02  0.20372000607E+02  0.51100000000E-03 0.  1.
        -12    1    4    4    0    0  0.11203909475E+02  0.20994435239E+01 -0.11075934372E+01  0.11452598564E+02  0.00000000000E+00 0.  1.
</event>
<event>
 8    1  0.1210161E-006  0.9118800E+02  0.7816164E-02  0.1184000E+00
        -11   -1    0    0    0    0  0.00000000000E+00  0.00000000000E+00  0.45593999997E+02  0.45594000000E+02  0.51100000000E-03 0.  1.
         11   -1    0    0    0    0 -0.00000000000E+00 -0.00000000000E+00 -0.45593999997E+02  0.45594000000E+02  0.51100000000E-03 0. -1.
         23    2    1    2    0    0 -0.13322676296E-14  0.00000000000E+00  0.00000000000E+00  0.91188000000E+02  0.91188000000E+02 0.  0.
    9900012    2    3    3    0    0  0.36315808989E+01  0.12438910124E+02  0.34465426303E+02  0.54367075580E+02  0.39999980400E+02 0.  0.
         12    1    3    3    0    0 -0.36315808989E+01 -0.12438910124E+02 -0.34465426303E+02  0.36820924420E+02  0.00000000000E+00 0. -1.
         11    1    4    4    0    0 -0.38647368150E+01 -0.42872302589E+01 -0.24314102884E+01  0.62632491722E+01  0.51100000000E-03 0. -1.
        -11    1    4    4    0    0 -0.71111077655E+01  0.75196632072E+01  0.42819992138E+01  0.11200388651E+02  0.51100000000E-03 0.  1.
        -12    1    4    4    0    0  0.14607425479E+02  0.92064771761E+01  0.32614837377E+02  0.36903437757E+02  0.00000000000E+00 0.  1.
</event>
<event>
 8    1  0.1210161E-006  0.9118800E+02  0.7816164E-02  0.1184000E+00
        -11   -1    0    0    0    0  0.00000000000E+00  0.00000000000E+00  0.45593999997E+02  0.45594000000E+02  0.51100000000E-03 0.  1.
         11   -1    0    0    0    0 -0.00000000000E+00 -0.00000000000E+00 -0.45593999997E+02  0.45594000000E+02  0.51100000000E-03 0. -1.
         23    2    1    2    0    0  0.00000000000E+00  0.00000000000E+00 -0.35527136788E-14  0.91188000000E+02  0.91188000000E+02 0.  0.
    9900012    2    3    3    0    0  0.13711273222E+02  0.24921484997E+02 -0.23381677766E+02  0.54367051031E+02  0.39999924435E+02 0.  0.
         12    1    3    3    0    0 -0.13711273222E+02 -0.24921484997E+02  0.23381677766E+02  0.36820948969E+02  0.00000000000E+00 0. -1.
         11    1    4    4    0    0  0.17291385204E+02  0.24858343407E+02 -0.24827675840E+02  0.39157920362E+02  0.51100000000E-03 0. -1.
        -11    1    4    4    0    0  0.80155307119E+00  0.28206222090E+01  0.70163402569E+01  0.76044347478E+01  0.51100000000E-03 0.  1.
         12    1    4    4    0    0 -0.43816650538E+01 -0.27574806191E+01 -0.55703421831E+01  0.76046959206E+01  0.00000000000E+00 0. -1.
</event>
<event>
 8    1  0.1210161E-006  0.9118800E+02  0.7816164E-02  0.1184000E+00
        -11   -1    0    0    0    0  0.00000000000E+00  0.00000000000E+00  0.45593999997E+02  0.45594000000E+02  0.51100000000E-03 0.  1.
         11   -1    0    0    0    0 -0.00000000000E+00 -0.00000000000E+00 -0.45593999997E+02  0.45594000000E+02  0.51100000000E-03 0. -1.
         23    2    1    2    0    0 -0.44408920985E-15  0.00000000000E+00  0.35527136788E-14  0.91188000000E+02  0.91188000000E+02 0.  0.
    9900012    2    3    3    0    0  0.14410402257E+01  0.27224053641E+02 -0.24749843812E+02  0.54367075754E+02  0.39999980798E+02 0.  0.
        -12    1    3    3    0    0 -0.14410402257E+01 -0.27224053641E+02  0.24749843812E+02  0.36820924246E+02  0.00000000000E+00 0.  1.
         11    1    4    4    0    0  0.28698865755E+01  0.85403062603E+01 -0.35579990854E+01  0.96867144961E+01  0.51100000000E-03 0. -1.
        -11    1    4    4    0    0  0.12698277511E+02  0.96698988262E+01  0.19805722784E+01  0.16083403305E+02  0.51100000000E-03 0.  1.
         12    1    4    4    0    0 -0.14127123861E+02  0.90138485544E+01 -0.23172417005E+02  0.28596957953E+02  0.00000000000E+00 0. -1.
</event>
<event>
 8    1  0.1210161E-006  0.9118800E+02  0.7816164E-02  0.1184000E+00
        -11   -1    0    0    0    0  0.00000000000E+00  0.00000000000E+00  0.45593999997E+02  0.45594000000E+02  0.51100000000E-03 0. -1.
         11   -1    0    0    0    0 -0.00000000000E+00 -0.00000000000E+00 -0.45593999997E+02  0.45594000000E+02  0.51100000000E-03 0.  1.
         23    2    1    2    0    0 -0.17763568394E-14  0.17763568394E-14  0.71054273576E-14  0.91188000000E+02  0.91188000000E+02 0.  0.
    9900012    2    3    3    0    0 -0.10136802818E+02  0.11225390560E+02 -0.33571057154E+02  0.54367081448E+02  0.39999993776E+02 0.  0.
         12    1    3    3    0    0  0.10136802818E+02 -0.11225390560E+02  0.33571057154E+02  0.36820918552E+02  0.00000000000E+00 0. -1.
         11    1    4    4    0    0  0.10483213913E+02 -0.15795870518E+00 -0.69046712029E+01  0.12553772723E+02  0.51100000000E-03 0. -1.
        -11    1    4    4    0    0 -0.81860946268E+01  0.30450539666E+01  0.24519884132E+01  0.90717554166E+01  0.51100000000E-03 0.  1.
        -12    1    4    4    0    0 -0.12433922105E+02  0.83382952984E+01 -0.29118374364E+02  0.32741553308E+02  0.00000000000E+00 0.  1.
</event>
<event>
 8    1  0.1210161E-006  0.9118800E+02  0.7816164E-02  0.1184000E+00
        -11   -1    0    0    0    0  0.00000000000E+00  0.00000000000E+00  0.45593999997E+02  0.45594000000E+02  0.51100000000E-03 0. -1.
         11   -1    0    0    0    0 -0.00000000000E+00 -0.00000000000E+00 -0.45593999997E+02  0.45594000000E+02  0.51100000000E-03 0.  1.
         23    2    1    2    0    0  0.88817841970E-15  0.00000000000E+00 -0.71054273576E-14  0.91188000000E+02  0.91188000000E+02 0.  0.
    9900012    2    3    3    0    0 -0.41707435237E+01 -0.70548297582E+01  0.35897294265E+02  0.54367062206E+02  0.39999949911E+02 0.  0.
        -12    1    3    3    0    0  0.41707435237E+01  0.70548297582E+01 -0.35897294265E+02  0.36820937794E+02  0.00000000000E+00 0.  1.
         11    1    4    4    0    0 -0.54887459086E+01  0.81675513017E+00  0.80328001790E+01  0.97631603269E+01  0.51100000000E-03 0. -1.
        -11    1    4    4    0    0 -0.88815904377E+01 -0.77224381753E+01 -0.29595760823E+01  0.12135806151E+02  0.51100000000E-03 0.  1.
        -12    1    4    4    0    0  0.10199592823E+02 -0.14914671304E+00  0.30824070169E+02  0.32468095729E+02  0.00000000000E+00 0.  1.
</event>
<event>
 8    1  0.1210161E-006  0.9118800E+02  0.7816164E-02  0.1184000E+00
        -11   -1    0    0    0    0  0.00000000000E+00  0.00000000000E+00  0.45593999997E+02  0.45594000000E+02  0.51100000000E-03 0.  1.
         11   -1    0    0    0    0 -0.00000000000E+00 -0.00000000000E+00 -0.45593999997E+02  0.45594000000E+02  0.51100000000E-03 0. -1.
         23    2    1    2    0    0  0.17763568394E-14  0.00000000000E+00  0.00000000000E+00  0.91188000000E+02  0.91188000000E+02 0.  0.
    9900012    2    3    3    0    0 -0.11503503791E+02  0.17126123593E+02 -0.30498225692E+02  0.54367129842E+02  0.40000104101E+02 0.  0.
        -12    1    3    3    0    0  0.11503503791E+02 -0.17126123593E+02  0.30498225692E+02  0.36820870158E+02  0.00000000000E+00 0.  1.
         11    1    4    4    0    0 -0.90423137882E+01  0.12982875695E+02  0.33464247972E+01  0.16171489082E+02  0.51100000000E-03 0. -1.
        -11    1    4    4    0    0 -0.52190026701E+01  0.99406785618E+01 -0.22976982706E+02  0.25573361408E+02  0.51100000000E-03 0.  1.
        -12    1    4    4    0    0  0.27578126675E+01 -0.57974306636E+01 -0.10867667783E+02  0.12622279352E+02  0.00000000000E+00 0.  1.
</event>
<event>
 8    1  0.1210161E-006  0.9118800E+02  0.7816164E-02  0.1184000E+00
        -11   -1    0    0    0    0  0.00000000000E+00  0.00000000000E+00  0.45593999997E+02  0.45594000000E+02  0.51100000000E-03 0. -1.
         11   -1    0    0    0    0 -0.00000000000E+00 -0.00000000000E+00 -0.45593999997E+02  0.45594000000E+02  0.51100000000E-03 0.  1.
         23    2    1    2    0    0  0.22204460493E-14 -0.14210854715E-13 -0.17763568394E-14  0.91188000000E+02  0.91188000000E+02 0.  0.
    9900012    2    3    3    0    0 -0.24268318884E+01  0.34525797856E+02  0.12564158597E+02  0.54367104956E+02  0.40000047368E+02 0.  0.
        -12    1    3    3    0    0  0.24268318884E+01 -0.34525797856E+02 -0.12564158597E+02  0.36820895044E+02  0.00000000000E+00 0.  1.
         11    1    4    4    0    0  0.39817752955E+01  0.30310190143E+01  0.52393033449E+01  0.72451301279E+01  0.51100000000E-03 0. -1.
        -11    1    4    4    0    0  0.13099796935E+02  0.19904144982E+02  0.29176323205E+01  0.24006087683E+02  0.51100000000E-03 0.  1.
         12    1    4    4    0    0 -0.19508404119E+02  0.11590633859E+02  0.44072229319E+01  0.23115887145E+02  0.00000000000E+00 0. -1.
</event>
<event>
 8    1  0.1210161E-006  0.9118800E+02  0.7816164E-02  0.1184000E+00
        -11   -1    0    0    0    0  0.00000000000E+00  0.00000000000E+00  0.45593999997E+02  0.45594000000E+02  0.51100000000E-03 0.  1.
         11   -1    0    0    0    0 -0.00000000000E+00 -0.00000000000E+00 -0.45593999997E+02  0.45594000000E+02  0.51100000000E-03 0. -1.
         23    2    1    2    0    0 -0.88817841970E-15  0.00000000000E+00  0.00000000000E+00  0.91188000000E+02  0.91188000000E+02 0.  0.
    9900012    2    3    3    0    0  0.73264999600E+01  0.35673226893E+02 -0.54335183391E+01  0.54367084202E+02  0.40000000055E+02 0.  0.
        -12    1    3    3    0    0 -0.73264999600E+01 -0.35673226893E+02  0.54335183391E+01  0.36820915798E+02  0.00000000000E+00 0.  1.
         11    1    4    4    0    0  0.10296052003E+02  0.47584846442E+01 -0.37504279163E+01  0.11946446031E+02  0.51100000000E-03 0. -1.
        -11    1    4    4    0    0 -0.15302972947E+02  0.12517730282E+02 -0.39331340477E+01  0.20157978473E+02  0.51100000000E-03 0.  1.
        -12    1    4    4    0    0  0.12333420904E+02  0.18397011967E+02  0.22500436249E+01  0.22262659698E+02  0.00000000000E+00 0.  1.
</event>
<event>
 8    1  0.1210161E-006  0.9118800E+02  0.7816164E-02  0.1184000E+00
        -11   -1    0    0    0    0  0.00000000000E+00  0.00000000000E+00  0.45593999997E+02  0.45594000000E+02  0.51100000000E-03 0. -1.
         11   -1    0    0    0    0 -0.00000000000E+00 -0.00000000000E+00 -0.45593999997E+02  0.45594000000E+02  0.51100000000E-03 0.  1.
         23    2    1    2    0    0  0.27616797738E-14  0.00000000000E+00  0.00000000000E+00  0.91188000000E+02  0.91188000000E+02 0.  0.
    9900012    2    3    3    0    0  0.12053718878E+00  0.14041653215E+02  0.34038164858E+02  0.54367092609E+02  0.40000019220E+02 0.  0.
        -12    1    3    3    0    0 -0.12053718878E+00 -0.14041653215E+02 -0.34038164858E+02  0.36820907391E+02  0.00000000000E+00 0.  1.
         11    1    4    4    0    0  0.12887772169E+02  0.10798085712E+02  0.17297180931E+02  0.24122309072E+02  0.51100000000E-03 0. -1.
        -11    1    4    4    0    0 -0.17752807886E+02  0.26772741743E+01  0.69667521013E+01  0.19257871636E+02  0.51100000000E-03 0.  1.
        -12    1    4    4    0    0  0.49855729062E+01  0.56629332832E+00  0.97742318252E+01  0.10986911901E+02  0.00000000000E+00 0.  1.
</event>
<event>
 8    1  0.1210161E-006  0.9118800E+02  0.7816164E-02  0.1184000E+00
        -11   -1    0    0    0    0  0.00000000000E+00  0.00000000000E+00  0.45593999997E+02  0.45594000000E+02  0.51100000000E-03 0. -1.
         11   -1    0    0    0    0 -0.00000000000E+00 -0.00000000000E+00 -0.45593999997E+02  0.45594000000E+02  0.51100000000E-03 0.  1.
         23    2    1    2    0    0  0.00000000000E+00  0.00000000000E+00  0.35527136788E-14  0.91188000000E+02  0.91188000000E+02 0.  0.
    9900012    2    3    3    0    0 -0.11449187991E+02 -0.28394482489E+02  0.20456051206E+02  0.54367074259E+02  0.39999977388E+02 0.  0.
        -12    1    3    3    0    0  0.11449187991E+02  0.28394482489E+02 -0.20456051206E+02  0.36820925741E+02  0.00000000000E+00 0.  1.
         11    1    4    4    0    0  0.10635812638E+02 -0.34301975778E+01  0.43584705570E+01  0.11995125333E+02  0.51100000000E-03 0. -1.
        -11    1    4    4    0    0  0.18114439974E+00 -0.14658343550E+02  0.60125730165E+01  0.15844585304E+02  0.51100000000E-03 0.  1.
         12    1    4    4    0    0 -0.22266145029E+02 -0.10305941361E+02  0.10085007633E+02  0.26527363622E+02  0.00000000000E+00 0. -1.
</event>
<event>
 8    1  0.1210161E-006  0.9118800E+02  0.7816164E-02  0.1184000E+00
        -11   -1    0    0    0    0  0.00000000000E+00  0.00000000000E+00  0.45593999997E+02  0.45594000000E+02  0.51100000000E-03 0.  1.
         11   -1    0    0    0    0 -0.00000000000E+00 -0.00000000000E+00 -0.45593999997E+02  0.45594000000E+02  0.51100000000E-03 0. -1.
         23    2    1    2    0    0  0.00000000000E+00  0.00000000000E+00  0.88817841970E-15  0.91188000000E+02  0.91188000000E+02 0.  0.
    9900012    2    3    3    0    0  0.86493385833E+01  0.35519387424E+02  0.43978580367E+01  0.54367094305E+02  0.40000023086E+02 0.  0.
        -12    1    3    3    0    0 -0.86493385833E+01 -0.35519387424E+02 -0.43978580367E+01  0.36820905695E+02  0.00000000000E+00 0.  1.
         11    1    4    4    0    0  0.74949776957E+01  0.41786464405E+01 -0.12715228734E+01  0.86748226156E+01  0.51100000000E-03 0. -1.
        -11    1    4    4    0    0  0.87708965285E+01  0.42067323590E+01  0.13315979149E+02  0.16490619273E+02  0.51100000000E-03 0.  1.
        -12    1    4    4    0    0 -0.76165356409E+01  0.27134008625E+02 -0.76465982385E+01  0.29201652416E+02  0.00000000000E+00 0.  1.
</event>
<event>
 8    1  0.1210161E-006  0.9118800E+02  0.7816164E-02  0.1184000E+00
        -11   -1    0    0    0    0  0.00000000000E+00  0.00000000000E+00  0.45593999997E+02  0.45594000000E+02  0.51100000000E-03 0. -1.
         11   -1    0    0    0    0 -0.00000000000E+00 -0.00000000000E+00 -0.45593999997E+02  0.45594000000E+02  0.51100000000E-03 0.  1.
         23    2    1    2    0    0  0.00000000000E+00  0.00000000000E+00  0.00000000000E+00  0.91188000000E+02  0.91188000000E+02 0.  0.
    9900012    2    3    3    0    0  0.19333790247E+02 -0.27166067199E+02  0.15620142923E+02  0.54367088587E+02  0.40000010051E+02 0.  0.
         12    1    3    3    0    0 -0.19333790247E+02  0.27166067199E+02 -0.15620142923E+02  0.36820911413E+02  0.00000000000E+00 0. -1.
         11    1    4    4    0    0 -0.80571216104E+01 -0.83654301901E+01  0.84381181180E+01  0.14356164827E+02  0.51100000000E-03 0. -1.
        -11    1    4    4    0    0 -0.22624859555E+01 -0.70785825566E+01  0.20989760876E+01  0.77221029899E+01  0.51100000000E-03 0.  1.
        -12    1    4    4    0    0  0.29653397813E+02 -0.11722054452E+02  0.50830487178E+01  0.32288820770E+02  0.00000000000E+00 0.  1.
</event>
<event>
 8    1  0.1210161E-006  0.9118800E+02  0.7816164E-02  0.1184000E+00
        -11   -1    0    0    0    0  0.00000000000E+00  0.00000000000E+00  0.45593999997E+02  0.45594000000E+02  0.51100000000E-03 0. -1.
         11   -1    0    0    0    0 -0.00000000000E+00 -0.00000000000E+00 -0.45593999997E+02  0.45594000000E+02  0.51100000000E-03 0.  1.
         23    2    1    2    0    0  0.00000000000E+00  0.00000000000E+00  0.35527136788E-14  0.91188000000E+02  0.91188000000E+02 0.  0.
    9900012    2    3    3    0    0 -0.11079702411E+02  0.16857909377E+02 -0.30803067169E+02  0.54367111076E+02  0.40000061321E+02 0.  0.
         12    1    3    3    0    0  0.11079702411E+02 -0.16857909377E+02  0.30803067169E+02  0.36820888924E+02  0.00000000000E+00 0. -1.
         11    1    4    4    0    0  0.59821266952E+01 -0.23113853279E+01  0.91605072474E+00  0.64782320985E+01  0.51100000000E-03 0. -1.
        -11    1    4    4    0    0 -0.11455273659E+02  0.32366863621E+01 -0.28236778505E+02  0.30643353176E+02  0.51100000000E-03 0.  1.
         12    1    4    4    0    0 -0.56065554471E+01  0.15932608343E+02 -0.34823393887E+01  0.17245525802E+02  0.00000000000E+00 0. -1.
</event>
<event>
 8    1  0.1210161E-006  0.9118800E+02  0.7816164E-02  0.1184000E+00
        -11   -1    0    0    0    0  0.00000000000E+00  0.00000000000E+00  0.45593999997E+02  0.45594000000E+02  0.51100000000E-03 0.  1.
         11   -1    0    0    0    0 -0.00000000000E+00 -0.00000000000E+00 -0.45593999997E+02  0.45594000000E+02  0.51100000000E-03 0. -1.
         23    2    1    2    0    0  0.00000000000E+00 -0.35527136788E-14  0.00000000000E+00  0.91188000000E+02  0.91188000000E+02 0.  0.
    9900012    2    3    3    0    0 -0.48793947649E+01 -0.19728721870E+02  0.30704256157E+02  0.54367050717E+02  0.39999923720E+02 0.  0.
         12    1    3    3    0    0  0.48793947649E+01  0.19728721870E+02 -0.30704256157E+02  0.36820949283E+02  0.00000000000E+00 0. -1.
         11    1    4    4    0    0 -0.13349636816E+02  0.43884259435E+01  0.20048274744E+02  0.24482736894E+02  0.51100000000E-03 0. -1.
        -11    1    4    4    0    0  0.65112159549E+01 -0.78475529073E+01  0.86560344789E+01  0.13375610379E+02  0.51100000000E-03 0.  1.
         12    1    4    4    0    0  0.19590260961E+01 -0.16269594906E+02  0.19999469347E+01  0.16508703444E+02  0.00000000000E+00 0. -1.
</event>
<event>
 8    1  0.1210161E-006  0.9118800E+02  0.7816164E-02  0.1184000E+00
        -11   -1    0    0    0    0  0.00000000000E+00  0.00000000000E+00  0.45593999997E+02  0.45594000000E+02  0.51100000000E-03 0.  1.
         11   -1    0    0    0    0 -0.00000000000E+00 -0.00000000000E+00 -0.45593999997E+02  0.45594000000E+02  0.51100000000E-03 0. -1.
         23    2    1    2    0    0 -0.35527136788E-14  0.35527136788E-14  0.00000000000E+00  0.91188000000E+02  0.91188000000E+02 0.  0.
    9900012    2    3    3    0    0 -0.17021752954E+02  0.31513499927E+02 -0.85404261323E+01  0.54367087059E+02  0.40000006569E+02 0.  0.
        -12    1    3    3    0    0  0.17021752954E+02 -0.31513499927E+02  0.85404261323E+01  0.36820912941E+02  0.00000000000E+00 0.  1.
         11    1    4    4    0    0 -0.37754071835E+01  0.16393946868E+02 -0.14676011710E+02  0.22324885516E+02  0.51100000000E-03 0. -1.
        -11    1    4    4    0    0 -0.13273924154E+02  0.43273112422E+01 -0.65207827715E+01  0.15409195087E+02  0.51100000000E-03 0.  1.
        -12    1    4    4    0    0  0.27578382666E-01  0.10792241816E+02  0.12656368349E+02  0.16633006456E+02  0.00000000000E+00 0.  1.
</event>
<event>
 8    1  0.1210161E-006  0.9118800E+02  0.7816164E-02  0.1184000E+00
        -11   -1    0    0    0    0  0.00000000000E+00  0.00000000000E+00  0.45593999997E+02  0.45594000000E+02  0.51100000000E-03 0.  1.
         11   -1    0    0    0    0 -0.00000000000E+00 -0.00000000000E+00 -0.45593999997E+02  0.45594000000E+02  0.51100000000E-03 0. -1.
         23    2    1    2    0    0  0.00000000000E+00  0.00000000000E+00  0.00000000000E+00  0.91188000000E+02  0.91188000000E+02 0.  0.
    9900012    2    3    3    0    0 -0.63390565642E+00  0.24935467315E+02  0.27085081501E+02  0.54367068365E+02  0.39999963951E+02 0.  0.
        -12    1    3    3    0    0  0.63390565642E+00 -0.24935467315E+02 -0.27085081501E+02  0.36820931635E+02  0.00000000000E+00 0.  1.
         11    1    4    4    0    0  0.10875514520E+02  0.11113581017E+02  0.96663829790E+01  0.18309217876E+02  0.51100000000E-03 0. -1.
        -11    1    4    4    0    0 -0.71094959787E+01 -0.37512827778E+01  0.15976658655E+02  0.17884928783E+02  0.51100000000E-03 0.  1.
        -12    1    4    4    0    0 -0.43999241973E+01  0.17573169076E+02  0.14420398667E+01  0.18172921705E+02  0.00000000000E+00 0.  1.
</event>
<event>
 8    1  0.1210161E-006  0.9118800E+02  0.7816164E-02  0.1184000E+00
        -11   -1    0    0    0    0  0.00000000000E+00  0.00000000000E+00  0.45593999997E+02  0.45594000000E+02  0.51100000000E-03 0.  1.
         11   -1    0    0    0    0 -0.00000000000E+00 -0.00000000000E+00 -0.45593999997E+02  0.45594000000E+02  0.51100000000E-03 0. -1.
         23    2    1    2    0    0  0.35527136788E-14  0.35527136788E-14  0.17763568394E-14  0.91188000000E+02  0.91188000000E+02 0.  0.
    9900012    2    3    3    0    0  0.19976227222E+02  0.29239029336E+02 -0.10090035806E+02  0.54367091360E+02  0.40000016374E+02 0.  0.
        -12    1    3    3    0    0 -0.19976227222E+02 -0.29239029336E+02  0.10090035806E+02  0.36820908640E+02  0.00000000000E+00 0.  1.
         11    1    4    4    0    0  0.88042035016E+01  0.14698325249E+02 -0.23278500812E+01  0.17290854539E+02  0.51100000000E-03 0. -1.
        -11    1    4    4    0    0 -0.10023903678E+01  0.44265548475E+01  0.11371980269E+02  0.12244227610E+02  0.51100000000E-03 0.  1.
        -12    1    4    4    0    0  0.12174414088E+02  0.10114149239E+02 -0.19134165993E+02  0.24832009211E+02  0.00000000000E+00 0.  1.
</event>
<event>
 8    1  0.1210161E-006  0.9118800E+02  0.7816164E-02  0.1184000E+00
        -11   -1    0    0    0    0  0.00000000000E+00  0.00000000000E+00  0.45593999997E+02  0.45594000000E+02  0.51100000000E-03 0.  1.
         11   -1    0    0    0    0 -0.00000000000E+00 -0.00000000000E+00 -0.45593999997E+02  0.45594000000E+02  0.51100000000E-03 0. -1.
         23    2    1    2    0    0  0.00000000000E+00 -0.35527136788E-14  0.00000000000E+00  0.91188000000E+02  0.91188000000E+02 0.  0.
    9900012    2    3    3    0    0 -0.19768853737E+02 -0.26685748153E+02 -0.15901049904E+02  0.54367080394E+02  0.39999991375E+02 0.  0.
        -12    1    3    3    0    0  0.19768853737E+02  0.26685748153E+02  0.15901049904E+02  0.36820919606E+02  0.00000000000E+00 0.  1.
         11    1    4    4    0    0 -0.52325311835E+01 -0.20552056637E+02 -0.45950638073E+01  0.21699793231E+02  0.51100000000E-03 0. -1.
        -11    1    4    4    0    0 -0.76517649989E+01  0.40092942957E+01 -0.17062159115E+02  0.19124362010E+02  0.51100000000E-03 0.  1.
        -12    1    4    4    0    0 -0.68845575548E+01 -0.10142985811E+02  0.57561730185E+01  0.13542925153E+02  0.00000000000E+00 0.  1.
</event>
<event>
 8    1  0.1210161E-006  0.9118800E+02  0.7816164E-02  0.1184000E+00
        -11   -1    0    0    0    0  0.00000000000E+00  0.00000000000E+00  0.45593999997E+02  0.45594000000E+02  0.51100000000E-03 0. -1.
         11   -1    0    0    0    0 -0.00000000000E+00 -0.00000000000E+00 -0.45593999997E+02  0.45594000000E+02  0.51100000000E-03 0.  1.
         23    2    1    2    0    0 -0.17763568394E-14  0.00000000000E+00  0.71054273576E-14  0.91188000000E+02  0.91188000000E+02 0.  0.
    9900012    2    3    3    0    0 -0.10091868368E+02  0.84708121012E+01  0.34382824987E+02  0.54367093997E+02  0.40000022385E+02 0.  0.
        -12    1    3    3    0    0  0.10091868368E+02 -0.84708121012E+01 -0.34382824987E+02  0.36820906003E+02  0.00000000000E+00 0.  1.
         11    1    4    4    0    0 -0.88380557636E+01  0.87280753653E+01  0.20690208232E+02  0.24132452138E+02  0.51100000000E-03 0. -1.
        -11    1    4    4    0    0  0.66555206113E+01  0.10719421871E+02  0.10296293278E+02  0.16285441824E+02  0.51100000000E-03 0.  1.
         12    1    4    4    0    0 -0.79093332155E+01 -0.10976685135E+02  0.33963234767E+01  0.13949200035E+02  0.00000000000E+00 0. -1.
</event>
<event>
 8    1  0.1210161E-006  0.9118800E+02  0.7816164E-02  0.1184000E+00
        -11   -1    0    0    0    0  0.00000000000E+00  0.00000000000E+00  0.45593999997E+02  0.45594000000E+02  0.51100000000E-03 0.  1.
         11   -1    0    0    0    0 -0.00000000000E+00 -0.00000000000E+00 -0.45593999997E+02  0.45594000000E+02  0.51100000000E-03 0. -1.
         23    2    1    2    0    0  0.00000000000E+00  0.00000000000E+00  0.17763568394E-14  0.91188000000E+02  0.91188000000E+02 0.  0.
    9900012    2    3    3    0    0  0.20587742183E+02 -0.27685389057E+02 -0.12862381355E+02  0.54367126171E+02  0.40000095731E+02 0.  0.
        -12    1    3    3    0    0 -0.20587742183E+02  0.27685389057E+02  0.12862381355E+02  0.36820873829E+02  0.00000000000E+00 0.  1.
         11    1    4    4    0    0  0.26418214307E+02 -0.58556942813E+01 -0.88948828519E+01  0.28483857602E+02  0.51100000000E-03 0. -1.
        -11    1    4    4    0    0 -0.29035875481E+01 -0.64155271392E+01  0.41956074733E+01  0.81971294643E+01  0.51100000000E-03 0.  1.
         12    1    4    4    0    0 -0.29268845753E+01 -0.15414167637E+02 -0.81631059764E+01  0.17686139105E+02  0.00000000000E+00 0. -1.
</event>
<event>
 8    1  0.1210161E-006  0.9118800E+02  0.7816164E-02  0.1184000E+00
        -11   -1    0    0    0    0  0.00000000000E+00  0.00000000000E+00  0.45593999997E+02  0.45594000000E+02  0.51100000000E-03 0.  1.
         11   -1    0    0    0    0 -0.00000000000E+00 -0.00000000000E+00 -0.45593999997E+02  0.45594000000E+02  0.51100000000E-03 0. -1.
         23    2    1    2    0    0  0.00000000000E+00  0.00000000000E+00 -0.35527136788E-14  0.91188000000E+02  0.91188000000E+02 0.  0.
    9900012    2    3    3    0    0  0.27603426615E+02  0.73663683425E+01 -0.23228579608E+02  0.54367089446E+02  0.40000012009E+02 0.  0.
        -12    1    3    3    0    0 -0.27603426615E+02 -0.73663683425E+01  0.23228579608E+02  0.36820910554E+02  0.00000000000E+00 0.  1.
         11    1    4    4    0    0 -0.38482213021E+01  0.10258607868E+02 -0.13568924759E+02  0.17440285604E+02  0.51100000000E-03 0. -1.
        -11    1    4    4    0    0 -0.11817961703E+01  0.22858423325E+01 -0.10698932597E+01  0.27868242150E+01  0.51100000000E-03 0.  1.
        -12    1    4    4    0    0  0.32633444088E+02 -0.51780818575E+01 -0.85897615887E+01  0.34139979626E+02  0.00000000000E+00 0.  1.
</event>
<event>
 8    1  0.1210161E-006  0.9118800E+02  0.7816164E-02  0.1184000E+00
        -11   -1    0    0    0    0  0.00000000000E+00  0.00000000000E+00  0.45593999997E+02  0.45594000000E+02  0.51100000000E-03 0.  1.
         11   -1    0    0    0    0 -0.00000000000E+00 -0.00000000000E+00 -0.45593999997E+02  0.45594000000E+02  0.51100000000E-03 0. -1.
         23    2    1    2    0    0  0.17763568394E-14  0.35527136788E-14 -0.35527136788E-14  0.91188000000E+02  0.91188000000E+02 0.  0.
    9900012    2    3    3    0    0  0.11898969834E+02  0.27454635769E+02  0.21457817053E+02  0.54367076315E+02  0.39999982075E+02 0.  0.
         12    1    3    3    0    0 -0.11898969834E+02 -0.27454635769E+02 -0.21457817053E+02  0.36820923685E+02  0.00000000000E+00 0. -1.
         11    1    4    4    0    0 -0.15334554799E+01  0.10430335411E+02  0.85965970184E+01  0.13603119607E+02  0.51100000000E-03 0. -1.
        -11    1    4    4    0    0  0.15450086839E+02  0.25415348350E+02  0.12065752727E+02  0.32097157260E+02  0.51100000000E-03 0.  1.
         12    1    4    4    0    0 -0.20176615251E+01 -0.83910479914E+01  0.79546730789E+00  0.86667994474E+01  0.00000000000E+00 0. -1.
</event>
<event>
 8    1  0.1210161E-006  0.9118800E+02  0.7816164E-02  0.1184000E+00
        -11   -1    0    0    0    0  0.00000000000E+00  0.00000000000E+00  0.45593999997E+02  0.45594000000E+02  0.51100000000E-03 0.  1.
         11   -1    0    0    0    0 -0.00000000000E+00 -0.00000000000E+00 -0.45593999997E+02  0.45594000000E+02  0.51100000000E-03 0. -1.
         23    2    1    2    0    0 -0.88817841970E-15  0.00000000000E+00  0.35527136788E-14  0.91188000000E+02  0.91188000000E+02 0.  0.
    9900012    2    3    3    0    0  0.27120307927E+01 -0.32776101727E+02  0.16557570731E+02  0.54367067041E+02  0.39999960934E+02 0.  0.
         12    1    3    3    0    0 -0.27120307927E+01  0.32776101727E+02 -0.16557570731E+02  0.36820932959E+02  0.00000000000E+00 0. -1.
         11    1    4    4    0    0  0.19350732356E+01 -0.11041528319E+02 -0.41299036030E+01  0.11946378534E+02  0.51100000000E-03 0. -1.
        -11    1    4    4    0    0  0.88998911275E+01 -0.94939495903E+01 -0.40681910232E+01  0.13634270034E+02  0.51100000000E-03 0.  1.
        -12    1    4    4    0    0 -0.81229335705E+01 -0.12240623818E+02  0.24755665357E+02  0.28786418473E+02  0.00000000000E+00 0.  1.
</event>
<event>
 8    1  0.1210161E-006  0.9118800E+02  0.7816164E-02  0.1184000E+00
        -11   -1    0    0    0    0  0.00000000000E+00  0.00000000000E+00  0.45593999997E+02  0.45594000000E+02  0.51100000000E-03 0. -1.
         11   -1    0    0    0    0 -0.00000000000E+00 -0.00000000000E+00 -0.45593999997E+02  0.45594000000E+02  0.51100000000E-03 0.  1.
         23    2    1    2    0    0  0.00000000000E+00  0.88817841970E-15  0.00000000000E+00  0.91188000000E+02  0.91188000000E+02 0.  0.
    9900012    2    3    3    0    0 -0.16163612066E+02  0.76470386975E+01 -0.32187585162E+02  0.54367079392E+02  0.39999989090E+02 0.  0.
         12    1    3    3    0    0  0.16163612066E+02 -0.76470386975E+01  0.32187585162E+02  0.36820920608E+02  0.00000000000E+00 0. -1.
         11    1    4    4    0    0 -0.26133661351E+01 -0.35801418800E+01 -0.46779462720E+01  0.64443991203E+01  0.51100000000E-03 0. -1.
        -11    1    4    4    0    0 -0.11330632652E+02  0.44750305491E+01 -0.35320284830E+02  0.37362168773E+02  0.51100000000E-03 0.  1.
         12    1    4    4    0    0 -0.22196132786E+01  0.67521500284E+01  0.78106459399E+01  0.10560511499E+02  0.00000000000E+00 0. -1.
</event>
<event>
 8    1  0.1210161E-006  0.9118800E+02  0.7816164E-02  0.1184000E+00
        -11   -1    0    0    0    0  0.00000000000E+00  0.00000000000E+00  0.45593999997E+02  0.45594000000E+02  0.51100000000E-03 0. -1.
         11   -1    0    0    0    0 -0.00000000000E+00 -0.00000000000E+00 -0.45593999997E+02  0.45594000000E+02  0.51100000000E-03 0.  1.
         23    2    1    2    0    0 -0.88817841970E-15  0.00000000000E+00  0.00000000000E+00  0.91188000000E+02  0.91188000000E+02 0.  0.
    9900012    2    3    3    0    0  0.46329950399E+01 -0.43010371507E+01  0.36274181101E+02  0.54367085044E+02  0.40000001976E+02 0.  0.
        -12    1    3    3    0    0 -0.46329950399E+01  0.43010371507E+01 -0.36274181101E+02  0.36820914956E+02  0.00000000000E+00 0.  1.
         11    1    4    4    0    0  0.57225560850E+01  0.65692375713E+01 -0.53215498916E+00  0.87284431377E+01  0.51100000000E-03 0. -1.
        -11    1    4    4    0    0  0.17822977859E+01 -0.95669372788E+01  0.11002422777E+01  0.97935390755E+01  0.51100000000E-03 0.  1.
         12    1    4    4    0    0 -0.28718588309E+01 -0.13033374432E+01  0.35706093813E+02  0.35845102831E+02  0.00000000000E+00 0. -1.
</event>
<event>
 8    1  0.1210161E-006  0.9118800E+02  0.7816164E-02  0.1184000E+00
        -11   -1    0    0    0    0  0.00000000000E+00  0.00000000000E+00  0.45593999997E+02  0.45594000000E+02  0.51100000000E-03 0. -1.
         11   -1    0    0    0    0 -0.00000000000E+00 -0.00000000000E+00 -0.45593999997E+02  0.45594000000E+02  0.51100000000E-03 0.  1.
         23    2    1    2    0    0  0.00000000000E+00  0.35527136788E-14 -0.35527136788E-14  0.91188000000E+02  0.91188000000E+02 0.  0.
    9900012    2    3    3    0    0 -0.84935003781E+01  0.20156566587E+02 -0.29620188305E+02  0.54367051065E+02  0.39999924513E+02 0.  0.
         12    1    3    3    0    0  0.84935003781E+01 -0.20156566587E+02  0.29620188305E+02  0.36820948935E+02  0.00000000000E+00 0. -1.
         11    1    4    4    0    0 -0.35649529040E+01  0.38136525974E+01 -0.13824461888E+02  0.14777299553E+02  0.51100000000E-03 0.  1.
        -11    1    4    4    0    0 -0.14803151862E+02 -0.24844054533E+01 -0.57181951899E+01  0.16062482124E+02  0.51100000000E-03 0. -1.
        -12    1    4    4    0    0  0.98746043876E+01  0.18827319442E+02 -0.10077531227E+02  0.23527269388E+02  0.00000000000E+00 0.  1.
</event>
<event>
 8    1  0.1210161E-006  0.9118800E+02  0.7816164E-02  0.1184000E+00
        -11   -1    0    0    0    0  0.00000000000E+00  0.00000000000E+00  0.45593999997E+02  0.45594000000E+02  0.51100000000E-03 0.  1.
         11   -1    0    0    0    0 -0.00000000000E+00 -0.00000000000E+00 -0.45593999997E+02  0.45594000000E+02  0.51100000000E-03 0. -1.
         23    2    1    2    0    0  0.00000000000E+00 -0.88817841970E-15  0.00000000000E+00  0.91188000000E+02  0.91188000000E+02 0.  0.
    9900012    2    3    3    0    0 -0.33170599175E+02 -0.38088040091E+01  0.15523686972E+02  0.54367075312E+02  0.39999979789E+02 0.  0.
         12    1    3    3    0    0  0.33170599175E+02  0.38088040091E+01 -0.15523686972E+02  0.36820924688E+02  0.00000000000E+00 0. -1.
         11    1    4    4    0    0 -0.16789085381E+02 -0.11129917269E+01  0.15533436333E+02  0.22899776922E+02  0.51100000000E-03 0. -1.
        -11    1    4    4    0    0 -0.75526937880E+01 -0.12985216582E+02  0.65714071952E+01  0.16396415033E+02  0.51100000000E-03 0.  1.
         12    1    4    4    0    0 -0.88288200065E+01  0.10289404300E+02 -0.65811565556E+01  0.15070883357E+02  0.00000000000E+00 0. -1.
</event>
<event>
 8    1  0.1210161E-006  0.9118800E+02  0.7816164E-02  0.1184000E+00
        -11   -1    0    0    0    0  0.00000000000E+00  0.00000000000E+00  0.45593999997E+02  0.45594000000E+02  0.51100000000E-03 0. -1.
         11   -1    0    0    0    0 -0.00000000000E+00 -0.00000000000E+00 -0.45593999997E+02  0.45594000000E+02  0.51100000000E-03 0.  1.
         23    2    1    2    0    0 -0.35527136788E-14  0.00000000000E+00  0.00000000000E+00  0.91188000000E+02  0.91188000000E+02 0.  0.
    9900012    2    3    3    0    0  0.22334947044E+02  0.18528363001E+02 -0.22663432657E+02  0.54367064722E+02  0.39999955647E+02 0.  0.
         12    1    3    3    0    0 -0.22334947044E+02 -0.18528363001E+02  0.22663432657E+02  0.36820935278E+02  0.00000000000E+00 0. -1.
         11    1    4    4    0    0  0.14264419150E+02 -0.25114923478E+01 -0.16080873446E+02  0.21641990171E+02  0.51100000000E-03 0.  1.
        -11    1    4    4    0    0  0.88936729019E+01  0.18898880820E+02 -0.13878251017E+02  0.25077299805E+02  0.51100000000E-03 0. -1.
         12    1    4    4    0    0 -0.82314500845E+00  0.21409745288E+01  0.72956918063E+01  0.76477747463E+01  0.00000000000E+00 0. -1.
</event>
<event>
 8    1  0.1210161E-006  0.9118800E+02  0.7816164E-02  0.1184000E+00
        -11   -1    0    0    0    0  0.00000000000E+00  0.00000000000E+00  0.45593999997E+02  0.45594000000E+02  0.51100000000E-03 0.  1.
         11   -1    0    0    0    0 -0.00000000000E+00 -0.00000000000E+00 -0.45593999997E+02  0.45594000000E+02  0.51100000000E-03 0. -1.
         23    2    1    2    0    0  0.00000000000E+00 -0.94368957093E-15 -0.71054273576E-14  0.91188000000E+02  0.91188000000E+02 0.  0.
    9900012    2    3    3    0    0  0.31827554921E+02  0.41436417605E+00  0.18509945548E+02  0.54367040831E+02  0.39999901183E+02 0.  0.
         12    1    3    3    0    0 -0.31827554921E+02 -0.41436417605E+00 -0.18509945548E+02  0.36820959169E+02  0.00000000000E+00 0. -1.
         11    1    4    4    0    0  0.61692864675E+01  0.15042043848E+02 -0.26690815215E+01  0.16475654010E+02  0.51100000000E-03 0. -1.
        -11    1    4    4    0    0  0.12874367033E+02 -0.10174777270E+02  0.17221100645E+02  0.23787427912E+02  0.51100000000E-03 0.  1.
         12    1    4    4    0    0  0.12783901421E+02 -0.44529024017E+01  0.39579264243E+01  0.14103958909E+02  0.00000000000E+00 0. -1.
</event>
<event>
 8    1  0.1210161E-006  0.9118800E+02  0.7816164E-02  0.1184000E+00
        -11   -1    0    0    0    0  0.00000000000E+00  0.00000000000E+00  0.45593999997E+02  0.45594000000E+02  0.51100000000E-03 0. -1.
         11   -1    0    0    0    0 -0.00000000000E+00 -0.00000000000E+00 -0.45593999997E+02  0.45594000000E+02  0.51100000000E-03 0.  1.
         23    2    1    2    0    0  0.53290705182E-14  0.00000000000E+00  0.00000000000E+00  0.91188000000E+02  0.91188000000E+02 0.  0.
    9900012    2    3    3    0    0  0.83501301464E+01  0.30501916397E+01 -0.35731713690E+02  0.54367031711E+02  0.39999880391E+02 0.  0.
         12    1    3    3    0    0 -0.83501301464E+01 -0.30501916397E+01  0.35731713690E+02  0.36820968289E+02  0.00000000000E+00 0. -1.
         11    1    4    4    0    0 -0.21124022400E+01 -0.49321081619E+01 -0.15355070127E+02  0.16265488404E+02  0.51100000000E-03 0. -1.
        -11    1    4    4    0    0 -0.88891190393E+01  0.27536099747E+01 -0.14469602811E+02  0.17203726659E+02  0.51100000000E-03 0.  1.
         12    1    4    4    0    0  0.19351651426E+02  0.52286898269E+01 -0.59070407526E+01  0.20897816648E+02  0.00000000000E+00 0. -1.
</event>
<event>
 8    1  0.1210161E-006  0.9118800E+02  0.7816164E-02  0.1184000E+00
        -11   -1    0    0    0    0  0.00000000000E+00  0.00000000000E+00  0.45593999997E+02  0.45594000000E+02  0.51100000000E-03 0.  1.
         11   -1    0    0    0    0 -0.00000000000E+00 -0.00000000000E+00 -0.45593999997E+02  0.45594000000E+02  0.51100000000E-03 0. -1.
         23    2    1    2    0    0  0.00000000000E+00  0.35527136788E-14  0.00000000000E+00  0.91188000000E+02  0.91188000000E+02 0.  0.
    9900012    2    3    3    0    0  0.59605923626E+01  0.23189815288E+02  0.27972682318E+02  0.54367256519E+02  0.40000392884E+02 0.  0.
         12    1    3    3    0    0 -0.59605923626E+01 -0.23189815288E+02 -0.27972682318E+02  0.36820743481E+02  0.00000000000E+00 0. -1.
         11    1    4    4    0    0 -0.70862026844E+01  0.14781629278E+02 -0.28608696275E+01  0.16640174515E+02  0.51100000000E-03 0. -1.
        -11    1    4    4    0    0  0.13164478181E+02 -0.15237286731E+00  0.19322220736E+02  0.23381080336E+02  0.51100000000E-03 0.  1.
        -12    1    4    4    0    0 -0.11768313418E+00  0.85605588779E+01  0.11511331210E+02  0.14346001668E+02  0.00000000000E+00 0.  1.
</event>
<event>
 8    1  0.1210161E-006  0.9118800E+02  0.7816164E-02  0.1184000E+00
        -11   -1    0    0    0    0  0.00000000000E+00  0.00000000000E+00  0.45593999997E+02  0.45594000000E+02  0.51100000000E-03 0. -1.
         11   -1    0    0    0    0 -0.00000000000E+00 -0.00000000000E+00 -0.45593999997E+02  0.45594000000E+02  0.51100000000E-03 0.  1.
         23    2    1    2    0    0  0.35527136788E-14  0.00000000000E+00  0.66613381478E-15  0.91188000000E+02  0.91188000000E+02 0.  0.
    9900012    2    3    3    0    0  0.25278466178E+02 -0.26726226678E+02  0.15772576767E+01  0.54367084930E+02  0.40000001716E+02 0.  0.
         12    1    3    3    0    0 -0.25278466178E+02  0.26726226678E+02 -0.15772576767E+01  0.36820915070E+02  0.00000000000E+00 0. -1.
         11    1    4    4    0    0  0.66935839316E+01 -0.81878588814E+01 -0.33112712066E+01  0.11081950017E+02  0.51100000000E-03 0. -1.
        -11    1    4    4    0    0  0.76806363401E+01 -0.19688074073E+02 -0.11121033240E+02  0.23880741527E+02  0.51100000000E-03 0.  1.
         12    1    4    4    0    0  0.10904245907E+02  0.11497062759E+01  0.16009562124E+02  0.19404393387E+02  0.00000000000E+00 0. -1.
</event>
<event>
 8    1  0.1210161E-006  0.9118800E+02  0.7816164E-02  0.1184000E+00
        -11   -1    0    0    0    0  0.00000000000E+00  0.00000000000E+00  0.45593999997E+02  0.45594000000E+02  0.51100000000E-03 0. -1.
         11   -1    0    0    0    0 -0.00000000000E+00 -0.00000000000E+00 -0.45593999997E+02  0.45594000000E+02  0.51100000000E-03 0.  1.
         23    2    1    2    0    0  0.17763568394E-14  0.00000000000E+00  0.44408920985E-15  0.91188000000E+02  0.91188000000E+02 0.  0.
    9900012    2    3    3    0    0  0.14441629090E+02 -0.33791849786E+02 -0.23083323669E+01  0.54367107004E+02  0.40000052037E+02 0.  0.
        -12    1    3    3    0    0 -0.14441629090E+02  0.33791849786E+02  0.23083323669E+01  0.36820892996E+02  0.00000000000E+00 0.  1.
         11    1    4    4    0    0  0.81585111985E+01 -0.39446728886E+02  0.48807924835E+01  0.40576198199E+02  0.51100000000E-03 0. -1.
        -11    1    4    4    0    0  0.47679027168E+01  0.70716366638E+01 -0.28688024005E+01  0.89983870163E+01  0.51100000000E-03 0.  1.
         12    1    4    4    0    0  0.15152151745E+01 -0.14167575637E+01 -0.43203224499E+01  0.47925217882E+01  0.00000000000E+00 0. -1.
</event>
<event>
 8    1  0.1210161E-006  0.9118800E+02  0.7816164E-02  0.1184000E+00
        -11   -1    0    0    0    0  0.00000000000E+00  0.00000000000E+00  0.45593999997E+02  0.45594000000E+02  0.51100000000E-03 0.  1.
         11   -1    0    0    0    0 -0.00000000000E+00 -0.00000000000E+00 -0.45593999997E+02  0.45594000000E+02  0.51100000000E-03 0. -1.
         23    2    1    2    0    0  0.35527136788E-14 -0.35527136788E-14  0.35527136788E-14  0.91188000000E+02  0.91188000000E+02 0.  0.
    9900012    2    3    3    0    0 -0.23708826127E+02  0.11944183744E+02 -0.25514852957E+02  0.54367086336E+02  0.40000004920E+02 0.  0.
        -12    1    3    3    0    0  0.23708826127E+02 -0.11944183744E+02  0.25514852957E+02  0.36820913664E+02  0.00000000000E+00 0.  1.
         11    1    4    4    0    0 -0.27131348292E+00 -0.37679267217E+01  0.12316253927E+01  0.39733844711E+01  0.51100000000E-03 0. -1.
        -11    1    4    4    0    0  0.67608915037E+01 -0.23567297236E+01 -0.71293036057E+01  0.10103999163E+02  0.51100000000E-03 0.  1.
         12    1    4    4    0    0 -0.30198404148E+02  0.18068840190E+02 -0.19617174744E+02  0.40289702702E+02  0.00000000000E+00 0. -1.
</event>
<event>
 8    1  0.1210161E-006  0.9118800E+02  0.7816164E-02  0.1184000E+00
        -11   -1    0    0    0    0  0.00000000000E+00  0.00000000000E+00  0.45593999997E+02  0.45594000000E+02  0.51100000000E-03 0.  1.
         11   -1    0    0    0    0 -0.00000000000E+00 -0.00000000000E+00 -0.45593999997E+02  0.45594000000E+02  0.51100000000E-03 0. -1.
         23    2    1    2    0    0 -0.17763568394E-14  0.35527136788E-14 -0.35527136788E-14  0.91188000000E+02  0.91188000000E+02 0.  0.
    9900012    2    3    3    0    0 -0.56320321350E+01  0.26113405060E+02  0.25340687354E+02  0.54367080058E+02  0.39999990609E+02 0.  0.
         12    1    3    3    0    0  0.56320321350E+01 -0.26113405060E+02 -0.25340687354E+02  0.36820919942E+02  0.00000000000E+00 0. -1.
         11    1    4    4    0    0 -0.46851763286E+00  0.15822403562E+01 -0.55120816878E+01  0.57537846772E+01  0.51100000000E-03 0. -1.
        -11    1    4    4    0    0 -0.60962186056E+01  0.30246996430E+02  0.21480259374E+02  0.37595827127E+02  0.51100000000E-03 0.  1.
         12    1    4    4    0    0  0.93270410345E+00 -0.57158317262E+01  0.93725096675E+01  0.11017468254E+02  0.00000000000E+00 0. -1.
</event>
<event>
 8    1  0.1210161E-006  0.9118800E+02  0.7816164E-02  0.1184000E+00
        -11   -1    0    0    0    0  0.00000000000E+00  0.00000000000E+00  0.45593999997E+02  0.45594000000E+02  0.51100000000E-03 0.  1.
         11   -1    0    0    0    0 -0.00000000000E+00 -0.00000000000E+00 -0.45593999997E+02  0.45594000000E+02  0.51100000000E-03 0. -1.
         23    2    1    2    0    0 -0.35527136788E-14 -0.35527136788E-14  0.44408920985E-15  0.91188000000E+02  0.91188000000E+02 0.  0.
    9900012    2    3    3    0    0  0.20216838346E+02 -0.30550887717E+02 -0.37017228524E+01  0.54367081420E+02  0.39999993713E+02 0.  0.
         12    1    3    3    0    0 -0.20216838346E+02  0.30550887717E+02  0.37017228524E+01  0.36820918580E+02  0.00000000000E+00 0. -1.
         11    1    4    4    0    0  0.75207191613E+01 -0.13265487470E+02 -0.50534473109E+01  0.16064610313E+02  0.51100000000E-03 0. -1.
        -11    1    4    4    0    0  0.19224660567E+02  0.46439812909E+00 -0.93135065255E+00  0.19252808986E+02  0.51100000000E-03 0.  1.
        -12    1    4    4    0    0 -0.65285413824E+01 -0.17749798376E+02  0.22830751110E+01  0.19049662121E+02  0.00000000000E+00 0.  1.
</event>
<event>
 8    1  0.1210161E-006  0.9118800E+02  0.7816164E-02  0.1184000E+00
        -11   -1    0    0    0    0  0.00000000000E+00  0.00000000000E+00  0.45593999997E+02  0.45594000000E+02  0.51100000000E-03 0.  1.
         11   -1    0    0    0    0 -0.00000000000E+00 -0.00000000000E+00 -0.45593999997E+02  0.45594000000E+02  0.51100000000E-03 0. -1.
         23    2    1    2    0    0  0.00000000000E+00  0.00000000000E+00  0.17763568394E-14  0.91188000000E+02  0.91188000000E+02 0.  0.
    9900012    2    3    3    0    0  0.89130893622E+01 -0.33800477039E+02 -0.11570145059E+02  0.54367032241E+02  0.39999881599E+02 0.  0.
        -12    1    3    3    0    0 -0.89130893622E+01  0.33800477039E+02  0.11570145059E+02  0.36820967759E+02  0.00000000000E+00 0.  1.
         11    1    4    4    0    0  0.88256046795E+01 -0.11564940811E+02 -0.52134911320E+01  0.15453790602E+02  0.51100000000E-03 0. -1.
        -11    1    4    4    0    0  0.58788377607E+01 -0.22096241862E+02  0.73625790094E+01  0.24021078406E+02  0.51100000000E-03 0.  1.
        -12    1    4    4    0    0 -0.57913530780E+01 -0.13929436609E+00 -0.13719232936E+02  0.14892163233E+02  0.00000000000E+00 0.  1.
</event>
<event>
 8    1  0.1210161E-006  0.9118800E+02  0.7816164E-02  0.1184000E+00
        -11   -1    0    0    0    0  0.00000000000E+00  0.00000000000E+00  0.45593999997E+02  0.45594000000E+02  0.51100000000E-03 0. -1.
         11   -1    0    0    0    0 -0.00000000000E+00 -0.00000000000E+00 -0.45593999997E+02  0.45594000000E+02  0.51100000000E-03 0.  1.
         23    2    1    2    0    0  0.00000000000E+00 -0.17763568394E-14 -0.71054273576E-14  0.91188000000E+02  0.91188000000E+02 0.  0.
    9900012    2    3    3    0    0  0.87465838215E+01  0.15308710318E+02 -0.32325233243E+02  0.54367081430E+02  0.39999993735E+02 0.  0.
         12    1    3    3    0    0 -0.87465838215E+01 -0.15308710318E+02  0.32325233243E+02  0.36820918570E+02  0.00000000000E+00 0. -1.
         11    1    4    4    0    0  0.65796204070E+01 -0.42724333674E+01 -0.12518262693E+02  0.14773354145E+02  0.51100000000E-03 0. -1.
        -11    1    4    4    0    0 -0.74268367507E+01 -0.42531179961E+01 -0.42151969834E+01  0.95401678539E+01  0.51100000000E-03 0.  1.
        -12    1    4    4    0    0  0.95938001652E+01  0.23834261682E+02 -0.15591773567E+02  0.30053559431E+02  0.00000000000E+00 0.  1.
</event>
<event>
 8    1  0.1210161E-006  0.9118800E+02  0.7816164E-02  0.1184000E+00
        -11   -1    0    0    0    0  0.00000000000E+00  0.00000000000E+00  0.45593999997E+02  0.45594000000E+02  0.51100000000E-03 0. -1.
         11   -1    0    0    0    0 -0.00000000000E+00 -0.00000000000E+00 -0.45593999997E+02  0.45594000000E+02  0.51100000000E-03 0.  1.
         23    2    1    2    0    0 -0.35527136788E-14  0.00000000000E+00 -0.44408920985E-15  0.91188000000E+02  0.91188000000E+02 0.  0.
    9900012    2    3    3    0    0  0.26708155866E+02  0.25293847908E+02  0.16354010349E+01  0.54367097399E+02  0.40000030141E+02 0.  0.
        -12    1    3    3    0    0 -0.26708155866E+02 -0.25293847908E+02 -0.16354010349E+01  0.36820902601E+02  0.00000000000E+00 0.  1.
         11    1    4    4    0    0  0.48752927677E+01  0.21119990688E+02  0.99657856540E+01  0.23856642056E+02  0.51100000000E-03 0. -1.
        -11    1    4    4    0    0  0.83453348148E+01 -0.77123696242E+01 -0.28347655899E+01  0.11711582071E+02  0.51100000000E-03 0.  1.
        -12    1    4    4    0    0  0.13487528284E+02  0.11886226845E+02 -0.54956190293E+01  0.18798873273E+02  0.00000000000E+00 0.  1.
</event>
<event>
 8    1  0.1210161E-006  0.9118800E+02  0.7816164E-02  0.1184000E+00
        -11   -1    0    0    0    0  0.00000000000E+00  0.00000000000E+00  0.45593999997E+02  0.45594000000E+02  0.51100000000E-03 0. -1.
         11   -1    0    0    0    0 -0.00000000000E+00 -0.00000000000E+00 -0.45593999997E+02  0.45594000000E+02  0.51100000000E-03 0.  1.
         23    2    1    2    0    0 -0.35527136788E-14 -0.88817841970E-15  0.00000000000E+00  0.91188000000E+02  0.91188000000E+02 0.  0.
    9900012    2    3    3    0    0  0.15623109912E+02 -0.41539785849E+01  0.33082371292E+02  0.54367076713E+02  0.39999982983E+02 0.  0.
        -12    1    3    3    0    0 -0.15623109912E+02  0.41539785849E+01 -0.33082371292E+02  0.36820923287E+02  0.00000000000E+00 0.  1.
         11    1    4    4    0    0  0.38161318916E+01 -0.10617366077E+02  0.10692710051E+02  0.15544303572E+02  0.51100000000E-03 0. -1.
        -11    1    4    4    0    0  0.16330994325E+02  0.13603976837E+02  0.92083050894E+01  0.23163817567E+02  0.51100000000E-03 0.  1.
         12    1    4    4    0    0 -0.45240163040E+01 -0.71405893442E+01  0.13181356151E+02  0.15658955574E+02  0.00000000000E+00 0. -1.
</event>
<event>
 8    1  0.1210161E-006  0.9118800E+02  0.7816164E-02  0.1184000E+00
        -11   -1    0    0    0    0  0.00000000000E+00  0.00000000000E+00  0.45593999997E+02  0.45594000000E+02  0.51100000000E-03 0. -1.
         11   -1    0    0    0    0 -0.00000000000E+00 -0.00000000000E+00 -0.45593999997E+02  0.45594000000E+02  0.51100000000E-03 0.  1.
         23    2    1    2    0    0 -0.17763568394E-14  0.00000000000E+00  0.35527136788E-14  0.91188000000E+02  0.91188000000E+02 0.  0.
    9900012    2    3    3    0    0  0.15611699636E+02 -0.11150648198E+02 -0.31427947421E+02  0.54367109192E+02  0.40000057025E+02 0.  0.
         12    1    3    3    0    0 -0.15611699636E+02  0.11150648198E+02  0.31427947421E+02  0.36820890808E+02  0.00000000000E+00 0. -1.
         11    1    4    4    0    0  0.20292096978E+02 -0.27281846791E+01 -0.21830602403E+02  0.29929707532E+02  0.51100000000E-03 0. -1.
        -11    1    4    4    0    0  0.53510755126E+01 -0.30879317478E+01  0.34984886701E+01  0.70999123133E+01  0.51100000000E-03 0.  1.
        -12    1    4    4    0    0 -0.10031472855E+02 -0.53345317712E+01 -0.13095833688E+02  0.17337489347E+02  0.00000000000E+00 0.  1.
</event>
<event>
 8    1  0.1210161E-006  0.9118800E+02  0.7816164E-02  0.1184000E+00
        -11   -1    0    0    0    0  0.00000000000E+00  0.00000000000E+00  0.45593999997E+02  0.45594000000E+02  0.51100000000E-03 0.  1.
         11   -1    0    0    0    0 -0.00000000000E+00 -0.00000000000E+00 -0.45593999997E+02  0.45594000000E+02  0.51100000000E-03 0. -1.
         23    2    1    2    0    0 -0.88817841970E-15 -0.44408920985E-14  0.71054273576E-14  0.91188000000E+02  0.91188000000E+02 0.  0.
    9900012    2    3    3    0    0  0.26068749946E+01 -0.58922254690E+01 -0.36252847991E+02  0.54367039859E+02  0.39999898967E+02 0.  0.
        -12    1    3    3    0    0 -0.26068749946E+01  0.58922254690E+01  0.36252847991E+02  0.36820960141E+02  0.00000000000E+00 0.  1.
         11    1    4    4    0    0 -0.31201095290E+01 -0.45897059701E+01 -0.47510035944E+01  0.73056498534E+01  0.51100000000E-03 0. -1.
        -11    1    4    4    0    0  0.11017577702E+02  0.14435793693E+02 -0.13941095295E+02  0.22893957636E+02  0.51100000000E-03 0.  1.
        -12    1    4    4    0    0 -0.52905931780E+01 -0.15738313192E+02 -0.17560749102E+02  0.24167432370E+02  0.00000000000E+00 0.  1.
</event>
<event>
 8    1  0.1210161E-006  0.9118800E+02  0.7816164E-02  0.1184000E+00
        -11   -1    0    0    0    0  0.00000000000E+00  0.00000000000E+00  0.45593999997E+02  0.45594000000E+02  0.51100000000E-03 0.  1.
         11   -1    0    0    0    0 -0.00000000000E+00 -0.00000000000E+00 -0.45593999997E+02  0.45594000000E+02  0.51100000000E-03 0. -1.
         23    2    1    2    0    0 -0.17763568394E-14  0.35527136788E-14  0.35527136788E-14  0.91188000000E+02  0.91188000000E+02 0.  0.
    9900012    2    3    3    0    0  0.12615966675E+02 -0.21092106541E+02  0.27417858055E+02  0.54367102213E+02  0.40000041116E+02 0.  0.
         12    1    3    3    0    0 -0.12615966675E+02  0.21092106541E+02 -0.27417858055E+02  0.36820897787E+02  0.00000000000E+00 0. -1.
         11    1    4    4    0    0  0.34437561099E+01 -0.15804789914E+02 -0.22846462202E+01  0.16336169961E+02  0.51100000000E-03 0. -1.
        -11    1    4    4    0    0  0.15084767771E+02 -0.68713443505E+01  0.26128288270E+02  0.30942738083E+02  0.51100000000E-03 0.  1.
         12    1    4    4    0    0 -0.59125572058E+01  0.15840277231E+01  0.35742160048E+01  0.70881941698E+01  0.00000000000E+00 0. -1.
</event>
<event>
 8    1  0.1210161E-006  0.9118800E+02  0.7816164E-02  0.1184000E+00
        -11   -1    0    0    0    0  0.00000000000E+00  0.00000000000E+00  0.45593999997E+02  0.45594000000E+02  0.51100000000E-03 0.  1.
         11   -1    0    0    0    0 -0.00000000000E+00 -0.00000000000E+00 -0.45593999997E+02  0.45594000000E+02  0.51100000000E-03 0. -1.
         23    2    1    2    0    0 -0.35527136788E-14 -0.26645352591E-14  0.35527136788E-14  0.91188000000E+02  0.91188000000E+02 0.  0.
    9900012    2    3    3    0    0 -0.23919624993E+02 -0.66434870442E+01 -0.27193655238E+02  0.54367092012E+02  0.40000017859E+02 0.  0.
        -12    1    3    3    0    0  0.23919624993E+02  0.66434870442E+01  0.27193655238E+02  0.36820907988E+02  0.00000000000E+00 0.  1.
         11    1    4    4    0    0 -0.17554383168E+02  0.70083696714E+01 -0.46268289621E+01  0.19459731765E+02  0.51100000000E-03 0. -1.
        -11    1    4    4    0    0  0.58092020830E+01 -0.65688724527E+01 -0.57009718230E+00  0.87876006509E+01  0.51100000000E-03 0.  1.
         12    1    4    4    0    0 -0.12174443908E+02 -0.70829842629E+01 -0.21996729093E+02  0.26119759596E+02  0.00000000000E+00 0. -1.
</event>
<event>
 8    1  0.1210161E-006  0.9118800E+02  0.7816164E-02  0.1184000E+00
        -11   -1    0    0    0    0  0.00000000000E+00  0.00000000000E+00  0.45593999997E+02  0.45594000000E+02  0.51100000000E-03 0.  1.
         11   -1    0    0    0    0 -0.00000000000E+00 -0.00000000000E+00 -0.45593999997E+02  0.45594000000E+02  0.51100000000E-03 0. -1.
         23    2    1    2    0    0  0.35527136788E-14 -0.35527136788E-14 -0.88817841970E-15  0.91188000000E+02  0.91188000000E+02 0.  0.
    9900012    2    3    3    0    0 -0.29486957924E+02  0.21116932380E+02  0.63539957770E+01  0.54367098557E+02  0.40000032780E+02 0.  0.
        -12    1    3    3    0    0  0.29486957924E+02 -0.21116932380E+02 -0.63539957770E+01  0.36820901443E+02  0.00000000000E+00 0.  1.
         11    1    4    4    0    0 -0.15135626434E+02 -0.21184837434E+01  0.39288074476E+01  0.15780072533E+02  0.51100000000E-03 0.  1.
        -11    1    4    4    0    0  0.32293933735E+00  0.23693961568E+02  0.30538748772E+01  0.23892137967E+02  0.51100000000E-03 0. -1.
         12    1    4    4    0    0 -0.14674270827E+02 -0.45854544441E+00 -0.62868654787E+00  0.14694888057E+02  0.00000000000E+00 0. -1.
</event>
<event>
 8    1  0.1210161E-006  0.9118800E+02  0.7816164E-02  0.1184000E+00
        -11   -1    0    0    0    0  0.00000000000E+00  0.00000000000E+00  0.45593999997E+02  0.45594000000E+02  0.51100000000E-03 0.  1.
         11   -1    0    0    0    0 -0.00000000000E+00 -0.00000000000E+00 -0.45593999997E+02  0.45594000000E+02  0.51100000000E-03 0. -1.
         23    2    1    2    0    0  0.00000000000E+00  0.17763568394E-14  0.00000000000E+00  0.91188000000E+02  0.91188000000E+02 0.  0.
    9900012    2    3    3    0    0  0.29645103912E+02  0.13113385854E+02  0.17463893871E+02  0.54367073020E+02  0.39999974564E+02 0.  0.
        -12    1    3    3    0    0 -0.29645103912E+02 -0.13113385854E+02 -0.17463893871E+02  0.36820926980E+02  0.00000000000E+00 0.  1.
         11    1    4    4    0    0  0.22175645038E+02  0.23242325428E+02  0.36045315041E+01  0.32325803498E+02  0.51100000000E-03 0. -1.
        -11    1    4    4    0    0  0.40668074889E+01 -0.92062277241E+00  0.11079860678E+02  0.11838487333E+02  0.51100000000E-03 0.  1.
         12    1    4    4    0    0  0.34026513854E+01 -0.92083168013E+01  0.27795016891E+01  0.10202782189E+02  0.00000000000E+00 0. -1.
</event>
<event>
 8    1  0.1210161E-006  0.9118800E+02  0.7816164E-02  0.1184000E+00
        -11   -1    0    0    0    0  0.00000000000E+00  0.00000000000E+00  0.45593999997E+02  0.45594000000E+02  0.51100000000E-03 0. -1.
         11   -1    0    0    0    0 -0.00000000000E+00 -0.00000000000E+00 -0.45593999997E+02  0.45594000000E+02  0.51100000000E-03 0.  1.
         23    2    1    2    0    0 -0.44408920985E-15  0.00000000000E+00 -0.35527136788E-14  0.91188000000E+02  0.91188000000E+02 0.  0.
    9900012    2    3    3    0    0  0.20519313047E+01  0.20737638065E+02 -0.30356525657E+02  0.54367099624E+02  0.40000035212E+02 0.  0.
         12    1    3    3    0    0 -0.20519313047E+01 -0.20737638065E+02  0.30356525657E+02  0.36820900376E+02  0.00000000000E+00 0. -1.
         11    1    4    4    0    0  0.50413125965E+01  0.83348101476E+01  0.31859596130E+01  0.10248620971E+02  0.51100000000E-03 0. -1.
        -11    1    4    4    0    0  0.98970271445E+01  0.84908580993E+01 -0.24925431132E+02  0.28130462758E+02  0.51100000000E-03 0.  1.
         12    1    4    4    0    0 -0.12886408436E+02  0.39119698179E+01 -0.86170541372E+01  0.15988015895E+02  0.00000000000E+00 0. -1.
</event>
<event>
 8    1  0.1210161E-006  0.9118800E+02  0.7816164E-02  0.1184000E+00
        -11   -1    0    0    0    0  0.00000000000E+00  0.00000000000E+00  0.45593999997E+02  0.45594000000E+02  0.51100000000E-03 0. -1.
         11   -1    0    0    0    0 -0.00000000000E+00 -0.00000000000E+00 -0.45593999997E+02  0.45594000000E+02  0.51100000000E-03 0.  1.
         23    2    1    2    0    0  0.00000000000E+00  0.00000000000E+00 -0.35527136788E-14  0.91188000000E+02  0.91188000000E+02 0.  0.
    9900012    2    3    3    0    0 -0.13971884516E+02 -0.25202189102E+02 -0.22921947546E+02  0.54367087847E+02  0.40000008365E+02 0.  0.
         12    1    3    3    0    0  0.13971884516E+02  0.25202189102E+02  0.22921947546E+02  0.36820912153E+02  0.00000000000E+00 0. -1.
         11    1    4    4    0    0  0.47374463898E+01 -0.40360860464E+01  0.58338105394E+01  0.85303419944E+01  0.51100000000E-03 0. -1.
        -11    1    4    4    0    0  0.46868207635E+01 -0.48465161188E+01 -0.85086715273E+01  0.10855989074E+02  0.51100000000E-03 0.  1.
        -12    1    4    4    0    0 -0.23396151670E+02 -0.16319586937E+02 -0.20247086558E+02  0.34980756779E+02  0.00000000000E+00 0.  1.
</event>
<event>
 8    1  0.1210161E-006  0.9118800E+02  0.7816164E-02  0.1184000E+00
        -11   -1    0    0    0    0  0.00000000000E+00  0.00000000000E+00  0.45593999997E+02  0.45594000000E+02  0.51100000000E-03 0. -1.
         11   -1    0    0    0    0 -0.00000000000E+00 -0.00000000000E+00 -0.45593999997E+02  0.45594000000E+02  0.51100000000E-03 0.  1.
         23    2    1    2    0    0  0.00000000000E+00  0.35527136788E-14  0.35527136788E-14  0.91188000000E+02  0.91188000000E+02 0.  0.
    9900012    2    3    3    0    0 -0.16893254067E+02  0.23937090456E+02  0.22302778562E+02  0.54367078446E+02  0.39999986934E+02 0.  0.
        -12    1    3    3    0    0  0.16893254067E+02 -0.23937090456E+02 -0.22302778562E+02  0.36820921554E+02  0.00000000000E+00 0.  1.
         11    1    4    4    0    0 -0.61530903881E+01  0.16074356698E+02  0.11826781308E+02  0.20883443704E+02  0.51100000000E-03 0. -1.
        -11    1    4    4    0    0  0.31907047535E+01 -0.65255442515E+01 -0.44388743191E+01  0.85127510292E+01  0.51100000000E-03 0.  1.
         12    1    4    4    0    0 -0.13930868432E+02  0.14388278010E+02  0.14914871573E+02  0.24970883713E+02  0.00000000000E+00 0. -1.
</event>
<event>
 8    1  0.1210161E-006  0.9118800E+02  0.7816164E-02  0.1184000E+00
        -11   -1    0    0    0    0  0.00000000000E+00  0.00000000000E+00  0.45593999997E+02  0.45594000000E+02  0.51100000000E-03 0. -1.
         11   -1    0    0    0    0 -0.00000000000E+00 -0.00000000000E+00 -0.45593999997E+02  0.45594000000E+02  0.51100000000E-03 0.  1.
         23    2    1    2    0    0 -0.17763568394E-14  0.00000000000E+00 -0.17763568394E-14  0.91188000000E+02  0.91188000000E+02 0.  0.
    9900012    2    3    3    0    0 -0.89456269254E+01 -0.32017029973E+02 -0.15832414671E+02  0.54367084698E+02  0.40000001186E+02 0.  0.
         12    1    3    3    0    0  0.89456269254E+01  0.32017029973E+02  0.15832414671E+02  0.36820915302E+02  0.00000000000E+00 0. -1.
         11    1    4    4    0    0  0.13395269144E+01 -0.17926841840E+02 -0.15963943222E+02  0.24041910784E+02  0.51100000000E-03 0. -1.
        -11    1    4    4    0    0  0.69402976115E+01 -0.76795896853E+01 -0.46291057956E+01  0.11338979204E+02  0.51100000000E-03 0.  1.
         12    1    4    4    0    0 -0.17225451451E+02 -0.64105984472E+01  0.47606343463E+01  0.18986194709E+02  0.00000000000E+00 0. -1.
</event>
<event>
 8    1  0.1210161E-006  0.9118800E+02  0.7816164E-02  0.1184000E+00
        -11   -1    0    0    0    0  0.00000000000E+00  0.00000000000E+00  0.45593999997E+02  0.45594000000E+02  0.51100000000E-03 0. -1.
         11   -1    0    0    0    0 -0.00000000000E+00 -0.00000000000E+00 -0.45593999997E+02  0.45594000000E+02  0.51100000000E-03 0.  1.
         23    2    1    2    0    0  0.00000000000E+00  0.00000000000E+00  0.88817841970E-15  0.91188000000E+02  0.91188000000E+02 0.  0.
    9900012    2    3    3    0    0 -0.25024188274E+02 -0.26590920758E+02  0.47425380261E+01  0.54367099245E+02  0.40000034348E+02 0.  0.
        -12    1    3    3    0    0  0.25024188274E+02  0.26590920758E+02 -0.47425380261E+01  0.36820900755E+02  0.00000000000E+00 0.  1.
         11    1    4    4    0    0 -0.15034021551E+02 -0.20134368190E+02  0.40063250400E+01  0.25445338021E+02  0.51100000000E-03 0. -1.
        -11    1    4    4    0    0 -0.47870468068E-01 -0.58598499401E+01 -0.11642118364E+02  0.13033765886E+02  0.51100000000E-03 0.  1.
         12    1    4    4    0    0 -0.99422962546E+01 -0.59670262816E+00  0.12378331350E+02  0.15887995338E+02  0.00000000000E+00 0. -1.
</event>
<event>
 8    1  0.1210161E-006  0.9118800E+02  0.7816164E-02  0.1184000E+00
        -11   -1    0    0    0    0  0.00000000000E+00  0.00000000000E+00  0.45593999997E+02  0.45594000000E+02  0.51100000000E-03 0.  1.
         11   -1    0    0    0    0 -0.00000000000E+00 -0.00000000000E+00 -0.45593999997E+02  0.45594000000E+02  0.51100000000E-03 0. -1.
         23    2    1    2    0    0  0.00000000000E+00  0.00000000000E+00 -0.13322676296E-14  0.91188000000E+02  0.91188000000E+02 0.  0.
    9900012    2    3    3    0    0  0.12759614578E+02 -0.34386796681E+02  0.32435611075E+01  0.54367078790E+02  0.39999987717E+02 0.  0.
         12    1    3    3    0    0 -0.12759614578E+02  0.34386796681E+02 -0.32435611075E+01  0.36820921210E+02  0.00000000000E+00 0. -1.
         11    1    4    4    0    0 -0.92213213127E+01 -0.28658301559E+01  0.94635461152E-01  0.96568475894E+01  0.51100000000E-03 0. -1.
        -11    1    4    4    0    0 -0.31226233502E+01 -0.43111183815E+01 -0.44250763127E+01  0.69222697810E+01  0.51100000000E-03 0.  1.
        -12    1    4    4    0    0  0.25103559241E+02 -0.27209848143E+02  0.75740019591E+01  0.37787961419E+02  0.00000000000E+00 0.  1.
</event>
<event>
 8    1  0.1210161E-006  0.9118800E+02  0.7816164E-02  0.1184000E+00
        -11   -1    0    0    0    0  0.00000000000E+00  0.00000000000E+00  0.45593999997E+02  0.45594000000E+02  0.51100000000E-03 0.  1.
         11   -1    0    0    0    0 -0.00000000000E+00 -0.00000000000E+00 -0.45593999997E+02  0.45594000000E+02  0.51100000000E-03 0. -1.
         23    2    1    2    0    0 -0.71054273576E-14  0.26645352591E-14  0.71054273576E-14  0.91188000000E+02  0.91188000000E+02 0.  0.
    9900012    2    3    3    0    0  0.23392629291E+02 -0.64001478498E+01 -0.27705622394E+02  0.54367102266E+02  0.40000041237E+02 0.  0.
        -12    1    3    3    0    0 -0.23392629291E+02  0.64001478498E+01  0.27705622394E+02  0.36820897734E+02  0.00000000000E+00 0.  1.
         11    1    4    4    0    0  0.91900614027E+01 -0.94977824867E+01 -0.16040874978E+02  0.20784002768E+02  0.51100000000E-03 0. -1.
        -11    1    4    4    0    0 -0.23600687224E+01  0.95052516182E+01  0.33258093196E+01  0.10343149452E+02  0.51100000000E-03 0.  1.
        -12    1    4    4    0    0  0.16562636611E+02 -0.64076169814E+01 -0.14990556736E+02  0.23239950046E+02  0.00000000000E+00 0.  1.
</event>
<event>
 8    1  0.1210161E-006  0.9118800E+02  0.7816164E-02  0.1184000E+00
        -11   -1    0    0    0    0  0.00000000000E+00  0.00000000000E+00  0.45593999997E+02  0.45594000000E+02  0.51100000000E-03 0. -1.
         11   -1    0    0    0    0 -0.00000000000E+00 -0.00000000000E+00 -0.45593999997E+02  0.45594000000E+02  0.51100000000E-03 0.  1.
         23    2    1    2    0    0  0.35527136788E-14  0.71054273576E-14  0.00000000000E+00  0.91188000000E+02  0.91188000000E+02 0.  0.
    9900012    2    3    3    0    0  0.82412843140E+01  0.35341909575E+02  0.62298267941E+01  0.54367080926E+02  0.39999992588E+02 0.  0.
        -12    1    3    3    0    0 -0.82412843140E+01 -0.35341909575E+02 -0.62298267941E+01  0.36820919074E+02  0.00000000000E+00 0.  1.
         11    1    4    4    0    0  0.38430307315E+01  0.13804902369E+02  0.92461656765E+01  0.17053908484E+02  0.51100000000E-03 0. -1.
        -11    1    4    4    0    0 -0.10175319486E+02  0.74773632511E+01 -0.97710970387E+01  0.15966290284E+02  0.51100000000E-03 0.  1.
        -12    1    4    4    0    0  0.14573573068E+02  0.14059643955E+02  0.67547581564E+01  0.21346882158E+02  0.00000000000E+00 0.  1.
</event>
<event>
 8    1  0.1210161E-006  0.9118800E+02  0.7816164E-02  0.1184000E+00
        -11   -1    0    0    0    0  0.00000000000E+00  0.00000000000E+00  0.45593999997E+02  0.45594000000E+02  0.51100000000E-03 0. -1.
         11   -1    0    0    0    0 -0.00000000000E+00 -0.00000000000E+00 -0.45593999997E+02  0.45594000000E+02  0.51100000000E-03 0.  1.
         23    2    1    2    0    0 -0.35527136788E-14 -0.88817841970E-15 -0.35527136788E-14  0.91188000000E+02  0.91188000000E+02 0.  0.
    9900012    2    3    3    0    0 -0.20118183167E+02 -0.33140264773E+01 -0.30660422418E+02  0.54367006419E+02  0.39999822734E+02 0.  0.
         12    1    3    3    0    0  0.20118183167E+02  0.33140264773E+01  0.30660422418E+02  0.36820993581E+02  0.00000000000E+00 0. -1.
         11    1    4    4    0    0  0.29519430020E+01  0.88030664040E+00 -0.39817829900E+00  0.31060350106E+01  0.51100000000E-03 0. -1.
        -11    1    4    4    0    0 -0.18729304406E+02 -0.15572961582E+02 -0.75696233730E+01  0.25506924045E+02  0.51100000000E-03 0.  1.
         12    1    4    4    0    0 -0.43408217630E+01  0.11378628464E+02 -0.22692620746E+02  0.25754047364E+02  0.00000000000E+00 0. -1.
</event>
<event>
 8    1  0.1210161E-006  0.9118800E+02  0.7816164E-02  0.1184000E+00
        -11   -1    0    0    0    0  0.00000000000E+00  0.00000000000E+00  0.45593999997E+02  0.45594000000E+02  0.51100000000E-03 0.  1.
         11   -1    0    0    0    0 -0.00000000000E+00 -0.00000000000E+00 -0.45593999997E+02  0.45594000000E+02  0.51100000000E-03 0. -1.
         23    2    1    2    0    0 -0.17763568394E-14  0.00000000000E+00 -0.71054273576E-14  0.91188000000E+02  0.91188000000E+02 0.  0.
    9900012    2    3    3    0    0  0.12792027809E+02  0.74526911626E+01 -0.33713549785E+02  0.54367054600E+02  0.39999932572E+02 0.  0.
        -12    1    3    3    0    0 -0.12792027809E+02 -0.74526911626E+01  0.33713549785E+02  0.36820945400E+02  0.00000000000E+00 0.  1.
         11    1    4    4    0    0  0.20262502359E+02  0.63903333900E+01 -0.19624195475E+02  0.28922558859E+02  0.51100000000E-03 0. -1.
        -11    1    4    4    0    0 -0.36730176040E+01 -0.55505976578E+01  0.25605276653E+01  0.71313739815E+01  0.51100000000E-03 0.  1.
         12    1    4    4    0    0 -0.37974569454E+01  0.66129554304E+01 -0.16649881976E+02  0.18313121760E+02  0.00000000000E+00 0. -1.
</event>
<event>
 8    1  0.1210161E-006  0.9118800E+02  0.7816164E-02  0.1184000E+00
        -11   -1    0    0    0    0  0.00000000000E+00  0.00000000000E+00  0.45593999997E+02  0.45594000000E+02  0.51100000000E-03 0. -1.
         11   -1    0    0    0    0 -0.00000000000E+00 -0.00000000000E+00 -0.45593999997E+02  0.45594000000E+02  0.51100000000E-03 0.  1.
         23    2    1    2    0    0  0.71054273576E-14  0.10658141036E-13 -0.35527136788E-14  0.91188000000E+02  0.91188000000E+02 0.  0.
    9900012    2    3    3    0    0  0.22977356814E+02  0.26745359126E+02 -0.10606980785E+02  0.54367065705E+02  0.39999957889E+02 0.  0.
        -12    1    3    3    0    0 -0.22977356814E+02 -0.26745359126E+02  0.10606980785E+02  0.36820934295E+02  0.00000000000E+00 0.  1.
         11    1    4    4    0    0 -0.39735782616E+01  0.53755539091E+01 -0.29343329513E+00  0.66911887875E+01  0.51100000000E-03 0. -1.
        -11    1    4    4    0    0  0.40911822486E+01  0.22265136282E+02 -0.10122086419E+02  0.24797796265E+02  0.51100000000E-03 0.  1.
         12    1    4    4    0    0  0.22859752827E+02 -0.89533106525E+00 -0.19146107137E+00  0.22878080653E+02  0.00000000000E+00 0. -1.
</event>
