<event>
 8    1  0.2390921E-006  0.9118800E+02  0.7816164E-02  0.1184000E+00
        -11   -1    0    0    0    0  0.00000000000E+00  0.00000000000E+00  0.45593999997E+02  0.45594000000E+02  0.51100000000E-03 0.  1.
         11   -1    0    0    0    0 -0.00000000000E+00 -0.00000000000E+00 -0.45593999997E+02  0.45594000000E+02  0.51100000000E-03 0. -1.
         23    2    1    2    0    0 -0.17763568394E-14  0.17763568394E-14  0.00000000000E+00  0.91188000000E+02  0.91188000000E+02 0.  0.
    9900012    2    3    3    0    0  0.71665862899E+01  0.85104262572E+01  0.35099743817E+02  0.54367091128E+02  0.40000015846E+02 0.  0.
         12    1    3    3    0    0 -0.71665862899E+01 -0.85104262572E+01 -0.35099743817E+02  0.36820908872E+02  0.00000000000E+00 0. -1.
         11    1    4    4    0    0  0.14227318178E+02  0.15522616883E+02  0.14058707901E+02  0.25318283621E+02  0.51100000000E-03 0. -1.
        -11    1    4    4    0    0 -0.69653620206E+01  0.40660637769E+01  0.13225740072E+02  0.15490943917E+02  0.51100000000E-03 0.  1.
         12    1    4    4    0    0 -0.95369867264E-01 -0.11078254402E+02  0.78152958435E+01  0.13557863590E+02  0.00000000000E+00 0. -1.
</event>
<event>
 8    1  0.2390921E-006  0.9118800E+02  0.7816164E-02  0.1184000E+00
        -11   -1    0    0    0    0  0.00000000000E+00  0.00000000000E+00  0.45593999997E+02  0.45594000000E+02  0.51100000000E-03 0. -1.
         11   -1    0    0    0    0 -0.00000000000E+00 -0.00000000000E+00 -0.45593999997E+02  0.45594000000E+02  0.51100000000E-03 0.  1.
         23    2    1    2    0    0  0.44408920985E-15  0.88817841970E-15  0.00000000000E+00  0.91188000000E+02  0.91188000000E+02 0.  0.
    9900012    2    3    3    0    0 -0.19269856247E+01  0.46559509405E+01 -0.36474499977E+02  0.54367077940E+02  0.39999985780E+02 0.  0.
         12    1    3    3    0    0  0.19269856247E+01 -0.46559509405E+01  0.36474499977E+02  0.36820922060E+02  0.00000000000E+00 0. -1.
         11    1    4    4    0    0  0.95802403783E+01  0.14738838344E+01 -0.13037278780E+02  0.16245737210E+02  0.51100000000E-03 0. -1.
        -11    1    4    4    0    0  0.50517854833E+00  0.72324667265E+01 -0.24355053401E+02  0.25411265351E+02  0.51100000000E-03 0.  1.
         12    1    4    4    0    0 -0.12012404551E+02 -0.40503996203E+01  0.91783220323E+00  0.12710075379E+02  0.00000000000E+00 0. -1.
</event>
<event>
 8    1  0.2390921E-006  0.9118800E+02  0.7816164E-02  0.1184000E+00
        -11   -1    0    0    0    0  0.00000000000E+00  0.00000000000E+00  0.45593999997E+02  0.45594000000E+02  0.51100000000E-03 0.  1.
         11   -1    0    0    0    0 -0.00000000000E+00 -0.00000000000E+00 -0.45593999997E+02  0.45594000000E+02  0.51100000000E-03 0. -1.
         23    2    1    2    0    0 -0.35527136788E-14  0.00000000000E+00  0.00000000000E+00  0.91188000000E+02  0.91188000000E+02 0.  0.
    9900012    2    3    3    0    0 -0.19546719676E+02 -0.21861112260E+02 -0.22266450976E+02  0.54367118446E+02  0.40000078121E+02 0.  0.
         12    1    3    3    0    0  0.19546719676E+02  0.21861112260E+02  0.22266450976E+02  0.36820881554E+02  0.00000000000E+00 0. -1.
         11    1    4    4    0    0 -0.48996713438E+01  0.18668499686E+01 -0.23677051451E+02  0.24250663367E+02  0.51100000000E-03 0. -1.
        -11    1    4    4    0    0 -0.28220721530E+01 -0.42121312315E+01  0.48780214871E+01  0.70357113811E+01  0.51100000000E-03 0.  1.
        -12    1    4    4    0    0 -0.11824976179E+02 -0.19515830997E+02 -0.34674210124E+01  0.23080743697E+02  0.00000000000E+00 0.  1.
</event>
<event>
 8    1  0.2390921E-006  0.9118800E+02  0.7816164E-02  0.1184000E+00
        -11   -1    0    0    0    0  0.00000000000E+00  0.00000000000E+00  0.45593999997E+02  0.45594000000E+02  0.51100000000E-03 0.  1.
         11   -1    0    0    0    0 -0.00000000000E+00 -0.00000000000E+00 -0.45593999997E+02  0.45594000000E+02  0.51100000000E-03 0. -1.
         23    2    1    2    0    0  0.35527136788E-14 -0.35527136788E-14  0.00000000000E+00  0.91188000000E+02  0.91188000000E+02 0.  0.
    9900012    2    3    3    0    0 -0.29877575852E+02 -0.21376284914E+02  0.24835555426E+01  0.54367039344E+02  0.39999897792E+02 0.  0.
         12    1    3    3    0    0  0.29877575852E+02  0.21376284914E+02 -0.24835555426E+01  0.36820960656E+02  0.00000000000E+00 0. -1.
         11    1    4    4    0    0  0.49109497230E+01 -0.43145002605E+01  0.93365572671E+00  0.66033365019E+01  0.51100000000E-03 0. -1.
        -11    1    4    4    0    0 -0.39438271581E+02 -0.17139895705E+02  0.54133190101E+00  0.43005189577E+02  0.51100000000E-03 0.  1.
         12    1    4    4    0    0  0.46497460055E+01  0.78111052285E-01  0.10085679149E+01  0.47585132648E+01  0.00000000000E+00 0. -1.
</event>
<event>
 8    1  0.2390921E-006  0.9118800E+02  0.7816164E-02  0.1184000E+00
        -11   -1    0    0    0    0  0.00000000000E+00  0.00000000000E+00  0.45593999997E+02  0.45594000000E+02  0.51100000000E-03 0. -1.
         11   -1    0    0    0    0 -0.00000000000E+00 -0.00000000000E+00 -0.45593999997E+02  0.45594000000E+02  0.51100000000E-03 0.  1.
         23    2    1    2    0    0 -0.88817841970E-15  0.35527136788E-14  0.00000000000E+00  0.91188000000E+02  0.91188000000E+02 0.  0.
    9900012    2    3    3    0    0 -0.16152424452E+01 -0.29712486317E+02  0.21687281437E+02  0.54367095239E+02  0.40000025216E+02 0.  0.
        -12    1    3    3    0    0  0.16152424452E+01  0.29712486317E+02 -0.21687281437E+02  0.36820904761E+02  0.00000000000E+00 0.  1.
         11    1    4    4    0    0  0.72195638540E+00 -0.38923307289E+01 -0.17827486574E+00  0.39627315976E+01  0.51100000000E-03 0. -1.
        -11    1    4    4    0    0 -0.12709889752E+02 -0.27644208584E+01  0.21490221891E+02  0.25119971285E+02  0.51100000000E-03 0.  1.
        -12    1    4    4    0    0  0.10372690921E+02 -0.23055734730E+02  0.37533441140E+00  0.25284392356E+02  0.00000000000E+00 0.  1.
</event>
<event>
 8    1  0.2390921E-006  0.9118800E+02  0.7816164E-02  0.1184000E+00
        -11   -1    0    0    0    0  0.00000000000E+00  0.00000000000E+00  0.45593999997E+02  0.45594000000E+02  0.51100000000E-03 0. -1.
         11   -1    0    0    0    0 -0.00000000000E+00 -0.00000000000E+00 -0.45593999997E+02  0.45594000000E+02  0.51100000000E-03 0.  1.
         23    2    1    2    0    0 -0.55511151231E-15  0.00000000000E+00 -0.88817841970E-15  0.91188000000E+02  0.91188000000E+02 0.  0.
    9900012    2    3    3    0    0  0.98331097947E+00 -0.36764709667E+02 -0.17803334878E+01  0.54367077080E+02  0.39999983819E+02 0.  0.
        -12    1    3    3    0    0 -0.98331097947E+00  0.36764709667E+02  0.17803334878E+01  0.36820922920E+02  0.00000000000E+00 0.  1.
         11    1    4    4    0    0  0.65451810260E+01 -0.24697285136E+02 -0.69665872822E+01  0.26482609886E+02  0.51100000000E-03 0. -1.
        -11    1    4    4    0    0  0.87968230241E+01 -0.23400215924E+01 -0.16339530995E+01  0.92482214162E+01  0.51100000000E-03 0.  1.
         12    1    4    4    0    0 -0.14358693071E+02 -0.97274029382E+01  0.68202068938E+01  0.18636245778E+02  0.00000000000E+00 0. -1.
</event>
<event>
 8    1  0.2390921E-006  0.9118800E+02  0.7816164E-02  0.1184000E+00
        -11   -1    0    0    0    0  0.00000000000E+00  0.00000000000E+00  0.45593999997E+02  0.45594000000E+02  0.51100000000E-03 0.  1.
         11   -1    0    0    0    0 -0.00000000000E+00 -0.00000000000E+00 -0.45593999997E+02  0.45594000000E+02  0.51100000000E-03 0. -1.
         23    2    1    2    0    0  0.00000000000E+00  0.17763568394E-14 -0.88817841970E-15  0.91188000000E+02  0.91188000000E+02 0.  0.
    9900012    2    3    3    0    0 -0.32961759405E+02  0.15951628860E+02  0.38526514710E+01  0.54367150340E+02  0.40000150829E+02 0.  0.
        -12    1    3    3    0    0  0.32961759405E+02 -0.15951628860E+02 -0.38526514710E+01  0.36820849660E+02  0.00000000000E+00 0.  1.
         11    1    4    4    0    0  0.22881594613E+00  0.16223450381E+02 -0.69389746211E+00  0.16239895103E+02  0.51100000000E-03 0. -1.
        -11    1    4    4    0    0  0.10686049328E+01 -0.41279886242E+00  0.36828457822E+01  0.38568993661E+01  0.51100000000E-03 0.  1.
         12    1    4    4    0    0 -0.34259180284E+02  0.14097734082E+00  0.86370315089E+00  0.34270355871E+02  0.00000000000E+00 0. -1.
</event>
<event>
 8    1  0.2390921E-006  0.9118800E+02  0.7816164E-02  0.1184000E+00
        -11   -1    0    0    0    0  0.00000000000E+00  0.00000000000E+00  0.45593999997E+02  0.45594000000E+02  0.51100000000E-03 0. -1.
         11   -1    0    0    0    0 -0.00000000000E+00 -0.00000000000E+00 -0.45593999997E+02  0.45594000000E+02  0.51100000000E-03 0.  1.
         23    2    1    2    0    0 -0.71054273576E-14  0.88817841970E-15 -0.17763568394E-14  0.91188000000E+02  0.91188000000E+02 0.  0.
    9900012    2    3    3    0    0  0.32946714408E+02 -0.66556929286E+01  0.15033143882E+02  0.54367086736E+02  0.40000005832E+02 0.  0.
         12    1    3    3    0    0 -0.32946714408E+02  0.66556929286E+01 -0.15033143882E+02  0.36820913264E+02  0.00000000000E+00 0. -1.
         11    1    4    4    0    0  0.22631160311E+01 -0.91900624464E+00  0.46438197060E+01  0.52470304336E+01  0.51100000000E-03 0. -1.
        -11    1    4    4    0    0  0.35023699543E+02 -0.12047127298E+02  0.15244087091E+02  0.40052153466E+02  0.51100000000E-03 0.  1.
         12    1    4    4    0    0 -0.43401011660E+01  0.63104406142E+01 -0.48547629158E+01  0.90679028361E+01  0.00000000000E+00 0. -1.
</event>
<event>
 8    1  0.2390921E-006  0.9118800E+02  0.7816164E-02  0.1184000E+00
        -11   -1    0    0    0    0  0.00000000000E+00  0.00000000000E+00  0.45593999997E+02  0.45594000000E+02  0.51100000000E-03 0. -1.
         11   -1    0    0    0    0 -0.00000000000E+00 -0.00000000000E+00 -0.45593999997E+02  0.45594000000E+02  0.51100000000E-03 0.  1.
         23    2    1    2    0    0 -0.17763568394E-14  0.00000000000E+00  0.00000000000E+00  0.91188000000E+02  0.91188000000E+02 0.  0.
    9900012    2    3    3    0    0  0.96758143669E+01  0.84736668558E+01 -0.34501534425E+02  0.54367078076E+02  0.39999986090E+02 0.  0.
         12    1    3    3    0    0 -0.96758143669E+01 -0.84736668558E+01  0.34501534425E+02  0.36820921924E+02  0.00000000000E+00 0. -1.
         11    1    4    4    0    0  0.81537738004E+01 -0.98417435358E+01 -0.38732017168E-01  0.12780666784E+02  0.51100000000E-03 0. -1.
        -11    1    4    4    0    0  0.67269712166E-01  0.11490022159E+02 -0.74673960523E+01  0.13703544742E+02  0.51100000000E-03 0.  1.
        -12    1    4    4    0    0  0.14547708543E+01  0.68253882324E+01 -0.26995406355E+02  0.27882866550E+02  0.00000000000E+00 0.  1.
</event>
<event>
 8    1  0.2390921E-006  0.9118800E+02  0.7816164E-02  0.1184000E+00
        -11   -1    0    0    0    0  0.00000000000E+00  0.00000000000E+00  0.45593999997E+02  0.45594000000E+02  0.51100000000E-03 0.  1.
         11   -1    0    0    0    0 -0.00000000000E+00 -0.00000000000E+00 -0.45593999997E+02  0.45594000000E+02  0.51100000000E-03 0. -1.
         23    2    1    2    0    0 -0.13322676296E-14 -0.71054273576E-14 -0.88817841970E-15  0.91188000000E+02  0.91188000000E+02 0.  0.
    9900012    2    3    3    0    0  0.26980708460E+01  0.36060246933E+02  0.69396752417E+01  0.54367080842E+02  0.39999992396E+02 0.  0.
        -12    1    3    3    0    0 -0.26980708460E+01 -0.36060246933E+02 -0.69396752417E+01  0.36820919158E+02  0.00000000000E+00 0.  1.
         11    1    4    4    0    0 -0.31902332862E+01  0.44288525198E+01  0.57405326581E+01  0.79212397086E+01  0.51100000000E-03 0. -1.
        -11    1    4    4    0    0 -0.45792552085E+01 -0.58837989644E+01  0.76864389570E+00  0.74952973402E+01  0.51100000000E-03 0.  1.
         12    1    4    4    0    0  0.10467559341E+02  0.37515193377E+02  0.43049868795E+00  0.38950543794E+02  0.00000000000E+00 0. -1.
</event>
<event>
 8    1  0.2390921E-006  0.9118800E+02  0.7816164E-02  0.1184000E+00
        -11   -1    0    0    0    0  0.00000000000E+00  0.00000000000E+00  0.45593999997E+02  0.45594000000E+02  0.51100000000E-03 0. -1.
         11   -1    0    0    0    0 -0.00000000000E+00 -0.00000000000E+00 -0.45593999997E+02  0.45594000000E+02  0.51100000000E-03 0.  1.
         23    2    1    2    0    0  0.00000000000E+00  0.35527136788E-14  0.88817841970E-15  0.91188000000E+02  0.91188000000E+02 0.  0.
    9900012    2    3    3    0    0 -0.22143374605E+02  0.28358085528E+02 -0.78274729096E+01  0.54367090372E+02  0.40000014121E+02 0.  0.
         12    1    3    3    0    0  0.22143374605E+02 -0.28358085528E+02  0.78274729096E+01  0.36820909628E+02  0.00000000000E+00 0. -1.
         11    1    4    4    0    0 -0.25371373543E+00  0.38567086090E+01 -0.63861802524E+01  0.74647083286E+01  0.51100000000E-03 0. -1.
        -11    1    4    4    0    0 -0.15091805517E+02 -0.40012947688E+01 -0.69445054887E+01  0.17087981459E+02  0.51100000000E-03 0.  1.
        -12    1    4    4    0    0 -0.67978553519E+01  0.28502671688E+02  0.55032128315E+01  0.29814400584E+02  0.00000000000E+00 0.  1.
</event>
<event>
 8    1  0.2390921E-006  0.9118800E+02  0.7816164E-02  0.1184000E+00
        -11   -1    0    0    0    0  0.00000000000E+00  0.00000000000E+00  0.45593999997E+02  0.45594000000E+02  0.51100000000E-03 0.  1.
         11   -1    0    0    0    0 -0.00000000000E+00 -0.00000000000E+00 -0.45593999997E+02  0.45594000000E+02  0.51100000000E-03 0. -1.
         23    2    1    2    0    0  0.00000000000E+00  0.00000000000E+00  0.00000000000E+00  0.91188000000E+02  0.91188000000E+02 0.  0.
    9900012    2    3    3    0    0 -0.25231801892E+02 -0.20863011002E+02 -0.16848443858E+02  0.54367094047E+02  0.40000022498E+02 0.  0.
        -12    1    3    3    0    0  0.25231801892E+02  0.20863011002E+02  0.16848443858E+02  0.36820905953E+02  0.00000000000E+00 0.  1.
         11    1    4    4    0    0 -0.20300737500E+02 -0.16673155919E+02 -0.13870340052E+02  0.29706908368E+02  0.51100000000E-03 0. -1.
        -11    1    4    4    0    0 -0.91626018955E+01 -0.12257453694E+02 -0.98836008168E+00  0.15335426321E+02  0.51100000000E-03 0.  1.
        -12    1    4    4    0    0  0.42315375032E+01  0.80675986109E+01 -0.19897437245E+01  0.93247593576E+01  0.00000000000E+00 0.  1.
</event>
<event>
 8    1  0.2390921E-006  0.9118800E+02  0.7816164E-02  0.1184000E+00
        -11   -1    0    0    0    0  0.00000000000E+00  0.00000000000E+00  0.45593999997E+02  0.45594000000E+02  0.51100000000E-03 0. -1.
         11   -1    0    0    0    0 -0.00000000000E+00 -0.00000000000E+00 -0.45593999997E+02  0.45594000000E+02  0.51100000000E-03 0.  1.
         23    2    1    2    0    0  0.35527136788E-14 -0.88817841970E-15  0.71054273576E-14  0.91188000000E+02  0.91188000000E+02 0.  0.
    9900012    2    3    3    0    0  0.17157712376E+02 -0.23245722684E+01  0.32495990374E+02  0.54367080395E+02  0.39999991376E+02 0.  0.
        -12    1    3    3    0    0 -0.17157712376E+02  0.23245722684E+01 -0.32495990374E+02  0.36820919605E+02  0.00000000000E+00 0.  1.
         11    1    4    4    0    0 -0.16482194428E+01 -0.23858615630E+01  0.27128768527E+02  0.27283310737E+02  0.51100000000E-03 0. -1.
        -11    1    4    4    0    0  0.17520622496E+01 -0.75784942394E+01  0.25498823357E+01  0.81856702383E+01  0.51100000000E-03 0.  1.
        -12    1    4    4    0    0  0.17053869569E+02  0.76397835339E+01  0.28173395109E+01  0.18898099419E+02  0.00000000000E+00 0.  1.
</event>
<event>
 8    1  0.2390921E-006  0.9118800E+02  0.7816164E-02  0.1184000E+00
        -11   -1    0    0    0    0  0.00000000000E+00  0.00000000000E+00  0.45593999997E+02  0.45594000000E+02  0.51100000000E-03 0.  1.
         11   -1    0    0    0    0 -0.00000000000E+00 -0.00000000000E+00 -0.45593999997E+02  0.45594000000E+02  0.51100000000E-03 0. -1.
         23    2    1    2    0    0  0.00000000000E+00  0.00000000000E+00  0.00000000000E+00  0.91188000000E+02  0.91188000000E+02 0.  0.
    9900012    2    3    3    0    0  0.99593541495E+01 -0.27590990072E+02  0.22255851606E+02  0.54367158090E+02  0.40000168498E+02 0.  0.
         12    1    3    3    0    0 -0.99593541495E+01  0.27590990072E+02 -0.22255851606E+02  0.36820841910E+02  0.00000000000E+00 0. -1.
         11    1    4    4    0    0  0.62024467364E+01  0.39061238114E+01 -0.75678028762E+01  0.10535643757E+02  0.51100000000E-03 0. -1.
        -11    1    4    4    0    0  0.28569541455E+01 -0.30909519190E+02  0.28958086081E+02  0.42451517208E+02  0.51100000000E-03 0.  1.
        -12    1    4    4    0    0  0.89995326761E+00 -0.58759469339E+00  0.86556840120E+00  0.13799971249E+01  0.00000000000E+00 0.  1.
</event>
<event>
 8    1  0.2390921E-006  0.9118800E+02  0.7816164E-02  0.1184000E+00
        -11   -1    0    0    0    0  0.00000000000E+00  0.00000000000E+00  0.45593999997E+02  0.45594000000E+02  0.51100000000E-03 0.  1.
         11   -1    0    0    0    0 -0.00000000000E+00 -0.00000000000E+00 -0.45593999997E+02  0.45594000000E+02  0.51100000000E-03 0. -1.
         23    2    1    2    0    0 -0.35527136788E-14  0.00000000000E+00 -0.35527136788E-14  0.91188000000E+02  0.91188000000E+02 0.  0.
    9900012    2    3    3    0    0  0.18863221637E+02  0.22292232476E+02  0.22428021316E+02  0.54367069819E+02  0.39999967265E+02 0.  0.
         12    1    3    3    0    0 -0.18863221637E+02 -0.22292232476E+02 -0.22428021316E+02  0.36820930181E+02  0.00000000000E+00 0. -1.
         11    1    4    4    0    0  0.14639388821E+02  0.76097600046E+01  0.57313925518E+01  0.17466224928E+02  0.51100000000E-03 0. -1.
        -11    1    4    4    0    0  0.85038853430E+01 -0.38732989212E+01 -0.26920141820E+01  0.97244769051E+01  0.51100000000E-03 0.  1.
         12    1    4    4    0    0 -0.42800525273E+01  0.18555771393E+02  0.19388642946E+02  0.27176367986E+02  0.00000000000E+00 0. -1.
</event>
<event>
 8    1  0.2390921E-006  0.9118800E+02  0.7816164E-02  0.1184000E+00
        -11   -1    0    0    0    0  0.00000000000E+00  0.00000000000E+00  0.45593999997E+02  0.45594000000E+02  0.51100000000E-03 0.  1.
         11   -1    0    0    0    0 -0.00000000000E+00 -0.00000000000E+00 -0.45593999997E+02  0.45594000000E+02  0.51100000000E-03 0. -1.
         23    2    1    2    0    0 -0.35527136788E-14 -0.72164496601E-15  0.00000000000E+00  0.91188000000E+02  0.91188000000E+02 0.  0.
    9900012    2    3    3    0    0 -0.18342123115E+02 -0.48782685689E+00  0.31923475908E+02  0.54367085163E+02  0.40000002246E+02 0.  0.
         12    1    3    3    0    0  0.18342123115E+02  0.48782685689E+00 -0.31923475908E+02  0.36820914837E+02  0.00000000000E+00 0. -1.
         11    1    4    4    0    0  0.63307010997E+01 -0.77445038410E+00  0.45808229223E+01  0.78524829651E+01  0.51100000000E-03 0. -1.
        -11    1    4    4    0    0 -0.28898005953E+02  0.69620530861E+01  0.21894693577E+02  0.36918051659E+02  0.51100000000E-03 0.  1.
        -12    1    4    4    0    0  0.42251817385E+01 -0.66754295589E+01  0.54479594089E+01  0.95965505386E+01  0.00000000000E+00 0.  1.
</event>
<event>
 8    1  0.2390921E-006  0.9118800E+02  0.7816164E-02  0.1184000E+00
        -11   -1    0    0    0    0  0.00000000000E+00  0.00000000000E+00  0.45593999997E+02  0.45594000000E+02  0.51100000000E-03 0.  1.
         11   -1    0    0    0    0 -0.00000000000E+00 -0.00000000000E+00 -0.45593999997E+02  0.45594000000E+02  0.51100000000E-03 0. -1.
         23    2    1    2    0    0  0.00000000000E+00  0.00000000000E+00  0.00000000000E+00  0.91188000000E+02  0.91188000000E+02 0.  0.
    9900012    2    3    3    0    0 -0.12234525477E+02 -0.29867802801E+02  0.17720386870E+02  0.54367063447E+02  0.39999952741E+02 0.  0.
         12    1    3    3    0    0  0.12234525477E+02  0.29867802801E+02 -0.17720386870E+02  0.36820936553E+02  0.00000000000E+00 0. -1.
         11    1    4    4    0    0 -0.72890712695E+01 -0.12455951085E+02 -0.31103416341E+00  0.14435304635E+02  0.51100000000E-03 0. -1.
        -11    1    4    4    0    0 -0.15052588987E+02 -0.50023668705E+01  0.17913138050E+02  0.23926650926E+02  0.51100000000E-03 0.  1.
         12    1    4    4    0    0  0.10107134779E+02 -0.12409484846E+02  0.11828298345E+00  0.16005107886E+02  0.00000000000E+00 0. -1.
</event>
<event>
 8    1  0.2390921E-006  0.9118800E+02  0.7816164E-02  0.1184000E+00
        -11   -1    0    0    0    0  0.00000000000E+00  0.00000000000E+00  0.45593999997E+02  0.45594000000E+02  0.51100000000E-03 0.  1.
         11   -1    0    0    0    0 -0.00000000000E+00 -0.00000000000E+00 -0.45593999997E+02  0.45594000000E+02  0.51100000000E-03 0. -1.
         23    2    1    2    0    0  0.00000000000E+00 -0.17763568394E-14  0.88817841970E-15  0.91188000000E+02  0.91188000000E+02 0.  0.
    9900012    2    3    3    0    0 -0.34498523779E+02  0.10818560715E+02 -0.69706844891E+01  0.54367084189E+02  0.40000000026E+02 0.  0.
        -12    1    3    3    0    0  0.34498523779E+02 -0.10818560715E+02  0.69706844891E+01  0.36820915811E+02  0.00000000000E+00 0.  1.
         11    1    4    4    0    0 -0.16503428654E+02 -0.23952621327E+01 -0.25832691686E+01  0.16875239788E+02  0.51100000000E-03 0. -1.
        -11    1    4    4    0    0  0.80668644070E+01  0.63972439356E+01 -0.12147605593E+01  0.10366999316E+02  0.51100000000E-03 0.  1.
        -12    1    4    4    0    0 -0.26061959532E+02  0.68165789117E+01 -0.31726547612E+01  0.27124845086E+02  0.00000000000E+00 0.  1.
</event>
<event>
 8    1  0.2390921E-006  0.9118800E+02  0.7816164E-02  0.1184000E+00
        -11   -1    0    0    0    0  0.00000000000E+00  0.00000000000E+00  0.45593999997E+02  0.45594000000E+02  0.51100000000E-03 0. -1.
         11   -1    0    0    0    0 -0.00000000000E+00 -0.00000000000E+00 -0.45593999997E+02  0.45594000000E+02  0.51100000000E-03 0.  1.
         23    2    1    2    0    0  0.00000000000E+00  0.00000000000E+00  0.00000000000E+00  0.91188000000E+02  0.91188000000E+02 0.  0.
    9900012    2    3    3    0    0  0.77832864982E+01 -0.14506865550E+02  0.32935553390E+02  0.54367090534E+02  0.40000014490E+02 0.  0.
        -12    1    3    3    0    0 -0.77832864982E+01  0.14506865550E+02 -0.32935553390E+02  0.36820909466E+02  0.00000000000E+00 0.  1.
         11    1    4    4    0    0  0.65239245524E+01  0.56631805250E+00  0.99995440347E+01  0.11952957327E+02  0.51100000000E-03 0. -1.
        -11    1    4    4    0    0  0.13707460429E+02  0.14861582426E+01  0.14605971395E+02  0.20085754613E+02  0.51100000000E-03 0.  1.
         12    1    4    4    0    0 -0.12448098483E+02 -0.16559341845E+02  0.83300379601E+01  0.22328378593E+02  0.00000000000E+00 0. -1.
</event>
<event>
 8    1  0.2390921E-006  0.9118800E+02  0.7816164E-02  0.1184000E+00
        -11   -1    0    0    0    0  0.00000000000E+00  0.00000000000E+00  0.45593999997E+02  0.45594000000E+02  0.51100000000E-03 0.  1.
         11   -1    0    0    0    0 -0.00000000000E+00 -0.00000000000E+00 -0.45593999997E+02  0.45594000000E+02  0.51100000000E-03 0. -1.
         23    2    1    2    0    0  0.00000000000E+00  0.31086244690E-14  0.44408920985E-15  0.91188000000E+02  0.91188000000E+02 0.  0.
    9900012    2    3    3    0    0  0.36596957771E+02  0.30060999160E+01 -0.27217917369E+01  0.54367053447E+02  0.39999929944E+02 0.  0.
        -12    1    3    3    0    0 -0.36596957771E+02 -0.30060999160E+01  0.27217917369E+01  0.36820946553E+02  0.00000000000E+00 0.  1.
         11    1    4    4    0    0  0.11113510231E+02  0.76454225546E+01  0.12453208583E+01  0.13546712516E+02  0.51100000000E-03 0. -1.
        -11    1    4    4    0    0  0.10433094881E+02 -0.17488623846E+02 -0.51182083400E+01  0.20997559137E+02  0.51100000000E-03 0.  1.
        -12    1    4    4    0    0  0.15050352658E+02  0.12849301207E+02  0.11510957449E+01  0.19822781794E+02  0.00000000000E+00 0.  1.
</event>
<event>
 8    1  0.2390921E-006  0.9118800E+02  0.7816164E-02  0.1184000E+00
        -11   -1    0    0    0    0  0.00000000000E+00  0.00000000000E+00  0.45593999997E+02  0.45594000000E+02  0.51100000000E-03 0.  1.
         11   -1    0    0    0    0 -0.00000000000E+00 -0.00000000000E+00 -0.45593999997E+02  0.45594000000E+02  0.51100000000E-03 0. -1.
         23    2    1    2    0    0 -0.17763568394E-14  0.00000000000E+00 -0.44408920985E-15  0.91188000000E+02  0.91188000000E+02 0.  0.
    9900012    2    3    3    0    0  0.14312528415E+02 -0.33716127157E+02  0.37629070067E+01  0.54367011837E+02  0.39999835085E+02 0.  0.
         12    1    3    3    0    0 -0.14312528415E+02  0.33716127157E+02 -0.37629070067E+01  0.36820988163E+02  0.00000000000E+00 0. -1.
         11    1    4    4    0    0  0.58864400781E+00 -0.16558426269E+02  0.78159252873E+01  0.18319843630E+02  0.51100000000E-03 0. -1.
        -11    1    4    4    0    0  0.21423637348E+02 -0.17142252332E+02 -0.20294535511E+00  0.27438480995E+02  0.51100000000E-03 0.  1.
         12    1    4    4    0    0 -0.76997529404E+01 -0.15448557029E-01 -0.38500729254E+01  0.86086872131E+01  0.00000000000E+00 0. -1.
</event>
<event>
 8    1  0.2390921E-006  0.9118800E+02  0.7816164E-02  0.1184000E+00
        -11   -1    0    0    0    0  0.00000000000E+00  0.00000000000E+00  0.45593999997E+02  0.45594000000E+02  0.51100000000E-03 0. -1.
         11   -1    0    0    0    0 -0.00000000000E+00 -0.00000000000E+00 -0.45593999997E+02  0.45594000000E+02  0.51100000000E-03 0.  1.
         23    2    1    2    0    0 -0.35527136788E-14  0.35527136788E-14 -0.17763568394E-14  0.91188000000E+02  0.91188000000E+02 0.  0.
    9900012    2    3    3    0    0 -0.18859774209E+02  0.27358927076E+02 -0.15861263989E+02  0.54367059364E+02  0.39999943432E+02 0.  0.
         12    1    3    3    0    0  0.18859774209E+02 -0.27358927076E+02  0.15861263989E+02  0.36820940636E+02  0.00000000000E+00 0. -1.
         11    1    4    4    0    0 -0.83877910675E+01  0.35051194239E+01  0.32730039561E+00  0.90965942515E+01  0.51100000000E-03 0. -1.
        -11    1    4    4    0    0 -0.55239796495E+01  0.13546260361E+02 -0.26242796864E+02  0.30044964777E+02  0.51100000000E-03 0.  1.
         12    1    4    4    0    0 -0.49480034920E+01  0.10307547292E+02  0.10054232479E+02  0.15225500336E+02  0.00000000000E+00 0. -1.
</event>
<event>
 8    1  0.2390921E-006  0.9118800E+02  0.7816164E-02  0.1184000E+00
        -11   -1    0    0    0    0  0.00000000000E+00  0.00000000000E+00  0.45593999997E+02  0.45594000000E+02  0.51100000000E-03 0. -1.
         11   -1    0    0    0    0 -0.00000000000E+00 -0.00000000000E+00 -0.45593999997E+02  0.45594000000E+02  0.51100000000E-03 0.  1.
         23    2    1    2    0    0  0.00000000000E+00 -0.35527136788E-14  0.00000000000E+00  0.91188000000E+02  0.91188000000E+02 0.  0.
    9900012    2    3    3    0    0  0.17662298601E+02 -0.16813076809E+02 -0.27589037558E+02  0.54366928084E+02  0.39999644152E+02 0.  0.
         12    1    3    3    0    0 -0.17662298601E+02  0.16813076809E+02  0.27589037558E+02  0.36821071916E+02  0.00000000000E+00 0. -1.
         11    1    4    4    0    0  0.35236075962E+01 -0.11029733432E+01 -0.10273999671E+01  0.38324811338E+01  0.51100000000E-03 0. -1.
        -11    1    4    4    0    0  0.14475496113E+02 -0.25566023629E+02 -0.27979825342E+02  0.40571322117E+02  0.51100000000E-03 0.  1.
        -12    1    4    4    0    0 -0.33680510790E+00  0.98559201631E+01  0.14181877515E+01  0.99631248331E+01  0.00000000000E+00 0.  1.
</event>
<event>
 8    1  0.2390921E-006  0.9118800E+02  0.7816164E-02  0.1184000E+00
        -11   -1    0    0    0    0  0.00000000000E+00  0.00000000000E+00  0.45593999997E+02  0.45594000000E+02  0.51100000000E-03 0. -1.
         11   -1    0    0    0    0 -0.00000000000E+00 -0.00000000000E+00 -0.45593999997E+02  0.45594000000E+02  0.51100000000E-03 0.  1.
         23    2    1    2    0    0  0.17763568394E-14  0.00000000000E+00  0.00000000000E+00  0.91188000000E+02  0.91188000000E+02 0.  0.
    9900012    2    3    3    0    0 -0.12558684715E+02  0.29801207578E+01 -0.34484462896E+02  0.54367083896E+02  0.39999999357E+02 0.  0.
         12    1    3    3    0    0  0.12558684715E+02 -0.29801207578E+01  0.34484462896E+02  0.36820916104E+02  0.00000000000E+00 0. -1.
         11    1    4    4    0    0  0.63849212760E+01  0.62546190863E+00 -0.10643774962E+02  0.12427725778E+02  0.51100000000E-03 0. -1.
        -11    1    4    4    0    0 -0.11873632428E+02  0.76274797088E+00 -0.30098234746E+02  0.32364620601E+02  0.51100000000E-03 0.  1.
        -12    1    4    4    0    0 -0.70699735627E+01  0.15919108783E+01  0.62575468122E+01  0.95747375175E+01  0.00000000000E+00 0.  1.
</event>
<event>
 8    1  0.2390921E-006  0.9118800E+02  0.7816164E-02  0.1184000E+00
        -11   -1    0    0    0    0  0.00000000000E+00  0.00000000000E+00  0.45593999997E+02  0.45594000000E+02  0.51100000000E-03 0.  1.
         11   -1    0    0    0    0 -0.00000000000E+00 -0.00000000000E+00 -0.45593999997E+02  0.45594000000E+02  0.51100000000E-03 0. -1.
         23    2    1    2    0    0 -0.35527136788E-14 -0.71054273576E-14  0.00000000000E+00  0.91188000000E+02  0.91188000000E+02 0.  0.
    9900012    2    3    3    0    0  0.18918114649E+02  0.21671989518E+02 -0.22982805743E+02  0.54367088125E+02  0.40000008997E+02 0.  0.
        -12    1    3    3    0    0 -0.18918114649E+02 -0.21671989518E+02  0.22982805743E+02  0.36820911875E+02  0.00000000000E+00 0.  1.
         11    1    4    4    0    0  0.37606427098E+01 -0.55134975556E+01 -0.39476828144E+01  0.77540498290E+01  0.51100000000E-03 0. -1.
        -11    1    4    4    0    0 -0.34791070397E+01 -0.43712323326E+01 -0.69066171591E+00  0.56292869678E+01  0.51100000000E-03 0.  1.
        -12    1    4    4    0    0  0.18636578978E+02  0.31556719407E+02 -0.18344461212E+02  0.40983751328E+02  0.00000000000E+00 0.  1.
</event>
<event>
 8    1  0.2390921E-006  0.9118800E+02  0.7816164E-02  0.1184000E+00
        -11   -1    0    0    0    0  0.00000000000E+00  0.00000000000E+00  0.45593999997E+02  0.45594000000E+02  0.51100000000E-03 0.  1.
         11   -1    0    0    0    0 -0.00000000000E+00 -0.00000000000E+00 -0.45593999997E+02  0.45594000000E+02  0.51100000000E-03 0. -1.
         23    2    1    2    0    0 -0.71054273576E-14 -0.17763568394E-14  0.00000000000E+00  0.91188000000E+02  0.91188000000E+02 0.  0.
    9900012    2    3    3    0    0  0.34619640241E+02  0.82710380389E+01 -0.94260516877E+01  0.54367081881E+02  0.39999994765E+02 0.  0.
        -12    1    3    3    0    0 -0.34619640241E+02 -0.82710380389E+01  0.94260516877E+01  0.36820918119E+02  0.00000000000E+00 0.  1.
         11    1    4    4    0    0  0.10788219089E+02  0.16458269465E+02 -0.42994254503E+01  0.20143122011E+02  0.51100000000E-03 0.  1.
        -11    1    4    4    0    0  0.11405144989E+01 -0.40278406405E+01 -0.98265571697E+01  0.10681081388E+02  0.51100000000E-03 0. -1.
        -12    1    4    4    0    0  0.22690906654E+02 -0.41593907851E+01  0.46999309322E+01  0.23542878482E+02  0.00000000000E+00 0.  1.
</event>
<event>
 8    1  0.2390921E-006  0.9118800E+02  0.7816164E-02  0.1184000E+00
        -11   -1    0    0    0    0  0.00000000000E+00  0.00000000000E+00  0.45593999997E+02  0.45594000000E+02  0.51100000000E-03 0.  1.
         11   -1    0    0    0    0 -0.00000000000E+00 -0.00000000000E+00 -0.45593999997E+02  0.45594000000E+02  0.51100000000E-03 0. -1.
         23    2    1    2    0    0  0.00000000000E+00 -0.35527136788E-14  0.00000000000E+00  0.91188000000E+02  0.91188000000E+02 0.  0.
    9900012    2    3    3    0    0  0.14831773009E+01  0.49049240656E+01  0.36462600966E+02  0.54367090666E+02  0.40000014792E+02 0.  0.
         12    1    3    3    0    0 -0.14831773009E+01 -0.49049240656E+01 -0.36462600966E+02  0.36820909334E+02  0.00000000000E+00 0. -1.
         11    1    4    4    0    0  0.15422234639E+00  0.12689465044E-02 -0.12139594704E+01  0.12237172873E+01  0.51100000000E-03 0. -1.
        -11    1    4    4    0    0  0.14756305751E+01  0.18671860880E+02  0.78817255668E+01  0.20320862986E+02  0.51100000000E-03 0.  1.
        -12    1    4    4    0    0 -0.14667562061E+00 -0.13768205761E+02  0.29794834869E+02  0.32822510393E+02  0.00000000000E+00 0.  1.
</event>
<event>
 8    1  0.2390921E-006  0.9118800E+02  0.7816164E-02  0.1184000E+00
        -11   -1    0    0    0    0  0.00000000000E+00  0.00000000000E+00  0.45593999997E+02  0.45594000000E+02  0.51100000000E-03 0.  1.
         11   -1    0    0    0    0 -0.00000000000E+00 -0.00000000000E+00 -0.45593999997E+02  0.45594000000E+02  0.51100000000E-03 0. -1.
         23    2    1    2    0    0  0.88817841970E-15  0.00000000000E+00  0.44408920985E-15  0.91188000000E+02  0.91188000000E+02 0.  0.
    9900012    2    3    3    0    0 -0.46697026131E+01 -0.36488599803E+02  0.15985353888E+01  0.54367090811E+02  0.40000015123E+02 0.  0.
         12    1    3    3    0    0  0.46697026131E+01  0.36488599803E+02 -0.15985353888E+01  0.36820909189E+02  0.00000000000E+00 0. -1.
         11    1    4    4    0    0 -0.18435389312E+02 -0.92373306010E+01  0.98661224304E+00  0.20643770481E+02  0.51100000000E-03 0. -1.
        -11    1    4    4    0    0 -0.79715159320E+00 -0.89122636599E+01  0.44495424101E+01  0.99931137353E+01  0.51100000000E-03 0.  1.
        -12    1    4    4    0    0  0.14562838292E+02 -0.18339005542E+02 -0.38376192644E+01  0.23730206595E+02  0.00000000000E+00 0.  1.
</event>
<event>
 8    1  0.2390921E-006  0.9118800E+02  0.7816164E-02  0.1184000E+00
        -11   -1    0    0    0    0  0.00000000000E+00  0.00000000000E+00  0.45593999997E+02  0.45594000000E+02  0.51100000000E-03 0.  1.
         11   -1    0    0    0    0 -0.00000000000E+00 -0.00000000000E+00 -0.45593999997E+02  0.45594000000E+02  0.51100000000E-03 0. -1.
         23    2    1    2    0    0 -0.17763568394E-14 -0.17763568394E-14  0.00000000000E+00  0.91188000000E+02  0.91188000000E+02 0.  0.
    9900012    2    3    3    0    0 -0.11379719849E+02  0.11666197680E+02  0.33017905919E+02  0.54367077912E+02  0.39999985717E+02 0.  0.
         12    1    3    3    0    0  0.11379719849E+02 -0.11666197680E+02 -0.33017905919E+02  0.36820922088E+02  0.00000000000E+00 0. -1.
         11    1    4    4    0    0  0.72829291875E+01  0.14338316205E+02  0.14814007417E+02  0.21865113426E+02  0.51100000000E-03 0. -1.
        -11    1    4    4    0    0 -0.91106739018E+01 -0.10556697320E+02  0.13010464089E+02  0.19071455459E+02  0.51100000000E-03 0.  1.
         12    1    4    4    0    0 -0.95519751341E+01  0.78845787947E+01  0.51934344125E+01  0.13430509027E+02  0.00000000000E+00 0. -1.
</event>
<event>
 8    1  0.2390921E-006  0.9118800E+02  0.7816164E-02  0.1184000E+00
        -11   -1    0    0    0    0  0.00000000000E+00  0.00000000000E+00  0.45593999997E+02  0.45594000000E+02  0.51100000000E-03 0. -1.
         11   -1    0    0    0    0 -0.00000000000E+00 -0.00000000000E+00 -0.45593999997E+02  0.45594000000E+02  0.51100000000E-03 0.  1.
         23    2    1    2    0    0  0.35527136788E-14  0.00000000000E+00  0.17763568394E-14  0.91188000000E+02  0.91188000000E+02 0.  0.
    9900012    2    3    3    0    0  0.37853707512E+01 -0.35716144143E+02 -0.81122427093E+01  0.54367075705E+02  0.39999980685E+02 0.  0.
         12    1    3    3    0    0 -0.37853707512E+01  0.35716144143E+02  0.81122427093E+01  0.36820924295E+02  0.00000000000E+00 0. -1.
         11    1    4    4    0    0 -0.92360152216E+01 -0.17439232791E+02 -0.31577941658E+00  0.19736527922E+02  0.51100000000E-03 0. -1.
        -11    1    4    4    0    0 -0.50750091680E+01 -0.15580410745E+01  0.46233218036E+01  0.70397666727E+01  0.51100000000E-03 0.  1.
        -12    1    4    4    0    0  0.18096395141E+02 -0.16718870277E+02 -0.12419785096E+02  0.27590781110E+02  0.00000000000E+00 0.  1.
</event>
<event>
 8    1  0.2390921E-006  0.9118800E+02  0.7816164E-02  0.1184000E+00
        -11   -1    0    0    0    0  0.00000000000E+00  0.00000000000E+00  0.45593999997E+02  0.45594000000E+02  0.51100000000E-03 0. -1.
         11   -1    0    0    0    0 -0.00000000000E+00 -0.00000000000E+00 -0.45593999997E+02  0.45594000000E+02  0.51100000000E-03 0.  1.
         23    2    1    2    0    0 -0.35527136788E-14  0.00000000000E+00 -0.17763568394E-14  0.91188000000E+02  0.91188000000E+02 0.  0.
    9900012    2    3    3    0    0  0.31466704760E+02  0.10878455379E+02  0.15725328881E+02  0.54367078389E+02  0.39999986803E+02 0.  0.
        -12    1    3    3    0    0 -0.31466704760E+02 -0.10878455379E+02 -0.15725328881E+02  0.36820921611E+02  0.00000000000E+00 0.  1.
         11    1    4    4    0    0  0.20456046422E+02  0.11657385317E+00  0.65156069289E+01  0.21468967339E+02  0.51100000000E-03 0. -1.
        -11    1    4    4    0    0  0.67647726246E-01  0.15384665266E+02  0.13297495201E+02  0.20335089881E+02  0.51100000000E-03 0.  1.
        -12    1    4    4    0    0  0.10943010612E+02 -0.46227837406E+01 -0.40877732494E+01  0.12563021170E+02  0.00000000000E+00 0.  1.
</event>
<event>
 8    1  0.2390921E-006  0.9118800E+02  0.7816164E-02  0.1184000E+00
        -11   -1    0    0    0    0  0.00000000000E+00  0.00000000000E+00  0.45593999997E+02  0.45594000000E+02  0.51100000000E-03 0.  1.
         11   -1    0    0    0    0 -0.00000000000E+00 -0.00000000000E+00 -0.45593999997E+02  0.45594000000E+02  0.51100000000E-03 0. -1.
         23    2    1    2    0    0  0.88817841970E-15  0.00000000000E+00  0.00000000000E+00  0.91188000000E+02  0.91188000000E+02 0.  0.
    9900012    2    3    3    0    0  0.41112139425E+01  0.74445366657E+01 -0.35825361153E+02  0.54367085997E+02  0.40000004148E+02 0.  0.
        -12    1    3    3    0    0 -0.41112139425E+01 -0.74445366657E+01  0.35825361153E+02  0.36820914003E+02  0.00000000000E+00 0.  1.
         11    1    4    4    0    0  0.10600931009E+02  0.14438055439E+02 -0.39988613460E+02  0.43816964635E+02  0.51100000000E-03 0. -1.
        -11    1    4    4    0    0 -0.23208882807E+01 -0.37297455557E+01  0.20815990937E+01  0.48611294335E+01  0.51100000000E-03 0.  1.
         12    1    4    4    0    0 -0.41688287862E+01 -0.32637732179E+01  0.20816532132E+01  0.56889919288E+01  0.00000000000E+00 0. -1.
</event>
<event>
 8    1  0.2390921E-006  0.9118800E+02  0.7816164E-02  0.1184000E+00
        -11   -1    0    0    0    0  0.00000000000E+00  0.00000000000E+00  0.45593999997E+02  0.45594000000E+02  0.51100000000E-03 0. -1.
         11   -1    0    0    0    0 -0.00000000000E+00 -0.00000000000E+00 -0.45593999997E+02  0.45594000000E+02  0.51100000000E-03 0.  1.
         23    2    1    2    0    0 -0.17763568394E-14  0.00000000000E+00  0.00000000000E+00  0.91188000000E+02  0.91188000000E+02 0.  0.
    9900012    2    3    3    0    0  0.10742490159E+02 -0.18224873783E+02  0.30136906469E+02  0.54367078627E+02  0.39999987346E+02 0.  0.
        -12    1    3    3    0    0 -0.10742490159E+02  0.18224873783E+02 -0.30136906469E+02  0.36820921373E+02  0.00000000000E+00 0.  1.
         11    1    4    4    0    0  0.18232297516E+02 -0.60971987035E+01  0.52744464332E+01  0.19935202286E+02  0.51100000000E-03 0.  1.
        -11    1    4    4    0    0 -0.55790028512E+01 -0.11332175088E+02  0.36907315987E+01  0.13159215973E+02  0.51100000000E-03 0. -1.
         12    1    4    4    0    0 -0.19108045062E+01 -0.79549999116E+00  0.21171728438E+02  0.21272660368E+02  0.00000000000E+00 0. -1.
</event>
<event>
 8    1  0.2390921E-006  0.9118800E+02  0.7816164E-02  0.1184000E+00
        -11   -1    0    0    0    0  0.00000000000E+00  0.00000000000E+00  0.45593999997E+02  0.45594000000E+02  0.51100000000E-03 0.  1.
         11   -1    0    0    0    0 -0.00000000000E+00 -0.00000000000E+00 -0.45593999997E+02  0.45594000000E+02  0.51100000000E-03 0. -1.
         23    2    1    2    0    0 -0.44408920985E-15  0.00000000000E+00  0.00000000000E+00  0.91188000000E+02  0.91188000000E+02 0.  0.
    9900012    2    3    3    0    0 -0.19415348451E+01 -0.24358986664E+02 -0.27543598562E+02  0.54367087320E+02  0.40000007163E+02 0.  0.
        -12    1    3    3    0    0  0.19415348451E+01  0.24358986664E+02  0.27543598562E+02  0.36820912680E+02  0.00000000000E+00 0.  1.
         11    1    4    4    0    0 -0.72919782602E+01 -0.27126877405E+02 -0.19609409959E+02  0.34257398966E+02  0.51100000000E-03 0. -1.
        -11    1    4    4    0    0  0.58290277227E+01 -0.64024468900E+01 -0.12420703724E+01  0.87470926279E+01  0.51100000000E-03 0.  1.
         12    1    4    4    0    0 -0.47858430764E+00  0.91703376315E+01 -0.66921182313E+01  0.11362595726E+02  0.00000000000E+00 0. -1.
</event>
<event>
 8    1  0.2390921E-006  0.9118800E+02  0.7816164E-02  0.1184000E+00
        -11   -1    0    0    0    0  0.00000000000E+00  0.00000000000E+00  0.45593999997E+02  0.45594000000E+02  0.51100000000E-03 0.  1.
         11   -1    0    0    0    0 -0.00000000000E+00 -0.00000000000E+00 -0.45593999997E+02  0.45594000000E+02  0.51100000000E-03 0. -1.
         23    2    1    2    0    0  0.35527136788E-14  0.35527136788E-14  0.00000000000E+00  0.91188000000E+02  0.91188000000E+02 0.  0.
    9900012    2    3    3    0    0 -0.21786329040E+02  0.29289073169E+02 -0.48257398549E+01  0.54367058875E+02  0.39999942318E+02 0.  0.
         12    1    3    3    0    0  0.21786329040E+02 -0.29289073169E+02  0.48257398549E+01  0.36820941125E+02  0.00000000000E+00 0. -1.
         11    1    4    4    0    0 -0.18635844049E+02  0.21401124357E+01  0.68797327097E+01  0.19980127303E+02  0.51100000000E-03 0. -1.
        -11    1    4    4    0    0 -0.33985159905E+01 -0.13950234959E+01 -0.22906581452E+01  0.43293321069E+01  0.51100000000E-03 0.  1.
        -12    1    4    4    0    0  0.24803099905E+00  0.28543984229E+02 -0.94148144193E+01  0.30057599465E+02  0.00000000000E+00 0.  1.
</event>
<event>
 8    1  0.2390921E-006  0.9118800E+02  0.7816164E-02  0.1184000E+00
        -11   -1    0    0    0    0  0.00000000000E+00  0.00000000000E+00  0.45593999997E+02  0.45594000000E+02  0.51100000000E-03 0.  1.
         11   -1    0    0    0    0 -0.00000000000E+00 -0.00000000000E+00 -0.45593999997E+02  0.45594000000E+02  0.51100000000E-03 0. -1.
         23    2    1    2    0    0  0.00000000000E+00 -0.88817841970E-15  0.00000000000E+00  0.91188000000E+02  0.91188000000E+02 0.  0.
    9900012    2    3    3    0    0  0.17127716108E+02 -0.48601516679E+01  0.32230426143E+02  0.54367080637E+02  0.39999991929E+02 0.  0.
         12    1    3    3    0    0 -0.17127716108E+02  0.48601516679E+01 -0.32230426143E+02  0.36820919363E+02  0.00000000000E+00 0. -1.
         11    1    4    4    0    0  0.82042260574E+01  0.48140456388E+01  0.12220540732E+02  0.15486315787E+02  0.51100000000E-03 0. -1.
        -11    1    4    4    0    0  0.99797082682E+01  0.69171620430E+01  0.18578055340E+02  0.22194275125E+02  0.51100000000E-03 0.  1.
        -12    1    4    4    0    0 -0.10562182171E+01 -0.16591359350E+02  0.14318300712E+01  0.16686489725E+02  0.00000000000E+00 0.  1.
</event>
<event>
 8    1  0.2390921E-006  0.9118800E+02  0.7816164E-02  0.1184000E+00
        -11   -1    0    0    0    0  0.00000000000E+00  0.00000000000E+00  0.45593999997E+02  0.45594000000E+02  0.51100000000E-03 0. -1.
         11   -1    0    0    0    0 -0.00000000000E+00 -0.00000000000E+00 -0.45593999997E+02  0.45594000000E+02  0.51100000000E-03 0.  1.
         23    2    1    2    0    0  0.00000000000E+00  0.71054273576E-14 -0.17763568394E-14  0.91188000000E+02  0.91188000000E+02 0.  0.
    9900012    2    3    3    0    0  0.18019369671E+02  0.30770525474E+02 -0.91791458644E+01  0.54367086920E+02  0.40000006251E+02 0.  0.
         12    1    3    3    0    0 -0.18019369671E+02 -0.30770525474E+02  0.91791458644E+01  0.36820913080E+02  0.00000000000E+00 0. -1.
         11    1    4    4    0    0  0.67935756695E+01 -0.27377552385E+01 -0.11717609584E+01  0.74176140455E+01  0.51100000000E-03 0. -1.
        -11    1    4    4    0    0  0.27325554657E+01  0.94616346207E+01 -0.17217286522E+02  0.19834927389E+02  0.51100000000E-03 0.  1.
         12    1    4    4    0    0  0.84932385362E+01  0.24046646091E+02  0.92099016165E+01  0.27114545485E+02  0.00000000000E+00 0. -1.
</event>
<event>
 8    1  0.2390921E-006  0.9118800E+02  0.7816164E-02  0.1184000E+00
        -11   -1    0    0    0    0  0.00000000000E+00  0.00000000000E+00  0.45593999997E+02  0.45594000000E+02  0.51100000000E-03 0.  1.
         11   -1    0    0    0    0 -0.00000000000E+00 -0.00000000000E+00 -0.45593999997E+02  0.45594000000E+02  0.51100000000E-03 0. -1.
         23    2    1    2    0    0 -0.35527136788E-14 -0.88817841970E-15  0.00000000000E+00  0.91188000000E+02  0.91188000000E+02 0.  0.
    9900012    2    3    3    0    0  0.21464999006E+02  0.58415355308E+01 -0.29341237886E+02  0.54367109729E+02  0.40000058249E+02 0.  0.
        -12    1    3    3    0    0 -0.21464999006E+02 -0.58415355308E+01  0.29341237886E+02  0.36820890271E+02  0.00000000000E+00 0.  1.
         11    1    4    4    0    0  0.78871776186E+01  0.11641530696E+02 -0.17054557659E+02  0.22104088874E+02  0.51100000000E-03 0. -1.
        -11    1    4    4    0    0  0.10175976418E+02 -0.12909543472E+02  0.13702872593E+01  0.16494983969E+02  0.51100000000E-03 0.  1.
        -12    1    4    4    0    0  0.34018449693E+01  0.71095483062E+01 -0.13656967486E+02  0.15768036886E+02  0.00000000000E+00 0.  1.
</event>
<event>
 8    1  0.2390921E-006  0.9118800E+02  0.7816164E-02  0.1184000E+00
        -11   -1    0    0    0    0  0.00000000000E+00  0.00000000000E+00  0.45593999997E+02  0.45594000000E+02  0.51100000000E-03 0.  1.
         11   -1    0    0    0    0 -0.00000000000E+00 -0.00000000000E+00 -0.45593999997E+02  0.45594000000E+02  0.51100000000E-03 0. -1.
         23    2    1    2    0    0  0.00000000000E+00  0.88817841970E-15  0.00000000000E+00  0.91188000000E+02  0.91188000000E+02 0.  0.
    9900012    2    3    3    0    0 -0.12391652051E+02  0.42196795928E+01 -0.34415419600E+02  0.54367084169E+02  0.39999999980E+02 0.  0.
        -12    1    3    3    0    0  0.12391652051E+02 -0.42196795928E+01  0.34415419600E+02  0.36820915831E+02  0.00000000000E+00 0.  1.
         11    1    4    4    0    0  0.35599733925E+01  0.89210800891E+01 -0.10119418212E+02  0.13952121908E+02  0.51100000000E-03 0. -1.
        -11    1    4    4    0    0  0.77272578385E+01 -0.24383642215E+01 -0.91186580945E+01  0.12198608916E+02  0.51100000000E-03 0.  1.
         12    1    4    4    0    0 -0.23678883282E+02 -0.22630362748E+01 -0.15177343293E+02  0.28216353345E+02  0.00000000000E+00 0. -1.
</event>
<event>
 8    1  0.2390921E-006  0.9118800E+02  0.7816164E-02  0.1184000E+00
        -11   -1    0    0    0    0  0.00000000000E+00  0.00000000000E+00  0.45593999997E+02  0.45594000000E+02  0.51100000000E-03 0.  1.
         11   -1    0    0    0    0 -0.00000000000E+00 -0.00000000000E+00 -0.45593999997E+02  0.45594000000E+02  0.51100000000E-03 0. -1.
         23    2    1    2    0    0 -0.17763568394E-14  0.00000000000E+00  0.17763568394E-14  0.91188000000E+02  0.91188000000E+02 0.  0.
    9900012    2    3    3    0    0  0.15036405832E+02 -0.29796314009E+02 -0.15552072693E+02  0.54367071251E+02  0.39999970531E+02 0.  0.
         12    1    3    3    0    0 -0.15036405832E+02  0.29796314009E+02  0.15552072693E+02  0.36820928749E+02  0.00000000000E+00 0. -1.
         11    1    4    4    0    0  0.21583399793E+02 -0.15309244288E+02 -0.20160991842E+02  0.33266825812E+02  0.51100000000E-03 0. -1.
        -11    1    4    4    0    0  0.25702098434E+01  0.63347954822E+00  0.18497934742E+01  0.32293979525E+01  0.51100000000E-03 0.  1.
         12    1    4    4    0    0 -0.91172038037E+01 -0.15120549269E+02  0.27591256752E+01  0.17870847487E+02  0.00000000000E+00 0. -1.
</event>
<event>
 8    1  0.2390921E-006  0.9118800E+02  0.7816164E-02  0.1184000E+00
        -11   -1    0    0    0    0  0.00000000000E+00  0.00000000000E+00  0.45593999997E+02  0.45594000000E+02  0.51100000000E-03 0.  1.
         11   -1    0    0    0    0 -0.00000000000E+00 -0.00000000000E+00 -0.45593999997E+02  0.45594000000E+02  0.51100000000E-03 0. -1.
         23    2    1    2    0    0  0.17763568394E-14  0.00000000000E+00  0.00000000000E+00  0.91188000000E+02  0.91188000000E+02 0.  0.
    9900012    2    3    3    0    0  0.12229829722E+02 -0.96015025700E+01 -0.33376959067E+02  0.54367095840E+02  0.40000026586E+02 0.  0.
        -12    1    3    3    0    0 -0.12229829722E+02  0.96015025700E+01  0.33376959067E+02  0.36820904160E+02  0.00000000000E+00 0.  1.
         11    1    4    4    0    0 -0.66424930753E+01 -0.89370547042E+01 -0.13535376186E+02  0.17527123831E+02  0.51100000000E-03 0. -1.
        -11    1    4    4    0    0 -0.58991295717E+01  0.42018232680E+00 -0.60798190510E+01  0.84817735672E+01  0.51100000000E-03 0.  1.
         12    1    4    4    0    0  0.24771452369E+02 -0.10846301926E+01 -0.13761763830E+02  0.28358198441E+02  0.00000000000E+00 0. -1.
</event>
<event>
 8    1  0.2390921E-006  0.9118800E+02  0.7816164E-02  0.1184000E+00
        -11   -1    0    0    0    0  0.00000000000E+00  0.00000000000E+00  0.45593999997E+02  0.45594000000E+02  0.51100000000E-03 0.  1.
         11   -1    0    0    0    0 -0.00000000000E+00 -0.00000000000E+00 -0.45593999997E+02  0.45594000000E+02  0.51100000000E-03 0. -1.
         23    2    1    2    0    0  0.00000000000E+00  0.00000000000E+00  0.00000000000E+00  0.91188000000E+02  0.91188000000E+02 0.  0.
    9900012    2    3    3    0    0 -0.23774975700E+02  0.11518959302E+02 -0.25648400267E+02  0.54367131880E+02  0.40000108746E+02 0.  0.
        -12    1    3    3    0    0  0.23774975700E+02 -0.11518959302E+02  0.25648400267E+02  0.36820868120E+02  0.00000000000E+00 0.  1.
         11    1    4    4    0    0 -0.54653880752E+01  0.24318112862E+01 -0.93615060267E+01  0.11109544018E+02  0.51100000000E-03 0. -1.
        -11    1    4    4    0    0 -0.91003169061E+01  0.10192914049E+02 -0.26281942468E+02  0.29621812314E+02  0.51100000000E-03 0.  1.
        -12    1    4    4    0    0 -0.92092707182E+01 -0.11057660336E+01  0.99950482284E+01  0.13635775547E+02  0.00000000000E+00 0.  1.
</event>
<event>
 8    1  0.2390921E-006  0.9118800E+02  0.7816164E-02  0.1184000E+00
        -11   -1    0    0    0    0  0.00000000000E+00  0.00000000000E+00  0.45593999997E+02  0.45594000000E+02  0.51100000000E-03 0.  1.
         11   -1    0    0    0    0 -0.00000000000E+00 -0.00000000000E+00 -0.45593999997E+02  0.45594000000E+02  0.51100000000E-03 0. -1.
         23    2    1    2    0    0  0.00000000000E+00  0.44408920985E-15  0.00000000000E+00  0.91188000000E+02  0.91188000000E+02 0.  0.
    9900012    2    3    3    0    0  0.33199278244E+02  0.17725767716E+01  0.15825484091E+02  0.54367081339E+02  0.39999993528E+02 0.  0.
        -12    1    3    3    0    0 -0.33199278244E+02 -0.17725767716E+01 -0.15825484091E+02  0.36820918661E+02  0.00000000000E+00 0.  1.
         11    1    4    4    0    0  0.24279077762E+02 -0.34430228484E+01 -0.49349888547E+00  0.24526955880E+02  0.51100000000E-03 0. -1.
        -11    1    4    4    0    0  0.16029558255E+02  0.71973956142E+01  0.12160002034E+02  0.21368549114E+02  0.51100000000E-03 0.  1.
        -12    1    4    4    0    0 -0.71093577726E+01 -0.19817959942E+01  0.41589809420E+01  0.84715763455E+01  0.00000000000E+00 0.  1.
</event>
<event>
 8    1  0.2390921E-006  0.9118800E+02  0.7816164E-02  0.1184000E+00
        -11   -1    0    0    0    0  0.00000000000E+00  0.00000000000E+00  0.45593999997E+02  0.45594000000E+02  0.51100000000E-03 0. -1.
         11   -1    0    0    0    0 -0.00000000000E+00 -0.00000000000E+00 -0.45593999997E+02  0.45594000000E+02  0.51100000000E-03 0.  1.
         23    2    1    2    0    0  0.00000000000E+00  0.17763568394E-14  0.00000000000E+00  0.91188000000E+02  0.91188000000E+02 0.  0.
    9900012    2    3    3    0    0  0.31153335924E+02 -0.10401413022E+02  0.16645136041E+02  0.54367078150E+02  0.39999986258E+02 0.  0.
        -12    1    3    3    0    0 -0.31153335924E+02  0.10401413022E+02 -0.16645136041E+02  0.36820921850E+02  0.00000000000E+00 0.  1.
         11    1    4    4    0    0  0.91745759175E+01 -0.19738821042E+02  0.10090778640E+02  0.23992034370E+02  0.51100000000E-03 0. -1.
        -11    1    4    4    0    0  0.16311279780E+00 -0.32728474690E+01 -0.19105260527E+01  0.37931842032E+01  0.51100000000E-03 0.  1.
        -12    1    4    4    0    0  0.21815647209E+02  0.12610255489E+02  0.84648834534E+01  0.26581859576E+02  0.00000000000E+00 0.  1.
</event>
<event>
 8    1  0.2390921E-006  0.9118800E+02  0.7816164E-02  0.1184000E+00
        -11   -1    0    0    0    0  0.00000000000E+00  0.00000000000E+00  0.45593999997E+02  0.45594000000E+02  0.51100000000E-03 0.  1.
         11   -1    0    0    0    0 -0.00000000000E+00 -0.00000000000E+00 -0.45593999997E+02  0.45594000000E+02  0.51100000000E-03 0. -1.
         23    2    1    2    0    0  0.00000000000E+00  0.00000000000E+00 -0.35527136788E-14  0.91188000000E+02  0.91188000000E+02 0.  0.
    9900012    2    3    3    0    0  0.25033089689E+02 -0.89115529294E+01  0.25489372243E+02  0.54367089470E+02  0.40000012064E+02 0.  0.
         12    1    3    3    0    0 -0.25033089689E+02  0.89115529294E+01 -0.25489372243E+02  0.36820910530E+02  0.00000000000E+00 0. -1.
         11    1    4    4    0    0  0.36618556238E+01 -0.10509877829E+02 -0.83719728647E+01  0.13926831962E+02  0.51100000000E-03 0. -1.
        -11    1    4    4    0    0  0.12360018062E+02 -0.13253696701E+01  0.21895603331E+02  0.25178246499E+02  0.51100000000E-03 0.  1.
         12    1    4    4    0    0  0.90112160025E+01  0.29236945694E+01  0.11965741776E+02  0.15262011009E+02  0.00000000000E+00 0. -1.
</event>
<event>
 8    1  0.2390921E-006  0.9118800E+02  0.7816164E-02  0.1184000E+00
        -11   -1    0    0    0    0  0.00000000000E+00  0.00000000000E+00  0.45593999997E+02  0.45594000000E+02  0.51100000000E-03 0. -1.
         11   -1    0    0    0    0 -0.00000000000E+00 -0.00000000000E+00 -0.45593999997E+02  0.45594000000E+02  0.51100000000E-03 0.  1.
         23    2    1    2    0    0  0.00000000000E+00 -0.17763568394E-14  0.00000000000E+00  0.91188000000E+02  0.91188000000E+02 0.  0.
    9900012    2    3    3    0    0 -0.18080057310E+02  0.81214877863E+01 -0.31031143391E+02  0.54367097019E+02  0.40000029273E+02 0.  0.
         12    1    3    3    0    0  0.18080057310E+02 -0.81214877863E+01  0.31031143391E+02  0.36820902981E+02  0.00000000000E+00 0. -1.
         11    1    4    4    0    0  0.17214512233E+01  0.16716264079E+02 -0.66605975160E+01  0.18076516219E+02  0.51100000000E-03 0. -1.
        -11    1    4    4    0    0  0.14835309490E+01 -0.32650965814E+00 -0.81274168780E+01  0.82681544497E+01  0.51100000000E-03 0.  1.
         12    1    4    4    0    0 -0.21285039482E+02 -0.82682666350E+01 -0.16243128997E+02  0.28022426350E+02  0.00000000000E+00 0. -1.
</event>
<event>
 8    1  0.2390921E-006  0.9118800E+02  0.7816164E-02  0.1184000E+00
        -11   -1    0    0    0    0  0.00000000000E+00  0.00000000000E+00  0.45593999997E+02  0.45594000000E+02  0.51100000000E-03 0.  1.
         11   -1    0    0    0    0 -0.00000000000E+00 -0.00000000000E+00 -0.45593999997E+02  0.45594000000E+02  0.51100000000E-03 0. -1.
         23    2    1    2    0    0  0.17763568394E-14  0.00000000000E+00  0.00000000000E+00  0.91188000000E+02  0.91188000000E+02 0.  0.
    9900012    2    3    3    0    0  0.13084150511E+02  0.42881730651E+01 -0.34149605286E+02  0.54367096100E+02  0.40000027178E+02 0.  0.
        -12    1    3    3    0    0 -0.13084150511E+02 -0.42881730651E+01  0.34149605286E+02  0.36820903900E+02  0.00000000000E+00 0.  1.
         11    1    4    4    0    0  0.78976951437E+01 -0.84091239406E+01 -0.13422294648E+02  0.17698727296E+02  0.51100000000E-03 0. -1.
        -11    1    4    4    0    0 -0.45928033377E+01 -0.28997141775E+01 -0.17051538859E+02  0.17895730288E+02  0.51100000000E-03 0.  1.
        -12    1    4    4    0    0  0.97792587050E+01  0.15597011183E+02 -0.36757717799E+01  0.18772638516E+02  0.00000000000E+00 0.  1.
</event>
<event>
 8    1  0.2390921E-006  0.9118800E+02  0.7816164E-02  0.1184000E+00
        -11   -1    0    0    0    0  0.00000000000E+00  0.00000000000E+00  0.45593999997E+02  0.45594000000E+02  0.51100000000E-03 0.  1.
         11   -1    0    0    0    0 -0.00000000000E+00 -0.00000000000E+00 -0.45593999997E+02  0.45594000000E+02  0.51100000000E-03 0. -1.
         23    2    1    2    0    0 -0.13322676296E-14  0.00000000000E+00  0.00000000000E+00  0.91188000000E+02  0.91188000000E+02 0.  0.
    9900012    2    3    3    0    0  0.27482787697E+01  0.21510754565E+01 -0.36655151553E+02  0.54367077996E+02  0.39999985908E+02 0.  0.
        -12    1    3    3    0    0 -0.27482787697E+01 -0.21510754565E+01  0.36655151553E+02  0.36820922004E+02  0.00000000000E+00 0.  1.
         11    1    4    4    0    0  0.92493733241E+01 -0.34001116488E+01  0.10846642512E+00  0.98551220864E+01  0.51100000000E-03 0.  1.
        -11    1    4    4    0    0  0.51334657052E+01  0.17018635132E+01 -0.30061647515E+02  0.30544254143E+02  0.51100000000E-03 0. -1.
        -12    1    4    4    0    0 -0.11634560260E+02  0.38493235921E+01 -0.67019704633E+01  0.13967701767E+02  0.00000000000E+00 0.  1.
</event>
<event>
 8    1  0.2390921E-006  0.9118800E+02  0.7816164E-02  0.1184000E+00
        -11   -1    0    0    0    0  0.00000000000E+00  0.00000000000E+00  0.45593999997E+02  0.45594000000E+02  0.51100000000E-03 0. -1.
         11   -1    0    0    0    0 -0.00000000000E+00 -0.00000000000E+00 -0.45593999997E+02  0.45594000000E+02  0.51100000000E-03 0.  1.
         23    2    1    2    0    0  0.00000000000E+00  0.00000000000E+00  0.00000000000E+00  0.91188000000E+02  0.91188000000E+02 0.  0.
    9900012    2    3    3    0    0 -0.23318609245E+02  0.20014531447E+02 -0.20284012871E+02  0.54367079529E+02  0.39999989401E+02 0.  0.
         12    1    3    3    0    0  0.23318609245E+02 -0.20014531447E+02  0.20284012871E+02  0.36820920471E+02  0.00000000000E+00 0. -1.
         11    1    4    4    0    0 -0.14077357608E+02  0.15953137199E+02  0.30172400774E+01  0.21489027937E+02  0.51100000000E-03 0. -1.
        -11    1    4    4    0    0 -0.14511446969E+02  0.11032729434E+00 -0.88527767357E+01  0.16998997660E+02  0.51100000000E-03 0.  1.
        -12    1    4    4    0    0  0.52701953315E+01  0.39510669538E+01 -0.14448476213E+02  0.15879053932E+02  0.00000000000E+00 0.  1.
</event>
<event>
 8    1  0.2390921E-006  0.9118800E+02  0.7816164E-02  0.1184000E+00
        -11   -1    0    0    0    0  0.00000000000E+00  0.00000000000E+00  0.45593999997E+02  0.45594000000E+02  0.51100000000E-03 0. -1.
         11   -1    0    0    0    0 -0.00000000000E+00 -0.00000000000E+00 -0.45593999997E+02  0.45594000000E+02  0.51100000000E-03 0.  1.
         23    2    1    2    0    0  0.35527136788E-14  0.00000000000E+00  0.00000000000E+00  0.91188000000E+02  0.91188000000E+02 0.  0.
    9900012    2    3    3    0    0 -0.29741451358E+02  0.20556263626E+02  0.69762778498E+01  0.54367050042E+02  0.39999922181E+02 0.  0.
         12    1    3    3    0    0  0.29741451358E+02 -0.20556263626E+02 -0.69762778498E+01  0.36820949958E+02  0.00000000000E+00 0. -1.
         11    1    4    4    0    0  0.11021217226E+01 -0.43299346364E+01  0.11194814043E+02  0.12053500237E+02  0.51100000000E-03 0. -1.
        -11    1    4    4    0    0 -0.10070859612E+02  0.15627966086E+02  0.20989607181E+01  0.18709921797E+02  0.51100000000E-03 0.  1.
         12    1    4    4    0    0 -0.20772713469E+02  0.92582321759E+01 -0.63174969114E+01  0.23603628008E+02  0.00000000000E+00 0. -1.
</event>
<event>
 8    1  0.2390921E-006  0.9118800E+02  0.7816164E-02  0.1184000E+00
        -11   -1    0    0    0    0  0.00000000000E+00  0.00000000000E+00  0.45593999997E+02  0.45594000000E+02  0.51100000000E-03 0.  1.
         11   -1    0    0    0    0 -0.00000000000E+00 -0.00000000000E+00 -0.45593999997E+02  0.45594000000E+02  0.51100000000E-03 0. -1.
         23    2    1    2    0    0  0.17763568394E-14 -0.24424906542E-14  0.00000000000E+00  0.91188000000E+02  0.91188000000E+02 0.  0.
    9900012    2    3    3    0    0 -0.12053190450E+02 -0.18171519319E+01 -0.34744755516E+02  0.54367089133E+02  0.40000011296E+02 0.  0.
        -12    1    3    3    0    0  0.12053190450E+02  0.18171519319E+01  0.34744755516E+02  0.36820910867E+02  0.00000000000E+00 0.  1.
         11    1    4    4    0    0 -0.16528607412E+01  0.94741749464E+01 -0.26901711860E+02  0.28569109905E+02  0.51100000000E-03 0. -1.
        -11    1    4    4    0    0  0.26975251479E+01  0.36613495097E+01 -0.37429626964E+00  0.45631370913E+01  0.51100000000E-03 0.  1.
         12    1    4    4    0    0 -0.13097854857E+02 -0.14952676388E+02 -0.74687473872E+01  0.21234842136E+02  0.00000000000E+00 0. -1.
</event>
<event>
 8    1  0.2390921E-006  0.9118800E+02  0.7816164E-02  0.1184000E+00
        -11   -1    0    0    0    0  0.00000000000E+00  0.00000000000E+00  0.45593999997E+02  0.45594000000E+02  0.51100000000E-03 0.  1.
         11   -1    0    0    0    0 -0.00000000000E+00 -0.00000000000E+00 -0.45593999997E+02  0.45594000000E+02  0.51100000000E-03 0. -1.
         23    2    1    2    0    0  0.00000000000E+00 -0.88817841970E-15  0.00000000000E+00  0.91188000000E+02  0.91188000000E+02 0.  0.
    9900012    2    3    3    0    0  0.17438553764E+01 -0.77882779910E+01  0.35945545989E+02  0.54367074128E+02  0.39999977089E+02 0.  0.
         12    1    3    3    0    0 -0.17438553764E+01  0.77882779910E+01 -0.35945545989E+02  0.36820925872E+02  0.00000000000E+00 0. -1.
         11    1    4    4    0    0 -0.91320914737E+01 -0.49517171390E+01  0.19492390200E+02  0.22087731284E+02  0.51100000000E-03 0. -1.
        -11    1    4    4    0    0  0.16693343423E+02 -0.90049879064E+01  0.13577482097E+02  0.23326070012E+02  0.51100000000E-03 0.  1.
         12    1    4    4    0    0 -0.58173965733E+01  0.61684270544E+01  0.28756736921E+01  0.89532728318E+01  0.00000000000E+00 0. -1.
</event>
<event>
 8    1  0.2390921E-006  0.9118800E+02  0.7816164E-02  0.1184000E+00
        -11   -1    0    0    0    0  0.00000000000E+00  0.00000000000E+00  0.45593999997E+02  0.45594000000E+02  0.51100000000E-03 0. -1.
         11   -1    0    0    0    0 -0.00000000000E+00 -0.00000000000E+00 -0.45593999997E+02  0.45594000000E+02  0.51100000000E-03 0.  1.
         23    2    1    2    0    0  0.00000000000E+00  0.35527136788E-14 -0.88817841970E-15  0.91188000000E+02  0.91188000000E+02 0.  0.
    9900012    2    3    3    0    0  0.24106136682E+02 -0.27518736794E+02 -0.41706173413E+01  0.54367071855E+02  0.39999971907E+02 0.  0.
        -12    1    3    3    0    0 -0.24106136682E+02  0.27518736794E+02  0.41706173413E+01  0.36820928145E+02  0.00000000000E+00 0.  1.
         11    1    4    4    0    0  0.13118383574E+02 -0.25048765843E+01  0.98042979525E+01  0.16567759441E+02  0.51100000000E-03 0. -1.
        -11    1    4    4    0    0 -0.20590215027E+01 -0.10326519767E+01  0.43477071452E+01  0.49202131392E+01  0.51100000000E-03 0.  1.
        -12    1    4    4    0    0  0.13046774610E+02 -0.23981208233E+02 -0.18322622439E+02  0.32879099274E+02  0.00000000000E+00 0.  1.
</event>
<event>
 8    1  0.2390921E-006  0.9118800E+02  0.7816164E-02  0.1184000E+00
        -11   -1    0    0    0    0  0.00000000000E+00  0.00000000000E+00  0.45593999997E+02  0.45594000000E+02  0.51100000000E-03 0. -1.
         11   -1    0    0    0    0 -0.00000000000E+00 -0.00000000000E+00 -0.45593999997E+02  0.45594000000E+02  0.51100000000E-03 0.  1.
         23    2    1    2    0    0  0.00000000000E+00  0.00000000000E+00  0.17763568394E-14  0.91188000000E+02  0.91188000000E+02 0.  0.
    9900012    2    3    3    0    0  0.86975121021E+01  0.33725138330E+02 -0.11947697198E+02  0.54367093703E+02  0.40000021716E+02 0.  0.
        -12    1    3    3    0    0 -0.86975121021E+01 -0.33725138330E+02  0.11947697198E+02  0.36820906297E+02  0.00000000000E+00 0.  1.
         11    1    4    4    0    0  0.34621331908E+01  0.34508941628E+02 -0.10585541816E+01  0.34698327852E+02  0.51100000000E-03 0. -1.
        -11    1    4    4    0    0  0.60905364009E+01  0.29609748811E+01  0.12937926272E+01  0.68946287442E+01  0.51100000000E-03 0.  1.
         12    1    4    4    0    0 -0.85515748969E+00 -0.37447781786E+01 -0.12182935644E+02  0.12774137107E+02  0.00000000000E+00 0. -1.
</event>
<event>
 8    1  0.2390921E-006  0.9118800E+02  0.7816164E-02  0.1184000E+00
        -11   -1    0    0    0    0  0.00000000000E+00  0.00000000000E+00  0.45593999997E+02  0.45594000000E+02  0.51100000000E-03 0.  1.
         11   -1    0    0    0    0 -0.00000000000E+00 -0.00000000000E+00 -0.45593999997E+02  0.45594000000E+02  0.51100000000E-03 0. -1.
         23    2    1    2    0    0  0.88817841970E-15  0.00000000000E+00  0.00000000000E+00  0.91188000000E+02  0.91188000000E+02 0.  0.
    9900012    2    3    3    0    0  0.20958483703E+01 -0.14498207050E+02 -0.33781490113E+02  0.54367086617E+02  0.40000005561E+02 0.  0.
        -12    1    3    3    0    0 -0.20958483703E+01  0.14498207050E+02  0.33781490113E+02  0.36820913383E+02  0.00000000000E+00 0.  1.
         11    1    4    4    0    0 -0.59093367758E+01 -0.52256994979E+01 -0.49558646691E+01  0.93160501958E+01  0.51100000000E-03 0. -1.
        -11    1    4    4    0    0 -0.96612273582E+01  0.32464829121E+01 -0.18366237041E+02  0.21004704918E+02  0.51100000000E-03 0.  1.
         12    1    4    4    0    0  0.17666412504E+02 -0.12518990464E+02 -0.10459388403E+02  0.24046331504E+02  0.00000000000E+00 0. -1.
</event>
<event>
 8    1  0.2390921E-006  0.9118800E+02  0.7816164E-02  0.1184000E+00
        -11   -1    0    0    0    0  0.00000000000E+00  0.00000000000E+00  0.45593999997E+02  0.45594000000E+02  0.51100000000E-03 0.  1.
         11   -1    0    0    0    0 -0.00000000000E+00 -0.00000000000E+00 -0.45593999997E+02  0.45594000000E+02  0.51100000000E-03 0. -1.
         23    2    1    2    0    0 -0.35527136788E-14  0.00000000000E+00 -0.71054273576E-14  0.91188000000E+02  0.91188000000E+02 0.  0.
    9900012    2    3    3    0    0 -0.18580208489E+02 -0.20710843660E+02 -0.24116732420E+02  0.54367082369E+02  0.39999995876E+02 0.  0.
        -12    1    3    3    0    0  0.18580208489E+02  0.20710843660E+02  0.24116732420E+02  0.36820917631E+02  0.00000000000E+00 0.  1.
         11    1    4    4    0    0  0.15898693002E+01 -0.52470046990E+01  0.44076824850E+01  0.70346576216E+01  0.51100000000E-03 0. -1.
        -11    1    4    4    0    0  0.30651491401E+01 -0.11921324291E+02 -0.30696192715E+01  0.12686042520E+02  0.51100000000E-03 0.  1.
         12    1    4    4    0    0 -0.23235226930E+02 -0.35425146702E+01 -0.25454795633E+02  0.34646382227E+02  0.00000000000E+00 0. -1.
</event>
<event>
 8    1  0.2390921E-006  0.9118800E+02  0.7816164E-02  0.1184000E+00
        -11   -1    0    0    0    0  0.00000000000E+00  0.00000000000E+00  0.45593999997E+02  0.45594000000E+02  0.51100000000E-03 0.  1.
         11   -1    0    0    0    0 -0.00000000000E+00 -0.00000000000E+00 -0.45593999997E+02  0.45594000000E+02  0.51100000000E-03 0. -1.
         23    2    1    2    0    0  0.00000000000E+00  0.00000000000E+00 -0.44408920985E-15  0.91188000000E+02  0.91188000000E+02 0.  0.
    9900012    2    3    3    0    0 -0.32196129692E+02 -0.17510863901E+02 -0.35435091150E+01  0.54367114913E+02  0.40000070068E+02 0.  0.
         12    1    3    3    0    0  0.32196129692E+02  0.17510863901E+02  0.35435091150E+01  0.36820885087E+02  0.00000000000E+00 0. -1.
         11    1    4    4    0    0 -0.10166522154E+02 -0.93256270060E+01 -0.10376800205E+02  0.17262777138E+02  0.51100000000E-03 0. -1.
        -11    1    4    4    0    0 -0.18817107249E+02 -0.13589517588E+02  0.14362479711E+02  0.27295408720E+02  0.51100000000E-03 0.  1.
         12    1    4    4    0    0 -0.32125002893E+01  0.54042806931E+01 -0.75291886208E+01  0.98089290550E+01  0.00000000000E+00 0. -1.
</event>
<event>
 8    1  0.2390921E-006  0.9118800E+02  0.7816164E-02  0.1184000E+00
        -11   -1    0    0    0    0  0.00000000000E+00  0.00000000000E+00  0.45593999997E+02  0.45594000000E+02  0.51100000000E-03 0. -1.
         11   -1    0    0    0    0 -0.00000000000E+00 -0.00000000000E+00 -0.45593999997E+02  0.45594000000E+02  0.51100000000E-03 0.  1.
         23    2    1    2    0    0  0.00000000000E+00  0.17763568394E-14  0.11102230246E-14  0.91188000000E+02  0.91188000000E+02 0.  0.
    9900012    2    3    3    0    0 -0.33341952167E+02 -0.15548826537E+02 -0.15248377058E+01  0.54367123978E+02  0.40000090732E+02 0.  0.
        -12    1    3    3    0    0  0.33341952167E+02  0.15548826537E+02  0.15248377058E+01  0.36820876022E+02  0.00000000000E+00 0.  1.
         11    1    4    4    0    0 -0.71108888094E+01  0.38575043011E+01  0.58576582089E+01  0.99878545768E+01  0.51100000000E-03 0. -1.
        -11    1    4    4    0    0 -0.29707584148E+02 -0.19821242976E+02  0.54051271186E+00  0.35717144108E+02  0.51100000000E-03 0.  1.
         12    1    4    4    0    0  0.34765207903E+01  0.41491213729E+00 -0.79230086267E+01  0.86621252926E+01  0.00000000000E+00 0. -1.
</event>
<event>
 8    1  0.2390921E-006  0.9118800E+02  0.7816164E-02  0.1184000E+00
        -11   -1    0    0    0    0  0.00000000000E+00  0.00000000000E+00  0.45593999997E+02  0.45594000000E+02  0.51100000000E-03 0. -1.
         11   -1    0    0    0    0 -0.00000000000E+00 -0.00000000000E+00 -0.45593999997E+02  0.45594000000E+02  0.51100000000E-03 0.  1.
         23    2    1    2    0    0  0.00000000000E+00  0.00000000000E+00  0.00000000000E+00  0.91188000000E+02  0.91188000000E+02 0.  0.
    9900012    2    3    3    0    0 -0.27107937827E+02 -0.15919748458E+02  0.19170331995E+02  0.54367077782E+02  0.39999985419E+02 0.  0.
        -12    1    3    3    0    0  0.27107937827E+02  0.15919748458E+02 -0.19170331995E+02  0.36820922218E+02  0.00000000000E+00 0.  1.
         11    1    4    4    0    0 -0.21852731971E+02 -0.54440738039E+01  0.17075145220E+02  0.28261996015E+02  0.51100000000E-03 0. -1.
        -11    1    4    4    0    0 -0.64938021822E+01 -0.13149444162E+02  0.99456130164E+01  0.17719835413E+02  0.51100000000E-03 0.  1.
        -12    1    4    4    0    0  0.12385963261E+01  0.26737695075E+01 -0.78504262414E+01  0.83852463536E+01  0.00000000000E+00 0.  1.
</event>
<event>
 8    1  0.2390921E-006  0.9118800E+02  0.7816164E-02  0.1184000E+00
        -11   -1    0    0    0    0  0.00000000000E+00  0.00000000000E+00  0.45593999997E+02  0.45594000000E+02  0.51100000000E-03 0.  1.
         11   -1    0    0    0    0 -0.00000000000E+00 -0.00000000000E+00 -0.45593999997E+02  0.45594000000E+02  0.51100000000E-03 0. -1.
         23    2    1    2    0    0  0.35527136788E-14  0.00000000000E+00 -0.22204460493E-14  0.91188000000E+02  0.91188000000E+02 0.  0.
    9900012    2    3    3    0    0  0.21229915423E+02 -0.29840428213E+02 -0.38235553989E+01  0.54367081479E+02  0.39999993848E+02 0.  0.
        -12    1    3    3    0    0 -0.21229915423E+02  0.29840428213E+02  0.38235553989E+01  0.36820918521E+02  0.00000000000E+00 0.  1.
         11    1    4    4    0    0 -0.74952749721E+01 -0.11292394844E+02  0.71844063902E+01  0.15339916025E+02  0.51100000000E-03 0. -1.
        -11    1    4    4    0    0 -0.11981271449E+01  0.10808464213E+01 -0.86428261576E+00  0.18304978402E+01  0.51100000000E-03 0.  1.
         12    1    4    4    0    0  0.29923317540E+02 -0.19628879791E+02 -0.10143679173E+02  0.37196667614E+02  0.00000000000E+00 0. -1.
</event>
<event>
 8    1  0.2390921E-006  0.9118800E+02  0.7816164E-02  0.1184000E+00
        -11   -1    0    0    0    0  0.00000000000E+00  0.00000000000E+00  0.45593999997E+02  0.45594000000E+02  0.51100000000E-03 0. -1.
         11   -1    0    0    0    0 -0.00000000000E+00 -0.00000000000E+00 -0.45593999997E+02  0.45594000000E+02  0.51100000000E-03 0.  1.
         23    2    1    2    0    0  0.00000000000E+00  0.00000000000E+00 -0.88817841970E-15  0.91188000000E+02  0.91188000000E+02 0.  0.
    9900012    2    3    3    0    0 -0.24412606914E+02 -0.27433912840E+02 -0.26803886795E+01  0.54367089724E+02  0.40000012644E+02 0.  0.
         12    1    3    3    0    0  0.24412606914E+02  0.27433912840E+02  0.26803886795E+01  0.36820910276E+02  0.00000000000E+00 0. -1.
         11    1    4    4    0    0  0.35298785715E+01  0.16670546351E+01  0.54755271663E+00  0.39419447135E+01  0.51100000000E-03 0. -1.
        -11    1    4    4    0    0 -0.14876152351E+02 -0.12127109119E+02 -0.16428413924E+02  0.25263797590E+02  0.51100000000E-03 0.  1.
         12    1    4    4    0    0 -0.13066333135E+02 -0.16973858356E+02  0.13200472528E+02  0.25161347421E+02  0.00000000000E+00 0. -1.
</event>
<event>
 8    1  0.2390921E-006  0.9118800E+02  0.7816164E-02  0.1184000E+00
        -11   -1    0    0    0    0  0.00000000000E+00  0.00000000000E+00  0.45593999997E+02  0.45594000000E+02  0.51100000000E-03 0. -1.
         11   -1    0    0    0    0 -0.00000000000E+00 -0.00000000000E+00 -0.45593999997E+02  0.45594000000E+02  0.51100000000E-03 0.  1.
         23    2    1    2    0    0  0.71054273576E-14 -0.17763568394E-14 -0.37470027081E-15  0.91188000000E+02  0.91188000000E+02 0.  0.
    9900012    2    3    3    0    0 -0.35587528024E+02  0.94499670137E+01 -0.77574490879E-01  0.54367081418E+02  0.39999993709E+02 0.  0.
         12    1    3    3    0    0  0.35587528024E+02 -0.94499670137E+01  0.77574490879E-01  0.36820918582E+02  0.00000000000E+00 0. -1.
         11    1    4    4    0    0 -0.83535474710E+01  0.67814285767E+01 -0.78960345262E+00  0.10788558883E+02  0.51100000000E-03 0. -1.
        -11    1    4    4    0    0 -0.36298819328E+01  0.15420013706E+02 -0.40022638407E+01  0.16339246668E+02  0.51100000000E-03 0.  1.
         12    1    4    4    0    0 -0.23604098620E+02 -0.12751475269E+02  0.47142928024E+01  0.27239275868E+02  0.00000000000E+00 0. -1.
</event>
<event>
 8    1  0.2390921E-006  0.9118800E+02  0.7816164E-02  0.1184000E+00
        -11   -1    0    0    0    0  0.00000000000E+00  0.00000000000E+00  0.45593999997E+02  0.45594000000E+02  0.51100000000E-03 0. -1.
         11   -1    0    0    0    0 -0.00000000000E+00 -0.00000000000E+00 -0.45593999997E+02  0.45594000000E+02  0.51100000000E-03 0.  1.
         23    2    1    2    0    0  0.00000000000E+00 -0.35527136788E-14 -0.55511151231E-15  0.91188000000E+02  0.91188000000E+02 0.  0.
    9900012    2    3    3    0    0 -0.26031623662E+02  0.26038083535E+02  0.39076864902E+00  0.54367083054E+02  0.39999997437E+02 0.  0.
        -12    1    3    3    0    0  0.26031623662E+02 -0.26038083535E+02 -0.39076864902E+00  0.36820916946E+02  0.00000000000E+00 0.  1.
         11    1    4    4    0    0 -0.12817276210E+02  0.13704561958E+02  0.97651169653E+01  0.21153134461E+02  0.51100000000E-03 0. -1.
        -11    1    4    4    0    0 -0.14128652212E+02  0.19473098224E+02 -0.98576085011E+01  0.25999861796E+02  0.51100000000E-03 0.  1.
        -12    1    4    4    0    0  0.91430476073E+00 -0.71395766476E+01  0.48326018484E+00  0.72140867966E+01  0.00000000000E+00 0.  1.
</event>
<event>
 8    1  0.2390921E-006  0.9118800E+02  0.7816164E-02  0.1184000E+00
        -11   -1    0    0    0    0  0.00000000000E+00  0.00000000000E+00  0.45593999997E+02  0.45594000000E+02  0.51100000000E-03 0.  1.
         11   -1    0    0    0    0 -0.00000000000E+00 -0.00000000000E+00 -0.45593999997E+02  0.45594000000E+02  0.51100000000E-03 0. -1.
         23    2    1    2    0    0  0.17763568394E-14  0.00000000000E+00  0.00000000000E+00  0.91188000000E+02  0.91188000000E+02 0.  0.
    9900012    2    3    3    0    0 -0.50994059022E+01 -0.11831446581E+02  0.34493371164E+02  0.54367085793E+02  0.40000003683E+02 0.  0.
         12    1    3    3    0    0  0.50994059022E+01  0.11831446581E+02 -0.34493371164E+02  0.36820914207E+02  0.00000000000E+00 0. -1.
         11    1    4    4    0    0  0.47576199721E+01 -0.61300820751E+01  0.83869827389E+01  0.11426037536E+02  0.51100000000E-03 0. -1.
        -11    1    4    4    0    0 -0.11258458855E+01 -0.76058829090E+01  0.31552522632E+02  0.32475816672E+02  0.51100000000E-03 0.  1.
         12    1    4    4    0    0 -0.87311799889E+01  0.19045184028E+01 -0.54461342071E+01  0.10465231586E+02  0.00000000000E+00 0. -1.
</event>
<event>
 8    1  0.2390921E-006  0.9118800E+02  0.7816164E-02  0.1184000E+00
        -11   -1    0    0    0    0  0.00000000000E+00  0.00000000000E+00  0.45593999997E+02  0.45594000000E+02  0.51100000000E-03 0.  1.
         11   -1    0    0    0    0 -0.00000000000E+00 -0.00000000000E+00 -0.45593999997E+02  0.45594000000E+02  0.51100000000E-03 0. -1.
         23    2    1    2    0    0  0.00000000000E+00  0.00000000000E+00  0.00000000000E+00  0.91188000000E+02  0.91188000000E+02 0.  0.
    9900012    2    3    3    0    0  0.75962327776E+01  0.34580133188E+02 -0.10113827276E+02  0.54367111011E+02  0.40000061173E+02 0.  0.
        -12    1    3    3    0    0 -0.75962327776E+01 -0.34580133188E+02  0.10113827276E+02  0.36820888989E+02  0.00000000000E+00 0.  1.
         11    1    4    4    0    0 -0.48471167613E+01  0.31791624928E+02 -0.13823190980E+01  0.32188705516E+02  0.51100000000E-03 0. -1.
        -11    1    4    4    0    0 -0.33827743972E+01 -0.14139098566E+00 -0.43220162471E+01  0.54902621735E+01  0.51100000000E-03 0.  1.
         12    1    4    4    0    0  0.15826123936E+02  0.29298992460E+01 -0.44094919308E+01  0.16688143322E+02  0.00000000000E+00 0. -1.
</event>
<event>
 8    1  0.2390921E-006  0.9118800E+02  0.7816164E-02  0.1184000E+00
        -11   -1    0    0    0    0  0.00000000000E+00  0.00000000000E+00  0.45593999997E+02  0.45594000000E+02  0.51100000000E-03 0.  1.
         11   -1    0    0    0    0 -0.00000000000E+00 -0.00000000000E+00 -0.45593999997E+02  0.45594000000E+02  0.51100000000E-03 0. -1.
         23    2    1    2    0    0 -0.35527136788E-14  0.35527136788E-14  0.00000000000E+00  0.91188000000E+02  0.91188000000E+02 0.  0.
    9900012    2    3    3    0    0 -0.24522283631E+02  0.11351688541E+02  0.25011509665E+02  0.54367097744E+02  0.40000030927E+02 0.  0.
        -12    1    3    3    0    0  0.24522283631E+02 -0.11351688541E+02 -0.25011509665E+02  0.36820902256E+02  0.00000000000E+00 0.  1.
         11    1    4    4    0    0 -0.25935590878E+01  0.14681136851E+02  0.12810897928E+02  0.19656587546E+02  0.51100000000E-03 0. -1.
        -11    1    4    4    0    0 -0.15175269242E+02  0.25323798646E+01  0.18283353988E+02  0.23895245922E+02  0.51100000000E-03 0.  1.
        -12    1    4    4    0    0 -0.67534553011E+01 -0.58618281744E+01 -0.60827422515E+01  0.10815264275E+02  0.00000000000E+00 0.  1.
</event>
<event>
 8    1  0.2390921E-006  0.9118800E+02  0.7816164E-02  0.1184000E+00
        -11   -1    0    0    0    0  0.00000000000E+00  0.00000000000E+00  0.45593999997E+02  0.45594000000E+02  0.51100000000E-03 0.  1.
         11   -1    0    0    0    0 -0.00000000000E+00 -0.00000000000E+00 -0.45593999997E+02  0.45594000000E+02  0.51100000000E-03 0. -1.
         23    2    1    2    0    0 -0.88817841970E-15  0.00000000000E+00  0.00000000000E+00  0.91188000000E+02  0.91188000000E+02 0.  0.
    9900012    2    3    3    0    0  0.69909498586E+01 -0.18558358470E+02 -0.31024079400E+02  0.54367088120E+02  0.40000008988E+02 0.  0.
        -12    1    3    3    0    0 -0.69909498586E+01  0.18558358470E+02  0.31024079400E+02  0.36820911880E+02  0.00000000000E+00 0.  1.
         11    1    4    4    0    0 -0.65664929522E+01  0.12242320639E+01 -0.10397906881E+02  0.12358561470E+02  0.51100000000E-03 0. -1.
        -11    1    4    4    0    0  0.89483039280E+01  0.36183792167E+01 -0.14439766250E+02  0.17368697733E+02  0.51100000000E-03 0.  1.
        -12    1    4    4    0    0  0.46091388828E+01 -0.23400969751E+02 -0.61864062690E+01  0.24639828917E+02  0.00000000000E+00 0.  1.
</event>
<event>
 8    1  0.2390921E-006  0.9118800E+02  0.7816164E-02  0.1184000E+00
        -11   -1    0    0    0    0  0.00000000000E+00  0.00000000000E+00  0.45593999997E+02  0.45594000000E+02  0.51100000000E-03 0. -1.
         11   -1    0    0    0    0 -0.00000000000E+00 -0.00000000000E+00 -0.45593999997E+02  0.45594000000E+02  0.51100000000E-03 0.  1.
         23    2    1    2    0    0  0.00000000000E+00  0.88817841970E-15 -0.35527136788E-14  0.91188000000E+02  0.91188000000E+02 0.  0.
    9900012    2    3    3    0    0 -0.32573442502E+02  0.45424204180E+01 -0.16556491603E+02  0.54367079942E+02  0.39999990345E+02 0.  0.
         12    1    3    3    0    0  0.32573442502E+02 -0.45424204180E+01  0.16556491603E+02  0.36820920058E+02  0.00000000000E+00 0. -1.
         11    1    4    4    0    0 -0.52979741808E+00  0.98220369466E+01  0.38480054968E+01  0.10562208181E+02  0.51100000000E-03 0. -1.
        -11    1    4    4    0    0 -0.25216602487E+02  0.49075115887E+01 -0.17839412418E+02  0.31276274501E+02  0.51100000000E-03 0.  1.
        -12    1    4    4    0    0 -0.68270425974E+01 -0.10187128117E+02 -0.25650846812E+01  0.12528597261E+02  0.00000000000E+00 0.  1.
</event>
<event>
 8    1  0.2390921E-006  0.9118800E+02  0.7816164E-02  0.1184000E+00
        -11   -1    0    0    0    0  0.00000000000E+00  0.00000000000E+00  0.45593999997E+02  0.45594000000E+02  0.51100000000E-03 0.  1.
         11   -1    0    0    0    0 -0.00000000000E+00 -0.00000000000E+00 -0.45593999997E+02  0.45594000000E+02  0.51100000000E-03 0. -1.
         23    2    1    2    0    0  0.00000000000E+00  0.26645352591E-14  0.00000000000E+00  0.91188000000E+02  0.91188000000E+02 0.  0.
    9900012    2    3    3    0    0 -0.29892699151E+02 -0.53962810427E+01  0.20810692112E+02  0.54367106233E+02  0.40000050279E+02 0.  0.
         12    1    3    3    0    0  0.29892699151E+02  0.53962810427E+01 -0.20810692112E+02  0.36820893767E+02  0.00000000000E+00 0. -1.
         11    1    4    4    0    0 -0.39825042368E+01 -0.18003796540E+02  0.10010401467E+02  0.20981066886E+02  0.51100000000E-03 0. -1.
        -11    1    4    4    0    0 -0.76206350000E+01  0.35623955645E+01 -0.27987252789E+01  0.88655289413E+01  0.51100000000E-03 0.  1.
        -12    1    4    4    0    0 -0.18289559914E+02  0.90451199333E+01  0.13599015924E+02  0.24520510406E+02  0.00000000000E+00 0.  1.
</event>
<event>
 8    1  0.2390921E-006  0.9118800E+02  0.7816164E-02  0.1184000E+00
        -11   -1    0    0    0    0  0.00000000000E+00  0.00000000000E+00  0.45593999997E+02  0.45594000000E+02  0.51100000000E-03 0.  1.
         11   -1    0    0    0    0 -0.00000000000E+00 -0.00000000000E+00 -0.45593999997E+02  0.45594000000E+02  0.51100000000E-03 0. -1.
         23    2    1    2    0    0  0.35527136788E-14 -0.53290705182E-14  0.00000000000E+00  0.91188000000E+02  0.91188000000E+02 0.  0.
    9900012    2    3    3    0    0 -0.18018604997E+02  0.93464515675E+01  0.30720577416E+02  0.54367079863E+02  0.39999990163E+02 0.  0.
         12    1    3    3    0    0  0.18018604997E+02 -0.93464515675E+01 -0.30720577416E+02  0.36820920137E+02  0.00000000000E+00 0. -1.
         11    1    4    4    0    0 -0.45488101660E+01 -0.15208650753E+02  0.95024604067E+01  0.18501121201E+02  0.51100000000E-03 0. -1.
        -11    1    4    4    0    0 -0.10559266254E+01  0.65156273915E+01  0.25005002769E+01  0.70583909809E+01  0.51100000000E-03 0.  1.
         12    1    4    4    0    0 -0.12413868206E+02  0.18039474929E+02  0.18717616733E+02  0.28807567681E+02  0.00000000000E+00 0. -1.
</event>
<event>
 8    1  0.2390921E-006  0.9118800E+02  0.7816164E-02  0.1184000E+00
        -11   -1    0    0    0    0  0.00000000000E+00  0.00000000000E+00  0.45593999997E+02  0.45594000000E+02  0.51100000000E-03 0.  1.
         11   -1    0    0    0    0 -0.00000000000E+00 -0.00000000000E+00 -0.45593999997E+02  0.45594000000E+02  0.51100000000E-03 0. -1.
         23    2    1    2    0    0  0.00000000000E+00  0.00000000000E+00  0.00000000000E+00  0.91188000000E+02  0.91188000000E+02 0.  0.
    9900012    2    3    3    0    0  0.19757216329E+02 -0.28889031444E+02  0.11439215100E+02  0.54367090493E+02  0.40000014397E+02 0.  0.
        -12    1    3    3    0    0 -0.19757216329E+02  0.28889031444E+02 -0.11439215100E+02  0.36820909507E+02  0.00000000000E+00 0.  1.
         11    1    4    4    0    0  0.15045889751E+02 -0.20976617197E+02 -0.55886942861E+01  0.26412700951E+02  0.51100000000E-03 0. -1.
        -11    1    4    4    0    0 -0.57201612176E+01 -0.78391410415E+01  0.24153204205E+01  0.10000307476E+02  0.51100000000E-03 0.  1.
         12    1    4    4    0    0  0.10431487795E+02 -0.73273205467E-01  0.14612588965E+02  0.17954082066E+02  0.00000000000E+00 0. -1.
</event>
<event>
 8    1  0.2390921E-006  0.9118800E+02  0.7816164E-02  0.1184000E+00
        -11   -1    0    0    0    0  0.00000000000E+00  0.00000000000E+00  0.45593999997E+02  0.45594000000E+02  0.51100000000E-03 0.  1.
         11   -1    0    0    0    0 -0.00000000000E+00 -0.00000000000E+00 -0.45593999997E+02  0.45594000000E+02  0.51100000000E-03 0. -1.
         23    2    1    2    0    0  0.00000000000E+00 -0.17763568394E-14  0.00000000000E+00  0.91188000000E+02  0.91188000000E+02 0.  0.
    9900012    2    3    3    0    0  0.29748477895E+02  0.15010811647E+02 -0.15667926971E+02  0.54367077429E+02  0.39999984616E+02 0.  0.
        -12    1    3    3    0    0 -0.29748477895E+02 -0.15010811647E+02  0.15667926971E+02  0.36820922571E+02  0.00000000000E+00 0.  1.
         11    1    4    4    0    0  0.15260031640E+02 -0.55201804548E+01  0.24579525094E+01  0.16412875699E+02  0.51100000000E-03 0. -1.
        -11    1    4    4    0    0 -0.36876165520E+01  0.99947412567E+01 -0.12050313599E+02  0.16084260217E+02  0.51100000000E-03 0.  1.
         12    1    4    4    0    0  0.18176062807E+02  0.10536250845E+02 -0.60755658810E+01  0.21869941513E+02  0.00000000000E+00 0. -1.
</event>
<event>
 8    1  0.2390921E-006  0.9118800E+02  0.7816164E-02  0.1184000E+00
        -11   -1    0    0    0    0  0.00000000000E+00  0.00000000000E+00  0.45593999997E+02  0.45594000000E+02  0.51100000000E-03 0.  1.
         11   -1    0    0    0    0 -0.00000000000E+00 -0.00000000000E+00 -0.45593999997E+02  0.45594000000E+02  0.51100000000E-03 0. -1.
         23    2    1    2    0    0 -0.71054273576E-14 -0.71054273576E-14  0.00000000000E+00  0.91188000000E+02  0.91188000000E+02 0.  0.
    9900012    2    3    3    0    0 -0.24022529156E+02 -0.22559698929E+02  0.16424339768E+02  0.54367070358E+02  0.39999968496E+02 0.  0.
         12    1    3    3    0    0  0.24022529156E+02  0.22559698929E+02 -0.16424339768E+02  0.36820929642E+02  0.00000000000E+00 0. -1.
         11    1    4    4    0    0 -0.51088760303E+01  0.13569351157E+01 -0.43032763462E+01  0.68161627602E+01  0.51100000000E-03 0. -1.
        -11    1    4    4    0    0 -0.10854257414E+02  0.55825325009E+01  0.63669782405E+01  0.13766553138E+02  0.51100000000E-03 0.  1.
        -12    1    4    4    0    0 -0.80593957125E+01 -0.29499166546E+02  0.14360637874E+02  0.33784354460E+02  0.00000000000E+00 0.  1.
</event>
<event>
 8    1  0.2390921E-006  0.9118800E+02  0.7816164E-02  0.1184000E+00
        -11   -1    0    0    0    0  0.00000000000E+00  0.00000000000E+00  0.45593999997E+02  0.45594000000E+02  0.51100000000E-03 0. -1.
         11   -1    0    0    0    0 -0.00000000000E+00 -0.00000000000E+00 -0.45593999997E+02  0.45594000000E+02  0.51100000000E-03 0.  1.
         23    2    1    2    0    0 -0.17763568394E-14  0.35527136788E-14  0.35527136788E-14  0.91188000000E+02  0.91188000000E+02 0.  0.
    9900012    2    3    3    0    0 -0.11633580558E+02  0.25135464310E+02  0.24262076357E+02  0.54367080513E+02  0.39999991645E+02 0.  0.
        -12    1    3    3    0    0  0.11633580558E+02 -0.25135464310E+02 -0.24262076357E+02  0.36820919487E+02  0.00000000000E+00 0.  1.
         11    1    4    4    0    0  0.21876876689E+01 -0.25436128242E+01  0.12252373209E+02  0.12703408718E+02  0.51100000000E-03 0. -1.
        -11    1    4    4    0    0  0.47233553299E+01  0.12278993699E+02  0.11623419046E+02  0.17555273920E+02  0.51100000000E-03 0.  1.
        -12    1    4    4    0    0 -0.18544623557E+02  0.15400083435E+02  0.38628410284E+00  0.24108397875E+02  0.00000000000E+00 0.  1.
</event>
<event>
 8    1  0.2390921E-006  0.9118800E+02  0.7816164E-02  0.1184000E+00
        -11   -1    0    0    0    0  0.00000000000E+00  0.00000000000E+00  0.45593999997E+02  0.45594000000E+02  0.51100000000E-03 0. -1.
         11   -1    0    0    0    0 -0.00000000000E+00 -0.00000000000E+00 -0.45593999997E+02  0.45594000000E+02  0.51100000000E-03 0.  1.
         23    2    1    2    0    0  0.71054273576E-14  0.88817841970E-15 -0.55511151231E-15  0.91188000000E+02  0.91188000000E+02 0.  0.
    9900012    2    3    3    0    0  0.36549942090E+02  0.43601586941E+01 -0.93336528715E+00  0.54367076310E+02  0.39999982063E+02 0.  0.
         12    1    3    3    0    0 -0.36549942090E+02 -0.43601586941E+01  0.93336528715E+00  0.36820923690E+02  0.00000000000E+00 0. -1.
         11    1    4    4    0    0  0.21037610010E+01  0.86133097803E+01  0.11303195780E+02  0.14365832757E+02  0.51100000000E-03 0. -1.
        -11    1    4    4    0    0  0.18721689347E+02  0.33457963004E+01 -0.62404455790E+00  0.19028542687E+02  0.51100000000E-03 0.  1.
         12    1    4    4    0    0  0.15724491742E+02 -0.75989473866E+01 -0.11612516509E+02  0.20972700866E+02  0.00000000000E+00 0. -1.
</event>
<event>
 8    1  0.2390921E-006  0.9118800E+02  0.7816164E-02  0.1184000E+00
        -11   -1    0    0    0    0  0.00000000000E+00  0.00000000000E+00  0.45593999997E+02  0.45594000000E+02  0.51100000000E-03 0.  1.
         11   -1    0    0    0    0 -0.00000000000E+00 -0.00000000000E+00 -0.45593999997E+02  0.45594000000E+02  0.51100000000E-03 0. -1.
         23    2    1    2    0    0  0.00000000000E+00  0.17763568394E-14 -0.71054273576E-14  0.91188000000E+02  0.91188000000E+02 0.  0.
    9900012    2    3    3    0    0  0.11439671825E+02  0.11276843582E+02 -0.33132300401E+02  0.54367046421E+02  0.39999913925E+02 0.  0.
        -12    1    3    3    0    0 -0.11439671825E+02 -0.11276843582E+02  0.33132300401E+02  0.36820953579E+02  0.00000000000E+00 0.  1.
         11    1    4    4    0    0  0.19617075775E+02  0.49696974142E+01 -0.30025929742E+02  0.36208894094E+02  0.51100000000E-03 0. -1.
        -11    1    4    4    0    0 -0.17668228465E+01  0.93244013926E+01  0.16388139729E+01  0.96307754517E+01  0.51100000000E-03 0.  1.
        -12    1    4    4    0    0 -0.64105811038E+01 -0.30172552250E+01 -0.47451846319E+01  0.85273768753E+01  0.00000000000E+00 0.  1.
</event>
<event>
 8    1  0.2390921E-006  0.9118800E+02  0.7816164E-02  0.1184000E+00
        -11   -1    0    0    0    0  0.00000000000E+00  0.00000000000E+00  0.45593999997E+02  0.45594000000E+02  0.51100000000E-03 0. -1.
         11   -1    0    0    0    0 -0.00000000000E+00 -0.00000000000E+00 -0.45593999997E+02  0.45594000000E+02  0.51100000000E-03 0.  1.
         23    2    1    2    0    0  0.00000000000E+00  0.00000000000E+00  0.00000000000E+00  0.91188000000E+02  0.91188000000E+02 0.  0.
    9900012    2    3    3    0    0  0.15696791034E+02 -0.20034745929E+02 -0.26608266002E+02  0.54367080500E+02  0.39999991615E+02 0.  0.
         12    1    3    3    0    0 -0.15696791034E+02  0.20034745929E+02  0.26608266002E+02  0.36820919500E+02  0.00000000000E+00 0. -1.
         11    1    4    4    0    0 -0.24570854832E+01  0.93623857048E+00 -0.15640471955E+02  0.15859955074E+02  0.51100000000E-03 0. -1.
        -11    1    4    4    0    0  0.66556762644E+01 -0.19335470385E+02  0.26381937581E+01  0.20618402172E+02  0.51100000000E-03 0.  1.
        -12    1    4    4    0    0  0.11498200253E+02 -0.16355141144E+01 -0.13605987805E+02  0.17888723253E+02  0.00000000000E+00 0.  1.
</event>
<event>
 8    1  0.2390921E-006  0.9118800E+02  0.7816164E-02  0.1184000E+00
        -11   -1    0    0    0    0  0.00000000000E+00  0.00000000000E+00  0.45593999997E+02  0.45594000000E+02  0.51100000000E-03 0. -1.
         11   -1    0    0    0    0 -0.00000000000E+00 -0.00000000000E+00 -0.45593999997E+02  0.45594000000E+02  0.51100000000E-03 0.  1.
         23    2    1    2    0    0  0.00000000000E+00  0.00000000000E+00 -0.35527136788E-14  0.91188000000E+02  0.91188000000E+02 0.  0.
    9900012    2    3    3    0    0  0.11302319829E+02  0.27074850284E+02  0.22248355199E+02  0.54367092074E+02  0.40000018002E+02 0.  0.
        -12    1    3    3    0    0 -0.11302319829E+02 -0.27074850284E+02 -0.22248355199E+02  0.36820907926E+02  0.00000000000E+00 0.  1.
         11    1    4    4    0    0  0.29503111358E+01  0.38848010321E+01 -0.31517181395E+01  0.58076968197E+01  0.51100000000E-03 0. -1.
        -11    1    4    4    0    0  0.77913434752E+01 -0.52173611853E+01 -0.14244551026E+01  0.94844590509E+01  0.51100000000E-03 0.  1.
         12    1    4    4    0    0  0.56066521795E+00  0.28407410437E+02  0.26824528441E+02  0.39074936204E+02  0.00000000000E+00 0. -1.
</event>
<event>
 8    1  0.2390921E-006  0.9118800E+02  0.7816164E-02  0.1184000E+00
        -11   -1    0    0    0    0  0.00000000000E+00  0.00000000000E+00  0.45593999997E+02  0.45594000000E+02  0.51100000000E-03 0. -1.
         11   -1    0    0    0    0 -0.00000000000E+00 -0.00000000000E+00 -0.45593999997E+02  0.45594000000E+02  0.51100000000E-03 0.  1.
         23    2    1    2    0    0  0.55511151231E-15  0.35527136788E-14  0.00000000000E+00  0.91188000000E+02  0.91188000000E+02 0.  0.
    9900012    2    3    3    0    0  0.60388755506E+00  0.28870541563E+02  0.22845294443E+02  0.54367077571E+02  0.39999984939E+02 0.  0.
        -12    1    3    3    0    0 -0.60388755506E+00 -0.28870541563E+02 -0.22845294443E+02  0.36820922429E+02  0.00000000000E+00 0.  1.
         11    1    4    4    0    0 -0.10447307360E+02 -0.38780182522E+01  0.30182640395E+01  0.11545352949E+02  0.51100000000E-03 0. -1.
        -11    1    4    4    0    0  0.24599826221E+01  0.23836092994E+00 -0.16043731740E+01  0.29465817444E+01  0.51100000000E-03 0.  1.
        -12    1    4    4    0    0  0.85912122929E+01  0.32510198885E+02  0.21431403578E+02  0.39875142878E+02  0.00000000000E+00 0.  1.
</event>
<event>
 8    1  0.2390921E-006  0.9118800E+02  0.7816164E-02  0.1184000E+00
        -11   -1    0    0    0    0  0.00000000000E+00  0.00000000000E+00  0.45593999997E+02  0.45594000000E+02  0.51100000000E-03 0.  1.
         11   -1    0    0    0    0 -0.00000000000E+00 -0.00000000000E+00 -0.45593999997E+02  0.45594000000E+02  0.51100000000E-03 0. -1.
         23    2    1    2    0    0  0.00000000000E+00  0.00000000000E+00  0.00000000000E+00  0.91188000000E+02  0.91188000000E+02 0.  0.
    9900012    2    3    3    0    0 -0.61728409461E+01 -0.15982489029E+02 -0.32591958139E+02  0.54367086700E+02  0.40000005749E+02 0.  0.
        -12    1    3    3    0    0  0.61728409461E+01  0.15982489029E+02  0.32591958139E+02  0.36820913300E+02  0.00000000000E+00 0.  1.
         11    1    4    4    0    0 -0.91985838027E+01  0.61255211329E+01 -0.27163226370E+02  0.29325361383E+02  0.51100000000E-03 0. -1.
        -11    1    4    4    0    0  0.28334211544E+01 -0.14169218176E+02  0.14676054978E+01  0.14524079500E+02  0.51100000000E-03 0.  1.
         12    1    4    4    0    0  0.19232170217E+00 -0.79387919861E+01 -0.68963372669E+01  0.10517645817E+02  0.00000000000E+00 0. -1.
</event>
<event>
 8    1  0.2390921E-006  0.9118800E+02  0.7816164E-02  0.1184000E+00
        -11   -1    0    0    0    0  0.00000000000E+00  0.00000000000E+00  0.45593999997E+02  0.45594000000E+02  0.51100000000E-03 0.  1.
         11   -1    0    0    0    0 -0.00000000000E+00 -0.00000000000E+00 -0.45593999997E+02  0.45594000000E+02  0.51100000000E-03 0. -1.
         23    2    1    2    0    0  0.00000000000E+00  0.00000000000E+00  0.00000000000E+00  0.91188000000E+02  0.91188000000E+02 0.  0.
    9900012    2    3    3    0    0  0.18391404003E+02  0.90435893094E+01 -0.30590076942E+02  0.54367040533E+02  0.39999900502E+02 0.  0.
        -12    1    3    3    0    0 -0.18391404003E+02 -0.90435893094E+01  0.30590076942E+02  0.36820959467E+02  0.00000000000E+00 0.  1.
         11    1    4    4    0    0  0.87440760528E+01  0.83390917021E+01 -0.19787809179E+02  0.23185269220E+02  0.51100000000E-03 0. -1.
        -11    1    4    4    0    0  0.17271332345E+02  0.64045758229E+01 -0.11367525785E+02  0.21645742196E+02  0.51100000000E-03 0.  1.
        -12    1    4    4    0    0 -0.76240043955E+01 -0.57000782156E+01  0.56525802273E+00  0.95360291169E+01  0.00000000000E+00 0.  1.
</event>
<event>
 8    1  0.2390921E-006  0.9118800E+02  0.7816164E-02  0.1184000E+00
        -11   -1    0    0    0    0  0.00000000000E+00  0.00000000000E+00  0.45593999997E+02  0.45594000000E+02  0.51100000000E-03 0. -1.
         11   -1    0    0    0    0 -0.00000000000E+00 -0.00000000000E+00 -0.45593999997E+02  0.45594000000E+02  0.51100000000E-03 0.  1.
         23    2    1    2    0    0 -0.17763568394E-14  0.00000000000E+00  0.00000000000E+00  0.91188000000E+02  0.91188000000E+02 0.  0.
    9900012    2    3    3    0    0 -0.48280047201E+01  0.12689085650E+02  0.34226585799E+02  0.54367058952E+02  0.39999942493E+02 0.  0.
        -12    1    3    3    0    0  0.48280047201E+01 -0.12689085650E+02 -0.34226585799E+02  0.36820941048E+02  0.00000000000E+00 0.  1.
         11    1    4    4    0    0 -0.11908190792E+02  0.16814544968E+02  0.27786725342E+02  0.34592427436E+02  0.51100000000E-03 0. -1.
        -11    1    4    4    0    0  0.98403255262E+00 -0.10458736781E+01 -0.56822393610E+01  0.58608886896E+01  0.51100000000E-03 0.  1.
        -12    1    4    4    0    0  0.60961535188E+01 -0.30795856405E+01  0.12122099818E+02  0.13913742827E+02  0.00000000000E+00 0.  1.
</event>
<event>
 8    1  0.2390921E-006  0.9118800E+02  0.7816164E-02  0.1184000E+00
        -11   -1    0    0    0    0  0.00000000000E+00  0.00000000000E+00  0.45593999997E+02  0.45594000000E+02  0.51100000000E-03 0. -1.
         11   -1    0    0    0    0 -0.00000000000E+00 -0.00000000000E+00 -0.45593999997E+02  0.45594000000E+02  0.51100000000E-03 0.  1.
         23    2    1    2    0    0 -0.35527136788E-14  0.00000000000E+00  0.17763568394E-14  0.91188000000E+02  0.91188000000E+02 0.  0.
    9900012    2    3    3    0    0  0.13455937025E+01  0.35802487039E+02 -0.84940932345E+01  0.54367104839E+02  0.40000047102E+02 0.  0.
        -12    1    3    3    0    0 -0.13455937025E+01 -0.35802487039E+02  0.84940932345E+01  0.36820895161E+02  0.00000000000E+00 0.  1.
         11    1    4    4    0    0  0.52693569693E+01  0.84817704997E+01  0.94207705771E+01  0.13727981360E+02  0.51100000000E-03 0. -1.
        -11    1    4    4    0    0 -0.12257014262E+02  0.24583217149E+02 -0.15502877480E+02  0.31542165025E+02  0.51100000000E-03 0.  1.
        -12    1    4    4    0    0  0.83332509956E+01  0.27374993894E+01 -0.24119863313E+01  0.90969584546E+01  0.00000000000E+00 0.  1.
</event>
<event>
 8    1  0.2390921E-006  0.9118800E+02  0.7816164E-02  0.1184000E+00
        -11   -1    0    0    0    0  0.00000000000E+00  0.00000000000E+00  0.45593999997E+02  0.45594000000E+02  0.51100000000E-03 0.  1.
         11   -1    0    0    0    0 -0.00000000000E+00 -0.00000000000E+00 -0.45593999997E+02  0.45594000000E+02  0.51100000000E-03 0. -1.
         23    2    1    2    0    0  0.00000000000E+00  0.00000000000E+00  0.00000000000E+00  0.91188000000E+02  0.91188000000E+02 0.  0.
    9900012    2    3    3    0    0  0.29137016727E+02  0.85049935021E+01 -0.20844237227E+02  0.54367042872E+02  0.39999905836E+02 0.  0.
         12    1    3    3    0    0 -0.29137016727E+02 -0.85049935021E+01  0.20844237227E+02  0.36820957128E+02  0.00000000000E+00 0. -1.
         11    1    4    4    0    0  0.22222096417E+02 -0.31814627141E+01 -0.13534391952E+02  0.26213031872E+02  0.51100000000E-03 0. -1.
        -11    1    4    4    0    0  0.13041422445E+02  0.11534305978E+02  0.14418817033E+01  0.17469915194E+02  0.51100000000E-03 0.  1.
         12    1    4    4    0    0 -0.61265021345E+01  0.15215023807E+00 -0.87517269785E+01  0.10684095807E+02  0.00000000000E+00 0. -1.
</event>
<event>
 8    1  0.2390921E-006  0.9118800E+02  0.7816164E-02  0.1184000E+00
        -11   -1    0    0    0    0  0.00000000000E+00  0.00000000000E+00  0.45593999997E+02  0.45594000000E+02  0.51100000000E-03 0. -1.
         11   -1    0    0    0    0 -0.00000000000E+00 -0.00000000000E+00 -0.45593999997E+02  0.45594000000E+02  0.51100000000E-03 0.  1.
         23    2    1    2    0    0  0.88817841970E-15  0.00000000000E+00  0.88817841970E-15  0.91188000000E+02  0.91188000000E+02 0.  0.
    9900012    2    3    3    0    0  0.79929163165E+01 -0.35155495558E+02  0.74823710339E+01  0.54367062268E+02  0.39999950052E+02 0.  0.
        -12    1    3    3    0    0 -0.79929163165E+01  0.35155495558E+02 -0.74823710339E+01  0.36820937732E+02  0.00000000000E+00 0.  1.
         11    1    4    4    0    0 -0.11312766016E+02 -0.19093766937E+01  0.12994579234E+01  0.11546124261E+02  0.51100000000E-03 0. -1.
        -11    1    4    4    0    0 -0.30666357666E+01 -0.79829385914E+01  0.22814793512E+01  0.88508028885E+01  0.51100000000E-03 0.  1.
        -12    1    4    4    0    0  0.22372318099E+02 -0.25263180273E+02  0.39014337593E+01  0.33970135119E+02  0.00000000000E+00 0.  1.
</event>
<event>
 8    1  0.2390921E-006  0.9118800E+02  0.7816164E-02  0.1184000E+00
        -11   -1    0    0    0    0  0.00000000000E+00  0.00000000000E+00  0.45593999997E+02  0.45594000000E+02  0.51100000000E-03 0. -1.
         11   -1    0    0    0    0 -0.00000000000E+00 -0.00000000000E+00 -0.45593999997E+02  0.45594000000E+02  0.51100000000E-03 0.  1.
         23    2    1    2    0    0 -0.44408920985E-15  0.00000000000E+00 -0.71054273576E-14  0.91188000000E+02  0.91188000000E+02 0.  0.
    9900012    2    3    3    0    0 -0.19587683511E+01  0.66104201839E+01 -0.36169780750E+02  0.54366980623E+02  0.39999763926E+02 0.  0.
         12    1    3    3    0    0  0.19587683511E+01 -0.66104201839E+01  0.36169780750E+02  0.36821019377E+02  0.00000000000E+00 0. -1.
         11    1    4    4    0    0  0.53549156152E+01  0.41427050276E+01  0.19167288977E+01  0.70364036353E+01  0.51100000000E-03 0. -1.
        -11    1    4    4    0    0 -0.65111011132E+01  0.48542610046E+00 -0.42195873825E+02  0.42698030919E+02  0.51100000000E-03 0.  1.
        -12    1    4    4    0    0 -0.80258285301E+00  0.19822890558E+01  0.41093641777E+01  0.46325460690E+01  0.00000000000E+00 0.  1.
</event>
<event>
 8    1  0.2390921E-006  0.9118800E+02  0.7816164E-02  0.1184000E+00
        -11   -1    0    0    0    0  0.00000000000E+00  0.00000000000E+00  0.45593999997E+02  0.45594000000E+02  0.51100000000E-03 0.  1.
         11   -1    0    0    0    0 -0.00000000000E+00 -0.00000000000E+00 -0.45593999997E+02  0.45594000000E+02  0.51100000000E-03 0. -1.
         23    2    1    2    0    0  0.17763568394E-14  0.00000000000E+00  0.00000000000E+00  0.91188000000E+02  0.91188000000E+02 0.  0.
    9900012    2    3    3    0    0 -0.32828758269E+01  0.32750658465E+02 -0.16504480560E+02  0.54367071412E+02  0.39999970897E+02 0.  0.
        -12    1    3    3    0    0  0.32828758269E+01 -0.32750658465E+02  0.16504480560E+02  0.36820928588E+02  0.00000000000E+00 0.  1.
         11    1    4    4    0    0 -0.15016956385E+01  0.24337006317E+01 -0.10396034600E+02  0.10782185503E+02  0.51100000000E-03 0. -1.
        -11    1    4    4    0    0  0.11040692489E+02  0.23162769106E+01  0.26076277037E+01  0.11578503870E+02  0.51100000000E-03 0.  1.
        -12    1    4    4    0    0 -0.12821872678E+02  0.28000680923E+02 -0.87160736634E+01  0.32006382038E+02  0.00000000000E+00 0.  1.
</event>
<event>
 8    1  0.2390921E-006  0.9118800E+02  0.7816164E-02  0.1184000E+00
        -11   -1    0    0    0    0  0.00000000000E+00  0.00000000000E+00  0.45593999997E+02  0.45594000000E+02  0.51100000000E-03 0.  1.
         11   -1    0    0    0    0 -0.00000000000E+00 -0.00000000000E+00 -0.45593999997E+02  0.45594000000E+02  0.51100000000E-03 0. -1.
         23    2    1    2    0    0  0.00000000000E+00 -0.17763568394E-14 -0.33306690739E-15  0.91188000000E+02  0.91188000000E+02 0.  0.
    9900012    2    3    3    0    0  0.35339680932E+02  0.10326571777E+02  0.49904153211E+00  0.54367079649E+02  0.39999989676E+02 0.  0.
         12    1    3    3    0    0 -0.35339680932E+02 -0.10326571777E+02 -0.49904153211E+00  0.36820920351E+02  0.00000000000E+00 0. -1.
         11    1    4    4    0    0  0.38328626839E+01 -0.10645351107E+02  0.49116116552E+01  0.12334434152E+02  0.51100000000E-03 0. -1.
        -11    1    4    4    0    0  0.15578838006E+02  0.51100048512E+01  0.57347882546E+01  0.17369517546E+02  0.51100000000E-03 0.  1.
         12    1    4    4    0    0  0.15927980242E+02  0.15861918033E+02 -0.10147358378E+02  0.24663127951E+02  0.00000000000E+00 0. -1.
</event>
<event>
 8    1  0.2390921E-006  0.9118800E+02  0.7816164E-02  0.1184000E+00
        -11   -1    0    0    0    0  0.00000000000E+00  0.00000000000E+00  0.45593999997E+02  0.45594000000E+02  0.51100000000E-03 0.  1.
         11   -1    0    0    0    0 -0.00000000000E+00 -0.00000000000E+00 -0.45593999997E+02  0.45594000000E+02  0.51100000000E-03 0. -1.
         23    2    1    2    0    0  0.35527136788E-14  0.00000000000E+00 -0.17763568394E-14  0.91188000000E+02  0.91188000000E+02 0.  0.
    9900012    2    3    3    0    0 -0.29427554399E+02  0.17963100417E+02 -0.12927788103E+02  0.54367059766E+02  0.39999944347E+02 0.  0.
         12    1    3    3    0    0  0.29427554399E+02 -0.17963100417E+02  0.12927788103E+02  0.36820940234E+02  0.00000000000E+00 0. -1.
         11    1    4    4    0    0 -0.16238610691E+02  0.38239963259E+01 -0.17803204881E+02  0.24398146023E+02  0.51100000000E-03 0. -1.
        -11    1    4    4    0    0 -0.11873459107E+02  0.20135409106E+02  0.31118769605E+01  0.23581719816E+02  0.51100000000E-03 0.  1.
         12    1    4    4    0    0 -0.13154846006E+01 -0.59963050142E+01  0.17635398176E+01  0.63871939258E+01  0.00000000000E+00 0. -1.
</event>
<event>
 8    1  0.2390921E-006  0.9118800E+02  0.7816164E-02  0.1184000E+00
        -11   -1    0    0    0    0  0.00000000000E+00  0.00000000000E+00  0.45593999997E+02  0.45594000000E+02  0.51100000000E-03 0. -1.
         11   -1    0    0    0    0 -0.00000000000E+00 -0.00000000000E+00 -0.45593999997E+02  0.45594000000E+02  0.51100000000E-03 0.  1.
         23    2    1    2    0    0  0.00000000000E+00  0.00000000000E+00  0.00000000000E+00  0.91188000000E+02  0.91188000000E+02 0.  0.
    9900012    2    3    3    0    0  0.10048387555E+02 -0.26127277435E+02  0.23920179698E+02  0.54367085897E+02  0.40000003920E+02 0.  0.
        -12    1    3    3    0    0 -0.10048387555E+02  0.26127277435E+02 -0.23920179698E+02  0.36820914103E+02  0.00000000000E+00 0.  1.
         11    1    4    4    0    0  0.10711399391E+02 -0.25736758089E+02  0.27816540567E+02  0.39381146799E+02  0.51100000000E-03 0. -1.
        -11    1    4    4    0    0 -0.36802387145E+01 -0.29417521909E+01 -0.80031321975E+01  0.92869902649E+01  0.51100000000E-03 0.  1.
        -12    1    4    4    0    0  0.30172268777E+01  0.25512328449E+01  0.41067713286E+01  0.56989488334E+01  0.00000000000E+00 0.  1.
</event>
<event>
 8    1  0.2390921E-006  0.9118800E+02  0.7816164E-02  0.1184000E+00
        -11   -1    0    0    0    0  0.00000000000E+00  0.00000000000E+00  0.45593999997E+02  0.45594000000E+02  0.51100000000E-03 0. -1.
         11   -1    0    0    0    0 -0.00000000000E+00 -0.00000000000E+00 -0.45593999997E+02  0.45594000000E+02  0.51100000000E-03 0.  1.
         23    2    1    2    0    0  0.00000000000E+00 -0.35527136788E-14  0.17763568394E-14  0.91188000000E+02  0.91188000000E+02 0.  0.
    9900012    2    3    3    0    0  0.17796044819E+02 -0.29939336963E+02  0.11946408986E+02  0.54367084793E+02  0.40000001402E+02 0.  0.
        -12    1    3    3    0    0 -0.17796044819E+02  0.29939336963E+02 -0.11946408986E+02  0.36820915207E+02  0.00000000000E+00 0.  1.
         11    1    4    4    0    0  0.21552722041E+01 -0.38631719727E+01  0.59560005453E+01  0.74191130684E+01  0.51100000000E-03 0. -1.
        -11    1    4    4    0    0 -0.63770868413E+00 -0.26985291600E+02 -0.47731613232E+01  0.27411597990E+02  0.51100000000E-03 0.  1.
        -12    1    4    4    0    0  0.16278481299E+02  0.90912660947E+00  0.10763569764E+02  0.19536373734E+02  0.00000000000E+00 0.  1.
</event>
<event>
 8    1  0.2390921E-006  0.9118800E+02  0.7816164E-02  0.1184000E+00
        -11   -1    0    0    0    0  0.00000000000E+00  0.00000000000E+00  0.45593999997E+02  0.45594000000E+02  0.51100000000E-03 0. -1.
         11   -1    0    0    0    0 -0.00000000000E+00 -0.00000000000E+00 -0.45593999997E+02  0.45594000000E+02  0.51100000000E-03 0.  1.
         23    2    1    2    0    0  0.00000000000E+00  0.00000000000E+00  0.22204460493E-14  0.91188000000E+02  0.91188000000E+02 0.  0.
    9900012    2    3    3    0    0 -0.34498411520E+02  0.12282254322E+02  0.38452301410E+01  0.54367082529E+02  0.39999996240E+02 0.  0.
        -12    1    3    3    0    0  0.34498411520E+02 -0.12282254322E+02 -0.38452301410E+01  0.36820917471E+02  0.00000000000E+00 0.  1.
         11    1    4    4    0    0 -0.96105372238E+01  0.10457050280E+02  0.16788618252E+02  0.21990225769E+02  0.51100000000E-03 0. -1.
        -11    1    4    4    0    0 -0.45321137142E+01  0.63867390911E+01 -0.74411114634E+01  0.10802806626E+02  0.51100000000E-03 0.  1.
         12    1    4    4    0    0 -0.20355760581E+02 -0.45615350495E+01 -0.55022766473E+01  0.21574050133E+02  0.00000000000E+00 0. -1.
</event>
<event>
 8    1  0.2390921E-006  0.9118800E+02  0.7816164E-02  0.1184000E+00
        -11   -1    0    0    0    0  0.00000000000E+00  0.00000000000E+00  0.45593999997E+02  0.45594000000E+02  0.51100000000E-03 0.  1.
         11   -1    0    0    0    0 -0.00000000000E+00 -0.00000000000E+00 -0.45593999997E+02  0.45594000000E+02  0.51100000000E-03 0. -1.
         23    2    1    2    0    0 -0.35527136788E-14  0.00000000000E+00  0.00000000000E+00  0.91188000000E+02  0.91188000000E+02 0.  0.
    9900012    2    3    3    0    0  0.13251049503E+02  0.33559240085E+02  0.73462323754E+01  0.54367081515E+02  0.39999993929E+02 0.  0.
         12    1    3    3    0    0 -0.13251049503E+02 -0.33559240085E+02 -0.73462323754E+01  0.36820918485E+02  0.00000000000E+00 0. -1.
         11    1    4    4    0    0 -0.73968984266E+01  0.20498837667E+01  0.55197566549E+01  0.94543029136E+01  0.51100000000E-03 0.  1.
        -11    1    4    4    0    0  0.24859872051E+02  0.19215010922E+02 -0.16387082530E+01  0.31462918621E+02  0.51100000000E-03 0. -1.
         12    1    4    4    0    0 -0.42119241214E+01  0.12294345396E+02  0.34651839735E+01  0.13449859980E+02  0.00000000000E+00 0. -1.
</event>
<event>
 8    1  0.2390921E-006  0.9118800E+02  0.7816164E-02  0.1184000E+00
        -11   -1    0    0    0    0  0.00000000000E+00  0.00000000000E+00  0.45593999997E+02  0.45594000000E+02  0.51100000000E-03 0. -1.
         11   -1    0    0    0    0 -0.00000000000E+00 -0.00000000000E+00 -0.45593999997E+02  0.45594000000E+02  0.51100000000E-03 0.  1.
         23    2    1    2    0    0  0.17763568394E-14  0.00000000000E+00  0.71054273576E-14  0.91188000000E+02  0.91188000000E+02 0.  0.
    9900012    2    3    3    0    0  0.89346077752E+01 -0.85297542357E+01  0.34687152295E+02  0.54367048658E+02  0.39999919025E+02 0.  0.
        -12    1    3    3    0    0 -0.89346077752E+01  0.85297542357E+01 -0.34687152295E+02  0.36820951342E+02  0.00000000000E+00 0.  1.
         11    1    4    4    0    0  0.25725316140E+01 -0.10254577636E+02  0.10859651648E+02  0.15156065307E+02  0.51100000000E-03 0. -1.
        -11    1    4    4    0    0  0.65172942054E+01 -0.20004198139E+01 -0.60421213858E+01  0.91095573050E+01  0.51100000000E-03 0.  1.
         12    1    4    4    0    0 -0.15521804425E+00  0.37252432140E+01  0.29869622032E+02  0.30101426046E+02  0.00000000000E+00 0. -1.
</event>
<event>
 8    1  0.2390921E-006  0.9118800E+02  0.7816164E-02  0.1184000E+00
        -11   -1    0    0    0    0  0.00000000000E+00  0.00000000000E+00  0.45593999997E+02  0.45594000000E+02  0.51100000000E-03 0. -1.
         11   -1    0    0    0    0 -0.00000000000E+00 -0.00000000000E+00 -0.45593999997E+02  0.45594000000E+02  0.51100000000E-03 0.  1.
         23    2    1    2    0    0 -0.88817841970E-15  0.35527136788E-14 -0.71054273576E-14  0.91188000000E+02  0.91188000000E+02 0.  0.
    9900012    2    3    3    0    0  0.56989060727E+01 -0.21366501261E+02  0.29441039708E+02  0.54367085758E+02  0.40000003602E+02 0.  0.
        -12    1    3    3    0    0 -0.56989060727E+01  0.21366501261E+02 -0.29441039708E+02  0.36820914242E+02  0.00000000000E+00 0.  1.
         11    1    4    4    0    0  0.25233194290E-01  0.54840534429E+00 -0.15837671125E+01  0.16762170693E+01  0.51100000000E-03 0. -1.
        -11    1    4    4    0    0 -0.14077634461E+02 -0.46571336078E+01  0.47622705517E+01  0.15573949612E+02  0.51100000000E-03 0.  1.
         12    1    4    4    0    0  0.19751307339E+02 -0.17257772997E+02  0.26262536268E+02  0.37116919076E+02  0.00000000000E+00 0. -1.
</event>
<event>
 8    1  0.2390921E-006  0.9118800E+02  0.7816164E-02  0.1184000E+00
        -11   -1    0    0    0    0  0.00000000000E+00  0.00000000000E+00  0.45593999997E+02  0.45594000000E+02  0.51100000000E-03 0.  1.
         11   -1    0    0    0    0 -0.00000000000E+00 -0.00000000000E+00 -0.45593999997E+02  0.45594000000E+02  0.51100000000E-03 0. -1.
         23    2    1    2    0    0 -0.17763568394E-14 -0.17763568394E-14  0.00000000000E+00  0.91188000000E+02  0.91188000000E+02 0.  0.
    9900012    2    3    3    0    0 -0.14328148049E+02  0.11125016410E+02  0.32042457339E+02  0.54367069960E+02  0.39999967589E+02 0.  0.
         12    1    3    3    0    0  0.14328148049E+02 -0.11125016410E+02 -0.32042457339E+02  0.36820930040E+02  0.00000000000E+00 0. -1.
         11    1    4    4    0    0 -0.22652353894E+01 -0.61927527390E+01  0.78277908776E+01  0.10235027510E+02  0.51100000000E-03 0.  1.
        -11    1    4    4    0    0 -0.58374782009E+01  0.18226754752E+02  0.29999996842E+02  0.35584976483E+02  0.51100000000E-03 0. -1.
         12    1    4    4    0    0 -0.62254344591E+01 -0.90898560306E+00 -0.57853303804E+01  0.85470659668E+01  0.00000000000E+00 0. -1.
</event>
<event>
 8    1  0.2390921E-006  0.9118800E+02  0.7816164E-02  0.1184000E+00
        -11   -1    0    0    0    0  0.00000000000E+00  0.00000000000E+00  0.45593999997E+02  0.45594000000E+02  0.51100000000E-03 0.  1.
         11   -1    0    0    0    0 -0.00000000000E+00 -0.00000000000E+00 -0.45593999997E+02  0.45594000000E+02  0.51100000000E-03 0. -1.
         23    2    1    2    0    0  0.00000000000E+00  0.00000000000E+00  0.00000000000E+00  0.91188000000E+02  0.91188000000E+02 0.  0.
    9900012    2    3    3    0    0  0.16563211579E+02  0.27739116163E+02 -0.17663025371E+02  0.54367068337E+02  0.39999963887E+02 0.  0.
        -12    1    3    3    0    0 -0.16563211579E+02 -0.27739116163E+02  0.17663025371E+02  0.36820931663E+02  0.00000000000E+00 0.  1.
         11    1    4    4    0    0  0.13523648030E+01  0.21160893624E+02 -0.13653145810E+01  0.21247973873E+02  0.51100000000E-03 0. -1.
        -11    1    4    4    0    0  0.15915766767E+02  0.13706420978E+02 -0.15071239776E+02  0.25851883422E+02  0.51100000000E-03 0.  1.
        -12    1    4    4    0    0 -0.70491999116E+00 -0.71281984394E+01 -0.12264710140E+01  0.72672110424E+01  0.00000000000E+00 0.  1.
</event>
<event>
 8    1  0.2390921E-006  0.9118800E+02  0.7816164E-02  0.1184000E+00
        -11   -1    0    0    0    0  0.00000000000E+00  0.00000000000E+00  0.45593999997E+02  0.45594000000E+02  0.51100000000E-03 0. -1.
         11   -1    0    0    0    0 -0.00000000000E+00 -0.00000000000E+00 -0.45593999997E+02  0.45594000000E+02  0.51100000000E-03 0.  1.
         23    2    1    2    0    0 -0.44408920985E-15  0.35527136788E-14  0.00000000000E+00  0.91188000000E+02  0.91188000000E+02 0.  0.
    9900012    2    3    3    0    0 -0.20607892661E+01  0.10499651824E+02  0.35231903884E+02  0.54367128309E+02  0.40000100605E+02 0.  0.
        -12    1    3    3    0    0  0.20607892661E+01 -0.10499651824E+02 -0.35231903884E+02  0.36820871691E+02  0.00000000000E+00 0.  1.
         11    1    4    4    0    0 -0.11317990424E+02 -0.15611706101E+01  0.10640406894E+02  0.15612572499E+02  0.51100000000E-03 0. -1.
        -11    1    4    4    0    0 -0.52255961538E+01  0.13347840558E+02  0.70611082900E+01  0.15979078611E+02  0.51100000000E-03 0.  1.
         12    1    4    4    0    0  0.14482797312E+02 -0.12870181239E+01  0.17530388700E+02  0.22775477198E+02  0.00000000000E+00 0. -1.
</event>
<event>
 8    1  0.2390921E-006  0.9118800E+02  0.7816164E-02  0.1184000E+00
        -11   -1    0    0    0    0  0.00000000000E+00  0.00000000000E+00  0.45593999997E+02  0.45594000000E+02  0.51100000000E-03 0. -1.
         11   -1    0    0    0    0 -0.00000000000E+00 -0.00000000000E+00 -0.45593999997E+02  0.45594000000E+02  0.51100000000E-03 0.  1.
         23    2    1    2    0    0  0.00000000000E+00  0.00000000000E+00  0.35527136788E-14  0.91188000000E+02  0.91188000000E+02 0.  0.
    9900012    2    3    3    0    0  0.30945886356E+02 -0.81972039486E+01  0.18191688951E+02  0.54367087711E+02  0.40000008055E+02 0.  0.
        -12    1    3    3    0    0 -0.30945886356E+02  0.81972039486E+01 -0.18191688951E+02  0.36820912289E+02  0.00000000000E+00 0.  1.
         11    1    4    4    0    0  0.33884437440E+02 -0.11737617191E+02  0.17505837020E+02  0.39904649954E+02  0.51100000000E-03 0. -1.
        -11    1    4    4    0    0 -0.34835379705E+00  0.53960347809E+01 -0.53692297338E+01  0.76201817511E+01  0.51100000000E-03 0.  1.
        -12    1    4    4    0    0 -0.25901972875E+01 -0.18556215387E+01  0.60550816644E+01  0.68422560055E+01  0.00000000000E+00 0.  1.
</event>
<event>
 8    1  0.2390921E-006  0.9118800E+02  0.7816164E-02  0.1184000E+00
        -11   -1    0    0    0    0  0.00000000000E+00  0.00000000000E+00  0.45593999997E+02  0.45594000000E+02  0.51100000000E-03 0.  1.
         11   -1    0    0    0    0 -0.00000000000E+00 -0.00000000000E+00 -0.45593999997E+02  0.45594000000E+02  0.51100000000E-03 0. -1.
         23    2    1    2    0    0  0.00000000000E+00  0.44408920985E-15 -0.35527136788E-14  0.91188000000E+02  0.91188000000E+02 0.  0.
    9900012    2    3    3    0    0 -0.23630585931E+02 -0.34592926953E+01  0.28025161563E+02  0.54367068752E+02  0.39999964833E+02 0.  0.
         12    1    3    3    0    0  0.23630585931E+02  0.34592926953E+01 -0.28025161563E+02  0.36820931248E+02  0.00000000000E+00 0. -1.
         11    1    4    4    0    0  0.36055442759E+00  0.32637114211E+00 -0.69340477278E+00  0.84695221689E+00  0.51100000000E-03 0. -1.
        -11    1    4    4    0    0 -0.30907881796E+02 -0.46473398478E+01  0.32909934146E+02  0.45386767791E+02  0.51100000000E-03 0.  1.
        -12    1    4    4    0    0  0.69167414379E+01  0.86167601033E+00 -0.41913678104E+01  0.81333487438E+01  0.00000000000E+00 0.  1.
</event>
<event>
 8    1  0.2390921E-006  0.9118800E+02  0.7816164E-02  0.1184000E+00
        -11   -1    0    0    0    0  0.00000000000E+00  0.00000000000E+00  0.45593999997E+02  0.45594000000E+02  0.51100000000E-03 0.  1.
         11   -1    0    0    0    0 -0.00000000000E+00 -0.00000000000E+00 -0.45593999997E+02  0.45594000000E+02  0.51100000000E-03 0. -1.
         23    2    1    2    0    0  0.35527136788E-14  0.00000000000E+00  0.00000000000E+00  0.91188000000E+02  0.91188000000E+02 0.  0.
    9900012    2    3    3    0    0 -0.26611450639E+02  0.19680993022E+02 -0.16132802134E+02  0.54367107885E+02  0.40000054046E+02 0.  0.
        -12    1    3    3    0    0  0.26611450639E+02 -0.19680993022E+02  0.16132802134E+02  0.36820892115E+02  0.00000000000E+00 0.  1.
         11    1    4    4    0    0 -0.22527373787E+02 -0.67243843939E+00 -0.50508955055E+00  0.22543066759E+02  0.51100000000E-03 0. -1.
        -11    1    4    4    0    0 -0.20779408251E+01  0.63226497994E+01  0.38855110001E+01  0.77065514046E+01  0.51100000000E-03 0.  1.
        -12    1    4    4    0    0 -0.20061360262E+01  0.14030781662E+02 -0.19513223584E+02  0.24117489721E+02  0.00000000000E+00 0.  1.
</event>
<event>
 8    1  0.2390921E-006  0.9118800E+02  0.7816164E-02  0.1184000E+00
        -11   -1    0    0    0    0  0.00000000000E+00  0.00000000000E+00  0.45593999997E+02  0.45594000000E+02  0.51100000000E-03 0. -1.
         11   -1    0    0    0    0 -0.00000000000E+00 -0.00000000000E+00 -0.45593999997E+02  0.45594000000E+02  0.51100000000E-03 0.  1.
         23    2    1    2    0    0 -0.35527136788E-14 -0.10658141036E-13 -0.35527136788E-14  0.91188000000E+02  0.91188000000E+02 0.  0.
    9900012    2    3    3    0    0  0.21057921968E+02  0.28553986662E+02  0.98495483033E+01  0.54367084291E+02  0.40000000257E+02 0.  0.
         12    1    3    3    0    0 -0.21057921968E+02 -0.28553986662E+02 -0.98495483033E+01  0.36820915709E+02  0.00000000000E+00 0. -1.
         11    1    4    4    0    0  0.42897832759E+01 -0.30977901744E+01 -0.29506954296E+00  0.52995859098E+01  0.51100000000E-03 0. -1.
        -11    1    4    4    0    0  0.42354309706E+01  0.10492452736E+01 -0.96049177051E+01  0.10549608312E+02  0.51100000000E-03 0.  1.
         12    1    4    4    0    0  0.12532707722E+02  0.30602531563E+02  0.19749535551E+02  0.38517890069E+02  0.00000000000E+00 0. -1.
</event>
<event>
 8    1  0.2390921E-006  0.9118800E+02  0.7816164E-02  0.1184000E+00
        -11   -1    0    0    0    0  0.00000000000E+00  0.00000000000E+00  0.45593999997E+02  0.45594000000E+02  0.51100000000E-03 0.  1.
         11   -1    0    0    0    0 -0.00000000000E+00 -0.00000000000E+00 -0.45593999997E+02  0.45594000000E+02  0.51100000000E-03 0. -1.
         23    2    1    2    0    0 -0.35527136788E-14  0.17763568394E-14  0.00000000000E+00  0.91188000000E+02  0.91188000000E+02 0.  0.
    9900012    2    3    3    0    0 -0.28604535654E+02  0.15449166757E+02  0.17288231524E+02  0.54367093402E+02  0.40000021029E+02 0.  0.
         12    1    3    3    0    0  0.28604535654E+02 -0.15449166757E+02 -0.17288231524E+02  0.36820906598E+02  0.00000000000E+00 0. -1.
         11    1    4    4    0    0  0.49685575722E+01 -0.30700246301E+01  0.85321491108E+01  0.10339689758E+02  0.51100000000E-03 0. -1.
        -11    1    4    4    0    0 -0.25735465380E+02  0.34355083946E+01  0.32878728378E+01  0.26171110108E+02  0.51100000000E-03 0.  1.
         12    1    4    4    0    0 -0.78376278462E+01  0.15083682993E+02  0.54682095754E+01  0.17856293536E+02  0.00000000000E+00 0. -1.
</event>
<event>
 8    1  0.2390921E-006  0.9118800E+02  0.7816164E-02  0.1184000E+00
        -11   -1    0    0    0    0  0.00000000000E+00  0.00000000000E+00  0.45593999997E+02  0.45594000000E+02  0.51100000000E-03 0.  1.
         11   -1    0    0    0    0 -0.00000000000E+00 -0.00000000000E+00 -0.45593999997E+02  0.45594000000E+02  0.51100000000E-03 0. -1.
         23    2    1    2    0    0  0.00000000000E+00  0.00000000000E+00  0.00000000000E+00  0.91188000000E+02  0.91188000000E+02 0.  0.
    9900012    2    3    3    0    0  0.17610754927E+02  0.11046486964E+02  0.30390895258E+02  0.54367216766E+02  0.40000302261E+02 0.  0.
         12    1    3    3    0    0 -0.17610754927E+02 -0.11046486964E+02 -0.30390895258E+02  0.36820783234E+02  0.00000000000E+00 0. -1.
         11    1    4    4    0    0  0.46973503083E+01  0.10080057508E+02  0.21912125512E+02  0.24572625094E+02  0.51100000000E-03 0. -1.
        -11    1    4    4    0    0  0.14893401766E+02  0.79896672451E+01  0.12900905477E+02  0.21262209698E+02  0.51100000000E-03 0.  1.
         12    1    4    4    0    0 -0.19799971467E+01 -0.70232377891E+01 -0.44221357310E+01  0.85323819749E+01  0.00000000000E+00 0. -1.
</event>
<event>
 8    1  0.2390921E-006  0.9118800E+02  0.7816164E-02  0.1184000E+00
        -11   -1    0    0    0    0  0.00000000000E+00  0.00000000000E+00  0.45593999997E+02  0.45594000000E+02  0.51100000000E-03 0.  1.
         11   -1    0    0    0    0 -0.00000000000E+00 -0.00000000000E+00 -0.45593999997E+02  0.45594000000E+02  0.51100000000E-03 0. -1.
         23    2    1    2    0    0  0.16653345369E-15  0.00000000000E+00  0.00000000000E+00  0.91188000000E+02  0.91188000000E+02 0.  0.
    9900012    2    3    3    0    0 -0.25893627607E+00 -0.34688727768E+02 -0.12345344192E+02  0.54367049369E+02  0.39999920646E+02 0.  0.
        -12    1    3    3    0    0  0.25893627607E+00  0.34688727768E+02  0.12345344192E+02  0.36820950631E+02  0.00000000000E+00 0.  1.
         11    1    4    4    0    0  0.26409687480E+01 -0.33612012346E+02 -0.23003428079E+02  0.40815435726E+02  0.51100000000E-03 0. -1.
        -11    1    4    4    0    0  0.44941778081E+00 -0.37765146502E+01  0.33343718641E+01  0.50578725996E+01  0.51100000000E-03 0.  1.
         12    1    4    4    0    0 -0.33493228049E+01  0.26997992279E+01  0.73237120227E+01  0.84937410435E+01  0.00000000000E+00 0. -1.
</event>
<event>
 8    1  0.2390921E-006  0.9118800E+02  0.7816164E-02  0.1184000E+00
        -11   -1    0    0    0    0  0.00000000000E+00  0.00000000000E+00  0.45593999997E+02  0.45594000000E+02  0.51100000000E-03 0.  1.
         11   -1    0    0    0    0 -0.00000000000E+00 -0.00000000000E+00 -0.45593999997E+02  0.45594000000E+02  0.51100000000E-03 0. -1.
         23    2    1    2    0    0  0.00000000000E+00  0.00000000000E+00  0.00000000000E+00  0.91188000000E+02  0.91188000000E+02 0.  0.
    9900012    2    3    3    0    0 -0.22739787905E+02 -0.25559130224E+02  0.13617175934E+02  0.54366884154E+02  0.39999544002E+02 0.  0.
         12    1    3    3    0    0  0.22739787905E+02  0.25559130224E+02 -0.13617175934E+02  0.36821115846E+02  0.00000000000E+00 0. -1.
         11    1    4    4    0    0 -0.19653445706E+02 -0.19974851918E+02  0.13052928788E+02  0.30913291438E+02  0.51100000000E-03 0. -1.
        -11    1    4    4    0    0 -0.41069041745E+01 -0.94009196825E+01  0.93121344379E+01  0.13854955822E+02  0.51100000000E-03 0.  1.
         12    1    4    4    0    0  0.10205619758E+01  0.38166413770E+01 -0.87478872923E+01  0.95986368942E+01  0.00000000000E+00 0. -1.
</event>
<event>
 8    1  0.2390921E-006  0.9118800E+02  0.7816164E-02  0.1184000E+00
        -11   -1    0    0    0    0  0.00000000000E+00  0.00000000000E+00  0.45593999997E+02  0.45594000000E+02  0.51100000000E-03 0.  1.
         11   -1    0    0    0    0 -0.00000000000E+00 -0.00000000000E+00 -0.45593999997E+02  0.45594000000E+02  0.51100000000E-03 0. -1.
         23    2    1    2    0    0  0.14432899320E-14  0.00000000000E+00 -0.17763568394E-14  0.91188000000E+02  0.91188000000E+02 0.  0.
    9900012    2    3    3    0    0  0.14849850391E+00  0.35588603991E+02 -0.94450745118E+01  0.54367079066E+02  0.39999988348E+02 0.  0.
        -12    1    3    3    0    0 -0.14849850391E+00 -0.35588603991E+02  0.94450745118E+01  0.36820920934E+02  0.00000000000E+00 0.  1.
         11    1    4    4    0    0  0.81688711328E+01  0.14587347339E+02  0.48352250196E+01  0.17404038589E+02  0.51100000000E-03 0.  1.
        -11    1    4    4    0    0  0.34413241022E+00  0.24496647261E+02 -0.13212877013E+02  0.27834946980E+02  0.51100000000E-03 0. -1.
         12    1    4    4    0    0 -0.83645050391E+01 -0.34953906087E+01 -0.10674225182E+01  0.91280934969E+01  0.00000000000E+00 0. -1.
</event>
<event>
 8    1  0.2390921E-006  0.9118800E+02  0.7816164E-02  0.1184000E+00
        -11   -1    0    0    0    0  0.00000000000E+00  0.00000000000E+00  0.45593999997E+02  0.45594000000E+02  0.51100000000E-03 0. -1.
         11   -1    0    0    0    0 -0.00000000000E+00 -0.00000000000E+00 -0.45593999997E+02  0.45594000000E+02  0.51100000000E-03 0.  1.
         23    2    1    2    0    0  0.00000000000E+00  0.35527136788E-14  0.00000000000E+00  0.91188000000E+02  0.91188000000E+02 0.  0.
    9900012    2    3    3    0    0 -0.16277889944E+02  0.28793708495E+02 -0.16178108384E+02  0.54367101847E+02  0.40000040281E+02 0.  0.
         12    1    3    3    0    0  0.16277889944E+02 -0.28793708495E+02  0.16178108384E+02  0.36820898153E+02  0.00000000000E+00 0. -1.
         11    1    4    4    0    0 -0.24616977822E+02  0.31333798925E+02 -0.16815586539E+02  0.43250046278E+02  0.51100000000E-03 0. -1.
        -11    1    4    4    0    0  0.50594488353E+01 -0.44387347340E+01 -0.13092280589E+01  0.68567096284E+01  0.51100000000E-03 0.  1.
         12    1    4    4    0    0  0.32796390430E+01  0.18986443041E+01  0.19467062142E+01  0.42603459403E+01  0.00000000000E+00 0. -1.
</event>
<event>
 8    1  0.2390921E-006  0.9118800E+02  0.7816164E-02  0.1184000E+00
        -11   -1    0    0    0    0  0.00000000000E+00  0.00000000000E+00  0.45593999997E+02  0.45594000000E+02  0.51100000000E-03 0. -1.
         11   -1    0    0    0    0 -0.00000000000E+00 -0.00000000000E+00 -0.45593999997E+02  0.45594000000E+02  0.51100000000E-03 0.  1.
         23    2    1    2    0    0 -0.35527136788E-14  0.17763568394E-14  0.00000000000E+00  0.91188000000E+02  0.91188000000E+02 0.  0.
    9900012    2    3    3    0    0 -0.23593898604E+02 -0.15561157156E+02 -0.23599974362E+02  0.54367075877E+02  0.39999981077E+02 0.  0.
         12    1    3    3    0    0  0.23593898604E+02  0.15561157156E+02  0.23599974362E+02  0.36820924123E+02  0.00000000000E+00 0. -1.
         11    1    4    4    0    0 -0.21857796109E+02 -0.68708095610E+01 -0.79083910518E+01  0.24238686517E+02  0.51100000000E-03 0. -1.
        -11    1    4    4    0    0  0.64925468911E+00  0.71847178439E+01  0.62208221313E+00  0.72407657529E+01  0.51100000000E-03 0.  1.
        -12    1    4    4    0    0 -0.23853571842E+01 -0.15875065439E+02 -0.16313665523E+02  0.22887623607E+02  0.00000000000E+00 0.  1.
</event>
<event>
 8    1  0.2390921E-006  0.9118800E+02  0.7816164E-02  0.1184000E+00
        -11   -1    0    0    0    0  0.00000000000E+00  0.00000000000E+00  0.45593999997E+02  0.45594000000E+02  0.51100000000E-03 0.  1.
         11   -1    0    0    0    0 -0.00000000000E+00 -0.00000000000E+00 -0.45593999997E+02  0.45594000000E+02  0.51100000000E-03 0. -1.
         23    2    1    2    0    0 -0.17763568394E-14  0.00000000000E+00  0.00000000000E+00  0.91188000000E+02  0.91188000000E+02 0.  0.
    9900012    2    3    3    0    0 -0.80813015100E+01 -0.24502901002E+02 -0.26269375265E+02  0.54367086535E+02  0.40000005373E+02 0.  0.
        -12    1    3    3    0    0  0.80813015100E+01  0.24502901002E+02  0.26269375265E+02  0.36820913465E+02  0.00000000000E+00 0.  1.
         11    1    4    4    0    0 -0.26441878785E+01 -0.28517810412E+02 -0.30354802392E+02  0.41733335222E+02  0.51100000000E-03 0. -1.
        -11    1    4    4    0    0 -0.17950928401E+00  0.21007780858E-01  0.58075082069E+01  0.58103198487E+01  0.51100000000E-03 0.  1.
         12    1    4    4    0    0 -0.52576043474E+01  0.39939016294E+01 -0.17220810804E+01  0.68234314642E+01  0.00000000000E+00 0. -1.
</event>
<event>
 8    1  0.2390921E-006  0.9118800E+02  0.7816164E-02  0.1184000E+00
        -11   -1    0    0    0    0  0.00000000000E+00  0.00000000000E+00  0.45593999997E+02  0.45594000000E+02  0.51100000000E-03 0. -1.
         11   -1    0    0    0    0 -0.00000000000E+00 -0.00000000000E+00 -0.45593999997E+02  0.45594000000E+02  0.51100000000E-03 0.  1.
         23    2    1    2    0    0  0.00000000000E+00 -0.22204460493E-15 -0.35527136788E-14  0.91188000000E+02  0.91188000000E+02 0.  0.
    9900012    2    3    3    0    0 -0.28998442178E+02  0.83722857113E+00 -0.22675348778E+02  0.54367054294E+02  0.39999931875E+02 0.  0.
         12    1    3    3    0    0  0.28998442178E+02 -0.83722857113E+00  0.22675348778E+02  0.36820945706E+02  0.00000000000E+00 0. -1.
         11    1    4    4    0    0 -0.39566376524E+01 -0.16027799171E+02 -0.85637612628E+01  0.18597938999E+02  0.51100000000E-03 0. -1.
        -11    1    4    4    0    0 -0.28906114719E+01 -0.16841259921E+01  0.51647690237E+00  0.33850647985E+01  0.51100000000E-03 0.  1.
        -12    1    4    4    0    0 -0.22151193054E+02  0.18549153734E+02 -0.14628064418E+02  0.32384050497E+02  0.00000000000E+00 0.  1.
</event>
<event>
 8    1  0.2390921E-006  0.9118800E+02  0.7816164E-02  0.1184000E+00
        -11   -1    0    0    0    0  0.00000000000E+00  0.00000000000E+00  0.45593999997E+02  0.45594000000E+02  0.51100000000E-03 0. -1.
         11   -1    0    0    0    0 -0.00000000000E+00 -0.00000000000E+00 -0.45593999997E+02  0.45594000000E+02  0.51100000000E-03 0.  1.
         23    2    1    2    0    0 -0.35527136788E-14 -0.44408920985E-15  0.00000000000E+00  0.91188000000E+02  0.91188000000E+02 0.  0.
    9900012    2    3    3    0    0 -0.31716426752E+02  0.10528802867E+01 -0.18674575661E+02  0.54367081232E+02  0.39999993284E+02 0.  0.
         12    1    3    3    0    0  0.31716426752E+02 -0.10528802867E+01  0.18674575661E+02  0.36820918768E+02  0.00000000000E+00 0. -1.
         11    1    4    4    0    0 -0.11547125198E+01  0.11709388393E+02 -0.17017709229E+02  0.20689262075E+02  0.51100000000E-03 0. -1.
        -11    1    4    4    0    0 -0.12495650928E+02 -0.29430043323E+00 -0.28388505600E+01  0.12817448171E+02  0.51100000000E-03 0.  1.
         12    1    4    4    0    0 -0.18066063305E+02 -0.10362207673E+02  0.11819841274E+01  0.20860370986E+02  0.00000000000E+00 0. -1.
</event>
<event>
 8    1  0.2390921E-006  0.9118800E+02  0.7816164E-02  0.1184000E+00
        -11   -1    0    0    0    0  0.00000000000E+00  0.00000000000E+00  0.45593999997E+02  0.45594000000E+02  0.51100000000E-03 0.  1.
         11   -1    0    0    0    0 -0.00000000000E+00 -0.00000000000E+00 -0.45593999997E+02  0.45594000000E+02  0.51100000000E-03 0. -1.
         23    2    1    2    0    0  0.00000000000E+00 -0.13322676296E-14  0.35527136788E-14  0.91188000000E+02  0.91188000000E+02 0.  0.
    9900012    2    3    3    0    0  0.20158491228E+02  0.31599942626E+01 -0.30650117220E+02  0.54367081789E+02  0.39999994555E+02 0.  0.
        -12    1    3    3    0    0 -0.20158491228E+02 -0.31599942626E+01  0.30650117220E+02  0.36820918211E+02  0.00000000000E+00 0.  1.
         11    1    4    4    0    0  0.16118977402E+02  0.62854813382E+01 -0.21414457913E+02  0.27530123794E+02  0.51100000000E-03 0. -1.
        -11    1    4    4    0    0  0.12161209040E+02 -0.40184740083E+01 -0.12631412184E+02  0.17988766291E+02  0.51100000000E-03 0.  1.
        -12    1    4    4    0    0 -0.81216952140E+01  0.89298693270E+00  0.33957528781E+01  0.88481917034E+01  0.00000000000E+00 0.  1.
</event>
<event>
 8    1  0.2390921E-006  0.9118800E+02  0.7816164E-02  0.1184000E+00
        -11   -1    0    0    0    0  0.00000000000E+00  0.00000000000E+00  0.45593999997E+02  0.45594000000E+02  0.51100000000E-03 0.  1.
         11   -1    0    0    0    0 -0.00000000000E+00 -0.00000000000E+00 -0.45593999997E+02  0.45594000000E+02  0.51100000000E-03 0. -1.
         23    2    1    2    0    0  0.00000000000E+00 -0.71054273576E-14 -0.17763568394E-14  0.91188000000E+02  0.91188000000E+02 0.  0.
    9900012    2    3    3    0    0  0.75025829757E+01 -0.35054743541E+02 -0.84057652545E+01  0.54367072722E+02  0.39999973885E+02 0.  0.
         12    1    3    3    0    0 -0.75025829757E+01  0.35054743541E+02  0.84057652545E+01  0.36820927278E+02  0.00000000000E+00 0. -1.
         11    1    4    4    0    0  0.43514537046E+01 -0.23795042498E+02  0.90284712264E+01  0.25819614439E+02  0.51100000000E-03 0. -1.
        -11    1    4    4    0    0 -0.58603269720E+01 -0.72855806738E+01 -0.10204445533E+01  0.94055528982E+01  0.51100000000E-03 0.  1.
         12    1    4    4    0    0  0.90114562432E+01 -0.39741203695E+01 -0.16413791928E+02  0.19141905385E+02  0.00000000000E+00 0. -1.
</event>
<event>
 8    1  0.2390921E-006  0.9118800E+02  0.7816164E-02  0.1184000E+00
        -11   -1    0    0    0    0  0.00000000000E+00  0.00000000000E+00  0.45593999997E+02  0.45594000000E+02  0.51100000000E-03 0. -1.
         11   -1    0    0    0    0 -0.00000000000E+00 -0.00000000000E+00 -0.45593999997E+02  0.45594000000E+02  0.51100000000E-03 0.  1.
         23    2    1    2    0    0  0.00000000000E+00  0.00000000000E+00 -0.22204460493E-15  0.91188000000E+02  0.91188000000E+02 0.  0.
    9900012    2    3    3    0    0  0.35135517741E+02 -0.11009200874E+02  0.27101396070E+00  0.54367074436E+02  0.39999977791E+02 0.  0.
         12    1    3    3    0    0 -0.35135517741E+02  0.11009200874E+02 -0.27101396070E+00  0.36820925564E+02  0.00000000000E+00 0. -1.
         11    1    4    4    0    0  0.22868819493E+02  0.12647620339E+01 -0.14832237005E+02  0.27286952612E+02  0.51100000000E-03 0. -1.
        -11    1    4    4    0    0  0.14558070757E+02 -0.13144489908E+02  0.14878277484E+02  0.24618655127E+02  0.51100000000E-03 0.  1.
         12    1    4    4    0    0 -0.22913725090E+01  0.87052699975E+00  0.22497348171E+00  0.24614666969E+01  0.00000000000E+00 0. -1.
</event>
<event>
 8    1  0.2390921E-006  0.9118800E+02  0.7816164E-02  0.1184000E+00
        -11   -1    0    0    0    0  0.00000000000E+00  0.00000000000E+00  0.45593999997E+02  0.45594000000E+02  0.51100000000E-03 0.  1.
         11   -1    0    0    0    0 -0.00000000000E+00 -0.00000000000E+00 -0.45593999997E+02  0.45594000000E+02  0.51100000000E-03 0. -1.
         23    2    1    2    0    0  0.00000000000E+00  0.00000000000E+00  0.00000000000E+00  0.91188000000E+02  0.91188000000E+02 0.  0.
    9900012    2    3    3    0    0 -0.20069305540E+02  0.28313055407E+02 -0.12303413948E+02  0.54367080320E+02  0.39999991205E+02 0.  0.
         12    1    3    3    0    0  0.20069305540E+02 -0.28313055407E+02  0.12303413948E+02  0.36820919680E+02  0.00000000000E+00 0. -1.
         11    1    4    4    0    0 -0.29292822028E+01  0.15862499195E+01  0.11523925519E+02  0.11995738521E+02  0.51100000000E-03 0.  1.
        -11    1    4    4    0    0 -0.96435681178E+01  0.15246262426E+02 -0.22136069710E+02  0.28556129052E+02  0.51100000000E-03 0. -1.
         12    1    4    4    0    0 -0.74964552196E+01  0.11480543061E+02 -0.16912697571E+01  0.13815212747E+02  0.00000000000E+00 0. -1.
</event>
<event>
 8    1  0.2390921E-006  0.9118800E+02  0.7816164E-02  0.1184000E+00
        -11   -1    0    0    0    0  0.00000000000E+00  0.00000000000E+00  0.45593999997E+02  0.45594000000E+02  0.51100000000E-03 0. -1.
         11   -1    0    0    0    0 -0.00000000000E+00 -0.00000000000E+00 -0.45593999997E+02  0.45594000000E+02  0.51100000000E-03 0.  1.
         23    2    1    2    0    0 -0.35527136788E-14  0.00000000000E+00  0.00000000000E+00  0.91188000000E+02  0.91188000000E+02 0.  0.
    9900012    2    3    3    0    0  0.24878138090E+02 -0.17394280069E+02  0.20839794769E+02  0.54367085020E+02  0.40000001921E+02 0.  0.
        -12    1    3    3    0    0 -0.24878138090E+02  0.17394280069E+02 -0.20839794769E+02  0.36820914980E+02  0.00000000000E+00 0.  1.
         11    1    4    4    0    0  0.97105468295E+01  0.35140562998E+01  0.62778156394E+00  0.10345889104E+02  0.51100000000E-03 0. -1.
        -11    1    4    4    0    0  0.27441335015E+01  0.22740622077E+00 -0.69233692178E+01  0.74508404794E+01  0.51100000000E-03 0.  1.
         12    1    4    4    0    0  0.12423457759E+02 -0.21135742589E+02  0.27135382423E+02  0.36570355436E+02  0.00000000000E+00 0. -1.
</event>
<event>
 8    1  0.2390921E-006  0.9118800E+02  0.7816164E-02  0.1184000E+00
        -11   -1    0    0    0    0  0.00000000000E+00  0.00000000000E+00  0.45593999997E+02  0.45594000000E+02  0.51100000000E-03 0.  1.
         11   -1    0    0    0    0 -0.00000000000E+00 -0.00000000000E+00 -0.45593999997E+02  0.45594000000E+02  0.51100000000E-03 0. -1.
         23    2    1    2    0    0  0.17763568394E-14  0.00000000000E+00  0.00000000000E+00  0.91188000000E+02  0.91188000000E+02 0.  0.
    9900012    2    3    3    0    0  0.11900852933E+02 -0.21847268621E+02  0.27144912396E+02  0.54367085892E+02  0.40000003909E+02 0.  0.
         12    1    3    3    0    0 -0.11900852933E+02  0.21847268621E+02 -0.27144912396E+02  0.36820914108E+02  0.00000000000E+00 0. -1.
         11    1    4    4    0    0  0.25038884687E+02 -0.76498042160E+01  0.86999296729E+01  0.27589020053E+02  0.51100000000E-03 0. -1.
        -11    1    4    4    0    0 -0.57234721224E+01 -0.51728281620E+01  0.67762879221E+01  0.10268123616E+02  0.51100000000E-03 0.  1.
         12    1    4    4    0    0 -0.74145596315E+01 -0.90246362425E+01  0.11668694801E+02  0.16509942223E+02  0.00000000000E+00 0. -1.
</event>
<event>
 8    1  0.2390921E-006  0.9118800E+02  0.7816164E-02  0.1184000E+00
        -11   -1    0    0    0    0  0.00000000000E+00  0.00000000000E+00  0.45593999997E+02  0.45594000000E+02  0.51100000000E-03 0.  1.
         11   -1    0    0    0    0 -0.00000000000E+00 -0.00000000000E+00 -0.45593999997E+02  0.45594000000E+02  0.51100000000E-03 0. -1.
         23    2    1    2    0    0  0.00000000000E+00  0.26645352591E-14 -0.17763568394E-14  0.91188000000E+02  0.91188000000E+02 0.  0.
    9900012    2    3    3    0    0 -0.36394699648E+02  0.22086103935E+01 -0.51312561581E+01  0.54367056067E+02  0.39999935917E+02 0.  0.
         12    1    3    3    0    0  0.36394699648E+02 -0.22086103935E+01  0.51312561581E+01  0.36820943933E+02  0.00000000000E+00 0. -1.
         11    1    4    4    0    0 -0.18883684504E+02  0.13026076176E+02 -0.16006594241E+02  0.27972902253E+02  0.51100000000E-03 0. -1.
        -11    1    4    4    0    0 -0.30449311498E+01  0.24790502045E+01  0.39269228810E+01  0.55531990058E+01  0.51100000000E-03 0.  1.
         12    1    4    4    0    0 -0.14466083994E+02 -0.13296515987E+02  0.69484152016E+01  0.20840954809E+02  0.00000000000E+00 0. -1.
</event>
<event>
 8    1  0.2390921E-006  0.9118800E+02  0.7816164E-02  0.1184000E+00
        -11   -1    0    0    0    0  0.00000000000E+00  0.00000000000E+00  0.45593999997E+02  0.45594000000E+02  0.51100000000E-03 0. -1.
         11   -1    0    0    0    0 -0.00000000000E+00 -0.00000000000E+00 -0.45593999997E+02  0.45594000000E+02  0.51100000000E-03 0.  1.
         23    2    1    2    0    0  0.00000000000E+00  0.71054273576E-14  0.17763568394E-14  0.91188000000E+02  0.91188000000E+02 0.  0.
    9900012    2    3    3    0    0 -0.11817292048E+02  0.32225904212E+02  0.13327516288E+02  0.54367082249E+02  0.39999995602E+02 0.  0.
        -12    1    3    3    0    0  0.11817292048E+02 -0.32225904212E+02 -0.13327516288E+02  0.36820917751E+02  0.00000000000E+00 0.  1.
         11    1    4    4    0    0 -0.16453361364E+01 -0.15554207688E+01  0.10157227276E+02  0.10406523481E+02  0.51100000000E-03 0. -1.
        -11    1    4    4    0    0 -0.11904970066E+02  0.16455582428E+02  0.12854500649E+02  0.24036486692E+02  0.51100000000E-03 0.  1.
        -12    1    4    4    0    0  0.17330141536E+01  0.17325742553E+02 -0.96842116364E+01  0.19924072076E+02  0.00000000000E+00 0.  1.
</event>
<event>
 8    1  0.2390921E-006  0.9118800E+02  0.7816164E-02  0.1184000E+00
        -11   -1    0    0    0    0  0.00000000000E+00  0.00000000000E+00  0.45593999997E+02  0.45594000000E+02  0.51100000000E-03 0. -1.
         11   -1    0    0    0    0 -0.00000000000E+00 -0.00000000000E+00 -0.45593999997E+02  0.45594000000E+02  0.51100000000E-03 0.  1.
         23    2    1    2    0    0  0.35527136788E-14  0.00000000000E+00  0.35527136788E-14  0.91188000000E+02  0.91188000000E+02 0.  0.
    9900012    2    3    3    0    0  0.18553379233E+02 -0.90895383306E+01  0.30478390630E+02  0.54367083615E+02  0.39999998717E+02 0.  0.
        -12    1    3    3    0    0 -0.18553379233E+02  0.90895383306E+01 -0.30478390630E+02  0.36820916385E+02  0.00000000000E+00 0.  1.
         11    1    4    4    0    0  0.92250612944E+01 -0.13280392444E+02  0.18173051210E+02  0.24325508626E+02  0.51100000000E-03 0. -1.
        -11    1    4    4    0    0 -0.72276019805E+01 -0.46757602237E+01  0.33814896219E+01  0.92485369861E+01  0.51100000000E-03 0.  1.
        -12    1    4    4    0    0  0.16555919919E+02  0.88666143369E+01  0.89238497980E+01  0.20793038003E+02  0.00000000000E+00 0.  1.
</event>
<event>
 8    1  0.2390921E-006  0.9118800E+02  0.7816164E-02  0.1184000E+00
        -11   -1    0    0    0    0  0.00000000000E+00  0.00000000000E+00  0.45593999997E+02  0.45594000000E+02  0.51100000000E-03 0.  1.
         11   -1    0    0    0    0 -0.00000000000E+00 -0.00000000000E+00 -0.45593999997E+02  0.45594000000E+02  0.51100000000E-03 0. -1.
         23    2    1    2    0    0  0.35527136788E-14  0.17763568394E-14 -0.35527136788E-14  0.91188000000E+02  0.91188000000E+02 0.  0.
    9900012    2    3    3    0    0  0.29187857709E+02  0.85433043352E+01 -0.20757127426E+02  0.54367116990E+02  0.40000074803E+02 0.  0.
        -12    1    3    3    0    0 -0.29187857709E+02 -0.85433043352E+01  0.20757127426E+02  0.36820883010E+02  0.00000000000E+00 0.  1.
         11    1    4    4    0    0  0.15961575047E+02  0.75384797469E+01 -0.52024885953E+01  0.18402892238E+02  0.51100000000E-03 0. -1.
        -11    1    4    4    0    0  0.20440408636E+02 -0.94120266865E+00 -0.20941860150E+01  0.20568951917E+02  0.51100000000E-03 0.  1.
        -12    1    4    4    0    0 -0.72141259735E+01  0.19460272570E+01 -0.13460452816E+02  0.15395272835E+02  0.00000000000E+00 0.  1.
</event>
<event>
 8    1  0.2390921E-006  0.9118800E+02  0.7816164E-02  0.1184000E+00
        -11   -1    0    0    0    0  0.00000000000E+00  0.00000000000E+00  0.45593999997E+02  0.45594000000E+02  0.51100000000E-03 0. -1.
         11   -1    0    0    0    0 -0.00000000000E+00 -0.00000000000E+00 -0.45593999997E+02  0.45594000000E+02  0.51100000000E-03 0.  1.
         23    2    1    2    0    0  0.00000000000E+00  0.00000000000E+00  0.00000000000E+00  0.91188000000E+02  0.91188000000E+02 0.  0.
    9900012    2    3    3    0    0  0.25710591045E+02 -0.15269914474E+02 -0.21484299434E+02  0.54367083361E+02  0.39999998139E+02 0.  0.
         12    1    3    3    0    0 -0.25710591045E+02  0.15269914474E+02  0.21484299434E+02  0.36820916639E+02  0.00000000000E+00 0. -1.
         11    1    4    4    0    0  0.30273294314E+00  0.65393840166E+01  0.42881247245E-01  0.65465280579E+01  0.51100000000E-03 0. -1.
        -11    1    4    4    0    0  0.16882253685E+02 -0.50582044222E+01  0.19668074471E+01  0.17733139972E+02  0.51100000000E-03 0.  1.
        -12    1    4    4    0    0  0.85256044173E+01 -0.16751094068E+02 -0.23493988129E+02  0.30087415332E+02  0.00000000000E+00 0.  1.
</event>
<event>
 8    1  0.2390921E-006  0.9118800E+02  0.7816164E-02  0.1184000E+00
        -11   -1    0    0    0    0  0.00000000000E+00  0.00000000000E+00  0.45593999997E+02  0.45594000000E+02  0.51100000000E-03 0. -1.
         11   -1    0    0    0    0 -0.00000000000E+00 -0.00000000000E+00 -0.45593999997E+02  0.45594000000E+02  0.51100000000E-03 0.  1.
         23    2    1    2    0    0  0.00000000000E+00 -0.17763568394E-14  0.00000000000E+00  0.91188000000E+02  0.91188000000E+02 0.  0.
    9900012    2    3    3    0    0  0.85278736392E+01 -0.92883216605E+01  0.34594576461E+02  0.54367051226E+02  0.39999924881E+02 0.  0.
        -12    1    3    3    0    0 -0.85278736392E+01  0.92883216605E+01 -0.34594576461E+02  0.36820948774E+02  0.00000000000E+00 0.  1.
         11    1    4    4    0    0  0.97845868941E+01 -0.16425954829E+02  0.22201012090E+02  0.29299062627E+02  0.51100000000E-03 0. -1.
        -11    1    4    4    0    0 -0.80437835898E+01 -0.13867216910E+01 -0.51102711389E+00  0.81784228590E+01  0.51100000000E-03 0.  1.
         12    1    4    4    0    0  0.67870703348E+01  0.85243548598E+01  0.12904591485E+02  0.16889565741E+02  0.00000000000E+00 0. -1.
</event>
<event>
 8    1  0.2390921E-006  0.9118800E+02  0.7816164E-02  0.1184000E+00
        -11   -1    0    0    0    0  0.00000000000E+00  0.00000000000E+00  0.45593999997E+02  0.45594000000E+02  0.51100000000E-03 0.  1.
         11   -1    0    0    0    0 -0.00000000000E+00 -0.00000000000E+00 -0.45593999997E+02  0.45594000000E+02  0.51100000000E-03 0. -1.
         23    2    1    2    0    0  0.00000000000E+00 -0.35527136788E-14 -0.55511151231E-15  0.91188000000E+02  0.91188000000E+02 0.  0.
    9900012    2    3    3    0    0 -0.30323426022E+02  0.20879164546E+02  0.57565381269E+00  0.54367067704E+02  0.39999962444E+02 0.  0.
        -12    1    3    3    0    0  0.30323426022E+02 -0.20879164546E+02 -0.57565381269E+00  0.36820932296E+02  0.00000000000E+00 0.  1.
         11    1    4    4    0    0 -0.65935254905E+01 -0.36538438068E+01 -0.94387920804E+01  0.12079567424E+02  0.51100000000E-03 0. -1.
        -11    1    4    4    0    0 -0.21850370521E+02  0.25667867237E+02  0.17693997483E+01  0.33755131108E+02  0.51100000000E-03 0.  1.
        -12    1    4    4    0    0 -0.18795300103E+01 -0.11348588835E+01  0.82450461448E+01  0.85323691713E+01  0.00000000000E+00 0.  1.
</event>
<event>
 8    1  0.2390921E-006  0.9118800E+02  0.7816164E-02  0.1184000E+00
        -11   -1    0    0    0    0  0.00000000000E+00  0.00000000000E+00  0.45593999997E+02  0.45594000000E+02  0.51100000000E-03 0. -1.
         11   -1    0    0    0    0 -0.00000000000E+00 -0.00000000000E+00 -0.45593999997E+02  0.45594000000E+02  0.51100000000E-03 0.  1.
         23    2    1    2    0    0  0.55511151231E-15  0.00000000000E+00  0.17763568394E-14  0.91188000000E+02  0.91188000000E+02 0.  0.
    9900012    2    3    3    0    0 -0.27769734223E+00 -0.36601441846E+02 -0.40044573485E+01  0.54367104578E+02  0.40000046506E+02 0.  0.
         12    1    3    3    0    0  0.27769734223E+00  0.36601441846E+02  0.40044573485E+01  0.36820895422E+02  0.00000000000E+00 0. -1.
         11    1    4    4    0    0  0.86099391250E+01 -0.69350244011E+01  0.79776899530E+01  0.13633383748E+02  0.51100000000E-03 0. -1.
        -11    1    4    4    0    0  0.12871259977E+01 -0.75953262415E+01 -0.14378723864E+02  0.16312368751E+02  0.51100000000E-03 0.  1.
         12    1    4    4    0    0 -0.10174762465E+02 -0.22071091204E+02  0.23965765624E+01  0.24421352079E+02  0.00000000000E+00 0. -1.
</event>
<event>
 8    1  0.2390921E-006  0.9118800E+02  0.7816164E-02  0.1184000E+00
        -11   -1    0    0    0    0  0.00000000000E+00  0.00000000000E+00  0.45593999997E+02  0.45594000000E+02  0.51100000000E-03 0. -1.
         11   -1    0    0    0    0 -0.00000000000E+00 -0.00000000000E+00 -0.45593999997E+02  0.45594000000E+02  0.51100000000E-03 0.  1.
         23    2    1    2    0    0  0.35527136788E-14 -0.88817841970E-15  0.00000000000E+00  0.91188000000E+02  0.91188000000E+02 0.  0.
    9900012    2    3    3    0    0  0.22250103715E+02  0.68331152749E+01 -0.28531034978E+02  0.54367101904E+02  0.40000040411E+02 0.  0.
         12    1    3    3    0    0 -0.22250103715E+02 -0.68331152749E+01  0.28531034978E+02  0.36820898096E+02  0.00000000000E+00 0. -1.
         11    1    4    4    0    0 -0.44574436861E+01  0.10488275530E+01  0.92817571794E-01  0.45801155896E+01  0.51100000000E-03 0. -1.
        -11    1    4    4    0    0  0.17435782852E+02 -0.11469290427E+02 -0.17667014394E+02  0.27343638098E+02  0.51100000000E-03 0.  1.
        -12    1    4    4    0    0  0.92717645485E+01  0.17253578149E+02 -0.10956838156E+02  0.22443348216E+02  0.00000000000E+00 0.  1.
</event>
<event>
 8    1  0.2390921E-006  0.9118800E+02  0.7816164E-02  0.1184000E+00
        -11   -1    0    0    0    0  0.00000000000E+00  0.00000000000E+00  0.45593999997E+02  0.45594000000E+02  0.51100000000E-03 0.  1.
         11   -1    0    0    0    0 -0.00000000000E+00 -0.00000000000E+00 -0.45593999997E+02  0.45594000000E+02  0.51100000000E-03 0. -1.
         23    2    1    2    0    0  0.35527136788E-14 -0.17763568394E-14  0.00000000000E+00  0.91188000000E+02  0.91188000000E+02 0.  0.
    9900012    2    3    3    0    0 -0.11531156160E+02 -0.95603711624E+01 -0.33636459588E+02  0.54367086476E+02  0.40000005239E+02 0.  0.
        -12    1    3    3    0    0  0.11531156160E+02  0.95603711624E+01  0.33636459588E+02  0.36820913524E+02  0.00000000000E+00 0.  1.
         11    1    4    4    0    0  0.91902645274E+01 -0.11223693263E+02 -0.20273885477E+01  0.14647271320E+02  0.51100000000E-03 0. -1.
        -11    1    4    4    0    0  0.27481462401E+00  0.20562680081E+01 -0.41486019118E+00  0.21156253066E+01  0.51100000000E-03 0.  1.
         12    1    4    4    0    0 -0.20996235312E+02 -0.39294590797E+00 -0.31194210849E+02  0.37604189849E+02  0.00000000000E+00 0. -1.
</event>
<event>
 8    1  0.2390921E-006  0.9118800E+02  0.7816164E-02  0.1184000E+00
        -11   -1    0    0    0    0  0.00000000000E+00  0.00000000000E+00  0.45593999997E+02  0.45594000000E+02  0.51100000000E-03 0. -1.
         11   -1    0    0    0    0 -0.00000000000E+00 -0.00000000000E+00 -0.45593999997E+02  0.45594000000E+02  0.51100000000E-03 0.  1.
         23    2    1    2    0    0 -0.17763568394E-14  0.00000000000E+00  0.00000000000E+00  0.91188000000E+02  0.91188000000E+02 0.  0.
    9900012    2    3    3    0    0  0.87878423110E+01 -0.74656501730E+01  0.34968828137E+02  0.54367067824E+02  0.39999962719E+02 0.  0.
        -12    1    3    3    0    0 -0.87878423110E+01  0.74656501730E+01 -0.34968828137E+02  0.36820932176E+02  0.00000000000E+00 0.  1.
         11    1    4    4    0    0 -0.89194157358E+01  0.27934340052E+01  0.40001484446E+01  0.10166633585E+02  0.51100000000E-03 0. -1.
        -11    1    4    4    0    0 -0.52027548038E+01  0.14236934274E+01  0.28706296109E+01  0.61103252899E+01  0.51100000000E-03 0.  1.
        -12    1    4    4    0    0  0.22910012851E+02 -0.11682777606E+02  0.28098050082E+02  0.38090108950E+02  0.00000000000E+00 0.  1.
</event>
<event>
 8    1  0.2390921E-006  0.9118800E+02  0.7816164E-02  0.1184000E+00
        -11   -1    0    0    0    0  0.00000000000E+00  0.00000000000E+00  0.45593999997E+02  0.45594000000E+02  0.51100000000E-03 0. -1.
         11   -1    0    0    0    0 -0.00000000000E+00 -0.00000000000E+00 -0.45593999997E+02  0.45594000000E+02  0.51100000000E-03 0.  1.
         23    2    1    2    0    0  0.00000000000E+00  0.13322676296E-14  0.00000000000E+00  0.91188000000E+02  0.91188000000E+02 0.  0.
    9900012    2    3    3    0    0 -0.23022151038E+02 -0.14569328724E+01  0.28699078863E+02  0.54367092632E+02  0.40000019274E+02 0.  0.
        -12    1    3    3    0    0  0.23022151038E+02  0.14569328724E+01 -0.28699078863E+02  0.36820907368E+02  0.00000000000E+00 0.  1.
         11    1    4    4    0    0 -0.79357796793E+01 -0.11253743419E+02  0.30513321458E+02  0.33476650471E+02  0.51100000000E-03 0. -1.
        -11    1    4    4    0    0 -0.60020401529E+01  0.51569252268E+01  0.42915949991E+01  0.90020082031E+01  0.51100000000E-03 0.  1.
        -12    1    4    4    0    0 -0.90843312059E+01  0.46398853201E+01 -0.61058375949E+01  0.11888433958E+02  0.00000000000E+00 0.  1.
</event>
<event>
 8    1  0.2390921E-006  0.9118800E+02  0.7816164E-02  0.1184000E+00
        -11   -1    0    0    0    0  0.00000000000E+00  0.00000000000E+00  0.45593999997E+02  0.45594000000E+02  0.51100000000E-03 0. -1.
         11   -1    0    0    0    0 -0.00000000000E+00 -0.00000000000E+00 -0.45593999997E+02  0.45594000000E+02  0.51100000000E-03 0.  1.
         23    2    1    2    0    0  0.00000000000E+00  0.71054273576E-14 -0.17763568394E-14  0.91188000000E+02  0.91188000000E+02 0.  0.
    9900012    2    3    3    0    0 -0.99343369319E+01  0.35053336263E+02 -0.53247931383E+01  0.54367070416E+02  0.39999968627E+02 0.  0.
         12    1    3    3    0    0  0.99343369319E+01 -0.35053336263E+02  0.53247931383E+01  0.36820929584E+02  0.00000000000E+00 0. -1.
         11    1    4    4    0    0  0.18876724656E+01  0.24778976573E+01  0.70252705760E+01  0.76849015000E+01  0.51100000000E-03 0. -1.
        -11    1    4    4    0    0 -0.55829873540E+01  0.33922344264E+02 -0.18926530619E+01  0.34430761304E+02  0.51100000000E-03 0.  1.
         12    1    4    4    0    0 -0.62390220435E+01 -0.13469056576E+01 -0.10457410652E+02  0.12251407612E+02  0.00000000000E+00 0. -1.
</event>
<event>
 8    1  0.2390921E-006  0.9118800E+02  0.7816164E-02  0.1184000E+00
        -11   -1    0    0    0    0  0.00000000000E+00  0.00000000000E+00  0.45593999997E+02  0.45594000000E+02  0.51100000000E-03 0.  1.
         11   -1    0    0    0    0 -0.00000000000E+00 -0.00000000000E+00 -0.45593999997E+02  0.45594000000E+02  0.51100000000E-03 0. -1.
         23    2    1    2    0    0  0.00000000000E+00  0.00000000000E+00 -0.17763568394E-14  0.91188000000E+02  0.91188000000E+02 0.  0.
    9900012    2    3    3    0    0  0.13941110693E+02  0.31198562151E+02  0.13713934735E+02  0.54367124759E+02  0.40000092512E+02 0.  0.
         12    1    3    3    0    0 -0.13941110693E+02 -0.31198562151E+02 -0.13713934735E+02  0.36820875241E+02  0.00000000000E+00 0. -1.
         11    1    4    4    0    0  0.48988666451E+01  0.33009875783E+01 -0.98086649108E+01  0.11450123187E+02  0.51100000000E-03 0. -1.
        -11    1    4    4    0    0  0.80162991502E+01  0.14826002186E+02  0.24534798330E+02  0.29766217802E+02  0.51100000000E-03 0.  1.
        -12    1    4    4    0    0  0.10259448977E+01  0.13071572387E+02 -0.10121986837E+01  0.13150783770E+02  0.00000000000E+00 0.  1.
</event>
<event>
 8    1  0.2390921E-006  0.9118800E+02  0.7816164E-02  0.1184000E+00
        -11   -1    0    0    0    0  0.00000000000E+00  0.00000000000E+00  0.45593999997E+02  0.45594000000E+02  0.51100000000E-03 0.  1.
         11   -1    0    0    0    0 -0.00000000000E+00 -0.00000000000E+00 -0.45593999997E+02  0.45594000000E+02  0.51100000000E-03 0. -1.
         23    2    1    2    0    0  0.17763568394E-14  0.00000000000E+00  0.00000000000E+00  0.91188000000E+02  0.91188000000E+02 0.  0.
    9900012    2    3    3    0    0 -0.66353921948E+01  0.30395544527E+02  0.19694223270E+02  0.54367082210E+02  0.39999995515E+02 0.  0.
         12    1    3    3    0    0  0.66353921948E+01 -0.30395544527E+02 -0.19694223270E+02  0.36820917790E+02  0.00000000000E+00 0. -1.
         11    1    4    4    0    0  0.10735580286E+02  0.60159417082E+01  0.12884998950E+02  0.17817615916E+02  0.51100000000E-03 0. -1.
        -11    1    4    4    0    0 -0.68976411093E+01  0.19419968400E+02  0.12004409312E+02  0.23849915487E+02  0.51100000000E-03 0.  1.
         12    1    4    4    0    0 -0.10473331372E+02  0.49596344192E+01 -0.51951849930E+01  0.12699550807E+02  0.00000000000E+00 0. -1.
</event>
<event>
 8    1  0.2390921E-006  0.9118800E+02  0.7816164E-02  0.1184000E+00
        -11   -1    0    0    0    0  0.00000000000E+00  0.00000000000E+00  0.45593999997E+02  0.45594000000E+02  0.51100000000E-03 0. -1.
         11   -1    0    0    0    0 -0.00000000000E+00 -0.00000000000E+00 -0.45593999997E+02  0.45594000000E+02  0.51100000000E-03 0.  1.
         23    2    1    2    0    0 -0.17763568394E-14 -0.49960036108E-15  0.00000000000E+00  0.91188000000E+02  0.91188000000E+02 0.  0.
    9900012    2    3    3    0    0 -0.12964947292E+02  0.58845943449E-01 -0.34462837354E+02  0.54367075519E+02  0.39999980261E+02 0.  0.
         12    1    3    3    0    0  0.12964947292E+02 -0.58845943449E-01  0.34462837354E+02  0.36820924481E+02  0.00000000000E+00 0. -1.
         11    1    4    4    0    0 -0.88775233594E+01  0.80608684449E+01  0.50902747418E+01  0.13026853737E+02  0.51100000000E-03 0. -1.
        -11    1    4    4    0    0  0.25655282309E+00 -0.76444107916E+01 -0.26210704982E+02  0.27303917148E+02  0.51100000000E-03 0.  1.
         12    1    4    4    0    0 -0.43439767558E+01 -0.35761170985E+00 -0.13342407113E+02  0.14036304634E+02  0.00000000000E+00 0. -1.
</event>
<event>
 8    1  0.2390921E-006  0.9118800E+02  0.7816164E-02  0.1184000E+00
        -11   -1    0    0    0    0  0.00000000000E+00  0.00000000000E+00  0.45593999997E+02  0.45594000000E+02  0.51100000000E-03 0.  1.
         11   -1    0    0    0    0 -0.00000000000E+00 -0.00000000000E+00 -0.45593999997E+02  0.45594000000E+02  0.51100000000E-03 0. -1.
         23    2    1    2    0    0  0.00000000000E+00  0.17763568394E-14  0.88817841970E-15  0.91188000000E+02  0.91188000000E+02 0.  0.
    9900012    2    3    3    0    0 -0.35708794769E+02  0.78210189523E+01  0.44153378800E+01  0.54367060714E+02  0.39999946509E+02 0.  0.
        -12    1    3    3    0    0  0.35708794769E+02 -0.78210189523E+01 -0.44153378800E+01  0.36820939286E+02  0.00000000000E+00 0.  1.
         11    1    4    4    0    0 -0.53998730987E+01 -0.80818997979E+01  0.69088974633E+01  0.11925124664E+02  0.51100000000E-03 0. -1.
        -11    1    4    4    0    0 -0.24105618301E+02  0.10171229136E+01  0.50313458459E+01  0.24646091251E+02  0.51100000000E-03 0.  1.
         12    1    4    4    0    0 -0.62033033698E+01  0.14885795837E+02 -0.75249054292E+01  0.17795844799E+02  0.00000000000E+00 0. -1.
</event>
<event>
 8    1  0.2390921E-006  0.9118800E+02  0.7816164E-02  0.1184000E+00
        -11   -1    0    0    0    0  0.00000000000E+00  0.00000000000E+00  0.45593999997E+02  0.45594000000E+02  0.51100000000E-03 0. -1.
         11   -1    0    0    0    0 -0.00000000000E+00 -0.00000000000E+00 -0.45593999997E+02  0.45594000000E+02  0.51100000000E-03 0.  1.
         23    2    1    2    0    0 -0.88817841970E-15  0.00000000000E+00  0.35527136788E-14  0.91188000000E+02  0.91188000000E+02 0.  0.
    9900012    2    3    3    0    0 -0.68271719282E+01  0.26180591735E+02  0.24974924911E+02  0.54367074775E+02  0.39999978564E+02 0.  0.
        -12    1    3    3    0    0  0.68271719282E+01 -0.26180591735E+02 -0.24974924911E+02  0.36820925225E+02  0.00000000000E+00 0.  1.
         11    1    4    4    0    0  0.14003862926E+01  0.20020402512E+02  0.16091159351E+02  0.25723588553E+02  0.51100000000E-03 0. -1.
        -11    1    4    4    0    0 -0.40094433552E+01 -0.54192964914E+01 -0.62044972728E+01  0.91618882960E+01  0.51100000000E-03 0.  1.
        -12    1    4    4    0    0 -0.42181148656E+01  0.11579485714E+02  0.15088262833E+02  0.19481597926E+02  0.00000000000E+00 0.  1.
</event>
<event>
 8    1  0.2390921E-006  0.9118800E+02  0.7816164E-02  0.1184000E+00
        -11   -1    0    0    0    0  0.00000000000E+00  0.00000000000E+00  0.45593999997E+02  0.45594000000E+02  0.51100000000E-03 0. -1.
         11   -1    0    0    0    0 -0.00000000000E+00 -0.00000000000E+00 -0.45593999997E+02  0.45594000000E+02  0.51100000000E-03 0.  1.
         23    2    1    2    0    0 -0.11102230246E-15  0.00000000000E+00  0.00000000000E+00  0.91188000000E+02  0.91188000000E+02 0.  0.
    9900012    2    3    3    0    0  0.55914319380E+00  0.10901376433E+02 -0.35165655213E+02  0.54367136949E+02  0.40000120303E+02 0.  0.
         12    1    3    3    0    0 -0.55914319380E+00 -0.10901376433E+02  0.35165655213E+02  0.36820863051E+02  0.00000000000E+00 0. -1.
         11    1    4    4    0    0 -0.48891863643E+00  0.24650907385E+02 -0.15169987205E+02  0.28948830519E+02  0.51100000000E-03 0. -1.
        -11    1    4    4    0    0  0.15912136868E+01  0.18510233456E+00 -0.32736479413E+01  0.36445843351E+01  0.51100000000E-03 0.  1.
         12    1    4    4    0    0 -0.54315185656E+00 -0.13934633286E+02 -0.16722020067E+02  0.21773722095E+02  0.00000000000E+00 0. -1.
</event>
<event>
 8    1  0.2390921E-006  0.9118800E+02  0.7816164E-02  0.1184000E+00
        -11   -1    0    0    0    0  0.00000000000E+00  0.00000000000E+00  0.45593999997E+02  0.45594000000E+02  0.51100000000E-03 0. -1.
         11   -1    0    0    0    0 -0.00000000000E+00 -0.00000000000E+00 -0.45593999997E+02  0.45594000000E+02  0.51100000000E-03 0.  1.
         23    2    1    2    0    0 -0.35527136788E-14  0.00000000000E+00  0.00000000000E+00  0.91188000000E+02  0.91188000000E+02 0.  0.
    9900012    2    3    3    0    0 -0.17516909303E+02  0.20976494927E+02 -0.24676423281E+02  0.54367064149E+02  0.39999954341E+02 0.  0.
         12    1    3    3    0    0  0.17516909303E+02 -0.20976494927E+02  0.24676423281E+02  0.36820935851E+02  0.00000000000E+00 0. -1.
         11    1    4    4    0    0 -0.71857525952E+01  0.76663388818E+01  0.36990418803E+01  0.11139600680E+02  0.51100000000E-03 0.  1.
        -11    1    4    4    0    0 -0.19912924683E+02  0.10371898251E+02 -0.21397267705E+02  0.31015220590E+02  0.51100000000E-03 0. -1.
         12    1    4    4    0    0  0.95817679756E+01  0.29382577951E+01 -0.69781974566E+01  0.12212242880E+02  0.00000000000E+00 0. -1.
</event>
<event>
 8    1  0.2390921E-006  0.9118800E+02  0.7816164E-02  0.1184000E+00
        -11   -1    0    0    0    0  0.00000000000E+00  0.00000000000E+00  0.45593999997E+02  0.45594000000E+02  0.51100000000E-03 0. -1.
         11   -1    0    0    0    0 -0.00000000000E+00 -0.00000000000E+00 -0.45593999997E+02  0.45594000000E+02  0.51100000000E-03 0.  1.
         23    2    1    2    0    0  0.44408920985E-15  0.33306690739E-15  0.00000000000E+00  0.91188000000E+02  0.91188000000E+02 0.  0.
    9900012    2    3    3    0    0 -0.12085198836E+01  0.96516280957E+00  0.36788398790E+02  0.54367104505E+02  0.40000046339E+02 0.  0.
        -12    1    3    3    0    0  0.12085198836E+01 -0.96516280957E+00 -0.36788398790E+02  0.36820895495E+02  0.00000000000E+00 0.  1.
         11    1    4    4    0    0 -0.22111893891E+01 -0.21527151814E+01  0.47654065984E+01  0.56773798072E+01  0.51100000000E-03 0. -1.
        -11    1    4    4    0    0  0.16534448372E+02  0.11766467809E+01  0.27982975577E+02  0.32524135700E+02  0.51100000000E-03 0.  1.
        -12    1    4    4    0    0 -0.15531778867E+02  0.19412312100E+01  0.40400166144E+01  0.16165588997E+02  0.00000000000E+00 0.  1.
</event>
<event>
 8    1  0.2390921E-006  0.9118800E+02  0.7816164E-02  0.1184000E+00
        -11   -1    0    0    0    0  0.00000000000E+00  0.00000000000E+00  0.45593999997E+02  0.45594000000E+02  0.51100000000E-03 0. -1.
         11   -1    0    0    0    0 -0.00000000000E+00 -0.00000000000E+00 -0.45593999997E+02  0.45594000000E+02  0.51100000000E-03 0.  1.
         23    2    1    2    0    0 -0.88817841970E-15  0.17763568394E-14  0.71054273576E-14  0.91188000000E+02  0.91188000000E+02 0.  0.
    9900012    2    3    3    0    0  0.71308791279E+01  0.13349621762E+02  0.33566627082E+02  0.54367078067E+02  0.39999986069E+02 0.  0.
        -12    1    3    3    0    0 -0.71308791279E+01 -0.13349621762E+02 -0.33566627082E+02  0.36820921933E+02  0.00000000000E+00 0.  1.
         11    1    4    4    0    0 -0.40202948465E+01  0.31586895758E+01  0.27025717727E+02  0.27505081519E+02  0.51100000000E-03 0. -1.
        -11    1    4    4    0    0  0.88409817589E+01  0.16231619183E+02  0.12842263404E+01  0.18527753704E+02  0.51100000000E-03 0.  1.
        -12    1    4    4    0    0  0.23101922154E+01 -0.60406869962E+01  0.52566830153E+01  0.83342428439E+01  0.00000000000E+00 0.  1.
</event>
<event>
 8    1  0.2390921E-006  0.9118800E+02  0.7816164E-02  0.1184000E+00
        -11   -1    0    0    0    0  0.00000000000E+00  0.00000000000E+00  0.45593999997E+02  0.45594000000E+02  0.51100000000E-03 0. -1.
         11   -1    0    0    0    0 -0.00000000000E+00 -0.00000000000E+00 -0.45593999997E+02  0.45594000000E+02  0.51100000000E-03 0.  1.
         23    2    1    2    0    0 -0.17763568394E-14 -0.35527136788E-14 -0.35527136788E-14  0.91188000000E+02  0.91188000000E+02 0.  0.
    9900012    2    3    3    0    0 -0.14671591971E+02 -0.25328972829E+02  0.22337583016E+02  0.54367080802E+02  0.39999992304E+02 0.  0.
        -12    1    3    3    0    0  0.14671591971E+02  0.25328972829E+02 -0.22337583016E+02  0.36820919198E+02  0.00000000000E+00 0.  1.
         11    1    4    4    0    0  0.11905088221E+01  0.32578226567E+01  0.40458113656E+01  0.53291002604E+01  0.51100000000E-03 0. -1.
        -11    1    4    4    0    0 -0.84382257979E+01  0.57513281156E+01  0.58480080872E+01  0.11767779253E+02  0.51100000000E-03 0.  1.
        -12    1    4    4    0    0 -0.74238749955E+01 -0.34338123602E+02  0.12443763564E+02  0.37270201288E+02  0.00000000000E+00 0.  1.
</event>
<event>
 8    1  0.2390921E-006  0.9118800E+02  0.7816164E-02  0.1184000E+00
        -11   -1    0    0    0    0  0.00000000000E+00  0.00000000000E+00  0.45593999997E+02  0.45594000000E+02  0.51100000000E-03 0. -1.
         11   -1    0    0    0    0 -0.00000000000E+00 -0.00000000000E+00 -0.45593999997E+02  0.45594000000E+02  0.51100000000E-03 0.  1.
         23    2    1    2    0    0  0.00000000000E+00 -0.35527136788E-14  0.17763568394E-14  0.91188000000E+02  0.91188000000E+02 0.  0.
    9900012    2    3    3    0    0  0.19682048269E+02  0.28758429349E+02 -0.11889044440E+02  0.54367086643E+02  0.40000005621E+02 0.  0.
         12    1    3    3    0    0 -0.19682048269E+02 -0.28758429349E+02  0.11889044440E+02  0.36820913357E+02  0.00000000000E+00 0. -1.
         11    1    4    4    0    0  0.12640543079E+02  0.13755002180E+02  0.10237650444E+02  0.21302415383E+02  0.51100000000E-03 0. -1.
        -11    1    4    4    0    0  0.10465449290E+01  0.13972298113E+02 -0.49786700359E+01  0.14869684813E+02  0.51100000000E-03 0.  1.
         12    1    4    4    0    0  0.59949602619E+01  0.10311290567E+01 -0.17148024847E+02  0.18194986448E+02  0.00000000000E+00 0. -1.
</event>
<event>
 8    1  0.2390921E-006  0.9118800E+02  0.7816164E-02  0.1184000E+00
        -11   -1    0    0    0    0  0.00000000000E+00  0.00000000000E+00  0.45593999997E+02  0.45594000000E+02  0.51100000000E-03 0.  1.
         11   -1    0    0    0    0 -0.00000000000E+00 -0.00000000000E+00 -0.45593999997E+02  0.45594000000E+02  0.51100000000E-03 0. -1.
         23    2    1    2    0    0  0.00000000000E+00  0.00000000000E+00  0.00000000000E+00  0.91188000000E+02  0.91188000000E+02 0.  0.
    9900012    2    3    3    0    0 -0.21396842777E+02 -0.29465451358E+02 -0.54536527816E+01  0.54367081581E+02  0.39999994081E+02 0.  0.
        -12    1    3    3    0    0  0.21396842777E+02  0.29465451358E+02  0.54536527816E+01  0.36820918419E+02  0.00000000000E+00 0.  1.
         11    1    4    4    0    0 -0.11187883750E+02 -0.16814020711E+01 -0.71146778285E+01  0.13364673456E+02  0.51100000000E-03 0. -1.
        -11    1    4    4    0    0 -0.16577437218E+02 -0.27515949677E+02  0.67748894718E+01  0.32830443782E+02  0.51100000000E-03 0.  1.
        -12    1    4    4    0    0  0.63684781906E+01 -0.26809960986E+00 -0.51138644248E+01  0.81719643428E+01  0.00000000000E+00 0.  1.
</event>
<event>
 8    1  0.2390921E-006  0.9118800E+02  0.7816164E-02  0.1184000E+00
        -11   -1    0    0    0    0  0.00000000000E+00  0.00000000000E+00  0.45593999997E+02  0.45594000000E+02  0.51100000000E-03 0.  1.
         11   -1    0    0    0    0 -0.00000000000E+00 -0.00000000000E+00 -0.45593999997E+02  0.45594000000E+02  0.51100000000E-03 0. -1.
         23    2    1    2    0    0  0.17763568394E-14  0.17763568394E-14  0.14210854715E-13  0.91188000000E+02  0.91188000000E+02 0.  0.
    9900012    2    3    3    0    0  0.70774572109E+01  0.10554788703E+02  0.34558439396E+02  0.54367086124E+02  0.40000004438E+02 0.  0.
         12    1    3    3    0    0 -0.70774572109E+01 -0.10554788703E+02 -0.34558439396E+02  0.36820913876E+02  0.00000000000E+00 0. -1.
         11    1    4    4    0    0 -0.43657843951E+01  0.48729259347E+01  0.33053700945E+01  0.73301399899E+01  0.51100000000E-03 0. -1.
        -11    1    4    4    0    0 -0.15078300262E+01  0.12004179378E+02 -0.56024273268E+00  0.12111471674E+02  0.51100000000E-03 0.  1.
        -12    1    4    4    0    0  0.12951071632E+02 -0.63223166093E+01  0.31813312034E+02  0.34925474461E+02  0.00000000000E+00 0.  1.
</event>
<event>
 8    1  0.2390921E-006  0.9118800E+02  0.7816164E-02  0.1184000E+00
        -11   -1    0    0    0    0  0.00000000000E+00  0.00000000000E+00  0.45593999997E+02  0.45594000000E+02  0.51100000000E-03 0. -1.
         11   -1    0    0    0    0 -0.00000000000E+00 -0.00000000000E+00 -0.45593999997E+02  0.45594000000E+02  0.51100000000E-03 0.  1.
         23    2    1    2    0    0 -0.17763568394E-14  0.00000000000E+00  0.00000000000E+00  0.91188000000E+02  0.91188000000E+02 0.  0.
    9900012    2    3    3    0    0 -0.74992849349E+01 -0.22777493096E+02 -0.27941472844E+02  0.54367090573E+02  0.40000014580E+02 0.  0.
         12    1    3    3    0    0  0.74992849349E+01  0.22777493096E+02  0.27941472844E+02  0.36820909427E+02  0.00000000000E+00 0. -1.
         11    1    4    4    0    0 -0.38221202374E+00  0.11692528590E+01 -0.10471799721E+02  0.10543805193E+02  0.51100000000E-03 0. -1.
        -11    1    4    4    0    0  0.11083262113E+02 -0.17616196228E+02 -0.10674019790E+02  0.23390249408E+02  0.51100000000E-03 0.  1.
        -12    1    4    4    0    0 -0.18200335024E+02 -0.63305497269E+01 -0.67956533330E+01  0.20433035973E+02  0.00000000000E+00 0.  1.
</event>
<event>
 8    1  0.2390921E-006  0.9118800E+02  0.7816164E-02  0.1184000E+00
        -11   -1    0    0    0    0  0.00000000000E+00  0.00000000000E+00  0.45593999997E+02  0.45594000000E+02  0.51100000000E-03 0. -1.
         11   -1    0    0    0    0 -0.00000000000E+00 -0.00000000000E+00 -0.45593999997E+02  0.45594000000E+02  0.51100000000E-03 0.  1.
         23    2    1    2    0    0  0.00000000000E+00  0.00000000000E+00  0.00000000000E+00  0.91188000000E+02  0.91188000000E+02 0.  0.
    9900012    2    3    3    0    0  0.17756706131E+02  0.31005706231E+02 -0.88952559692E+01  0.54367081893E+02  0.39999994791E+02 0.  0.
         12    1    3    3    0    0 -0.17756706131E+02 -0.31005706231E+02  0.88952559692E+01  0.36820918107E+02  0.00000000000E+00 0. -1.
         11    1    4    4    0    0 -0.22344844017E+01 -0.53421797451E+00  0.45887380654E+00  0.23428347823E+01  0.51100000000E-03 0. -1.
        -11    1    4    4    0    0  0.24211704898E+02  0.37001152102E+02 -0.89139980827E+01  0.45108217356E+02  0.51100000000E-03 0.  1.
        -12    1    4    4    0    0 -0.42205143657E+01 -0.54612278968E+01 -0.44013169305E+00  0.69160297541E+01  0.00000000000E+00 0.  1.
</event>
<event>
 8    1  0.2390921E-006  0.9118800E+02  0.7816164E-02  0.1184000E+00
        -11   -1    0    0    0    0  0.00000000000E+00  0.00000000000E+00  0.45593999997E+02  0.45594000000E+02  0.51100000000E-03 0.  1.
         11   -1    0    0    0    0 -0.00000000000E+00 -0.00000000000E+00 -0.45593999997E+02  0.45594000000E+02  0.51100000000E-03 0. -1.
         23    2    1    2    0    0 -0.35527136788E-14  0.00000000000E+00 -0.35527136788E-14  0.91188000000E+02  0.91188000000E+02 0.  0.
    9900012    2    3    3    0    0  0.24639491741E+02 -0.53702437299E+01 -0.26829745417E+02  0.54367091400E+02  0.40000016465E+02 0.  0.
        -12    1    3    3    0    0 -0.24639491741E+02  0.53702437299E+01  0.26829745417E+02  0.36820908600E+02  0.00000000000E+00 0.  1.
         11    1    4    4    0    0 -0.38699385984E+01  0.53063512403E+01 -0.74671118315E+01  0.99444229399E+01  0.51100000000E-03 0. -1.
        -11    1    4    4    0    0  0.20358685821E+02 -0.12989783256E+02 -0.96637412551E+00  0.24169080177E+02  0.51100000000E-03 0.  1.
         12    1    4    4    0    0  0.81507445192E+01  0.23131882858E+01 -0.18396259460E+02  0.20253588284E+02  0.00000000000E+00 0. -1.
</event>
<event>
 8    1  0.2390921E-006  0.9118800E+02  0.7816164E-02  0.1184000E+00
        -11   -1    0    0    0    0  0.00000000000E+00  0.00000000000E+00  0.45593999997E+02  0.45594000000E+02  0.51100000000E-03 0.  1.
         11   -1    0    0    0    0 -0.00000000000E+00 -0.00000000000E+00 -0.45593999997E+02  0.45594000000E+02  0.51100000000E-03 0. -1.
         23    2    1    2    0    0  0.17763568394E-14  0.44408920985E-15  0.00000000000E+00  0.91188000000E+02  0.91188000000E+02 0.  0.
    9900012    2    3    3    0    0  0.14041120496E+02 -0.20157996051E+01 -0.33978865451E+02  0.54367084610E+02  0.40000000984E+02 0.  0.
        -12    1    3    3    0    0 -0.14041120496E+02  0.20157996051E+01  0.33978865451E+02  0.36820915390E+02  0.00000000000E+00 0.  1.
         11    1    4    4    0    0 -0.79387708086E+00 -0.14303474995E+02 -0.19095781007E+02  0.23871918445E+02  0.51100000000E-03 0. -1.
        -11    1    4    4    0    0 -0.30652465220E+01 -0.20387225190E+01 -0.18039336027E+01  0.40995490550E+01  0.51100000000E-03 0.  1.
         12    1    4    4    0    0  0.17900244099E+02  0.14326397909E+02 -0.13079150842E+02  0.26395617109E+02  0.00000000000E+00 0. -1.
</event>
<event>
 8    1  0.2390921E-006  0.9118800E+02  0.7816164E-02  0.1184000E+00
        -11   -1    0    0    0    0  0.00000000000E+00  0.00000000000E+00  0.45593999997E+02  0.45594000000E+02  0.51100000000E-03 0. -1.
         11   -1    0    0    0    0 -0.00000000000E+00 -0.00000000000E+00 -0.45593999997E+02  0.45594000000E+02  0.51100000000E-03 0.  1.
         23    2    1    2    0    0  0.00000000000E+00 -0.35527136788E-14  0.00000000000E+00  0.91188000000E+02  0.91188000000E+02 0.  0.
    9900012    2    3    3    0    0 -0.47807033683E+01 -0.26133101136E+02  0.25494825263E+02  0.54367079114E+02  0.39999988456E+02 0.  0.
         12    1    3    3    0    0  0.47807033683E+01  0.26133101136E+02 -0.25494825263E+02  0.36820920886E+02  0.00000000000E+00 0. -1.
         11    1    4    4    0    0  0.18014665478E+01  0.28543238577E+01  0.59121323350E+01  0.68077716923E+01  0.51100000000E-03 0. -1.
        -11    1    4    4    0    0 -0.42826622221E+01  0.63571267703E+01  0.55411586200E+01  0.94582607067E+01  0.51100000000E-03 0.  1.
        -12    1    4    4    0    0 -0.22995076939E+01 -0.35344551764E+02  0.14041534308E+02  0.38101046715E+02  0.00000000000E+00 0.  1.
</event>
<event>
 8    1  0.2390921E-006  0.9118800E+02  0.7816164E-02  0.1184000E+00
        -11   -1    0    0    0    0  0.00000000000E+00  0.00000000000E+00  0.45593999997E+02  0.45594000000E+02  0.51100000000E-03 0.  1.
         11   -1    0    0    0    0 -0.00000000000E+00 -0.00000000000E+00 -0.45593999997E+02  0.45594000000E+02  0.51100000000E-03 0. -1.
         23    2    1    2    0    0  0.00000000000E+00  0.00000000000E+00  0.00000000000E+00  0.91188000000E+02  0.91188000000E+02 0.  0.
    9900012    2    3    3    0    0  0.42299544768E+01 -0.33927915821E+02  0.13666891349E+02  0.54367083309E+02  0.39999998019E+02 0.  0.
         12    1    3    3    0    0 -0.42299544768E+01  0.33927915821E+02 -0.13666891349E+02  0.36820916691E+02  0.00000000000E+00 0. -1.
         11    1    4    4    0    0 -0.15128116982E-01 -0.57383425449E+01  0.10413697349E+02  0.11890075557E+02  0.51100000000E-03 0. -1.
        -11    1    4    4    0    0  0.52584376124E+00 -0.26376929717E+02  0.14772994387E+02  0.30236737529E+02  0.51100000000E-03 0.  1.
         12    1    4    4    0    0  0.37192388325E+01 -0.18126435594E+01 -0.11519800387E+02  0.12240270223E+02  0.00000000000E+00 0. -1.
</event>
<event>
 8    1  0.2390921E-006  0.9118800E+02  0.7816164E-02  0.1184000E+00
        -11   -1    0    0    0    0  0.00000000000E+00  0.00000000000E+00  0.45593999997E+02  0.45594000000E+02  0.51100000000E-03 0. -1.
         11   -1    0    0    0    0 -0.00000000000E+00 -0.00000000000E+00 -0.45593999997E+02  0.45594000000E+02  0.51100000000E-03 0.  1.
         23    2    1    2    0    0  0.00000000000E+00  0.00000000000E+00  0.00000000000E+00  0.91188000000E+02  0.91188000000E+02 0.  0.
    9900012    2    3    3    0    0 -0.56970254632E+01 -0.14155798063E+02  0.33510273817E+02  0.54367066155E+02  0.39999958914E+02 0.  0.
        -12    1    3    3    0    0  0.56970254632E+01  0.14155798063E+02 -0.33510273817E+02  0.36820933845E+02  0.00000000000E+00 0.  1.
         11    1    4    4    0    0  0.80972259429E+01  0.20210748033E+01  0.79085592341E+00  0.83830343363E+01  0.51100000000E-03 0.  1.
        -11    1    4    4    0    0 -0.22550468924E+01 -0.13580621086E+02  0.31295060593E+01  0.14117801316E+02  0.51100000000E-03 0. -1.
         12    1    4    4    0    0 -0.11539204514E+02 -0.25962517811E+01  0.29589911834E+02  0.31866230503E+02  0.00000000000E+00 0. -1.
</event>
<event>
 8    1  0.2390921E-006  0.9118800E+02  0.7816164E-02  0.1184000E+00
        -11   -1    0    0    0    0  0.00000000000E+00  0.00000000000E+00  0.45593999997E+02  0.45594000000E+02  0.51100000000E-03 0. -1.
         11   -1    0    0    0    0 -0.00000000000E+00 -0.00000000000E+00 -0.45593999997E+02  0.45594000000E+02  0.51100000000E-03 0.  1.
         23    2    1    2    0    0  0.00000000000E+00  0.00000000000E+00  0.35527136788E-14  0.91188000000E+02  0.91188000000E+02 0.  0.
    9900012    2    3    3    0    0  0.81342513272E+01 -0.22456710212E+02  0.28023390081E+02  0.54367078368E+02  0.39999986756E+02 0.  0.
        -12    1    3    3    0    0 -0.81342513272E+01  0.22456710212E+02 -0.28023390081E+02  0.36820921632E+02  0.00000000000E+00 0.  1.
         11    1    4    4    0    0  0.10033351029E+02 -0.14244492337E+02 -0.57946771366E+00  0.17432999682E+02  0.51100000000E-03 0. -1.
        -11    1    4    4    0    0  0.60079725412E+01  0.48772066544E+01  0.67917634377E+01  0.10296160919E+02  0.51100000000E-03 0.  1.
         12    1    4    4    0    0 -0.79070722434E+01 -0.13089424529E+02  0.21811094357E+02  0.26637917768E+02  0.00000000000E+00 0. -1.
</event>
<event>
 8    1  0.2390921E-006  0.9118800E+02  0.7816164E-02  0.1184000E+00
        -11   -1    0    0    0    0  0.00000000000E+00  0.00000000000E+00  0.45593999997E+02  0.45594000000E+02  0.51100000000E-03 0. -1.
         11   -1    0    0    0    0 -0.00000000000E+00 -0.00000000000E+00 -0.45593999997E+02  0.45594000000E+02  0.51100000000E-03 0.  1.
         23    2    1    2    0    0  0.71054273576E-14  0.00000000000E+00 -0.17763568394E-14  0.91188000000E+02  0.91188000000E+02 0.  0.
    9900012    2    3    3    0    0 -0.33705741602E+02  0.12269831887E+02  0.83158805777E+01  0.54367086632E+02  0.40000005595E+02 0.  0.
        -12    1    3    3    0    0  0.33705741602E+02 -0.12269831887E+02 -0.83158805777E+01  0.36820913368E+02  0.00000000000E+00 0.  1.
         11    1    4    4    0    0 -0.31873585102E+01  0.13704476405E+02  0.74768481329E+01  0.15933461208E+02  0.51100000000E-03 0. -1.
        -11    1    4    4    0    0 -0.32462500726E+01  0.72779577374E+01  0.51391096490E+01  0.94824710180E+01  0.51100000000E-03 0.  1.
         12    1    4    4    0    0 -0.27272133019E+02 -0.87126022558E+01 -0.43000772043E+01  0.28951154406E+02  0.00000000000E+00 0. -1.
</event>
<event>
 8    1  0.2390921E-006  0.9118800E+02  0.7816164E-02  0.1184000E+00
        -11   -1    0    0    0    0  0.00000000000E+00  0.00000000000E+00  0.45593999997E+02  0.45594000000E+02  0.51100000000E-03 0.  1.
         11   -1    0    0    0    0 -0.00000000000E+00 -0.00000000000E+00 -0.45593999997E+02  0.45594000000E+02  0.51100000000E-03 0. -1.
         23    2    1    2    0    0  0.00000000000E+00  0.44408920985E-15  0.00000000000E+00  0.91188000000E+02  0.91188000000E+02 0.  0.
    9900012    2    3    3    0    0  0.30952124383E+02 -0.35569955899E+01 -0.19623857602E+02  0.54367054756E+02  0.39999932927E+02 0.  0.
         12    1    3    3    0    0 -0.30952124383E+02  0.35569955899E+01  0.19623857602E+02  0.36820945244E+02  0.00000000000E+00 0. -1.
         11    1    4    4    0    0  0.15147313788E+02 -0.14114147237E+00 -0.25488587861E+02  0.29650112096E+02  0.51100000000E-03 0. -1.
        -11    1    4    4    0    0  0.14350078402E+02  0.31557634129E+01 -0.14648340218E+01  0.14765816328E+02  0.51100000000E-03 0.  1.
        -12    1    4    4    0    0  0.14547321938E+01 -0.65716175305E+01  0.73295642808E+01  0.99511263317E+01  0.00000000000E+00 0.  1.
</event>
<event>
 8    1  0.2390921E-006  0.9118800E+02  0.7816164E-02  0.1184000E+00
        -11   -1    0    0    0    0  0.00000000000E+00  0.00000000000E+00  0.45593999997E+02  0.45594000000E+02  0.51100000000E-03 0.  1.
         11   -1    0    0    0    0 -0.00000000000E+00 -0.00000000000E+00 -0.45593999997E+02  0.45594000000E+02  0.51100000000E-03 0. -1.
         23    2    1    2    0    0  0.00000000000E+00  0.00000000000E+00 -0.88817841970E-15  0.91188000000E+02  0.91188000000E+02 0.  0.
    9900012    2    3    3    0    0  0.27436161565E+02 -0.24168204214E+02  0.43515371839E+01  0.54367069373E+02  0.39999966250E+02 0.  0.
        -12    1    3    3    0    0 -0.27436161565E+02  0.24168204214E+02 -0.43515371839E+01  0.36820930627E+02  0.00000000000E+00 0.  1.
         11    1    4    4    0    0  0.10595933309E+02 -0.18096027951E+02  0.17165628746E+02  0.27099794110E+02  0.51100000000E-03 0. -1.
        -11    1    4    4    0    0  0.50807092870E+01 -0.43657397218E+01  0.31205024566E+01  0.73899138033E+01  0.51100000000E-03 0.  1.
         12    1    4    4    0    0  0.11759518969E+02 -0.17064365409E+01 -0.15934594019E+02  0.19877361460E+02  0.00000000000E+00 0. -1.
</event>
<event>
 8    1  0.2390921E-006  0.9118800E+02  0.7816164E-02  0.1184000E+00
        -11   -1    0    0    0    0  0.00000000000E+00  0.00000000000E+00  0.45593999997E+02  0.45594000000E+02  0.51100000000E-03 0.  1.
         11   -1    0    0    0    0 -0.00000000000E+00 -0.00000000000E+00 -0.45593999997E+02  0.45594000000E+02  0.51100000000E-03 0. -1.
         23    2    1    2    0    0  0.35527136788E-14 -0.13322676296E-14  0.00000000000E+00  0.91188000000E+02  0.91188000000E+02 0.  0.
    9900012    2    3    3    0    0  0.77000071290E+01 -0.14056456659E+01  0.35979363916E+02  0.54367074192E+02  0.39999977235E+02 0.  0.
         12    1    3    3    0    0 -0.77000071290E+01  0.14056456659E+01 -0.35979363916E+02  0.36820925808E+02  0.00000000000E+00 0. -1.
         11    1    4    4    0    0  0.13398000678E+01  0.23695426347E+01  0.23639385049E+00  0.27323394432E+01  0.51100000000E-03 0. -1.
        -11    1    4    4    0    0 -0.63896420611E+01  0.67986140565E+01 -0.27519859661E+01  0.97273894636E+01  0.51100000000E-03 0.  1.
        -12    1    4    4    0    0  0.12749849122E+02 -0.10573802357E+02  0.38494956032E+02  0.41907345285E+02  0.00000000000E+00 0.  1.
</event>
<event>
 8    1  0.2390921E-006  0.9118800E+02  0.7816164E-02  0.1184000E+00
        -11   -1    0    0    0    0  0.00000000000E+00  0.00000000000E+00  0.45593999997E+02  0.45594000000E+02  0.51100000000E-03 0.  1.
         11   -1    0    0    0    0 -0.00000000000E+00 -0.00000000000E+00 -0.45593999997E+02  0.45594000000E+02  0.51100000000E-03 0. -1.
         23    2    1    2    0    0  0.00000000000E+00 -0.17763568394E-14  0.88817841970E-15  0.91188000000E+02  0.91188000000E+02 0.  0.
    9900012    2    3    3    0    0 -0.35785244234E+02  0.46592722855E+01  0.73135021553E+01  0.54367084247E+02  0.40000000157E+02 0.  0.
         12    1    3    3    0    0  0.35785244234E+02 -0.46592722855E+01 -0.73135021553E+01  0.36820915753E+02  0.00000000000E+00 0. -1.
         11    1    4    4    0    0 -0.35053975785E+01 -0.64282052440E+01  0.16429319034E+02  0.17986999723E+02  0.51100000000E-03 0. -1.
        -11    1    4    4    0    0 -0.58797451009E+01  0.12944174192E+01  0.16365966243E+01  0.62390197691E+01  0.51100000000E-03 0.  1.
        -12    1    4    4    0    0 -0.26400101555E+02  0.97930601103E+01 -0.10752413503E+02  0.30141064755E+02  0.00000000000E+00 0.  1.
</event>
<event>
 8    1  0.2390921E-006  0.9118800E+02  0.7816164E-02  0.1184000E+00
        -11   -1    0    0    0    0  0.00000000000E+00  0.00000000000E+00  0.45593999997E+02  0.45594000000E+02  0.51100000000E-03 0.  1.
         11   -1    0    0    0    0 -0.00000000000E+00 -0.00000000000E+00 -0.45593999997E+02  0.45594000000E+02  0.51100000000E-03 0. -1.
         23    2    1    2    0    0 -0.35527136788E-14 -0.35527136788E-14  0.00000000000E+00  0.91188000000E+02  0.91188000000E+02 0.  0.
    9900012    2    3    3    0    0  0.25995577976E+02  0.24108127522E+02  0.99402596405E+01  0.54367073224E+02  0.39999975029E+02 0.  0.
         12    1    3    3    0    0 -0.25995577976E+02 -0.24108127522E+02 -0.99402596405E+01  0.36820926776E+02  0.00000000000E+00 0. -1.
         11    1    4    4    0    0  0.10887529935E+00  0.17467169412E+02  0.46546622942E+01  0.18077050158E+02  0.51100000000E-03 0. -1.
        -11    1    4    4    0    0  0.15945465417E+02  0.12215027620E+02  0.11665884934E+02  0.23228380027E+02  0.51100000000E-03 0.  1.
         12    1    4    4    0    0  0.99412372602E+01 -0.55740695100E+01 -0.63802875881E+01  0.13061643039E+02  0.00000000000E+00 0. -1.
</event>
<event>
 8    1  0.2390921E-006  0.9118800E+02  0.7816164E-02  0.1184000E+00
        -11   -1    0    0    0    0  0.00000000000E+00  0.00000000000E+00  0.45593999997E+02  0.45594000000E+02  0.51100000000E-03 0.  1.
         11   -1    0    0    0    0 -0.00000000000E+00 -0.00000000000E+00 -0.45593999997E+02  0.45594000000E+02  0.51100000000E-03 0. -1.
         23    2    1    2    0    0  0.35527136788E-14  0.35527136788E-14  0.35527136788E-14  0.91188000000E+02  0.91188000000E+02 0.  0.
    9900012    2    3    3    0    0  0.22254254959E+02  0.17049387691E+02  0.23871482592E+02  0.54367066204E+02  0.39999959026E+02 0.  0.
         12    1    3    3    0    0 -0.22254254959E+02 -0.17049387691E+02 -0.23871482592E+02  0.36820933796E+02  0.00000000000E+00 0. -1.
         11    1    4    4    0    0 -0.52845703145E+01  0.13171205953E+02  0.51840658884E+01  0.15109000267E+02  0.51100000000E-03 0. -1.
        -11    1    4    4    0    0  0.31382083214E+01  0.76400058871E+01  0.10257966207E+02  0.13169810644E+02  0.51100000000E-03 0.  1.
        -12    1    4    4    0    0  0.24400616952E+02 -0.37618241498E+01  0.84294504971E+01  0.26088255294E+02  0.00000000000E+00 0.  1.
</event>
<event>
 8    1  0.2390921E-006  0.9118800E+02  0.7816164E-02  0.1184000E+00
        -11   -1    0    0    0    0  0.00000000000E+00  0.00000000000E+00  0.45593999997E+02  0.45594000000E+02  0.51100000000E-03 0. -1.
         11   -1    0    0    0    0 -0.00000000000E+00 -0.00000000000E+00 -0.45593999997E+02  0.45594000000E+02  0.51100000000E-03 0.  1.
         23    2    1    2    0    0  0.17763568394E-14 -0.17763568394E-14  0.00000000000E+00  0.91188000000E+02  0.91188000000E+02 0.  0.
    9900012    2    3    3    0    0  0.98567805922E+01  0.10074041737E+02  0.34016720923E+02  0.54367085523E+02  0.40000003067E+02 0.  0.
        -12    1    3    3    0    0 -0.98567805922E+01 -0.10074041737E+02 -0.34016720923E+02  0.36820914477E+02  0.00000000000E+00 0.  1.
         11    1    4    4    0    0  0.90126257759E+01 -0.47090873846E+01  0.22513041486E+02  0.24703035534E+02  0.51100000000E-03 0. -1.
        -11    1    4    4    0    0 -0.29918876714E+01 -0.55599283345E+01  0.47070331240E+01  0.78753003762E+01  0.51100000000E-03 0.  1.
        -12    1    4    4    0    0  0.38360424877E+01  0.20343057456E+02  0.67966463129E+01  0.21788749613E+02  0.00000000000E+00 0.  1.
</event>
<event>
 8    1  0.2390921E-006  0.9118800E+02  0.7816164E-02  0.1184000E+00
        -11   -1    0    0    0    0  0.00000000000E+00  0.00000000000E+00  0.45593999997E+02  0.45594000000E+02  0.51100000000E-03 0.  1.
         11   -1    0    0    0    0 -0.00000000000E+00 -0.00000000000E+00 -0.45593999997E+02  0.45594000000E+02  0.51100000000E-03 0. -1.
         23    2    1    2    0    0  0.00000000000E+00 -0.71054273576E-14  0.22204460493E-14  0.91188000000E+02  0.91188000000E+02 0.  0.
    9900012    2    3    3    0    0  0.26869960974E+02 -0.24995285909E+02  0.30033731669E+01  0.54367090576E+02  0.40000014586E+02 0.  0.
         12    1    3    3    0    0 -0.26869960974E+02  0.24995285909E+02 -0.30033731669E+01  0.36820909424E+02  0.00000000000E+00 0. -1.
         11    1    4    4    0    0  0.31306567667E+01 -0.24088542884E+02  0.10063304784E+02  0.26293136243E+02  0.51100000000E-03 0.  1.
        -11    1    4    4    0    0  0.10917417030E+02 -0.56136869947E+01 -0.75403470158E+01  0.14406953518E+02  0.51100000000E-03 0. -1.
        -12    1    4    4    0    0  0.12821887177E+02  0.47069439697E+01  0.48041539917E+00  0.13667000815E+02  0.00000000000E+00 0.  1.
</event>
<event>
 8    1  0.2390921E-006  0.9118800E+02  0.7816164E-02  0.1184000E+00
        -11   -1    0    0    0    0  0.00000000000E+00  0.00000000000E+00  0.45593999997E+02  0.45594000000E+02  0.51100000000E-03 0. -1.
         11   -1    0    0    0    0 -0.00000000000E+00 -0.00000000000E+00 -0.45593999997E+02  0.45594000000E+02  0.51100000000E-03 0.  1.
         23    2    1    2    0    0 -0.17763568394E-14 -0.35527136788E-14  0.00000000000E+00  0.91188000000E+02  0.91188000000E+02 0.  0.
    9900012    2    3    3    0    0  0.13107810177E+02  0.22896853745E+02 -0.25684623221E+02  0.54367075663E+02  0.39999980588E+02 0.  0.
         12    1    3    3    0    0 -0.13107810177E+02 -0.22896853745E+02  0.25684623221E+02  0.36820924337E+02  0.00000000000E+00 0. -1.
         11    1    4    4    0    0 -0.31725279514E+01  0.34917393765E+01 -0.68782330755E+00  0.47676281985E+01  0.51100000000E-03 0. -1.
        -11    1    4    4    0    0  0.24261378772E+02  0.99926265100E+01 -0.26348699296E+02  0.37184957165E+02  0.51100000000E-03 0.  1.
        -12    1    4    4    0    0 -0.79810406439E+01  0.94124878584E+01  0.13518993831E+01  0.12414490299E+02  0.00000000000E+00 0.  1.
</event>
<event>
 8    1  0.2390921E-006  0.9118800E+02  0.7816164E-02  0.1184000E+00
        -11   -1    0    0    0    0  0.00000000000E+00  0.00000000000E+00  0.45593999997E+02  0.45594000000E+02  0.51100000000E-03 0. -1.
         11   -1    0    0    0    0 -0.00000000000E+00 -0.00000000000E+00 -0.45593999997E+02  0.45594000000E+02  0.51100000000E-03 0.  1.
         23    2    1    2    0    0  0.55511151231E-16  0.17763568394E-14  0.71054273576E-14  0.91188000000E+02  0.91188000000E+02 0.  0.
    9900012    2    3    3    0    0 -0.27089392430E+00 -0.12527969333E+02 -0.34623065621E+02  0.54367081052E+02  0.39999992875E+02 0.  0.
         12    1    3    3    0    0  0.27089392430E+00  0.12527969333E+02  0.34623065621E+02  0.36820918948E+02  0.00000000000E+00 0. -1.
         11    1    4    4    0    0 -0.30357434946E+01 -0.12360392003E+02 -0.14760633884E+01  0.12813032132E+02  0.51100000000E-03 0. -1.
        -11    1    4    4    0    0 -0.19224869266E+01 -0.12093925983E+02 -0.16154156420E+02  0.20271057486E+02  0.51100000000E-03 0.  1.
        -12    1    4    4    0    0  0.46873364969E+01  0.11926348652E+02 -0.16992845812E+02  0.21282991435E+02  0.00000000000E+00 0.  1.
</event>
<event>
 8    1  0.2390921E-006  0.9118800E+02  0.7816164E-02  0.1184000E+00
        -11   -1    0    0    0    0  0.00000000000E+00  0.00000000000E+00  0.45593999997E+02  0.45594000000E+02  0.51100000000E-03 0. -1.
         11   -1    0    0    0    0 -0.00000000000E+00 -0.00000000000E+00 -0.45593999997E+02  0.45594000000E+02  0.51100000000E-03 0.  1.
         23    2    1    2    0    0  0.35527136788E-14  0.00000000000E+00  0.35527136788E-14  0.91188000000E+02  0.91188000000E+02 0.  0.
    9900012    2    3    3    0    0 -0.19688764420E+02  0.98547050659E+01 -0.29513290184E+02  0.54366851813E+02  0.39999470276E+02 0.  0.
         12    1    3    3    0    0  0.19688764420E+02 -0.98547050659E+01  0.29513290184E+02  0.36821148187E+02  0.00000000000E+00 0. -1.
         11    1    4    4    0    0 -0.53837511977E+01  0.96816479436E+01 -0.18844525179E+02  0.21859442201E+02  0.51100000000E-03 0. -1.
        -11    1    4    4    0    0 -0.54464269841E+01  0.12258515937E+02  0.10926811962E+01  0.13458407496E+02  0.51100000000E-03 0.  1.
        -12    1    4    4    0    0 -0.88585862377E+01 -0.12085458815E+02 -0.11761446201E+02  0.19049002116E+02  0.00000000000E+00 0.  1.
</event>
<event>
 8    1  0.2390921E-006  0.9118800E+02  0.7816164E-02  0.1184000E+00
        -11   -1    0    0    0    0  0.00000000000E+00  0.00000000000E+00  0.45593999997E+02  0.45594000000E+02  0.51100000000E-03 0.  1.
         11   -1    0    0    0    0 -0.00000000000E+00 -0.00000000000E+00 -0.45593999997E+02  0.45594000000E+02  0.51100000000E-03 0. -1.
         23    2    1    2    0    0  0.35527136788E-14  0.00000000000E+00 -0.17763568394E-14  0.91188000000E+02  0.91188000000E+02 0.  0.
    9900012    2    3    3    0    0  0.20819912840E+02 -0.28285963669E+02 -0.11055035554E+02  0.54367104812E+02  0.40000047041E+02 0.  0.
        -12    1    3    3    0    0 -0.20819912840E+02  0.28285963669E+02  0.11055035554E+02  0.36820895188E+02  0.00000000000E+00 0.  1.
         11    1    4    4    0    0  0.93350374583E+01 -0.27948694790E+00 -0.11982234904E+00  0.93399890234E+01  0.51100000000E-03 0. -1.
        -11    1    4    4    0    0  0.18245909200E+02 -0.18835530086E+02  0.36957945105E+01  0.26483000085E+02  0.51100000000E-03 0.  1.
        -12    1    4    4    0    0 -0.67610338187E+01 -0.91709466350E+01 -0.14631007716E+02  0.18544115704E+02  0.00000000000E+00 0.  1.
</event>
<event>
 8    1  0.2390921E-006  0.9118800E+02  0.7816164E-02  0.1184000E+00
        -11   -1    0    0    0    0  0.00000000000E+00  0.00000000000E+00  0.45593999997E+02  0.45594000000E+02  0.51100000000E-03 0. -1.
         11   -1    0    0    0    0 -0.00000000000E+00 -0.00000000000E+00 -0.45593999997E+02  0.45594000000E+02  0.51100000000E-03 0.  1.
         23    2    1    2    0    0  0.00000000000E+00  0.00000000000E+00 -0.35527136788E-14  0.91188000000E+02  0.91188000000E+02 0.  0.
    9900012    2    3    3    0    0  0.28512243715E+02 -0.17542273308E+02 -0.15332936646E+02  0.54367104564E+02  0.40000046475E+02 0.  0.
         12    1    3    3    0    0 -0.28512243715E+02  0.17542273308E+02  0.15332936646E+02  0.36820895436E+02  0.00000000000E+00 0. -1.
         11    1    4    4    0    0  0.48637543877E+01  0.97543011464E+01 -0.10352588749E+02  0.15032584331E+02  0.51100000000E-03 0.  1.
        -11    1    4    4    0    0  0.46581873969E+01 -0.19566667040E+01  0.39725050955E+01  0.64271339965E+01  0.51100000000E-03 0. -1.
        -12    1    4    4    0    0  0.18990301931E+02 -0.25339907751E+02 -0.89528529929E+01  0.32907386237E+02  0.00000000000E+00 0.  1.
</event>
<event>
 8    1  0.2390921E-006  0.9118800E+02  0.7816164E-02  0.1184000E+00
        -11   -1    0    0    0    0  0.00000000000E+00  0.00000000000E+00  0.45593999997E+02  0.45594000000E+02  0.51100000000E-03 0. -1.
         11   -1    0    0    0    0 -0.00000000000E+00 -0.00000000000E+00 -0.45593999997E+02  0.45594000000E+02  0.51100000000E-03 0.  1.
         23    2    1    2    0    0  0.17763568394E-14  0.35527136788E-14  0.35527136788E-14  0.91188000000E+02  0.91188000000E+02 0.  0.
    9900012    2    3    3    0    0 -0.11249912314E+02 -0.31959371517E+02 -0.14415903822E+02  0.54367078803E+02  0.39999987746E+02 0.  0.
         12    1    3    3    0    0  0.11249912314E+02  0.31959371517E+02  0.14415903822E+02  0.36820921197E+02  0.00000000000E+00 0. -1.
         11    1    4    4    0    0 -0.20428414772E+02 -0.25226973429E+02 -0.21153864242E+01  0.32529912057E+02  0.51100000000E-03 0. -1.
        -11    1    4    4    0    0  0.51718115321E+01 -0.10984908558E+01  0.22359032286E+01  0.57405208990E+01  0.51100000000E-03 0.  1.
        -12    1    4    4    0    0  0.40066909256E+01 -0.56339072318E+01 -0.14536420626E+02  0.16096645846E+02  0.00000000000E+00 0.  1.
</event>
<event>
 8    1  0.2390921E-006  0.9118800E+02  0.7816164E-02  0.1184000E+00
        -11   -1    0    0    0    0  0.00000000000E+00  0.00000000000E+00  0.45593999997E+02  0.45594000000E+02  0.51100000000E-03 0.  1.
         11   -1    0    0    0    0 -0.00000000000E+00 -0.00000000000E+00 -0.45593999997E+02  0.45594000000E+02  0.51100000000E-03 0. -1.
         23    2    1    2    0    0  0.00000000000E+00  0.00000000000E+00  0.00000000000E+00  0.91188000000E+02  0.91188000000E+02 0.  0.
    9900012    2    3    3    0    0  0.80817673018E+01 -0.34027863585E+02 -0.11513891736E+02  0.54367079780E+02  0.39999989975E+02 0.  0.
        -12    1    3    3    0    0 -0.80817673018E+01  0.34027863585E+02  0.11513891736E+02  0.36820920220E+02  0.00000000000E+00 0.  1.
         11    1    4    4    0    0  0.66532553146E+01 -0.18565479188E+02 -0.21478272479E+01  0.19838245535E+02  0.51100000000E-03 0.  1.
        -11    1    4    4    0    0  0.58908810327E+01 -0.23353955654E+02 -0.57066571660E+01  0.24752285961E+02  0.51100000000E-03 0. -1.
        -12    1    4    4    0    0 -0.44623690454E+01  0.78915712569E+01 -0.36594073221E+01  0.97765482840E+01  0.00000000000E+00 0.  1.
</event>
<event>
 8    1  0.2390921E-006  0.9118800E+02  0.7816164E-02  0.1184000E+00
        -11   -1    0    0    0    0  0.00000000000E+00  0.00000000000E+00  0.45593999997E+02  0.45594000000E+02  0.51100000000E-03 0.  1.
         11   -1    0    0    0    0 -0.00000000000E+00 -0.00000000000E+00 -0.45593999997E+02  0.45594000000E+02  0.51100000000E-03 0. -1.
         23    2    1    2    0    0  0.00000000000E+00  0.00000000000E+00 -0.88817841970E-15  0.91188000000E+02  0.91188000000E+02 0.  0.
    9900012    2    3    3    0    0  0.16269399069E+02 -0.32355317269E+02  0.66498534519E+01  0.54367075887E+02  0.39999981099E+02 0.  0.
         12    1    3    3    0    0 -0.16269399069E+02  0.32355317269E+02 -0.66498534519E+01  0.36820924113E+02  0.00000000000E+00 0. -1.
         11    1    4    4    0    0  0.27215226426E+01 -0.15978101458E+02 -0.11826655951E+02  0.20064301706E+02  0.51100000000E-03 0.  1.
        -11    1    4    4    0    0  0.32873609461E+01  0.79018417812E+00 -0.33077581832E+01  0.47299468797E+01  0.51100000000E-03 0. -1.
        -12    1    4    4    0    0  0.10260515481E+02 -0.17167399989E+02  0.21784267586E+02  0.29572827301E+02  0.00000000000E+00 0.  1.
</event>
<event>
 8    1  0.2390921E-006  0.9118800E+02  0.7816164E-02  0.1184000E+00
        -11   -1    0    0    0    0  0.00000000000E+00  0.00000000000E+00  0.45593999997E+02  0.45594000000E+02  0.51100000000E-03 0.  1.
         11   -1    0    0    0    0 -0.00000000000E+00 -0.00000000000E+00 -0.45593999997E+02  0.45594000000E+02  0.51100000000E-03 0. -1.
         23    2    1    2    0    0 -0.22204460493E-15  0.35527136788E-14  0.00000000000E+00  0.91188000000E+02  0.91188000000E+02 0.  0.
    9900012    2    3    3    0    0 -0.12309915994E+01 -0.31163022581E+02 -0.19573753519E+02  0.54367066504E+02  0.39999959708E+02 0.  0.
        -12    1    3    3    0    0  0.12309915994E+01  0.31163022581E+02  0.19573753519E+02  0.36820933496E+02  0.00000000000E+00 0.  1.
         11    1    4    4    0    0  0.15852911236E+00 -0.31320701967E+02 -0.15641859669E+02  0.35009702617E+02  0.51100000000E-03 0. -1.
        -11    1    4    4    0    0 -0.82915094759E+01  0.11095717638E+01  0.35910935080E+01  0.91036383788E+01  0.51100000000E-03 0.  1.
         12    1    4    4    0    0  0.69019887641E+01 -0.95189237850E+00 -0.75229873580E+01  0.10253725508E+02  0.00000000000E+00 0. -1.
</event>
<event>
 8    1  0.2390921E-006  0.9118800E+02  0.7816164E-02  0.1184000E+00
        -11   -1    0    0    0    0  0.00000000000E+00  0.00000000000E+00  0.45593999997E+02  0.45594000000E+02  0.51100000000E-03 0. -1.
         11   -1    0    0    0    0 -0.00000000000E+00 -0.00000000000E+00 -0.45593999997E+02  0.45594000000E+02  0.51100000000E-03 0.  1.
         23    2    1    2    0    0  0.00000000000E+00 -0.35527136788E-14  0.00000000000E+00  0.91188000000E+02  0.91188000000E+02 0.  0.
    9900012    2    3    3    0    0 -0.63547177556E+01  0.30940872608E+02 -0.18922429751E+02  0.54367103987E+02  0.40000045159E+02 0.  0.
         12    1    3    3    0    0  0.63547177556E+01 -0.30940872608E+02  0.18922429751E+02  0.36820896013E+02  0.00000000000E+00 0. -1.
         11    1    4    4    0    0  0.20056095459E+01  0.31498685262E+02 -0.15613103812E+00  0.31562858236E+02  0.51100000000E-03 0.  1.
        -11    1    4    4    0    0 -0.19099098241E+01  0.43832694000E+01 -0.79311892709E+01  0.92609162442E+01  0.51100000000E-03 0. -1.
         12    1    4    4    0    0 -0.64504174773E+01 -0.49410820539E+01 -0.10835109442E+02  0.13543329506E+02  0.00000000000E+00 0. -1.
</event>
<event>
 8    1  0.2390921E-006  0.9118800E+02  0.7816164E-02  0.1184000E+00
        -11   -1    0    0    0    0  0.00000000000E+00  0.00000000000E+00  0.45593999997E+02  0.45594000000E+02  0.51100000000E-03 0.  1.
         11   -1    0    0    0    0 -0.00000000000E+00 -0.00000000000E+00 -0.45593999997E+02  0.45594000000E+02  0.51100000000E-03 0. -1.
         23    2    1    2    0    0  0.00000000000E+00  0.44408920985E-15  0.00000000000E+00  0.91188000000E+02  0.91188000000E+02 0.  0.
    9900012    2    3    3    0    0 -0.36249901319E+02 -0.34650980945E+01 -0.54513350869E+01  0.54367091474E+02  0.40000016634E+02 0.  0.
         12    1    3    3    0    0  0.36249901319E+02  0.34650980945E+01  0.54513350869E+01  0.36820908526E+02  0.00000000000E+00 0. -1.
         11    1    4    4    0    0 -0.15304663398E+02  0.85354923524E+01  0.53356092830E+00  0.17532028945E+02  0.51100000000E-03 0. -1.
        -11    1    4    4    0    0  0.28847247989E+01 -0.11113123454E+01  0.69569701134E+01  0.76128894458E+01  0.51100000000E-03 0.  1.
        -12    1    4    4    0    0 -0.23829962720E+02 -0.10889278102E+02 -0.12941866129E+02  0.29222173083E+02  0.00000000000E+00 0.  1.
</event>
<event>
 8    1  0.2390921E-006  0.9118800E+02  0.7816164E-02  0.1184000E+00
        -11   -1    0    0    0    0  0.00000000000E+00  0.00000000000E+00  0.45593999997E+02  0.45594000000E+02  0.51100000000E-03 0.  1.
         11   -1    0    0    0    0 -0.00000000000E+00 -0.00000000000E+00 -0.45593999997E+02  0.45594000000E+02  0.51100000000E-03 0. -1.
         23    2    1    2    0    0 -0.35527136788E-14 -0.35527136788E-14 -0.35527136788E-14  0.91188000000E+02  0.91188000000E+02 0.  0.
    9900012    2    3    3    0    0 -0.22431349669E+02 -0.18956586260E+02 -0.22209659609E+02  0.54366992538E+02  0.39999791088E+02 0.  0.
        -12    1    3    3    0    0  0.22431349669E+02  0.18956586260E+02  0.22209659609E+02  0.36821007462E+02  0.00000000000E+00 0.  1.
         11    1    4    4    0    0  0.36925046238E+01  0.30873706345E+01  0.76450148347E+00  0.48734905982E+01  0.51100000000E-03 0. -1.
        -11    1    4    4    0    0 -0.64228506220E+01  0.34007446349E+01  0.32692439377E+01  0.79690670953E+01  0.51100000000E-03 0.  1.
         12    1    4    4    0    0 -0.19701003670E+02 -0.25444701529E+02 -0.26243405031E+02  0.41524434844E+02  0.00000000000E+00 0. -1.
</event>
<event>
 8    1  0.2390921E-006  0.9118800E+02  0.7816164E-02  0.1184000E+00
        -11   -1    0    0    0    0  0.00000000000E+00  0.00000000000E+00  0.45593999997E+02  0.45594000000E+02  0.51100000000E-03 0.  1.
         11   -1    0    0    0    0 -0.00000000000E+00 -0.00000000000E+00 -0.45593999997E+02  0.45594000000E+02  0.51100000000E-03 0. -1.
         23    2    1    2    0    0  0.88817841970E-15  0.00000000000E+00 -0.71054273576E-14  0.91188000000E+02  0.91188000000E+02 0.  0.
    9900012    2    3    3    0    0  0.76799134934E+01 -0.13099028245E+02  0.33544212729E+02  0.54367084478E+02  0.40000000686E+02 0.  0.
         12    1    3    3    0    0 -0.76799134934E+01  0.13099028245E+02 -0.33544212729E+02  0.36820915522E+02  0.00000000000E+00 0. -1.
         11    1    4    4    0    0  0.89581827464E+00 -0.14359506748E+01  0.11499406808E+01  0.20461692383E+01  0.51100000000E-03 0. -1.
        -11    1    4    4    0    0 -0.15131829134E+02 -0.10202287201E+02  0.20102670513E+02  0.27150990389E+02  0.51100000000E-03 0.  1.
        -12    1    4    4    0    0  0.21915924353E+02 -0.14607903695E+01  0.12291601535E+02  0.25169924851E+02  0.00000000000E+00 0.  1.
</event>
<event>
 8    1  0.2390921E-006  0.9118800E+02  0.7816164E-02  0.1184000E+00
        -11   -1    0    0    0    0  0.00000000000E+00  0.00000000000E+00  0.45593999997E+02  0.45594000000E+02  0.51100000000E-03 0. -1.
         11   -1    0    0    0    0 -0.00000000000E+00 -0.00000000000E+00 -0.45593999997E+02  0.45594000000E+02  0.51100000000E-03 0.  1.
         23    2    1    2    0    0  0.53290705182E-14  0.00000000000E+00  0.00000000000E+00  0.91188000000E+02  0.91188000000E+02 0.  0.
    9900012    2    3    3    0    0  0.25281657827E+01  0.17400661978E+02  0.32351294018E+02  0.54367070026E+02  0.39999967739E+02 0.  0.
        -12    1    3    3    0    0 -0.25281657827E+01 -0.17400661978E+02 -0.32351294018E+02  0.36820929974E+02  0.00000000000E+00 0.  1.
         11    1    4    4    0    0  0.11993429456E+02 -0.40741706729E+00  0.10353801781E+02  0.15849591489E+02  0.51100000000E-03 0. -1.
        -11    1    4    4    0    0 -0.13602594337E+02  0.16486122521E+02  0.63771312267E+01  0.22304497560E+02  0.51100000000E-03 0.  1.
        -12    1    4    4    0    0  0.41373306634E+01  0.13219565235E+01  0.15620361010E+02  0.16212980977E+02  0.00000000000E+00 0.  1.
</event>
<event>
 8    1  0.2390921E-006  0.9118800E+02  0.7816164E-02  0.1184000E+00
        -11   -1    0    0    0    0  0.00000000000E+00  0.00000000000E+00  0.45593999997E+02  0.45594000000E+02  0.51100000000E-03 0. -1.
         11   -1    0    0    0    0 -0.00000000000E+00 -0.00000000000E+00 -0.45593999997E+02  0.45594000000E+02  0.51100000000E-03 0.  1.
         23    2    1    2    0    0 -0.17763568394E-14  0.00000000000E+00  0.00000000000E+00  0.91188000000E+02  0.91188000000E+02 0.  0.
    9900012    2    3    3    0    0 -0.93508528705E+01 -0.83417269603E+01  0.34623067238E+02  0.54367086879E+02  0.40000006157E+02 0.  0.
        -12    1    3    3    0    0  0.93508528705E+01  0.83417269603E+01 -0.34623067238E+02  0.36820913121E+02  0.00000000000E+00 0.  1.
         11    1    4    4    0    0  0.81622592677E+01 -0.14373703730E+02  0.26229014027E+02  0.31003016182E+02  0.51100000000E-03 0.  1.
        -11    1    4    4    0    0 -0.62870660421E+01 -0.22363860741E+01 -0.71289539878E+00  0.67109494262E+01  0.51100000000E-03 0. -1.
         12    1    4    4    0    0 -0.11226046096E+02  0.82683628439E+01  0.91069486105E+01  0.16653121271E+02  0.00000000000E+00 0. -1.
</event>
<event>
 8    1  0.2390921E-006  0.9118800E+02  0.7816164E-02  0.1184000E+00
        -11   -1    0    0    0    0  0.00000000000E+00  0.00000000000E+00  0.45593999997E+02  0.45594000000E+02  0.51100000000E-03 0.  1.
         11   -1    0    0    0    0 -0.00000000000E+00 -0.00000000000E+00 -0.45593999997E+02  0.45594000000E+02  0.51100000000E-03 0. -1.
         23    2    1    2    0    0  0.00000000000E+00 -0.55511151231E-15  0.00000000000E+00  0.91188000000E+02  0.91188000000E+02 0.  0.
    9900012    2    3    3    0    0  0.99773244842E+01 -0.74970043925E+00  0.35435421388E+02  0.54367107241E+02  0.40000052578E+02 0.  0.
         12    1    3    3    0    0 -0.99773244842E+01  0.74970043925E+00 -0.35435421388E+02  0.36820892759E+02  0.00000000000E+00 0. -1.
         11    1    4    4    0    0  0.26390939673E+01  0.17701019813E+02  0.17509593274E+02  0.25037507389E+02  0.51100000000E-03 0. -1.
        -11    1    4    4    0    0  0.10849615940E+01  0.17543317331E+01  0.15287867217E+01  0.25674911085E+01  0.51100000000E-03 0.  1.
         12    1    4    4    0    0  0.62532689229E+01 -0.20205051986E+02  0.16397041393E+02  0.26762108743E+02  0.00000000000E+00 0. -1.
</event>
<event>
 8    1  0.2390921E-006  0.9118800E+02  0.7816164E-02  0.1184000E+00
        -11   -1    0    0    0    0  0.00000000000E+00  0.00000000000E+00  0.45593999997E+02  0.45594000000E+02  0.51100000000E-03 0. -1.
         11   -1    0    0    0    0 -0.00000000000E+00 -0.00000000000E+00 -0.45593999997E+02  0.45594000000E+02  0.51100000000E-03 0.  1.
         23    2    1    2    0    0  0.00000000000E+00  0.88817841970E-15  0.00000000000E+00  0.91188000000E+02  0.91188000000E+02 0.  0.
    9900012    2    3    3    0    0  0.35586761690E+02 -0.16778461011E+01  0.93030841002E+01  0.54367080010E+02  0.39999990498E+02 0.  0.
        -12    1    3    3    0    0 -0.35586761690E+02  0.16778461011E+01 -0.93030841002E+01  0.36820919990E+02  0.00000000000E+00 0.  1.
         11    1    4    4    0    0  0.11151950988E+02  0.12771681069E+01 -0.20003722609E+00  0.11226628362E+02  0.51100000000E-03 0.  1.
        -11    1    4    4    0    0  0.31776638488E+02  0.24432945298E+01  0.31375794857E+01  0.32024503853E+02  0.51100000000E-03 0. -1.
        -12    1    4    4    0    0 -0.73418277856E+01 -0.53983087377E+01  0.63655418405E+01  0.11115947795E+02  0.00000000000E+00 0.  1.
</event>
<event>
 8    1  0.2390921E-006  0.9118800E+02  0.7816164E-02  0.1184000E+00
        -11   -1    0    0    0    0  0.00000000000E+00  0.00000000000E+00  0.45593999997E+02  0.45594000000E+02  0.51100000000E-03 0.  1.
         11   -1    0    0    0    0 -0.00000000000E+00 -0.00000000000E+00 -0.45593999997E+02  0.45594000000E+02  0.51100000000E-03 0. -1.
         23    2    1    2    0    0  0.17763568394E-14  0.00000000000E+00  0.00000000000E+00  0.91188000000E+02  0.91188000000E+02 0.  0.
    9900012    2    3    3    0    0  0.75581853448E+01  0.29024755090E+02  0.21359234821E+02  0.54367089014E+02  0.40000011024E+02 0.  0.
         12    1    3    3    0    0 -0.75581853448E+01 -0.29024755090E+02 -0.21359234821E+02  0.36820910986E+02  0.00000000000E+00 0. -1.
         11    1    4    4    0    0  0.98666714214E+01  0.34353285996E+02  0.90923814505E+01  0.36880494362E+02  0.51100000000E-03 0. -1.
        -11    1    4    4    0    0 -0.59238178679E+01 -0.10414352500E+00  0.74219727933E+01  0.94967438847E+01  0.51100000000E-03 0.  1.
         12    1    4    4    0    0  0.36153317913E+01 -0.52243873814E+01  0.48448805772E+01  0.79898507671E+01  0.00000000000E+00 0. -1.
</event>
<event>
 8    1  0.2390921E-006  0.9118800E+02  0.7816164E-02  0.1184000E+00
        -11   -1    0    0    0    0  0.00000000000E+00  0.00000000000E+00  0.45593999997E+02  0.45594000000E+02  0.51100000000E-03 0.  1.
         11   -1    0    0    0    0 -0.00000000000E+00 -0.00000000000E+00 -0.45593999997E+02  0.45594000000E+02  0.51100000000E-03 0. -1.
         23    2    1    2    0    0  0.00000000000E+00  0.00000000000E+00  0.00000000000E+00  0.91188000000E+02  0.91188000000E+02 0.  0.
    9900012    2    3    3    0    0 -0.21135248509E+02  0.23131721775E+02 -0.19339228125E+02  0.54367068096E+02  0.39999963339E+02 0.  0.
        -12    1    3    3    0    0  0.21135248509E+02 -0.23131721775E+02  0.19339228125E+02  0.36820931904E+02  0.00000000000E+00 0.  1.
         11    1    4    4    0    0 -0.14320049897E+02  0.68565046755E+01 -0.20728484827E+02  0.26110257925E+02  0.51100000000E-03 0. -1.
        -11    1    4    4    0    0 -0.79551936995E+01  0.16825379760E+02  0.89073021259E+01  0.20632947978E+02  0.51100000000E-03 0.  1.
         12    1    4    4    0    0  0.11399950878E+01 -0.55016266020E+00 -0.75180454238E+01  0.76238621936E+01  0.00000000000E+00 0. -1.
</event>
<event>
 8    1  0.2390921E-006  0.9118800E+02  0.7816164E-02  0.1184000E+00
        -11   -1    0    0    0    0  0.00000000000E+00  0.00000000000E+00  0.45593999997E+02  0.45594000000E+02  0.51100000000E-03 0.  1.
         11   -1    0    0    0    0 -0.00000000000E+00 -0.00000000000E+00 -0.45593999997E+02  0.45594000000E+02  0.51100000000E-03 0. -1.
         23    2    1    2    0    0 -0.17763568394E-14 -0.71054273576E-14 -0.35527136788E-14  0.91188000000E+02  0.91188000000E+02 0.  0.
    9900012    2    3    3    0    0 -0.13099218097E+02 -0.27459606870E+02 -0.20740295994E+02  0.54367090151E+02  0.40000013616E+02 0.  0.
        -12    1    3    3    0    0  0.13099218097E+02  0.27459606870E+02  0.20740295994E+02  0.36820909849E+02  0.00000000000E+00 0.  1.
         11    1    4    4    0    0  0.25756037263E+01  0.65336088863E+01 -0.91651742448E+01  0.11546523236E+02  0.51100000000E-03 0. -1.
        -11    1    4    4    0    0 -0.60030738883E+01 -0.17396543158E+00 -0.98441209693E+00  0.60857396853E+01  0.51100000000E-03 0.  1.
        -12    1    4    4    0    0 -0.96717479348E+01 -0.33819250325E+02 -0.10590709653E+02  0.36734827230E+02  0.00000000000E+00 0.  1.
</event>
<event>
 8    1  0.2390921E-006  0.9118800E+02  0.7816164E-02  0.1184000E+00
        -11   -1    0    0    0    0  0.00000000000E+00  0.00000000000E+00  0.45593999997E+02  0.45594000000E+02  0.51100000000E-03 0.  1.
         11   -1    0    0    0    0 -0.00000000000E+00 -0.00000000000E+00 -0.45593999997E+02  0.45594000000E+02  0.51100000000E-03 0. -1.
         23    2    1    2    0    0  0.00000000000E+00 -0.16098233857E-14 -0.22204460493E-15  0.91188000000E+02  0.91188000000E+02 0.  0.
    9900012    2    3    3    0    0  0.36806913105E+02 -0.33504988417E+00  0.96692139310E+00  0.54366864117E+02  0.39999498325E+02 0.  0.
        -12    1    3    3    0    0 -0.36806913105E+02  0.33504988417E+00 -0.96692139310E+00  0.36821135883E+02  0.00000000000E+00 0.  1.
         11    1    4    4    0    0  0.70477503553E+01 -0.12704052145E+02 -0.21990997366E+00  0.14529696715E+02  0.51100000000E-03 0. -1.
        -11    1    4    4    0    0  0.47910504532E+01 -0.66250950582E+01 -0.16385345221E+01  0.83385157322E+01  0.51100000000E-03 0.  1.
         12    1    4    4    0    0  0.24968112296E+02  0.18994097319E+02  0.28253658888E+01  0.31498651670E+02  0.00000000000E+00 0. -1.
</event>
<event>
 8    1  0.2390921E-006  0.9118800E+02  0.7816164E-02  0.1184000E+00
        -11   -1    0    0    0    0  0.00000000000E+00  0.00000000000E+00  0.45593999997E+02  0.45594000000E+02  0.51100000000E-03 0. -1.
         11   -1    0    0    0    0 -0.00000000000E+00 -0.00000000000E+00 -0.45593999997E+02  0.45594000000E+02  0.51100000000E-03 0.  1.
         23    2    1    2    0    0  0.35527136788E-14  0.00000000000E+00  0.00000000000E+00  0.91188000000E+02  0.91188000000E+02 0.  0.
    9900012    2    3    3    0    0  0.18166010780E+02 -0.89133910883E+01 -0.30762430809E+02  0.54367086953E+02  0.40000006327E+02 0.  0.
         12    1    3    3    0    0 -0.18166010780E+02  0.89133910883E+01  0.30762430809E+02  0.36820913047E+02  0.00000000000E+00 0. -1.
         11    1    4    4    0    0  0.17278277104E+02 -0.63814449894E+01 -0.23154512097E+01  0.18564024736E+02  0.51100000000E-03 0. -1.
        -11    1    4    4    0    0 -0.17414253683E+01 -0.10653536753E+02 -0.23682922505E+02  0.26027124818E+02  0.51100000000E-03 0.  1.
        -12    1    4    4    0    0  0.26291590435E+01  0.81215906538E+01 -0.47640570938E+01  0.97759373984E+01  0.00000000000E+00 0.  1.
</event>
<event>
 8    1  0.2390921E-006  0.9118800E+02  0.7816164E-02  0.1184000E+00
        -11   -1    0    0    0    0  0.00000000000E+00  0.00000000000E+00  0.45593999997E+02  0.45594000000E+02  0.51100000000E-03 0.  1.
         11   -1    0    0    0    0 -0.00000000000E+00 -0.00000000000E+00 -0.45593999997E+02  0.45594000000E+02  0.51100000000E-03 0. -1.
         23    2    1    2    0    0  0.26645352591E-14  0.35527136788E-14  0.35527136788E-14  0.91188000000E+02  0.91188000000E+02 0.  0.
    9900012    2    3    3    0    0  0.77511359223E+01  0.26609530827E+02  0.24241128591E+02  0.54367088084E+02  0.40000008906E+02 0.  0.
         12    1    3    3    0    0 -0.77511359223E+01 -0.26609530827E+02 -0.24241128591E+02  0.36820911916E+02  0.00000000000E+00 0. -1.
         11    1    4    4    0    0  0.78032732823E+01  0.13633872928E+02 -0.48793850022E+01  0.16449375770E+02  0.51100000000E-03 0. -1.
        -11    1    4    4    0    0 -0.29297591472E+01 -0.48867378084E+01  0.40071307551E+01  0.69656867730E+01  0.51100000000E-03 0.  1.
        -12    1    4    4    0    0  0.28776217871E+01  0.17862395707E+02  0.25113382838E+02  0.30952025542E+02  0.00000000000E+00 0.  1.
</event>
<event>
 8    1  0.2390921E-006  0.9118800E+02  0.7816164E-02  0.1184000E+00
        -11   -1    0    0    0    0  0.00000000000E+00  0.00000000000E+00  0.45593999997E+02  0.45594000000E+02  0.51100000000E-03 0.  1.
         11   -1    0    0    0    0 -0.00000000000E+00 -0.00000000000E+00 -0.45593999997E+02  0.45594000000E+02  0.51100000000E-03 0. -1.
         23    2    1    2    0    0  0.00000000000E+00 -0.17763568394E-14 -0.14210854715E-13  0.91188000000E+02  0.91188000000E+02 0.  0.
    9900012    2    3    3    0    0 -0.97222572848E+01  0.10704806342E+02 -0.33862404085E+02  0.54367114949E+02  0.40000070149E+02 0.  0.
        -12    1    3    3    0    0  0.97222572848E+01 -0.10704806342E+02  0.33862404085E+02  0.36820885051E+02  0.00000000000E+00 0.  1.
         11    1    4    4    0    0 -0.44604518851E+01 -0.43497257749E+01 -0.82425551353E+01  0.10332253421E+02  0.51100000000E-03 0. -1.
        -11    1    4    4    0    0  0.94988127807E+00 -0.15644211662E+01  0.68194505392E+01  0.70607785651E+01  0.51100000000E-03 0.  1.
        -12    1    4    4    0    0 -0.62116866778E+01  0.16618953284E+02 -0.32439299489E+02  0.36974082963E+02  0.00000000000E+00 0.  1.
</event>
<event>
 8    1  0.2390921E-006  0.9118800E+02  0.7816164E-02  0.1184000E+00
        -11   -1    0    0    0    0  0.00000000000E+00  0.00000000000E+00  0.45593999997E+02  0.45594000000E+02  0.51100000000E-03 0.  1.
         11   -1    0    0    0    0 -0.00000000000E+00 -0.00000000000E+00 -0.45593999997E+02  0.45594000000E+02  0.51100000000E-03 0. -1.
         23    2    1    2    0    0  0.00000000000E+00  0.15543122345E-14  0.00000000000E+00  0.91188000000E+02  0.91188000000E+02 0.  0.
    9900012    2    3    3    0    0 -0.33187229780E+02  0.48888311811E+00  0.15942051299E+02  0.54367078952E+02  0.39999988088E+02 0.  0.
         12    1    3    3    0    0  0.33187229780E+02 -0.48888311811E+00 -0.15942051299E+02  0.36820921048E+02  0.00000000000E+00 0. -1.
         11    1    4    4    0    0 -0.83412129905E+01  0.11072261605E+02 -0.79606651116E+01  0.15985712386E+02  0.51100000000E-03 0. -1.
        -11    1    4    4    0    0 -0.11983854889E+01  0.25979717909E+01  0.32508979797E+01  0.43305800006E+01  0.51100000000E-03 0.  1.
        -12    1    4    4    0    0 -0.23647631301E+02 -0.13181350278E+02  0.20651818430E+02  0.34050786566E+02  0.00000000000E+00 0.  1.
</event>
<event>
 8    1  0.2390921E-006  0.9118800E+02  0.7816164E-02  0.1184000E+00
        -11   -1    0    0    0    0  0.00000000000E+00  0.00000000000E+00  0.45593999997E+02  0.45594000000E+02  0.51100000000E-03 0. -1.
         11   -1    0    0    0    0 -0.00000000000E+00 -0.00000000000E+00 -0.45593999997E+02  0.45594000000E+02  0.51100000000E-03 0.  1.
         23    2    1    2    0    0  0.00000000000E+00  0.17763568394E-14 -0.20816681712E-16  0.91188000000E+02  0.91188000000E+02 0.  0.
    9900012    2    3    3    0    0 -0.36717223409E+02  0.27612692481E+01 -0.32569865326E-01  0.54367079811E+02  0.39999990045E+02 0.  0.
        -12    1    3    3    0    0  0.36717223409E+02 -0.27612692481E+01  0.32569865326E-01  0.36820920189E+02  0.00000000000E+00 0.  1.
         11    1    4    4    0    0  0.25367666437E+01  0.37442728430E+01 -0.13120418403E+01  0.47091632144E+01  0.51100000000E-03 0. -1.
        -11    1    4    4    0    0 -0.14194828448E+02 -0.15162768668E+02  0.19127066764E+01  0.20858119652E+02  0.51100000000E-03 0.  1.
         12    1    4    4    0    0 -0.25059161605E+02  0.14179765073E+02 -0.63323470142E+00  0.28799796945E+02  0.00000000000E+00 0. -1.
</event>
<event>
 8    1  0.2390921E-006  0.9118800E+02  0.7816164E-02  0.1184000E+00
        -11   -1    0    0    0    0  0.00000000000E+00  0.00000000000E+00  0.45593999997E+02  0.45594000000E+02  0.51100000000E-03 0.  1.
         11   -1    0    0    0    0 -0.00000000000E+00 -0.00000000000E+00 -0.45593999997E+02  0.45594000000E+02  0.51100000000E-03 0. -1.
         23    2    1    2    0    0  0.35527136788E-14  0.17763568394E-14  0.00000000000E+00  0.91188000000E+02  0.91188000000E+02 0.  0.
    9900012    2    3    3    0    0  0.29322420746E+02 -0.15825112322E+02 -0.15669739446E+02  0.54367091908E+02  0.40000017623E+02 0.  0.
        -12    1    3    3    0    0 -0.29322420746E+02  0.15825112322E+02  0.15669739446E+02  0.36820908092E+02  0.00000000000E+00 0.  1.
         11    1    4    4    0    0  0.29785688432E+02 -0.11938092277E+02 -0.22277160311E+02  0.39063757556E+02  0.51100000000E-03 0. -1.
        -11    1    4    4    0    0  0.16337757827E+01 -0.34324434073E+01 -0.33807526935E+01  0.50872762936E+01  0.51100000000E-03 0.  1.
        -12    1    4    4    0    0 -0.20970434691E+01 -0.45457663814E+00  0.99881735585E+01  0.10216058059E+02  0.00000000000E+00 0.  1.
</event>
<event>
 8    1  0.2390921E-006  0.9118800E+02  0.7816164E-02  0.1184000E+00
        -11   -1    0    0    0    0  0.00000000000E+00  0.00000000000E+00  0.45593999997E+02  0.45594000000E+02  0.51100000000E-03 0.  1.
         11   -1    0    0    0    0 -0.00000000000E+00 -0.00000000000E+00 -0.45593999997E+02  0.45594000000E+02  0.51100000000E-03 0. -1.
         23    2    1    2    0    0  0.35527136788E-14  0.00000000000E+00  0.00000000000E+00  0.91188000000E+02  0.91188000000E+02 0.  0.
    9900012    2    3    3    0    0 -0.14843435769E+02  0.19925071897E+02  0.27174319468E+02  0.54367085915E+02  0.40000003960E+02 0.  0.
         12    1    3    3    0    0  0.14843435769E+02 -0.19925071897E+02 -0.27174319468E+02  0.36820914085E+02  0.00000000000E+00 0. -1.
         11    1    4    4    0    0  0.89804435690E+01  0.39451190569E+00  0.16308537374E+02  0.18621825847E+02  0.51100000000E-03 0.  1.
        -11    1    4    4    0    0 -0.21654523090E+02  0.11793755839E+02  0.12344230400E+02  0.27575189418E+02  0.51100000000E-03 0. -1.
         12    1    4    4    0    0 -0.21693562481E+01  0.77368041523E+01 -0.14784483060E+01  0.81700706494E+01  0.00000000000E+00 0. -1.
</event>
<event>
 8    1  0.2390921E-006  0.9118800E+02  0.7816164E-02  0.1184000E+00
        -11   -1    0    0    0    0  0.00000000000E+00  0.00000000000E+00  0.45593999997E+02  0.45594000000E+02  0.51100000000E-03 0. -1.
         11   -1    0    0    0    0 -0.00000000000E+00 -0.00000000000E+00 -0.45593999997E+02  0.45594000000E+02  0.51100000000E-03 0.  1.
         23    2    1    2    0    0  0.00000000000E+00  0.35527136788E-14  0.00000000000E+00  0.91188000000E+02  0.91188000000E+02 0.  0.
    9900012    2    3    3    0    0 -0.83913389071E+01  0.24283737615E+02 -0.26375487216E+02  0.54367071072E+02  0.39999970123E+02 0.  0.
         12    1    3    3    0    0  0.83913389071E+01 -0.24283737615E+02  0.26375487216E+02  0.36820928928E+02  0.00000000000E+00 0. -1.
         11    1    4    4    0    0 -0.11871025359E+02  0.10821993569E+02 -0.20159176832E+02  0.25776524177E+02  0.51100000000E-03 0. -1.
        -11    1    4    4    0    0 -0.44645080154E+01  0.12830576433E+01  0.73559728607E+01  0.86999083745E+01  0.51100000000E-03 0.  1.
        -12    1    4    4    0    0  0.79441944675E+01  0.12178686404E+02 -0.13572283245E+02  0.19890638520E+02  0.00000000000E+00 0.  1.
</event>
<event>
 8    1  0.2390921E-006  0.9118800E+02  0.7816164E-02  0.1184000E+00
        -11   -1    0    0    0    0  0.00000000000E+00  0.00000000000E+00  0.45593999997E+02  0.45594000000E+02  0.51100000000E-03 0.  1.
         11   -1    0    0    0    0 -0.00000000000E+00 -0.00000000000E+00 -0.45593999997E+02  0.45594000000E+02  0.51100000000E-03 0. -1.
         23    2    1    2    0    0  0.88817841970E-15  0.00000000000E+00  0.00000000000E+00  0.91188000000E+02  0.91188000000E+02 0.  0.
    9900012    2    3    3    0    0 -0.30255465488E+01 -0.36248538720E+02  0.57159499524E+01  0.54367047064E+02  0.39999915391E+02 0.  0.
         12    1    3    3    0    0  0.30255465488E+01  0.36248538720E+02 -0.57159499524E+01  0.36820952936E+02  0.00000000000E+00 0. -1.
         11    1    4    4    0    0  0.54771885835E+01 -0.75980485333E+01  0.16151394518E+02  0.18670765422E+02  0.51100000000E-03 0.  1.
        -11    1    4    4    0    0 -0.85747264290E+01 -0.29312614484E+02 -0.58918942353E+01  0.31104175269E+02  0.51100000000E-03 0. -1.
         12    1    4    4    0    0  0.71991296734E-01  0.66212429729E+00 -0.45435503306E+01  0.45921063728E+01  0.00000000000E+00 0. -1.
</event>
<event>
 8    1  0.2390921E-006  0.9118800E+02  0.7816164E-02  0.1184000E+00
        -11   -1    0    0    0    0  0.00000000000E+00  0.00000000000E+00  0.45593999997E+02  0.45594000000E+02  0.51100000000E-03 0.  1.
         11   -1    0    0    0    0 -0.00000000000E+00 -0.00000000000E+00 -0.45593999997E+02  0.45594000000E+02  0.51100000000E-03 0. -1.
         23    2    1    2    0    0  0.88817841970E-15  0.35527136788E-14 -0.71054273576E-14  0.91188000000E+02  0.91188000000E+02 0.  0.
    9900012    2    3    3    0    0  0.74642524802E+01  0.31049126299E+02 -0.18330682684E+02  0.54367119556E+02  0.40000080652E+02 0.  0.
         12    1    3    3    0    0 -0.74642524802E+01 -0.31049126299E+02  0.18330682684E+02  0.36820880444E+02  0.00000000000E+00 0. -1.
         11    1    4    4    0    0  0.44199776052E+01 -0.42501125870E+01 -0.39146148658E+01  0.72748793008E+01  0.51100000000E-03 0. -1.
        -11    1    4    4    0    0  0.11540489612E+02  0.31251097506E+02 -0.16904609008E+02  0.37357459788E+02  0.51100000000E-03 0.  1.
         12    1    4    4    0    0 -0.84962147372E+01  0.40481413796E+01  0.24885411900E+01  0.97347804671E+01  0.00000000000E+00 0. -1.
</event>
<event>
 8    1  0.2390921E-006  0.9118800E+02  0.7816164E-02  0.1184000E+00
        -11   -1    0    0    0    0  0.00000000000E+00  0.00000000000E+00  0.45593999997E+02  0.45594000000E+02  0.51100000000E-03 0.  1.
         11   -1    0    0    0    0 -0.00000000000E+00 -0.00000000000E+00 -0.45593999997E+02  0.45594000000E+02  0.51100000000E-03 0. -1.
         23    2    1    2    0    0 -0.35527136788E-14 -0.35527136788E-14 -0.88817841970E-15  0.91188000000E+02  0.91188000000E+02 0.  0.
    9900012    2    3    3    0    0  0.22845556552E+02  0.27955799913E+02  0.72342072026E+01  0.54367082619E+02  0.39999996447E+02 0.  0.
         12    1    3    3    0    0 -0.22845556552E+02 -0.27955799913E+02 -0.72342072026E+01  0.36820917381E+02  0.00000000000E+00 0. -1.
         11    1    4    4    0    0  0.14768503516E+01  0.63827395576E+01  0.73947469455E+01  0.98794095912E+01  0.51100000000E-03 0. -1.
        -11    1    4    4    0    0 -0.12706099603E+01  0.43857806206E+01  0.12547064578E+02  0.13352091638E+02  0.51100000000E-03 0.  1.
         12    1    4    4    0    0  0.22639316160E+02  0.17187279735E+02 -0.12707604321E+02  0.31135581390E+02  0.00000000000E+00 0. -1.
</event>
<event>
 8    1  0.2390921E-006  0.9118800E+02  0.7816164E-02  0.1184000E+00
        -11   -1    0    0    0    0  0.00000000000E+00  0.00000000000E+00  0.45593999997E+02  0.45594000000E+02  0.51100000000E-03 0.  1.
         11   -1    0    0    0    0 -0.00000000000E+00 -0.00000000000E+00 -0.45593999997E+02  0.45594000000E+02  0.51100000000E-03 0. -1.
         23    2    1    2    0    0 -0.17763568394E-14  0.00000000000E+00  0.00000000000E+00  0.91188000000E+02  0.91188000000E+02 0.  0.
    9900012    2    3    3    0    0  0.10186065324E+02  0.27531753391E+02  0.22226824022E+02  0.54367013081E+02  0.39999837920E+02 0.  0.
         12    1    3    3    0    0 -0.10186065324E+02 -0.27531753391E+02 -0.22226824022E+02  0.36820986919E+02  0.00000000000E+00 0. -1.
         11    1    4    4    0    0 -0.30850195909E+01  0.50868262275E+01 -0.38843732322E+01  0.71050336109E+01  0.51100000000E-03 0. -1.
        -11    1    4    4    0    0  0.22210999590E+02  0.11200916046E+02  0.14514764243E+02  0.28800475766E+02  0.51100000000E-03 0.  1.
        -12    1    4    4    0    0 -0.89399146751E+01  0.11244011118E+02  0.11596433012E+02  0.18461503704E+02  0.00000000000E+00 0.  1.
</event>
<event>
 8    1  0.2390921E-006  0.9118800E+02  0.7816164E-02  0.1184000E+00
        -11   -1    0    0    0    0  0.00000000000E+00  0.00000000000E+00  0.45593999997E+02  0.45594000000E+02  0.51100000000E-03 0.  1.
         11   -1    0    0    0    0 -0.00000000000E+00 -0.00000000000E+00 -0.45593999997E+02  0.45594000000E+02  0.51100000000E-03 0. -1.
         23    2    1    2    0    0  0.00000000000E+00  0.00000000000E+00  0.35527136788E-14  0.91188000000E+02  0.91188000000E+02 0.  0.
    9900012    2    3    3    0    0 -0.39469243824E+01 -0.27161891547E+02  0.24544521038E+02  0.54367080979E+02  0.39999992709E+02 0.  0.
         12    1    3    3    0    0  0.39469243824E+01  0.27161891547E+02 -0.24544521038E+02  0.36820919021E+02  0.00000000000E+00 0. -1.
         11    1    4    4    0    0 -0.13296161889E+02 -0.69843626938E+01  0.17222646488E+02  0.22851450622E+02  0.51100000000E-03 0. -1.
        -11    1    4    4    0    0  0.13980130728E+02 -0.89479924111E+01  0.95739402556E+01  0.19161705447E+02  0.51100000000E-03 0.  1.
         12    1    4    4    0    0 -0.46308932216E+01 -0.11229536443E+02 -0.22520657055E+01  0.12353924910E+02  0.00000000000E+00 0. -1.
</event>
<event>
 8    1  0.2390921E-006  0.9118800E+02  0.7816164E-02  0.1184000E+00
        -11   -1    0    0    0    0  0.00000000000E+00  0.00000000000E+00  0.45593999997E+02  0.45594000000E+02  0.51100000000E-03 0.  1.
         11   -1    0    0    0    0 -0.00000000000E+00 -0.00000000000E+00 -0.45593999997E+02  0.45594000000E+02  0.51100000000E-03 0. -1.
         23    2    1    2    0    0  0.35527136788E-14  0.17763568394E-14 -0.71054273576E-14  0.91188000000E+02  0.91188000000E+02 0.  0.
    9900012    2    3    3    0    0  0.17446243068E+02  0.35960244246E+01 -0.32225401262E+02  0.54367091872E+02  0.40000017540E+02 0.  0.
        -12    1    3    3    0    0 -0.17446243068E+02 -0.35960244246E+01  0.32225401262E+02  0.36820908128E+02  0.00000000000E+00 0.  1.
         11    1    4    4    0    0  0.10224462830E+02  0.12181946260E+02 -0.25639207520E+02  0.30171317792E+02  0.51100000000E-03 0. -1.
        -11    1    4    4    0    0  0.13716366288E+02 -0.70770521278E+01 -0.94743374220E+00  0.15463537820E+02  0.51100000000E-03 0.  1.
         12    1    4    4    0    0 -0.64945860494E+01 -0.15088697072E+01 -0.56387600005E+01  0.87322362594E+01  0.00000000000E+00 0. -1.
</event>
<event>
 8    1  0.2390921E-006  0.9118800E+02  0.7816164E-02  0.1184000E+00
        -11   -1    0    0    0    0  0.00000000000E+00  0.00000000000E+00  0.45593999997E+02  0.45594000000E+02  0.51100000000E-03 0. -1.
         11   -1    0    0    0    0 -0.00000000000E+00 -0.00000000000E+00 -0.45593999997E+02  0.45594000000E+02  0.51100000000E-03 0.  1.
         23    2    1    2    0    0 -0.15543122345E-14  0.00000000000E+00  0.00000000000E+00  0.91188000000E+02  0.91188000000E+02 0.  0.
    9900012    2    3    3    0    0  0.13929681946E+01 -0.76324551716E+01  0.35994237872E+02  0.54367083494E+02  0.39999998442E+02 0.  0.
        -12    1    3    3    0    0 -0.13929681946E+01  0.76324551716E+01 -0.35994237872E+02  0.36820916506E+02  0.00000000000E+00 0.  1.
         11    1    4    4    0    0  0.82580322801E+01 -0.12684489922E+02  0.30326908369E+02  0.33894140397E+02  0.51100000000E-03 0. -1.
        -11    1    4    4    0    0 -0.12084038797E+02  0.68952550811E+00  0.84170025922E+00  0.12132926220E+02  0.51100000000E-03 0.  1.
        -12    1    4    4    0    0  0.52189747113E+01  0.43625092424E+01  0.48256292434E+01  0.83400168778E+01  0.00000000000E+00 0.  1.
</event>
<event>
 8    1  0.2390921E-006  0.9118800E+02  0.7816164E-02  0.1184000E+00
        -11   -1    0    0    0    0  0.00000000000E+00  0.00000000000E+00  0.45593999997E+02  0.45594000000E+02  0.51100000000E-03 0.  1.
         11   -1    0    0    0    0 -0.00000000000E+00 -0.00000000000E+00 -0.45593999997E+02  0.45594000000E+02  0.51100000000E-03 0. -1.
         23    2    1    2    0    0  0.35527136788E-14  0.88817841970E-15  0.35527136788E-14  0.91188000000E+02  0.91188000000E+02 0.  0.
    9900012    2    3    3    0    0  0.26216793892E+02 -0.44395549842E+01  0.25470580914E+02  0.54367076294E+02  0.39999982028E+02 0.  0.
         12    1    3    3    0    0 -0.26216793892E+02  0.44395549842E+01 -0.25470580914E+02  0.36820923706E+02  0.00000000000E+00 0. -1.
         11    1    4    4    0    0  0.77142959999E+01  0.20396600888E+01  0.74937387718E+01  0.10946538133E+02  0.51100000000E-03 0. -1.
        -11    1    4    4    0    0  0.28732228664E+02 -0.42923054648E+01  0.13695130852E+02  0.32117307788E+02  0.51100000000E-03 0.  1.
         12    1    4    4    0    0 -0.10229730772E+02 -0.21869096082E+01  0.42817112908E+01  0.11303230374E+02  0.00000000000E+00 0. -1.
</event>
<event>
 8    1  0.2390921E-006  0.9118800E+02  0.7816164E-02  0.1184000E+00
        -11   -1    0    0    0    0  0.00000000000E+00  0.00000000000E+00  0.45593999997E+02  0.45594000000E+02  0.51100000000E-03 0.  1.
         11   -1    0    0    0    0 -0.00000000000E+00 -0.00000000000E+00 -0.45593999997E+02  0.45594000000E+02  0.51100000000E-03 0. -1.
         23    2    1    2    0    0  0.66613381478E-15  0.00000000000E+00 -0.17763568394E-14  0.91188000000E+02  0.91188000000E+02 0.  0.
    9900012    2    3    3    0    0 -0.10413637754E+01 -0.34640635395E+02  0.12438804628E+02  0.54367055964E+02  0.39999935682E+02 0.  0.
        -12    1    3    3    0    0  0.10413637754E+01  0.34640635395E+02 -0.12438804628E+02  0.36820944036E+02  0.00000000000E+00 0.  1.
         11    1    4    4    0    0  0.95984701479E+01 -0.18363026744E+02 -0.19912633573E+01  0.20815775518E+02  0.51100000000E-03 0. -1.
        -11    1    4    4    0    0  0.32958832850E+01 -0.38276660705E+01  0.13973773865E+02  0.14858675259E+02  0.51100000000E-03 0.  1.
        -12    1    4    4    0    0 -0.13935717208E+02 -0.12449942581E+02  0.45629412078E+00  0.18692605187E+02  0.00000000000E+00 0.  1.
</event>
<event>
 8    1  0.2390921E-006  0.9118800E+02  0.7816164E-02  0.1184000E+00
        -11   -1    0    0    0    0  0.00000000000E+00  0.00000000000E+00  0.45593999997E+02  0.45594000000E+02  0.51100000000E-03 0.  1.
         11   -1    0    0    0    0 -0.00000000000E+00 -0.00000000000E+00 -0.45593999997E+02  0.45594000000E+02  0.51100000000E-03 0. -1.
         23    2    1    2    0    0  0.00000000000E+00  0.00000000000E+00  0.35527136788E-14  0.91188000000E+02  0.91188000000E+02 0.  0.
    9900012    2    3    3    0    0  0.78207616292E+01 -0.32636608649E+02  0.15148163287E+02  0.54367090349E+02  0.40000014069E+02 0.  0.
        -12    1    3    3    0    0 -0.78207616292E+01  0.32636608649E+02 -0.15148163287E+02  0.36820909651E+02  0.00000000000E+00 0.  1.
         11    1    4    4    0    0  0.96163159610E+01 -0.56093117498E+01 -0.69587500218E+01  0.13128675222E+02  0.51100000000E-03 0.  1.
        -11    1    4    4    0    0  0.60886544260E+01 -0.23246002439E+02  0.93775082315E+01  0.25795077108E+02  0.51100000000E-03 0. -1.
        -12    1    4    4    0    0 -0.78842087578E+01 -0.37812944596E+01  0.12729405077E+02  0.15443338018E+02  0.00000000000E+00 0.  1.
</event>
<event>
 8    1  0.2390921E-006  0.9118800E+02  0.7816164E-02  0.1184000E+00
        -11   -1    0    0    0    0  0.00000000000E+00  0.00000000000E+00  0.45593999997E+02  0.45594000000E+02  0.51100000000E-03 0.  1.
         11   -1    0    0    0    0 -0.00000000000E+00 -0.00000000000E+00 -0.45593999997E+02  0.45594000000E+02  0.51100000000E-03 0. -1.
         23    2    1    2    0    0  0.00000000000E+00  0.35527136788E-14 -0.35527136788E-14  0.91188000000E+02  0.91188000000E+02 0.  0.
    9900012    2    3    3    0    0  0.21642071162E+02  0.16545444952E+02  0.24772186537E+02  0.54366916112E+02  0.39999616860E+02 0.  0.
         12    1    3    3    0    0 -0.21642071162E+02 -0.16545444952E+02 -0.24772186537E+02  0.36821083888E+02  0.00000000000E+00 0. -1.
         11    1    4    4    0    0  0.22919317686E+01 -0.32064682818E+01  0.83903928989E+01  0.92700098885E+01  0.51100000000E-03 0. -1.
        -11    1    4    4    0    0 -0.66219669932E+01 -0.16208944939E+01  0.78481876387E+01  0.10395758524E+02  0.51100000000E-03 0.  1.
         12    1    4    4    0    0  0.25972106387E+02  0.21372807727E+02  0.85336059991E+01  0.34701147700E+02  0.00000000000E+00 0. -1.
</event>
<event>
 8    1  0.2390921E-006  0.9118800E+02  0.7816164E-02  0.1184000E+00
        -11   -1    0    0    0    0  0.00000000000E+00  0.00000000000E+00  0.45593999997E+02  0.45594000000E+02  0.51100000000E-03 0.  1.
         11   -1    0    0    0    0 -0.00000000000E+00 -0.00000000000E+00 -0.45593999997E+02  0.45594000000E+02  0.51100000000E-03 0. -1.
         23    2    1    2    0    0  0.00000000000E+00 -0.35527136788E-14  0.00000000000E+00  0.91188000000E+02  0.91188000000E+02 0.  0.
    9900012    2    3    3    0    0  0.26122950168E+02  0.23006609022E+02  0.12002741776E+02  0.54367103836E+02  0.40000044815E+02 0.  0.
         12    1    3    3    0    0 -0.26122950168E+02 -0.23006609022E+02 -0.12002741776E+02  0.36820896164E+02  0.00000000000E+00 0. -1.
         11    1    4    4    0    0  0.59431758320E+01  0.35336107236E+01 -0.10021747639E+02  0.12175515172E+02  0.51100000000E-03 0. -1.
        -11    1    4    4    0    0  0.16987264917E+02  0.23497404821E+02  0.12931129376E+02  0.31747587465E+02  0.51100000000E-03 0.  1.
        -12    1    4    4    0    0  0.31925094193E+01 -0.40244065219E+01  0.90933600385E+01  0.10444001199E+02  0.00000000000E+00 0.  1.
</event>
<event>
 8    1  0.2390921E-006  0.9118800E+02  0.7816164E-02  0.1184000E+00
        -11   -1    0    0    0    0  0.00000000000E+00  0.00000000000E+00  0.45593999997E+02  0.45594000000E+02  0.51100000000E-03 0.  1.
         11   -1    0    0    0    0 -0.00000000000E+00 -0.00000000000E+00 -0.45593999997E+02  0.45594000000E+02  0.51100000000E-03 0. -1.
         23    2    1    2    0    0  0.00000000000E+00  0.00000000000E+00  0.00000000000E+00  0.91188000000E+02  0.91188000000E+02 0.  0.
    9900012    2    3    3    0    0 -0.35508457776E+02  0.81620449800E+01 -0.53207480821E+01  0.54367083227E+02  0.39999997832E+02 0.  0.
        -12    1    3    3    0    0  0.35508457776E+02 -0.81620449800E+01  0.53207480821E+01  0.36820916773E+02  0.00000000000E+00 0.  1.
         11    1    4    4    0    0 -0.10654199657E+02  0.66062298966E+01  0.58202876669E+01  0.13821360011E+02  0.51100000000E-03 0. -1.
        -11    1    4    4    0    0 -0.24545290051E+02  0.12576400234E+02 -0.10470916392E+02  0.29500460960E+02  0.51100000000E-03 0.  1.
         12    1    4    4    0    0 -0.30896806880E+00 -0.11020585151E+02 -0.67011935736E+00  0.11045262255E+02  0.00000000000E+00 0. -1.
</event>
<event>
 8    1  0.2390921E-006  0.9118800E+02  0.7816164E-02  0.1184000E+00
        -11   -1    0    0    0    0  0.00000000000E+00  0.00000000000E+00  0.45593999997E+02  0.45594000000E+02  0.51100000000E-03 0. -1.
         11   -1    0    0    0    0 -0.00000000000E+00 -0.00000000000E+00 -0.45593999997E+02  0.45594000000E+02  0.51100000000E-03 0.  1.
         23    2    1    2    0    0  0.00000000000E+00 -0.35527136788E-14 -0.88817841970E-15  0.91188000000E+02  0.91188000000E+02 0.  0.
    9900012    2    3    3    0    0  0.28988147647E+02 -0.21312825869E+02 -0.78250146342E+01  0.54367080613E+02  0.39999991873E+02 0.  0.
        -12    1    3    3    0    0 -0.28988147647E+02  0.21312825869E+02  0.78250146342E+01  0.36820919387E+02  0.00000000000E+00 0.  1.
         11    1    4    4    0    0 -0.18624154323E+01 -0.10943535950E+02 -0.13952978138E+02  0.17830175812E+02  0.51100000000E-03 0. -1.
        -11    1    4    4    0    0  0.19851962604E+02 -0.47690201503E+01 -0.37129193213E+01  0.20751620240E+02  0.51100000000E-03 0.  1.
         12    1    4    4    0    0  0.10998600475E+02 -0.56002697688E+01  0.98408828248E+01  0.15785284561E+02  0.00000000000E+00 0. -1.
</event>
<event>
 8    1  0.2390921E-006  0.9118800E+02  0.7816164E-02  0.1184000E+00
        -11   -1    0    0    0    0  0.00000000000E+00  0.00000000000E+00  0.45593999997E+02  0.45594000000E+02  0.51100000000E-03 0.  1.
         11   -1    0    0    0    0 -0.00000000000E+00 -0.00000000000E+00 -0.45593999997E+02  0.45594000000E+02  0.51100000000E-03 0. -1.
         23    2    1    2    0    0  0.00000000000E+00  0.00000000000E+00  0.00000000000E+00  0.91188000000E+02  0.91188000000E+02 0.  0.
    9900012    2    3    3    0    0  0.33945054085E+02 -0.10122990388E+02  0.10051851348E+02  0.54367063744E+02  0.39999953417E+02 0.  0.
         12    1    3    3    0    0 -0.33945054085E+02  0.10122990388E+02 -0.10051851348E+02  0.36820936256E+02  0.00000000000E+00 0. -1.
         11    1    4    4    0    0  0.15495669787E+02 -0.20575540310E+02  0.14463353370E+01  0.25798459787E+02  0.51100000000E-03 0. -1.
        -11    1    4    4    0    0  0.13133094010E+02  0.31722435744E+01  0.12813033017E+02  0.18620287402E+02  0.51100000000E-03 0.  1.
         12    1    4    4    0    0  0.53162902877E+01  0.72803063475E+01 -0.42075170056E+01  0.99483165555E+01  0.00000000000E+00 0. -1.
</event>
<event>
 8    1  0.2390921E-006  0.9118800E+02  0.7816164E-02  0.1184000E+00
        -11   -1    0    0    0    0  0.00000000000E+00  0.00000000000E+00  0.45593999997E+02  0.45594000000E+02  0.51100000000E-03 0. -1.
         11   -1    0    0    0    0 -0.00000000000E+00 -0.00000000000E+00 -0.45593999997E+02  0.45594000000E+02  0.51100000000E-03 0.  1.
         23    2    1    2    0    0  0.00000000000E+00  0.00000000000E+00  0.00000000000E+00  0.91188000000E+02  0.91188000000E+02 0.  0.
    9900012    2    3    3    0    0 -0.31517341824E+01  0.83516556795E+01  0.35722495100E+02  0.54367078813E+02  0.39999987769E+02 0.  0.
        -12    1    3    3    0    0  0.31517341824E+01 -0.83516556795E+01 -0.35722495100E+02  0.36820921187E+02  0.00000000000E+00 0.  1.
         11    1    4    4    0    0 -0.97882163585E+01 -0.15755454728E+01  0.98815599077E+01  0.13997740871E+02  0.51100000000E-03 0. -1.
        -11    1    4    4    0    0  0.16104631021E+01 -0.10104392041E+02  0.68550620273E+01  0.12316014192E+02  0.51100000000E-03 0.  1.
        -12    1    4    4    0    0  0.50260190740E+01  0.20031593193E+02  0.18985873165E+02  0.28053323750E+02  0.00000000000E+00 0.  1.
</event>
<event>
 8    1  0.2390921E-006  0.9118800E+02  0.7816164E-02  0.1184000E+00
        -11   -1    0    0    0    0  0.00000000000E+00  0.00000000000E+00  0.45593999997E+02  0.45594000000E+02  0.51100000000E-03 0. -1.
         11   -1    0    0    0    0 -0.00000000000E+00 -0.00000000000E+00 -0.45593999997E+02  0.45594000000E+02  0.51100000000E-03 0.  1.
         23    2    1    2    0    0  0.00000000000E+00  0.33306690739E-15  0.71054273576E-14  0.91188000000E+02  0.91188000000E+02 0.  0.
    9900012    2    3    3    0    0  0.21073810764E+01  0.67676596587E+00  0.36754309235E+02  0.54367104919E+02  0.40000047285E+02 0.  0.
        -12    1    3    3    0    0 -0.21073810764E+01 -0.67676596587E+00 -0.36754309235E+02  0.36820895081E+02  0.00000000000E+00 0.  1.
         11    1    4    4    0    0 -0.70310205667E+01  0.50595726086E+01  0.93497410906E+01  0.12745673145E+02  0.51100000000E-03 0. -1.
        -11    1    4    4    0    0  0.13644021968E+02 -0.50625603839E+01  0.74153469036E+00  0.14571847071E+02  0.51100000000E-03 0.  1.
        -12    1    4    4    0    0 -0.45056203248E+01  0.67975374115E+00  0.26663033454E+02  0.27049584704E+02  0.00000000000E+00 0.  1.
</event>
<event>
 8    1  0.2390921E-006  0.9118800E+02  0.7816164E-02  0.1184000E+00
        -11   -1    0    0    0    0  0.00000000000E+00  0.00000000000E+00  0.45593999997E+02  0.45594000000E+02  0.51100000000E-03 0.  1.
         11   -1    0    0    0    0 -0.00000000000E+00 -0.00000000000E+00 -0.45593999997E+02  0.45594000000E+02  0.51100000000E-03 0. -1.
         23    2    1    2    0    0  0.00000000000E+00  0.00000000000E+00  0.66613381478E-15  0.91188000000E+02  0.91188000000E+02 0.  0.
    9900012    2    3    3    0    0 -0.21731678485E+02 -0.29705825819E+02 -0.10378192633E+01  0.54367095527E+02  0.40000025874E+02 0.  0.
        -12    1    3    3    0    0  0.21731678485E+02  0.29705825819E+02  0.10378192633E+01  0.36820904473E+02  0.00000000000E+00 0.  1.
         11    1    4    4    0    0 -0.11910093655E+02 -0.21284726020E+02 -0.36106723410E+01  0.24656172607E+02  0.51100000000E-03 0. -1.
        -11    1    4    4    0    0 -0.85282160541E+01 -0.14648015139E+02  0.10198399551E+02  0.19781359161E+02  0.51100000000E-03 0.  1.
         12    1    4    4    0    0 -0.12933687755E+01  0.62269153400E+01 -0.76255464732E+01  0.99295637596E+01  0.00000000000E+00 0. -1.
</event>
<event>
 8    1  0.2390921E-006  0.9118800E+02  0.7816164E-02  0.1184000E+00
        -11   -1    0    0    0    0  0.00000000000E+00  0.00000000000E+00  0.45593999997E+02  0.45594000000E+02  0.51100000000E-03 0.  1.
         11   -1    0    0    0    0 -0.00000000000E+00 -0.00000000000E+00 -0.45593999997E+02  0.45594000000E+02  0.51100000000E-03 0. -1.
         23    2    1    2    0    0  0.44408920985E-15  0.71054273576E-14  0.66613381478E-15  0.91188000000E+02  0.91188000000E+02 0.  0.
    9900012    2    3    3    0    0  0.27959347381E+01  0.36666998957E+02 -0.18690991140E+01  0.54367087531E+02  0.40000007644E+02 0.  0.
        -12    1    3    3    0    0 -0.27959347381E+01 -0.36666998957E+02  0.18690991140E+01  0.36820912469E+02  0.00000000000E+00 0.  1.
         11    1    4    4    0    0  0.13939838807E+02  0.69679732102E+01 -0.63846924867E+01  0.16841498005E+02  0.51100000000E-03 0. -1.
        -11    1    4    4    0    0 -0.10357861845E+02  0.36068968141E+01  0.30330353961E+01  0.11379556696E+02  0.51100000000E-03 0.  1.
         12    1    4    4    0    0 -0.78604222476E+00  0.26092128933E+02  0.14825579766E+01  0.26146032830E+02  0.00000000000E+00 0. -1.
</event>
<event>
 8    1  0.2390921E-006  0.9118800E+02  0.7816164E-02  0.1184000E+00
        -11   -1    0    0    0    0  0.00000000000E+00  0.00000000000E+00  0.45593999997E+02  0.45594000000E+02  0.51100000000E-03 0.  1.
         11   -1    0    0    0    0 -0.00000000000E+00 -0.00000000000E+00 -0.45593999997E+02  0.45594000000E+02  0.51100000000E-03 0. -1.
         23    2    1    2    0    0  0.00000000000E+00 -0.35527136788E-14  0.00000000000E+00  0.91188000000E+02  0.91188000000E+02 0.  0.
    9900012    2    3    3    0    0  0.85174421480E+01 -0.20321672487E+02  0.29500215062E+02  0.54367083633E+02  0.39999998758E+02 0.  0.
         12    1    3    3    0    0 -0.85174421480E+01  0.20321672487E+02 -0.29500215062E+02  0.36820916367E+02  0.00000000000E+00 0. -1.
         11    1    4    4    0    0  0.19371303399E+01  0.11194989963E+01 -0.11562493673E+01  0.25184647738E+01  0.51100000000E-03 0. -1.
        -11    1    4    4    0    0 -0.78842352941E+01  0.64913905926E+01  0.94349663038E+01  0.13903881020E+02  0.51100000000E-03 0.  1.
         12    1    4    4    0    0  0.14464547102E+02 -0.27932562076E+02  0.21221498125E+02  0.37944737839E+02  0.00000000000E+00 0. -1.
</event>
<event>
 8    1  0.2390921E-006  0.9118800E+02  0.7816164E-02  0.1184000E+00
        -11   -1    0    0    0    0  0.00000000000E+00  0.00000000000E+00  0.45593999997E+02  0.45594000000E+02  0.51100000000E-03 0. -1.
         11   -1    0    0    0    0 -0.00000000000E+00 -0.00000000000E+00 -0.45593999997E+02  0.45594000000E+02  0.51100000000E-03 0.  1.
         23    2    1    2    0    0 -0.22204460493E-15  0.00000000000E+00  0.00000000000E+00  0.91188000000E+02  0.91188000000E+02 0.  0.
    9900012    2    3    3    0    0  0.14678390149E+01  0.28201796356E+02  0.23628044890E+02  0.54367076948E+02  0.39999983517E+02 0.  0.
        -12    1    3    3    0    0 -0.14678390149E+01 -0.28201796356E+02 -0.23628044890E+02  0.36820923052E+02  0.00000000000E+00 0.  1.
         11    1    4    4    0    0  0.56607215870E+01  0.20956579382E+02  0.65750905542E+01  0.22681574115E+02  0.51100000000E-03 0. -1.
        -11    1    4    4    0    0 -0.71662654425E+01  0.52037695784E+01 -0.44295746243E+01  0.99023083082E+01  0.51100000000E-03 0.  1.
        -12    1    4    4    0    0  0.29733828704E+01  0.20414473964E+01  0.21482528960E+02  0.21783194525E+02  0.00000000000E+00 0.  1.
</event>
<event>
 8    1  0.2390921E-006  0.9118800E+02  0.7816164E-02  0.1184000E+00
        -11   -1    0    0    0    0  0.00000000000E+00  0.00000000000E+00  0.45593999997E+02  0.45594000000E+02  0.51100000000E-03 0.  1.
         11   -1    0    0    0    0 -0.00000000000E+00 -0.00000000000E+00 -0.45593999997E+02  0.45594000000E+02  0.51100000000E-03 0. -1.
         23    2    1    2    0    0  0.17763568394E-14  0.71054273576E-14  0.00000000000E+00  0.91188000000E+02  0.91188000000E+02 0.  0.
    9900012    2    3    3    0    0  0.12632981034E+02 -0.34342031048E+02 -0.41002496252E+01  0.54367090814E+02  0.40000015129E+02 0.  0.
        -12    1    3    3    0    0 -0.12632981034E+02  0.34342031048E+02  0.41002496252E+01  0.36820909186E+02  0.00000000000E+00 0.  1.
         11    1    4    4    0    0 -0.79794357168E+01  0.26603083088E+01 -0.36720152955E+01  0.91778173466E+01  0.51100000000E-03 0. -1.
        -11    1    4    4    0    0  0.87523537818E+01 -0.48103713766E+01  0.36657583446E+01  0.10638663168E+02  0.51100000000E-03 0.  1.
        -12    1    4    4    0    0  0.11860062969E+02 -0.32191967980E+02 -0.40939926743E+01  0.34550610299E+02  0.00000000000E+00 0.  1.
</event>
<event>
 8    1  0.2390921E-006  0.9118800E+02  0.7816164E-02  0.1184000E+00
        -11   -1    0    0    0    0  0.00000000000E+00  0.00000000000E+00  0.45593999997E+02  0.45594000000E+02  0.51100000000E-03 0. -1.
         11   -1    0    0    0    0 -0.00000000000E+00 -0.00000000000E+00 -0.45593999997E+02  0.45594000000E+02  0.51100000000E-03 0.  1.
         23    2    1    2    0    0  0.00000000000E+00 -0.17763568394E-14 -0.44408920985E-15  0.91188000000E+02  0.91188000000E+02 0.  0.
    9900012    2    3    3    0    0 -0.33905080775E+02  0.14061431393E+02 -0.29156754941E+01  0.54367088566E+02  0.40000010005E+02 0.  0.
        -12    1    3    3    0    0  0.33905080775E+02 -0.14061431393E+02  0.29156754941E+01  0.36820911434E+02  0.00000000000E+00 0.  1.
         11    1    4    4    0    0 -0.46822802071E+01  0.45385004251E+01  0.48825569145E+00  0.65391228714E+01  0.51100000000E-03 0. -1.
        -11    1    4    4    0    0  0.58212851148E+01  0.11156190511E+02 -0.26781200787E-01  0.12583666580E+02  0.51100000000E-03 0.  1.
        -12    1    4    4    0    0 -0.35044085683E+02 -0.16332595425E+01 -0.33771499847E+01  0.35244299115E+02  0.00000000000E+00 0.  1.
</event>
<event>
 8    1  0.2390921E-006  0.9118800E+02  0.7816164E-02  0.1184000E+00
        -11   -1    0    0    0    0  0.00000000000E+00  0.00000000000E+00  0.45593999997E+02  0.45594000000E+02  0.51100000000E-03 0.  1.
         11   -1    0    0    0    0 -0.00000000000E+00 -0.00000000000E+00 -0.45593999997E+02  0.45594000000E+02  0.51100000000E-03 0. -1.
         23    2    1    2    0    0  0.35527136788E-14 -0.35527136788E-14  0.00000000000E+00  0.91188000000E+02  0.91188000000E+02 0.  0.
    9900012    2    3    3    0    0 -0.18761094100E+02  0.23816406479E+02  0.20894455447E+02  0.54367107319E+02  0.40000052756E+02 0.  0.
         12    1    3    3    0    0  0.18761094100E+02 -0.23816406479E+02 -0.20894455447E+02  0.36820892681E+02  0.00000000000E+00 0. -1.
         11    1    4    4    0    0  0.45405045515E+01  0.22491561565E+02  0.11523643345E+02  0.25676465478E+02  0.51100000000E-03 0. -1.
        -11    1    4    4    0    0 -0.14766127846E+02  0.48239862141E+01  0.11371257713E+02  0.19251360388E+02  0.51100000000E-03 0.  1.
         12    1    4    4    0    0 -0.85354708054E+01 -0.34991413007E+01 -0.20004456111E+01  0.94392814533E+01  0.00000000000E+00 0. -1.
</event>
<event>
 8    1  0.2390921E-006  0.9118800E+02  0.7816164E-02  0.1184000E+00
        -11   -1    0    0    0    0  0.00000000000E+00  0.00000000000E+00  0.45593999997E+02  0.45594000000E+02  0.51100000000E-03 0.  1.
         11   -1    0    0    0    0 -0.00000000000E+00 -0.00000000000E+00 -0.45593999997E+02  0.45594000000E+02  0.51100000000E-03 0. -1.
         23    2    1    2    0    0  0.00000000000E+00 -0.17763568394E-14  0.00000000000E+00  0.91188000000E+02  0.91188000000E+02 0.  0.
    9900012    2    3    3    0    0 -0.10511238899E+02  0.83082407867E+01  0.34296764082E+02  0.54367067982E+02  0.39999963078E+02 0.  0.
         12    1    3    3    0    0  0.10511238899E+02 -0.83082407867E+01 -0.34296764082E+02  0.36820932018E+02  0.00000000000E+00 0. -1.
         11    1    4    4    0    0 -0.44676864510E+01 -0.48184248794E+01  0.31470664311E+02  0.32149341408E+02  0.51100000000E-03 0. -1.
        -11    1    4    4    0    0 -0.49123102960E+01  0.15721652006E+02  0.63891745370E+01  0.17666994248E+02  0.51100000000E-03 0.  1.
         12    1    4    4    0    0 -0.11312421521E+01 -0.25949863399E+01 -0.35630747658E+01  0.45507323254E+01  0.00000000000E+00 0. -1.
</event>
<event>
 8    1  0.2390921E-006  0.9118800E+02  0.7816164E-02  0.1184000E+00
        -11   -1    0    0    0    0  0.00000000000E+00  0.00000000000E+00  0.45593999997E+02  0.45594000000E+02  0.51100000000E-03 0.  1.
         11   -1    0    0    0    0 -0.00000000000E+00 -0.00000000000E+00 -0.45593999997E+02  0.45594000000E+02  0.51100000000E-03 0. -1.
         23    2    1    2    0    0  0.00000000000E+00  0.35527136788E-14 -0.35527136788E-14  0.91188000000E+02  0.91188000000E+02 0.  0.
    9900012    2    3    3    0    0  0.22075988185E+02  0.22039610170E+02  0.19562361268E+02  0.54367086796E+02  0.40000005970E+02 0.  0.
         12    1    3    3    0    0 -0.22075988185E+02 -0.22039610170E+02 -0.19562361268E+02  0.36820913204E+02  0.00000000000E+00 0. -1.
         11    1    4    4    0    0  0.17839863118E+02 -0.64042200617E+01 -0.76261319168E+00  0.18969879541E+02  0.51100000000E-03 0. -1.
        -11    1    4    4    0    0  0.60751562916E+00  0.10786150949E+02  0.93865171133E+01  0.14311423106E+02  0.51100000000E-03 0.  1.
         12    1    4    4    0    0  0.36286094380E+01  0.17657679282E+02  0.10938457346E+02  0.21085784149E+02  0.00000000000E+00 0. -1.
</event>
<event>
 8    1  0.2390921E-006  0.9118800E+02  0.7816164E-02  0.1184000E+00
        -11   -1    0    0    0    0  0.00000000000E+00  0.00000000000E+00  0.45593999997E+02  0.45594000000E+02  0.51100000000E-03 0.  1.
         11   -1    0    0    0    0 -0.00000000000E+00 -0.00000000000E+00 -0.45593999997E+02  0.45594000000E+02  0.51100000000E-03 0. -1.
         23    2    1    2    0    0  0.00000000000E+00  0.71054273576E-14  0.17763568394E-14  0.91188000000E+02  0.91188000000E+02 0.  0.
    9900012    2    3    3    0    0  0.28656728447E+02  0.20392902839E+02 -0.10895012178E+02  0.54367083908E+02  0.39999999385E+02 0.  0.
        -12    1    3    3    0    0 -0.28656728447E+02 -0.20392902839E+02  0.10895012178E+02  0.36820916092E+02  0.00000000000E+00 0.  1.
         11    1    4    4    0    0 -0.75195675310E+01  0.42217777015E+01 -0.28260693505E+01  0.90749088728E+01  0.51100000000E-03 0. -1.
        -11    1    4    4    0    0  0.16146818725E+02  0.18253741147E+02 -0.55837841789E+01  0.25001949260E+02  0.51100000000E-03 0.  1.
         12    1    4    4    0    0  0.20029477253E+02 -0.20826160091E+01 -0.24851586489E+01  0.20290225775E+02  0.00000000000E+00 0. -1.
</event>
<event>
 8    1  0.2390921E-006  0.9118800E+02  0.7816164E-02  0.1184000E+00
        -11   -1    0    0    0    0  0.00000000000E+00  0.00000000000E+00  0.45593999997E+02  0.45594000000E+02  0.51100000000E-03 0. -1.
         11   -1    0    0    0    0 -0.00000000000E+00 -0.00000000000E+00 -0.45593999997E+02  0.45594000000E+02  0.51100000000E-03 0.  1.
         23    2    1    2    0    0 -0.53290705182E-14  0.71054273576E-14  0.26645352591E-14  0.91188000000E+02  0.91188000000E+02 0.  0.
    9900012    2    3    3    0    0 -0.13350989529E+02  0.33370941616E+02  0.79944089985E+01  0.54367092339E+02  0.40000018606E+02 0.  0.
        -12    1    3    3    0    0  0.13350989529E+02 -0.33370941616E+02 -0.79944089985E+01  0.36820907661E+02  0.00000000000E+00 0.  1.
         11    1    4    4    0    0 -0.99423904666E+00  0.21349880071E+02  0.42087387315E+01  0.21783465571E+02  0.51100000000E-03 0. -1.
        -11    1    4    4    0    0  0.54727161649E+01  0.44631007036E+00  0.91400238760E+01  0.10662544331E+02  0.51100000000E-03 0.  1.
         12    1    4    4    0    0 -0.17829466647E+02  0.11574751475E+02 -0.53543536091E+01  0.21921082437E+02  0.00000000000E+00 0. -1.
</event>
<event>
 8    1  0.2390921E-006  0.9118800E+02  0.7816164E-02  0.1184000E+00
        -11   -1    0    0    0    0  0.00000000000E+00  0.00000000000E+00  0.45593999997E+02  0.45594000000E+02  0.51100000000E-03 0.  1.
         11   -1    0    0    0    0 -0.00000000000E+00 -0.00000000000E+00 -0.45593999997E+02  0.45594000000E+02  0.51100000000E-03 0. -1.
         23    2    1    2    0    0 -0.71054273576E-14  0.00000000000E+00  0.23314683517E-14  0.91188000000E+02  0.91188000000E+02 0.  0.
    9900012    2    3    3    0    0  0.35644301825E+02  0.91889976569E+01 -0.90727959433E+00  0.54367121591E+02  0.40000085290E+02 0.  0.
         12    1    3    3    0    0 -0.35644301825E+02 -0.91889976569E+01  0.90727959433E+00  0.36820878409E+02  0.00000000000E+00 0. -1.
         11    1    4    4    0    0 -0.24302790736E+01  0.21612725410E+01  0.46447339176E+01  0.56701771400E+01  0.51100000000E-03 0. -1.
        -11    1    4    4    0    0  0.16508576072E+02  0.12161309796E+02  0.87734222211E+01  0.22302544196E+02  0.51100000000E-03 0.  1.
        -12    1    4    4    0    0  0.21566004827E+02 -0.51335846802E+01 -0.14325435733E+02  0.26394400255E+02  0.00000000000E+00 0.  1.
</event>
<event>
 8    1  0.2390921E-006  0.9118800E+02  0.7816164E-02  0.1184000E+00
        -11   -1    0    0    0    0  0.00000000000E+00  0.00000000000E+00  0.45593999997E+02  0.45594000000E+02  0.51100000000E-03 0. -1.
         11   -1    0    0    0    0 -0.00000000000E+00 -0.00000000000E+00 -0.45593999997E+02  0.45594000000E+02  0.51100000000E-03 0.  1.
         23    2    1    2    0    0 -0.35527136788E-14 -0.17763568394E-14  0.17763568394E-14  0.91188000000E+02  0.91188000000E+02 0.  0.
    9900012    2    3    3    0    0  0.30857031642E+02 -0.15387755525E+02  0.12916666611E+02  0.54367086131E+02  0.40000004453E+02 0.  0.
        -12    1    3    3    0    0 -0.30857031642E+02  0.15387755525E+02 -0.12916666611E+02  0.36820913869E+02  0.00000000000E+00 0.  1.
         11    1    4    4    0    0 -0.53925919833E+01 -0.10534865408E+01 -0.99327439638E+00  0.55835899274E+01  0.51100000000E-03 0.  1.
        -11    1    4    4    0    0  0.57428398559E+01  0.63133764110E+01  0.75629351055E+01  0.11403373141E+02  0.51100000000E-03 0. -1.
         12    1    4    4    0    0  0.30506783769E+02 -0.20647645395E+02  0.63470059019E+01  0.37380123063E+02  0.00000000000E+00 0. -1.
</event>
<event>
 8    1  0.2390921E-006  0.9118800E+02  0.7816164E-02  0.1184000E+00
        -11   -1    0    0    0    0  0.00000000000E+00  0.00000000000E+00  0.45593999997E+02  0.45594000000E+02  0.51100000000E-03 0. -1.
         11   -1    0    0    0    0 -0.00000000000E+00 -0.00000000000E+00 -0.45593999997E+02  0.45594000000E+02  0.51100000000E-03 0.  1.
         23    2    1    2    0    0 -0.35527136788E-14  0.35527136788E-14 -0.17763568394E-14  0.91188000000E+02  0.91188000000E+02 0.  0.
    9900012    2    3    3    0    0  0.25819014372E+02 -0.22301585802E+02  0.13849093234E+02  0.54367087248E+02  0.40000007000E+02 0.  0.
         12    1    3    3    0    0 -0.25819014372E+02  0.22301585802E+02 -0.13849093234E+02  0.36820912752E+02  0.00000000000E+00 0. -1.
         11    1    4    4    0    0  0.23839607751E+01  0.54305697196E+01  0.20128921398E+00  0.59342121689E+01  0.51100000000E-03 0. -1.
        -11    1    4    4    0    0 -0.64453609018E+01 -0.20075659691E+01  0.39796229951E+01  0.78364786556E+01  0.51100000000E-03 0.  1.
        -12    1    4    4    0    0  0.29880414499E+02 -0.25724589552E+02  0.96681810252E+01  0.40596396424E+02  0.00000000000E+00 0.  1.
</event>
<event>
 8    1  0.2390921E-006  0.9118800E+02  0.7816164E-02  0.1184000E+00
        -11   -1    0    0    0    0  0.00000000000E+00  0.00000000000E+00  0.45593999997E+02  0.45594000000E+02  0.51100000000E-03 0.  1.
         11   -1    0    0    0    0 -0.00000000000E+00 -0.00000000000E+00 -0.45593999997E+02  0.45594000000E+02  0.51100000000E-03 0. -1.
         23    2    1    2    0    0  0.26645352591E-14  0.17763568394E-14  0.00000000000E+00  0.91188000000E+02  0.91188000000E+02 0.  0.
    9900012    2    3    3    0    0 -0.22316147151E+01  0.12157834667E+02 -0.34684102369E+02  0.54367081962E+02  0.39999994949E+02 0.  0.
        -12    1    3    3    0    0  0.22316147151E+01 -0.12157834667E+02  0.34684102369E+02  0.36820918038E+02  0.00000000000E+00 0.  1.
         11    1    4    4    0    0  0.59946142830E+01  0.10304957582E+02 -0.27266209628E+02  0.29758591010E+02  0.51100000000E-03 0. -1.
        -11    1    4    4    0    0  0.19730053481E+01 -0.80495702334E+01 -0.61815585183E+01  0.10339245476E+02  0.51100000000E-03 0.  1.
         12    1    4    4    0    0 -0.10199234346E+02  0.99024473183E+01 -0.12363342230E+01  0.14269245476E+02  0.00000000000E+00 0. -1.
</event>
<event>
 8    1  0.2390921E-006  0.9118800E+02  0.7816164E-02  0.1184000E+00
        -11   -1    0    0    0    0  0.00000000000E+00  0.00000000000E+00  0.45593999997E+02  0.45594000000E+02  0.51100000000E-03 0. -1.
         11   -1    0    0    0    0 -0.00000000000E+00 -0.00000000000E+00 -0.45593999997E+02  0.45594000000E+02  0.51100000000E-03 0.  1.
         23    2    1    2    0    0 -0.22204460493E-14  0.00000000000E+00  0.00000000000E+00  0.91188000000E+02  0.91188000000E+02 0.  0.
    9900012    2    3    3    0    0  0.20701347998E+01 -0.51492327574E+01 -0.36400277878E+02  0.54367078153E+02  0.39999986265E+02 0.  0.
         12    1    3    3    0    0 -0.20701347998E+01  0.51492327574E+01  0.36400277878E+02  0.36820921847E+02  0.00000000000E+00 0. -1.
         11    1    4    4    0    0 -0.11446871890E+02  0.12851610188E+02 -0.17950216000E+02  0.24867750505E+02  0.51100000000E-03 0. -1.
        -11    1    4    4    0    0  0.11117389603E+02 -0.14391326509E+02 -0.17092921370E+02  0.24957455629E+02  0.51100000000E-03 0.  1.
         12    1    4    4    0    0  0.23996170871E+01 -0.36095164368E+01 -0.13571405079E+01  0.45418720183E+01  0.00000000000E+00 0. -1.
</event>
<event>
 8    1  0.2390921E-006  0.9118800E+02  0.7816164E-02  0.1184000E+00
        -11   -1    0    0    0    0  0.00000000000E+00  0.00000000000E+00  0.45593999997E+02  0.45594000000E+02  0.51100000000E-03 0. -1.
         11   -1    0    0    0    0 -0.00000000000E+00 -0.00000000000E+00 -0.45593999997E+02  0.45594000000E+02  0.51100000000E-03 0.  1.
         23    2    1    2    0    0  0.00000000000E+00  0.00000000000E+00  0.71054273576E-14  0.91188000000E+02  0.91188000000E+02 0.  0.
    9900012    2    3    3    0    0  0.89217296622E+01 -0.14047212665E+02  0.32845973934E+02  0.54367089535E+02  0.40000012213E+02 0.  0.
        -12    1    3    3    0    0 -0.89217296622E+01  0.14047212665E+02 -0.32845973934E+02  0.36820910465E+02  0.00000000000E+00 0.  1.
         11    1    4    4    0    0  0.35779170923E+01 -0.11892396833E+02  0.41899877516E+00  0.12426027257E+02  0.51100000000E-03 0. -1.
        -11    1    4    4    0    0  0.88015402111E+01  0.10361764449E+02  0.17376371520E+02  0.22062900082E+02  0.51100000000E-03 0.  1.
         12    1    4    4    0    0 -0.34577276412E+01 -0.12516580281E+02  0.15050603639E+02  0.19878162195E+02  0.00000000000E+00 0. -1.
</event>
<event>
 8    1  0.2390921E-006  0.9118800E+02  0.7816164E-02  0.1184000E+00
        -11   -1    0    0    0    0  0.00000000000E+00  0.00000000000E+00  0.45593999997E+02  0.45594000000E+02  0.51100000000E-03 0. -1.
         11   -1    0    0    0    0 -0.00000000000E+00 -0.00000000000E+00 -0.45593999997E+02  0.45594000000E+02  0.51100000000E-03 0.  1.
         23    2    1    2    0    0 -0.17763568394E-14  0.00000000000E+00  0.00000000000E+00  0.91188000000E+02  0.91188000000E+02 0.  0.
    9900012    2    3    3    0    0 -0.14478849539E+02 -0.19309942072E+02 -0.27807711598E+02  0.54367085140E+02  0.40000002194E+02 0.  0.
         12    1    3    3    0    0  0.14478849539E+02  0.19309942072E+02  0.27807711598E+02  0.36820914860E+02  0.00000000000E+00 0. -1.
         11    1    4    4    0    0 -0.20788441686E+02 -0.13958502962E+02 -0.28415740351E+02  0.37874178706E+02  0.51100000000E-03 0.  1.
        -11    1    4    4    0    0  0.10842013531E+01 -0.91826988820E+01  0.27862007186E+01  0.96571406761E+01  0.51100000000E-03 0. -1.
         12    1    4    4    0    0  0.52253907942E+01  0.38312597720E+01 -0.21781719649E+01  0.68357657582E+01  0.00000000000E+00 0. -1.
</event>
<event>
 8    1  0.2390921E-006  0.9118800E+02  0.7816164E-02  0.1184000E+00
        -11   -1    0    0    0    0  0.00000000000E+00  0.00000000000E+00  0.45593999997E+02  0.45594000000E+02  0.51100000000E-03 0.  1.
         11   -1    0    0    0    0 -0.00000000000E+00 -0.00000000000E+00 -0.45593999997E+02  0.45594000000E+02  0.51100000000E-03 0. -1.
         23    2    1    2    0    0  0.88817841970E-15  0.71054273576E-14  0.17763568394E-14  0.91188000000E+02  0.91188000000E+02 0.  0.
    9900012    2    3    3    0    0 -0.70586856433E+01 -0.32910354819E+02 -0.14928584237E+02  0.54367093919E+02  0.40000022208E+02 0.  0.
        -12    1    3    3    0    0  0.70586856433E+01  0.32910354819E+02  0.14928584237E+02  0.36820906081E+02  0.00000000000E+00 0.  1.
         11    1    4    4    0    0  0.59110226277E+01  0.10458288500E+01 -0.35685606818E+01  0.69834498702E+01  0.51100000000E-03 0. -1.
        -11    1    4    4    0    0 -0.15370181343E+02 -0.92140824168E+01 -0.13495682407E+02  0.22433796674E+02  0.51100000000E-03 0.  1.
        -12    1    4    4    0    0  0.24004730720E+01 -0.24742101252E+02  0.21356588520E+01  0.24949847375E+02  0.00000000000E+00 0.  1.
</event>
<event>
 8    1  0.2390921E-006  0.9118800E+02  0.7816164E-02  0.1184000E+00
        -11   -1    0    0    0    0  0.00000000000E+00  0.00000000000E+00  0.45593999997E+02  0.45594000000E+02  0.51100000000E-03 0.  1.
         11   -1    0    0    0    0 -0.00000000000E+00 -0.00000000000E+00 -0.45593999997E+02  0.45594000000E+02  0.51100000000E-03 0. -1.
         23    2    1    2    0    0 -0.17763568394E-14  0.00000000000E+00  0.35527136788E-14  0.91188000000E+02  0.91188000000E+02 0.  0.
    9900012    2    3    3    0    0 -0.85020400864E+01 -0.22650075660E+02 -0.27757328756E+02  0.54367083217E+02  0.39999997810E+02 0.  0.
        -12    1    3    3    0    0  0.85020400864E+01  0.22650075660E+02  0.27757328756E+02  0.36820916783E+02  0.00000000000E+00 0.  1.
         11    1    4    4    0    0  0.42232662790E+00 -0.22887996089E+02 -0.23192327583E+01  0.23009075722E+02  0.51100000000E-03 0. -1.
        -11    1    4    4    0    0 -0.12880235603E+02 -0.14083312121E+01 -0.23077296346E+02  0.26465930418E+02  0.51100000000E-03 0.  1.
         12    1    4    4    0    0  0.39558688891E+01  0.16462516403E+01 -0.23607996522E+01  0.48920770771E+01  0.00000000000E+00 0. -1.
</event>
<event>
 8    1  0.2390921E-006  0.9118800E+02  0.7816164E-02  0.1184000E+00
        -11   -1    0    0    0    0  0.00000000000E+00  0.00000000000E+00  0.45593999997E+02  0.45594000000E+02  0.51100000000E-03 0. -1.
         11   -1    0    0    0    0 -0.00000000000E+00 -0.00000000000E+00 -0.45593999997E+02  0.45594000000E+02  0.51100000000E-03 0.  1.
         23    2    1    2    0    0 -0.44408920985E-15 -0.88817841970E-15  0.00000000000E+00  0.91188000000E+02  0.91188000000E+02 0.  0.
    9900012    2    3    3    0    0  0.34869659785E+01  0.67127608482E+01 -0.36035547396E+02  0.54367071629E+02  0.39999971393E+02 0.  0.
         12    1    3    3    0    0 -0.34869659785E+01 -0.67127608482E+01  0.36035547396E+02  0.36820928371E+02  0.00000000000E+00 0. -1.
         11    1    4    4    0    0 -0.30570179766E+01  0.62918123145E+01  0.40090139580E+01  0.80625339867E+01  0.51100000000E-03 0. -1.
        -11    1    4    4    0    0  0.33669907211E+01  0.11313494757E+02 -0.18277510192E+02  0.21757738146E+02  0.51100000000E-03 0.  1.
         12    1    4    4    0    0  0.31769932339E+01 -0.10892546223E+02 -0.21767051162E+02  0.24546799497E+02  0.00000000000E+00 0. -1.
</event>
<event>
 8    1  0.2390921E-006  0.9118800E+02  0.7816164E-02  0.1184000E+00
        -11   -1    0    0    0    0  0.00000000000E+00  0.00000000000E+00  0.45593999997E+02  0.45594000000E+02  0.51100000000E-03 0. -1.
         11   -1    0    0    0    0 -0.00000000000E+00 -0.00000000000E+00 -0.45593999997E+02  0.45594000000E+02  0.51100000000E-03 0.  1.
         23    2    1    2    0    0  0.00000000000E+00  0.44408920985E-15  0.00000000000E+00  0.91188000000E+02  0.91188000000E+02 0.  0.
    9900012    2    3    3    0    0  0.20303239604E+01  0.10734576548E+01 -0.36749168683E+02  0.54367137359E+02  0.40000121237E+02 0.  0.
         12    1    3    3    0    0 -0.20303239604E+01 -0.10734576548E+01  0.36749168683E+02  0.36820862641E+02  0.00000000000E+00 0. -1.
         11    1    4    4    0    0 -0.29943723651E+01  0.11916576773E+02  0.20018452855E+01  0.12449034206E+02  0.51100000000E-03 0. -1.
        -11    1    4    4    0    0  0.29144737270E+01 -0.10165456200E+02 -0.16771325780E+02  0.19826951998E+02  0.51100000000E-03 0.  1.
         12    1    4    4    0    0  0.21102225984E+01 -0.67766291911E+00 -0.21979688189E+02  0.22091151154E+02  0.00000000000E+00 0. -1.
</event>
<event>
 8    1  0.2390921E-006  0.9118800E+02  0.7816164E-02  0.1184000E+00
        -11   -1    0    0    0    0  0.00000000000E+00  0.00000000000E+00  0.45593999997E+02  0.45594000000E+02  0.51100000000E-03 0.  1.
         11   -1    0    0    0    0 -0.00000000000E+00 -0.00000000000E+00 -0.45593999997E+02  0.45594000000E+02  0.51100000000E-03 0. -1.
         23    2    1    2    0    0  0.35527136788E-14  0.00000000000E+00 -0.88817841970E-15  0.91188000000E+02  0.91188000000E+02 0.  0.
    9900012    2    3    3    0    0 -0.27578972695E+02 -0.23713688656E+02  0.57307589501E+01  0.54367077107E+02  0.39999983880E+02 0.  0.
         12    1    3    3    0    0  0.27578972695E+02  0.23713688656E+02 -0.57307589501E+01  0.36820922893E+02  0.00000000000E+00 0. -1.
         11    1    4    4    0    0 -0.17775616719E+02 -0.29738441863E+02  0.49064352827E+01  0.34991721616E+02  0.51100000000E-03 0.  1.
        -11    1    4    4    0    0 -0.11089487962E+02 -0.69356458500E+00  0.40322373403E+01  0.11820182457E+02  0.51100000000E-03 0. -1.
         12    1    4    4    0    0  0.12861319853E+01  0.67183177924E+01 -0.32079136729E+01  0.75551730342E+01  0.00000000000E+00 0. -1.
</event>
<event>
 8    1  0.2390921E-006  0.9118800E+02  0.7816164E-02  0.1184000E+00
        -11   -1    0    0    0    0  0.00000000000E+00  0.00000000000E+00  0.45593999997E+02  0.45594000000E+02  0.51100000000E-03 0. -1.
         11   -1    0    0    0    0 -0.00000000000E+00 -0.00000000000E+00 -0.45593999997E+02  0.45594000000E+02  0.51100000000E-03 0.  1.
         23    2    1    2    0    0 -0.26645352591E-14 -0.35527136788E-14 -0.71054273576E-14  0.91188000000E+02  0.91188000000E+02 0.  0.
    9900012    2    3    3    0    0  0.55875714904E+01  0.85494761857E+01  0.35376031470E+02  0.54367107822E+02  0.40000053902E+02 0.  0.
        -12    1    3    3    0    0 -0.55875714904E+01 -0.85494761857E+01 -0.35376031470E+02  0.36820892178E+02  0.00000000000E+00 0.  1.
         11    1    4    4    0    0  0.13862840975E+02  0.11464244679E+02  0.24399498508E+02  0.30314069236E+02  0.51100000000E-03 0. -1.
        -11    1    4    4    0    0 -0.10237708942E+02 -0.64373278489E+01  0.14370897881E+02  0.18782241090E+02  0.51100000000E-03 0.  1.
        -12    1    4    4    0    0  0.19624394577E+01  0.35225593552E+01 -0.33943649189E+01  0.52707974955E+01  0.00000000000E+00 0.  1.
</event>
<event>
 8    1  0.2390921E-006  0.9118800E+02  0.7816164E-02  0.1184000E+00
        -11   -1    0    0    0    0  0.00000000000E+00  0.00000000000E+00  0.45593999997E+02  0.45594000000E+02  0.51100000000E-03 0.  1.
         11   -1    0    0    0    0 -0.00000000000E+00 -0.00000000000E+00 -0.45593999997E+02  0.45594000000E+02  0.51100000000E-03 0. -1.
         23    2    1    2    0    0 -0.44408920985E-15  0.00000000000E+00  0.00000000000E+00  0.91188000000E+02  0.91188000000E+02 0.  0.
    9900012    2    3    3    0    0 -0.29521411989E+01  0.40079765957E+01 -0.36482988502E+02  0.54366980676E+02  0.39999764046E+02 0.  0.
        -12    1    3    3    0    0  0.29521411989E+01 -0.40079765957E+01  0.36482988502E+02  0.36821019324E+02  0.00000000000E+00 0.  1.
         11    1    4    4    0    0 -0.35263022017E+01  0.21900980260E+01 -0.42886761578E+02  0.43087186674E+02  0.51100000000E-03 0. -1.
        -11    1    4    4    0    0 -0.39849100152E+00 -0.36045604369E+01  0.35528061313E+01  0.50768181659E+01  0.51100000000E-03 0.  1.
         12    1    4    4    0    0  0.97265200437E+00  0.54224390067E+01  0.28509669444E+01  0.62029758359E+01  0.00000000000E+00 0. -1.
</event>
<event>
 8    1  0.2390921E-006  0.9118800E+02  0.7816164E-02  0.1184000E+00
        -11   -1    0    0    0    0  0.00000000000E+00  0.00000000000E+00  0.45593999997E+02  0.45594000000E+02  0.51100000000E-03 0. -1.
         11   -1    0    0    0    0 -0.00000000000E+00 -0.00000000000E+00 -0.45593999997E+02  0.45594000000E+02  0.51100000000E-03 0.  1.
         23    2    1    2    0    0  0.00000000000E+00 -0.44408920985E-15  0.00000000000E+00  0.91188000000E+02  0.91188000000E+02 0.  0.
    9900012    2    3    3    0    0 -0.36069803572E+02 -0.21457391188E+01  0.70812650480E+01  0.54367092342E+02  0.40000018612E+02 0.  0.
        -12    1    3    3    0    0  0.36069803572E+02  0.21457391188E+01 -0.70812650480E+01  0.36820907658E+02  0.00000000000E+00 0.  1.
         11    1    4    4    0    0 -0.13818567788E+02  0.86755306830E+01  0.62360541034E+01  0.17467284259E+02  0.51100000000E-03 0. -1.
        -11    1    4    4    0    0 -0.33857178151E+01  0.50619785805E+01  0.90509886353E+01  0.10909037896E+02  0.51100000000E-03 0.  1.
        -12    1    4    4    0    0 -0.18865517968E+02 -0.15883248382E+02 -0.82057776907E+01  0.25990770187E+02  0.00000000000E+00 0.  1.
</event>
<event>
 8    1  0.2390921E-006  0.9118800E+02  0.7816164E-02  0.1184000E+00
        -11   -1    0    0    0    0  0.00000000000E+00  0.00000000000E+00  0.45593999997E+02  0.45594000000E+02  0.51100000000E-03 0. -1.
         11   -1    0    0    0    0 -0.00000000000E+00 -0.00000000000E+00 -0.45593999997E+02  0.45594000000E+02  0.51100000000E-03 0.  1.
         23    2    1    2    0    0  0.00000000000E+00 -0.17763568394E-14  0.26367796835E-15  0.91188000000E+02  0.91188000000E+02 0.  0.
    9900012    2    3    3    0    0 -0.35353602592E+02  0.10290592899E+02 -0.76005610955E-01  0.54367091602E+02  0.40000016925E+02 0.  0.
        -12    1    3    3    0    0  0.35353602592E+02 -0.10290592899E+02  0.76005610955E-01  0.36820908398E+02  0.00000000000E+00 0.  1.
         11    1    4    4    0    0 -0.19249431805E+02  0.58029611441E+01  0.23663771602E+01  0.20243881149E+02  0.51100000000E-03 0. -1.
        -11    1    4    4    0    0 -0.20172468047E+02  0.46310272675E+01 -0.11866348851E+02  0.23857600800E+02  0.51100000000E-03 0.  1.
        -12    1    4    4    0    0  0.40682972598E+01 -0.14339551283E+00  0.94239660796E+01  0.10265609652E+02  0.00000000000E+00 0.  1.
</event>
<event>
 8    1  0.2390921E-006  0.9118800E+02  0.7816164E-02  0.1184000E+00
        -11   -1    0    0    0    0  0.00000000000E+00  0.00000000000E+00  0.45593999997E+02  0.45594000000E+02  0.51100000000E-03 0. -1.
         11   -1    0    0    0    0 -0.00000000000E+00 -0.00000000000E+00 -0.45593999997E+02  0.45594000000E+02  0.51100000000E-03 0.  1.
         23    2    1    2    0    0  0.00000000000E+00  0.17763568394E-14 -0.88817841970E-15  0.91188000000E+02  0.91188000000E+02 0.  0.
    9900012    2    3    3    0    0 -0.33757929772E+02  0.14113439406E+02 -0.41222898700E+01  0.54367078391E+02  0.39999986808E+02 0.  0.
        -12    1    3    3    0    0  0.33757929772E+02 -0.14113439406E+02  0.41222898700E+01  0.36820921609E+02  0.00000000000E+00 0.  1.
         11    1    4    4    0    0 -0.22372502241E+02  0.52307543821E+01 -0.80509266015E+01  0.24345575929E+02  0.51100000000E-03 0. -1.
        -11    1    4    4    0    0 -0.62512255403E+01  0.18040332059E+02  0.40707703059E+01  0.19521848599E+02  0.51100000000E-03 0.  1.
        -12    1    4    4    0    0 -0.51342019909E+01 -0.91576470349E+01 -0.14213357444E+00  0.10499653863E+02  0.00000000000E+00 0.  1.
</event>
<event>
 8    1  0.2390921E-006  0.9118800E+02  0.7816164E-02  0.1184000E+00
        -11   -1    0    0    0    0  0.00000000000E+00  0.00000000000E+00  0.45593999997E+02  0.45594000000E+02  0.51100000000E-03 0.  1.
         11   -1    0    0    0    0 -0.00000000000E+00 -0.00000000000E+00 -0.45593999997E+02  0.45594000000E+02  0.51100000000E-03 0. -1.
         23    2    1    2    0    0 -0.35527136788E-14  0.00000000000E+00  0.35527136788E-14  0.91188000000E+02  0.91188000000E+02 0.  0.
    9900012    2    3    3    0    0 -0.26776168235E+02 -0.16387908172E+02  0.19241967752E+02  0.54367081454E+02  0.39999993790E+02 0.  0.
         12    1    3    3    0    0  0.26776168235E+02  0.16387908172E+02 -0.19241967752E+02  0.36820918546E+02  0.00000000000E+00 0. -1.
         11    1    4    4    0    0 -0.24811912383E+02 -0.40252947816E+01  0.50633422392E+01  0.25641205687E+02  0.51100000000E-03 0. -1.
        -11    1    4    4    0    0 -0.62698703778E+01 -0.57339551151E+01 -0.36319313425E+01  0.92401537517E+01  0.51100000000E-03 0.  1.
        -12    1    4    4    0    0  0.43056145252E+01 -0.66286582756E+01  0.17810556855E+02  0.19485722015E+02  0.00000000000E+00 0.  1.
</event>
<event>
 8    1  0.2390921E-006  0.9118800E+02  0.7816164E-02  0.1184000E+00
        -11   -1    0    0    0    0  0.00000000000E+00  0.00000000000E+00  0.45593999997E+02  0.45594000000E+02  0.51100000000E-03 0.  1.
         11   -1    0    0    0    0 -0.00000000000E+00 -0.00000000000E+00 -0.45593999997E+02  0.45594000000E+02  0.51100000000E-03 0. -1.
         23    2    1    2    0    0  0.00000000000E+00  0.17763568394E-14  0.00000000000E+00  0.91188000000E+02  0.91188000000E+02 0.  0.
    9900012    2    3    3    0    0  0.20343197491E+02 -0.13958765238E+02 -0.27332820620E+02  0.54367137786E+02  0.40000122210E+02 0.  0.
        -12    1    3    3    0    0 -0.20343197491E+02  0.13958765238E+02  0.27332820620E+02  0.36820862214E+02  0.00000000000E+00 0.  1.
         11    1    4    4    0    0  0.15379963950E+02  0.12476677180E+01  0.26150385086E+01  0.15650507739E+02  0.51100000000E-03 0. -1.
        -11    1    4    4    0    0  0.19811486960E+01 -0.85535803196E+00  0.23850934742E+01  0.32164046170E+01  0.51100000000E-03 0.  1.
         12    1    4    4    0    0  0.29820848446E+01 -0.14351074924E+02 -0.32332952603E+02  0.35500225430E+02  0.00000000000E+00 0. -1.
</event>
<event>
 8    1  0.2390921E-006  0.9118800E+02  0.7816164E-02  0.1184000E+00
        -11   -1    0    0    0    0  0.00000000000E+00  0.00000000000E+00  0.45593999997E+02  0.45594000000E+02  0.51100000000E-03 0.  1.
         11   -1    0    0    0    0 -0.00000000000E+00 -0.00000000000E+00 -0.45593999997E+02  0.45594000000E+02  0.51100000000E-03 0. -1.
         23    2    1    2    0    0  0.00000000000E+00  0.00000000000E+00  0.00000000000E+00  0.91188000000E+02  0.91188000000E+02 0.  0.
    9900012    2    3    3    0    0 -0.24982551421E+02  0.25497787723E+01 -0.26928584019E+02  0.54367110758E+02  0.40000060596E+02 0.  0.
        -12    1    3    3    0    0  0.24982551421E+02 -0.25497787723E+01  0.26928584019E+02  0.36820889242E+02  0.00000000000E+00 0.  1.
         11    1    4    4    0    0 -0.16747767933E+02  0.48796479111E+01 -0.15676990786E+02  0.23453501547E+02  0.51100000000E-03 0. -1.
        -11    1    4    4    0    0 -0.13583278725E+02 -0.11206700265E+02 -0.34562743777E+01  0.17945512658E+02  0.51100000000E-03 0.  1.
         12    1    4    4    0    0  0.53484952365E+01  0.88768311263E+01 -0.77953188555E+01  0.12968096553E+02  0.00000000000E+00 0. -1.
</event>
<event>
 8    1  0.2390921E-006  0.9118800E+02  0.7816164E-02  0.1184000E+00
        -11   -1    0    0    0    0  0.00000000000E+00  0.00000000000E+00  0.45593999997E+02  0.45594000000E+02  0.51100000000E-03 0.  1.
         11   -1    0    0    0    0 -0.00000000000E+00 -0.00000000000E+00 -0.45593999997E+02  0.45594000000E+02  0.51100000000E-03 0. -1.
         23    2    1    2    0    0  0.00000000000E+00 -0.35527136788E-14  0.00000000000E+00  0.91188000000E+02  0.91188000000E+02 0.  0.
    9900012    2    3    3    0    0  0.26185056920E+02 -0.14022274733E+02 -0.21759990240E+02  0.54367101453E+02  0.40000039382E+02 0.  0.
         12    1    3    3    0    0 -0.26185056920E+02  0.14022274733E+02  0.21759990240E+02  0.36820898547E+02  0.00000000000E+00 0. -1.
         11    1    4    4    0    0  0.43583686053E+01 -0.93089699286E+01 -0.47356701204E+01  0.11317193547E+02  0.51100000000E-03 0. -1.
        -11    1    4    4    0    0  0.19704410707E+02 -0.17264510897E+02 -0.78154818910E+01  0.27338780062E+02  0.51100000000E-03 0.  1.
        -12    1    4    4    0    0  0.21222776070E+01  0.12551206092E+02 -0.92088382284E+01  0.15711127844E+02  0.00000000000E+00 0.  1.
</event>
<event>
 8    1  0.2390921E-006  0.9118800E+02  0.7816164E-02  0.1184000E+00
        -11   -1    0    0    0    0  0.00000000000E+00  0.00000000000E+00  0.45593999997E+02  0.45594000000E+02  0.51100000000E-03 0.  1.
         11   -1    0    0    0    0 -0.00000000000E+00 -0.00000000000E+00 -0.45593999997E+02  0.45594000000E+02  0.51100000000E-03 0. -1.
         23    2    1    2    0    0  0.00000000000E+00 -0.35527136788E-14 -0.17763568394E-14  0.91188000000E+02  0.91188000000E+02 0.  0.
    9900012    2    3    3    0    0 -0.30262107036E+02  0.18080476201E+02  0.10633949706E+02  0.54367087080E+02  0.40000006616E+02 0.  0.
        -12    1    3    3    0    0  0.30262107036E+02 -0.18080476201E+02 -0.10633949706E+02  0.36820912920E+02  0.00000000000E+00 0.  1.
         11    1    4    4    0    0  0.26108169037E+00 -0.76159418233E+00 -0.53337852473E+00  0.96575476151E+00  0.51100000000E-03 0. -1.
        -11    1    4    4    0    0 -0.11061828776E+02 -0.11539400794E+02  0.15415315208E+01  0.16059207522E+02  0.51100000000E-03 0.  1.
         12    1    4    4    0    0 -0.19461359950E+02  0.30381471177E+02  0.96257967100E+01  0.37342124796E+02  0.00000000000E+00 0. -1.
</event>
<event>
 8    1  0.2390921E-006  0.9118800E+02  0.7816164E-02  0.1184000E+00
        -11   -1    0    0    0    0  0.00000000000E+00  0.00000000000E+00  0.45593999997E+02  0.45594000000E+02  0.51100000000E-03 0. -1.
         11   -1    0    0    0    0 -0.00000000000E+00 -0.00000000000E+00 -0.45593999997E+02  0.45594000000E+02  0.51100000000E-03 0.  1.
         23    2    1    2    0    0  0.88817841970E-15  0.00000000000E+00  0.00000000000E+00  0.91188000000E+02  0.91188000000E+02 0.  0.
    9900012    2    3    3    0    0 -0.46699042606E+01  0.15293186233E+02 -0.33167605093E+02  0.54367087755E+02  0.40000008154E+02 0.  0.
         12    1    3    3    0    0  0.46699042606E+01 -0.15293186233E+02  0.33167605093E+02  0.36820912245E+02  0.00000000000E+00 0. -1.
         11    1    4    4    0    0  0.45494253662E+01  0.31346636111E+01 -0.15408637349E+02  0.16369162848E+02  0.51100000000E-03 0. -1.
        -11    1    4    4    0    0 -0.28571846040E+01 -0.80810725526E+01 -0.14053018383E+02  0.16460697537E+02  0.51100000000E-03 0.  1.
         12    1    4    4    0    0 -0.63621450227E+01  0.20239595174E+02 -0.37059493605E+01  0.21537227370E+02  0.00000000000E+00 0. -1.
</event>
<event>
 8    1  0.2390921E-006  0.9118800E+02  0.7816164E-02  0.1184000E+00
        -11   -1    0    0    0    0  0.00000000000E+00  0.00000000000E+00  0.45593999997E+02  0.45594000000E+02  0.51100000000E-03 0. -1.
         11   -1    0    0    0    0 -0.00000000000E+00 -0.00000000000E+00 -0.45593999997E+02  0.45594000000E+02  0.51100000000E-03 0.  1.
         23    2    1    2    0    0  0.00000000000E+00  0.00000000000E+00  0.00000000000E+00  0.91188000000E+02  0.91188000000E+02 0.  0.
    9900012    2    3    3    0    0  0.46063090366E+01  0.32417171990E+02  0.16843061543E+02  0.54367084138E+02  0.39999999909E+02 0.  0.
        -12    1    3    3    0    0 -0.46063090366E+01 -0.32417171990E+02 -0.16843061543E+02  0.36820915862E+02  0.00000000000E+00 0.  1.
         11    1    4    4    0    0  0.22834138502E+01 -0.10383837937E+01  0.30510871101E+01  0.39498547478E+01  0.51100000000E-03 0. -1.
        -11    1    4    4    0    0 -0.87506299960E+00 -0.71844600552E+01 -0.40845011428E+00  0.72490712022E+01  0.51100000000E-03 0.  1.
         12    1    4    4    0    0  0.31979581860E+01  0.40640015839E+02  0.14200424547E+02  0.43168158188E+02  0.00000000000E+00 0. -1.
</event>
<event>
 8    1  0.2390921E-006  0.9118800E+02  0.7816164E-02  0.1184000E+00
        -11   -1    0    0    0    0  0.00000000000E+00  0.00000000000E+00  0.45593999997E+02  0.45594000000E+02  0.51100000000E-03 0.  1.
         11   -1    0    0    0    0 -0.00000000000E+00 -0.00000000000E+00 -0.45593999997E+02  0.45594000000E+02  0.51100000000E-03 0. -1.
         23    2    1    2    0    0 -0.35527136788E-14 -0.35527136788E-14 -0.17763568394E-14  0.91188000000E+02  0.91188000000E+02 0.  0.
    9900012    2    3    3    0    0 -0.23003806557E+02 -0.24014170178E+02 -0.15809000538E+02  0.54367082257E+02  0.39999995621E+02 0.  0.
        -12    1    3    3    0    0  0.23003806557E+02  0.24014170178E+02  0.15809000538E+02  0.36820917743E+02  0.00000000000E+00 0.  1.
         11    1    4    4    0    0 -0.13460295801E+02 -0.51658258100E+00  0.49762491244E+01  0.14359995690E+02  0.51100000000E-03 0.  1.
        -11    1    4    4    0    0 -0.16386473191E+02 -0.16145859209E+02 -0.94701979466E+01  0.24877498320E+02  0.51100000000E-03 0. -1.
        -12    1    4    4    0    0  0.68429624353E+01 -0.73517283875E+01 -0.11315051716E+02  0.15129588247E+02  0.00000000000E+00 0.  1.
</event>
<event>
 8    1  0.2390921E-006  0.9118800E+02  0.7816164E-02  0.1184000E+00
        -11   -1    0    0    0    0  0.00000000000E+00  0.00000000000E+00  0.45593999997E+02  0.45594000000E+02  0.51100000000E-03 0.  1.
         11   -1    0    0    0    0 -0.00000000000E+00 -0.00000000000E+00 -0.45593999997E+02  0.45594000000E+02  0.51100000000E-03 0. -1.
         23    2    1    2    0    0 -0.35527136788E-14  0.00000000000E+00  0.71054273576E-14  0.91188000000E+02  0.91188000000E+02 0.  0.
    9900012    2    3    3    0    0 -0.21371195180E+02  0.15496560129E+02  0.25669224932E+02  0.54367075678E+02  0.39999980624E+02 0.  0.
         12    1    3    3    0    0  0.21371195180E+02 -0.15496560129E+02 -0.25669224932E+02  0.36820924322E+02  0.00000000000E+00 0. -1.
         11    1    4    4    0    0  0.93171379349E+01  0.16477829000E+01  0.69229749021E+01  0.11723985224E+02  0.51100000000E-03 0. -1.
        -11    1    4    4    0    0 -0.43593637735E+01  0.79181310253E+01  0.11634727266E+02  0.14733218598E+02  0.51100000000E-03 0.  1.
         12    1    4    4    0    0 -0.26328969342E+02  0.59306462035E+01  0.71115227640E+01  0.27909871856E+02  0.00000000000E+00 0. -1.
</event>
<event>
 8    1  0.2390921E-006  0.9118800E+02  0.7816164E-02  0.1184000E+00
        -11   -1    0    0    0    0  0.00000000000E+00  0.00000000000E+00  0.45593999997E+02  0.45594000000E+02  0.51100000000E-03 0. -1.
         11   -1    0    0    0    0 -0.00000000000E+00 -0.00000000000E+00 -0.45593999997E+02  0.45594000000E+02  0.51100000000E-03 0.  1.
         23    2    1    2    0    0  0.88817841970E-15  0.00000000000E+00 -0.88817841970E-15  0.91188000000E+02  0.91188000000E+02 0.  0.
    9900012    2    3    3    0    0  0.56254499582E+01 -0.35833024665E+02  0.63347754668E+01  0.54367072199E+02  0.39999972692E+02 0.  0.
        -12    1    3    3    0    0 -0.56254499582E+01  0.35833024665E+02 -0.63347754668E+01  0.36820927801E+02  0.00000000000E+00 0.  1.
         11    1    4    4    0    0  0.44501977290E+01 -0.20473017395E+02  0.18748426101E+02  0.28114981462E+02  0.51100000000E-03 0. -1.
        -11    1    4    4    0    0 -0.77977728546E+01 -0.99934267107E+01 -0.68918071918E+01  0.14428126890E+02  0.51100000000E-03 0.  1.
        -12    1    4    4    0    0  0.89730250837E+01 -0.53665805595E+01 -0.55218434425E+01  0.11823963847E+02  0.00000000000E+00 0.  1.
</event>
<event>
 8    1  0.2390921E-006  0.9118800E+02  0.7816164E-02  0.1184000E+00
        -11   -1    0    0    0    0  0.00000000000E+00  0.00000000000E+00  0.45593999997E+02  0.45594000000E+02  0.51100000000E-03 0.  1.
         11   -1    0    0    0    0 -0.00000000000E+00 -0.00000000000E+00 -0.45593999997E+02  0.45594000000E+02  0.51100000000E-03 0. -1.
         23    2    1    2    0    0  0.17763568394E-14  0.00000000000E+00  0.00000000000E+00  0.91188000000E+02  0.91188000000E+02 0.  0.
    9900012    2    3    3    0    0 -0.85084643201E+01  0.23355820068E+02 -0.27164183002E+02  0.54367066629E+02  0.39999959994E+02 0.  0.
        -12    1    3    3    0    0  0.85084643201E+01 -0.23355820068E+02  0.27164183002E+02  0.36820933371E+02  0.00000000000E+00 0.  1.
         11    1    4    4    0    0 -0.31084757452E+00 -0.24781589282E+01 -0.11875031218E+01  0.27655129386E+01  0.51100000000E-03 0. -1.
        -11    1    4    4    0    0  0.26555389442E+01  0.10237381811E+02 -0.30318834017E+02  0.32110552313E+02  0.51100000000E-03 0.  1.
        -12    1    4    4    0    0 -0.10853155690E+02  0.15596597184E+02  0.43421541364E+01  0.19491001378E+02  0.00000000000E+00 0.  1.
</event>
<event>
 8    1  0.2390921E-006  0.9118800E+02  0.7816164E-02  0.1184000E+00
        -11   -1    0    0    0    0  0.00000000000E+00  0.00000000000E+00  0.45593999997E+02  0.45594000000E+02  0.51100000000E-03 0.  1.
         11   -1    0    0    0    0 -0.00000000000E+00 -0.00000000000E+00 -0.45593999997E+02  0.45594000000E+02  0.51100000000E-03 0. -1.
         23    2    1    2    0    0  0.00000000000E+00  0.71054273576E-14 -0.13322676296E-14  0.91188000000E+02  0.91188000000E+02 0.  0.
    9900012    2    3    3    0    0 -0.44775627811E+01 -0.36513999735E+02  0.15680558383E+01  0.54367088221E+02  0.40000009218E+02 0.  0.
        -12    1    3    3    0    0  0.44775627811E+01  0.36513999735E+02 -0.15680558383E+01  0.36820911779E+02  0.00000000000E+00 0.  1.
         11    1    4    4    0    0 -0.54321852754E+00 -0.79658999700E+01 -0.48527207142E+01  0.93434226754E+01  0.51100000000E-03 0. -1.
        -11    1    4    4    0    0  0.36635953573E+01 -0.24447069744E+02  0.18000498508E+02  0.30579390066E+02  0.51100000000E-03 0.  1.
        -12    1    4    4    0    0 -0.75979396109E+01 -0.41010300209E+01 -0.11579721956E+02  0.14444275480E+02  0.00000000000E+00 0.  1.
</event>
<event>
 8    1  0.2390921E-006  0.9118800E+02  0.7816164E-02  0.1184000E+00
        -11   -1    0    0    0    0  0.00000000000E+00  0.00000000000E+00  0.45593999997E+02  0.45594000000E+02  0.51100000000E-03 0. -1.
         11   -1    0    0    0    0 -0.00000000000E+00 -0.00000000000E+00 -0.45593999997E+02  0.45594000000E+02  0.51100000000E-03 0.  1.
         23    2    1    2    0    0  0.00000000000E+00  0.00000000000E+00  0.35527136788E-14  0.91188000000E+02  0.91188000000E+02 0.  0.
    9900012    2    3    3    0    0  0.25620462683E+02 -0.19306118120E+02 -0.18073289180E+02  0.54367108013E+02  0.40000054337E+02 0.  0.
         12    1    3    3    0    0 -0.25620462683E+02  0.19306118120E+02  0.18073289180E+02  0.36820891987E+02  0.00000000000E+00 0. -1.
         11    1    4    4    0    0 -0.54776707093E+01  0.49629850287E+01 -0.28533957619E+01  0.79232546615E+01  0.51100000000E-03 0. -1.
        -11    1    4    4    0    0  0.18322453708E+02 -0.47411732268E+01 -0.65800639487E+00  0.18937370623E+02  0.51100000000E-03 0.  1.
        -12    1    4    4    0    0  0.12775679685E+02 -0.19527929922E+02 -0.14561887023E+02  0.27506482729E+02  0.00000000000E+00 0.  1.
</event>
<event>
 8    1  0.2390921E-006  0.9118800E+02  0.7816164E-02  0.1184000E+00
        -11   -1    0    0    0    0  0.00000000000E+00  0.00000000000E+00  0.45593999997E+02  0.45594000000E+02  0.51100000000E-03 0.  1.
         11   -1    0    0    0    0 -0.00000000000E+00 -0.00000000000E+00 -0.45593999997E+02  0.45594000000E+02  0.51100000000E-03 0. -1.
         23    2    1    2    0    0 -0.22204460493E-14  0.00000000000E+00  0.00000000000E+00  0.91188000000E+02  0.91188000000E+02 0.  0.
    9900012    2    3    3    0    0 -0.27593671203E+01  0.13680805829E+02 -0.34073471338E+02  0.54367081977E+02  0.39999994983E+02 0.  0.
        -12    1    3    3    0    0  0.27593671203E+01 -0.13680805829E+02  0.34073471338E+02  0.36820918023E+02  0.00000000000E+00 0.  1.
         11    1    4    4    0    0 -0.21562923570E+01  0.63132643301E+01 -0.24672605924E+02  0.25558646024E+02  0.51100000000E-03 0. -1.
        -11    1    4    4    0    0  0.12500861170E+02  0.88492583646E+00 -0.54377914445E+01  0.13661046804E+02  0.51100000000E-03 0.  1.
        -12    1    4    4    0    0 -0.13103935933E+02  0.64826156626E+01 -0.39630739692E+01  0.15147389150E+02  0.00000000000E+00 0.  1.
</event>
<event>
 8    1  0.2390921E-006  0.9118800E+02  0.7816164E-02  0.1184000E+00
        -11   -1    0    0    0    0  0.00000000000E+00  0.00000000000E+00  0.45593999997E+02  0.45594000000E+02  0.51100000000E-03 0. -1.
         11   -1    0    0    0    0 -0.00000000000E+00 -0.00000000000E+00 -0.45593999997E+02  0.45594000000E+02  0.51100000000E-03 0.  1.
         23    2    1    2    0    0 -0.35527136788E-14  0.00000000000E+00  0.35527136788E-14  0.91188000000E+02  0.91188000000E+02 0.  0.
    9900012    2    3    3    0    0  0.20700059056E+02  0.19264319705E+02  0.23583336934E+02  0.54367078779E+02  0.39999987693E+02 0.  0.
        -12    1    3    3    0    0 -0.20700059056E+02 -0.19264319705E+02 -0.23583336934E+02  0.36820921221E+02  0.00000000000E+00 0.  1.
         11    1    4    4    0    0  0.50938699901E+01  0.25704554156E+01 -0.56892571585E+01  0.80574437507E+01  0.51100000000E-03 0.  1.
        -11    1    4    4    0    0  0.20268372821E+02  0.31474399798E+01  0.11616172581E+02  0.23572203566E+02  0.51100000000E-03 0. -1.
         12    1    4    4    0    0 -0.46621837559E+01  0.13546424310E+02  0.17656421511E+02  0.22737431463E+02  0.00000000000E+00 0. -1.
</event>
<event>
 8    1  0.2390921E-006  0.9118800E+02  0.7816164E-02  0.1184000E+00
        -11   -1    0    0    0    0  0.00000000000E+00  0.00000000000E+00  0.45593999997E+02  0.45594000000E+02  0.51100000000E-03 0. -1.
         11   -1    0    0    0    0 -0.00000000000E+00 -0.00000000000E+00 -0.45593999997E+02  0.45594000000E+02  0.51100000000E-03 0.  1.
         23    2    1    2    0    0  0.00000000000E+00  0.00000000000E+00  0.44408920985E-15  0.91188000000E+02  0.91188000000E+02 0.  0.
    9900012    2    3    3    0    0  0.13615382816E+02 -0.34119396924E+02 -0.25037168501E+01  0.54367075327E+02  0.39999979824E+02 0.  0.
         12    1    3    3    0    0 -0.13615382816E+02  0.34119396924E+02  0.25037168501E+01  0.36820924673E+02  0.00000000000E+00 0. -1.
         11    1    4    4    0    0 -0.14079561761E+01  0.37148632133E+01  0.54872885505E+01  0.67744287718E+01  0.51100000000E-03 0. -1.
        -11    1    4    4    0    0 -0.59320452700E+01 -0.12121991960E+02 -0.45622193336E+01  0.14245901013E+02  0.51100000000E-03 0.  1.
         12    1    4    4    0    0  0.20955384262E+02 -0.25712268177E+02 -0.34287860670E+01  0.33346745542E+02  0.00000000000E+00 0. -1.
</event>
<event>
 8    1  0.2390921E-006  0.9118800E+02  0.7816164E-02  0.1184000E+00
        -11   -1    0    0    0    0  0.00000000000E+00  0.00000000000E+00  0.45593999997E+02  0.45594000000E+02  0.51100000000E-03 0. -1.
         11   -1    0    0    0    0 -0.00000000000E+00 -0.00000000000E+00 -0.45593999997E+02  0.45594000000E+02  0.51100000000E-03 0.  1.
         23    2    1    2    0    0 -0.35527136788E-14  0.35527136788E-14 -0.17763568394E-14  0.91188000000E+02  0.91188000000E+02 0.  0.
    9900012    2    3    3    0    0  0.31561950314E+02 -0.18640759186E+02  0.34849427120E+01  0.54367089686E+02  0.40000012557E+02 0.  0.
         12    1    3    3    0    0 -0.31561950314E+02  0.18640759186E+02 -0.34849427120E+01  0.36820910314E+02  0.00000000000E+00 0. -1.
         11    1    4    4    0    0  0.25537205519E+02 -0.11951912798E+02  0.12069790308E+02  0.30670456853E+02  0.51100000000E-03 0. -1.
        -11    1    4    4    0    0 -0.26862661465E+01 -0.78767599499E+01  0.32665393292E+01  0.89403385041E+01  0.51100000000E-03 0.  1.
         12    1    4    4    0    0  0.87110109412E+01  0.11879135616E+01 -0.11851386926E+02  0.14756294328E+02  0.00000000000E+00 0. -1.
</event>
<event>
 8    1  0.2390921E-006  0.9118800E+02  0.7816164E-02  0.1184000E+00
        -11   -1    0    0    0    0  0.00000000000E+00  0.00000000000E+00  0.45593999997E+02  0.45594000000E+02  0.51100000000E-03 0.  1.
         11   -1    0    0    0    0 -0.00000000000E+00 -0.00000000000E+00 -0.45593999997E+02  0.45594000000E+02  0.51100000000E-03 0. -1.
         23    2    1    2    0    0  0.35527136788E-14 -0.17763568394E-14  0.35527136788E-14  0.91188000000E+02  0.91188000000E+02 0.  0.
    9900012    2    3    3    0    0 -0.26468322026E+02  0.14742333973E+02 -0.20925398642E+02  0.54367071302E+02  0.39999970648E+02 0.  0.
        -12    1    3    3    0    0  0.26468322026E+02 -0.14742333973E+02  0.20925398642E+02  0.36820928698E+02  0.00000000000E+00 0.  1.
         11    1    4    4    0    0  0.35600791223E+01  0.29372642140E+01 -0.14334921649E+02  0.15059603692E+02  0.51100000000E-03 0. -1.
        -11    1    4    4    0    0 -0.90568086036E+01  0.13352386714E+02  0.26283607665E+01  0.16346874123E+02  0.51100000000E-03 0.  1.
         12    1    4    4    0    0 -0.20971592545E+02 -0.15473169543E+01 -0.92188377593E+01  0.22960593486E+02  0.00000000000E+00 0. -1.
</event>
<event>
 8    1  0.2390921E-006  0.9118800E+02  0.7816164E-02  0.1184000E+00
        -11   -1    0    0    0    0  0.00000000000E+00  0.00000000000E+00  0.45593999997E+02  0.45594000000E+02  0.51100000000E-03 0. -1.
         11   -1    0    0    0    0 -0.00000000000E+00 -0.00000000000E+00 -0.45593999997E+02  0.45594000000E+02  0.51100000000E-03 0.  1.
         23    2    1    2    0    0  0.17763568394E-14  0.00000000000E+00  0.00000000000E+00  0.91188000000E+02  0.91188000000E+02 0.  0.
    9900012    2    3    3    0    0 -0.11920023386E+01 -0.80877168342E+01  0.35901925527E+02  0.54367078098E+02  0.39999986140E+02 0.  0.
        -12    1    3    3    0    0  0.11920023386E+01  0.80877168342E+01 -0.35901925527E+02  0.36820921902E+02  0.00000000000E+00 0.  1.
         11    1    4    4    0    0 -0.50838014883E+01  0.78924990195E+01  0.10470220820E+01  0.94463132410E+01  0.51100000000E-03 0. -1.
        -11    1    4    4    0    0  0.10118232451E+02 -0.21974543469E+01  0.50981466696E+01  0.11541166893E+02  0.51100000000E-03 0.  1.
        -12    1    4    4    0    0 -0.62264333010E+01 -0.13782761507E+02  0.29756756776E+02  0.33379597964E+02  0.00000000000E+00 0.  1.
</event>
<event>
 8    1  0.2390921E-006  0.9118800E+02  0.7816164E-02  0.1184000E+00
        -11   -1    0    0    0    0  0.00000000000E+00  0.00000000000E+00  0.45593999997E+02  0.45594000000E+02  0.51100000000E-03 0. -1.
         11   -1    0    0    0    0 -0.00000000000E+00 -0.00000000000E+00 -0.45593999997E+02  0.45594000000E+02  0.51100000000E-03 0.  1.
         23    2    1    2    0    0 -0.17763568394E-14  0.88817841970E-15  0.00000000000E+00  0.91188000000E+02  0.91188000000E+02 0.  0.
    9900012    2    3    3    0    0  0.14547041181E+02 -0.67622910227E+01  0.33142636106E+02  0.54367091334E+02  0.40000016313E+02 0.  0.
        -12    1    3    3    0    0 -0.14547041181E+02  0.67622910227E+01 -0.33142636106E+02  0.36820908666E+02  0.00000000000E+00 0.  1.
         11    1    4    4    0    0  0.73018510410E+01 -0.19488138625E+02  0.18538211229E+02  0.27870591158E+02  0.51100000000E-03 0. -1.
        -11    1    4    4    0    0  0.68077838604E+01  0.53936631047E+01 -0.14833466977E+01  0.88112337651E+01  0.51100000000E-03 0.  1.
        -12    1    4    4    0    0  0.43740627957E+00  0.73321844976E+01  0.16087771575E+02  0.17685266410E+02  0.00000000000E+00 0.  1.
</event>
<event>
 8    1  0.2390921E-006  0.9118800E+02  0.7816164E-02  0.1184000E+00
        -11   -1    0    0    0    0  0.00000000000E+00  0.00000000000E+00  0.45593999997E+02  0.45594000000E+02  0.51100000000E-03 0. -1.
         11   -1    0    0    0    0 -0.00000000000E+00 -0.00000000000E+00 -0.45593999997E+02  0.45594000000E+02  0.51100000000E-03 0.  1.
         23    2    1    2    0    0  0.00000000000E+00 -0.44408920985E-15  0.14432899320E-14  0.91188000000E+02  0.91188000000E+02 0.  0.
    9900012    2    3    3    0    0  0.36740323622E+02 -0.23099283682E+01 -0.76878956563E+00  0.54367106660E+02  0.40000051254E+02 0.  0.
        -12    1    3    3    0    0 -0.36740323622E+02  0.23099283682E+01  0.76878956563E+00  0.36820893340E+02  0.00000000000E+00 0.  1.
         11    1    4    4    0    0  0.22976138111E+02  0.54281684351E+01  0.13373349405E+02  0.27133271266E+02  0.51100000000E-03 0. -1.
        -11    1    4    4    0    0 -0.11982968806E+01 -0.65028321797E+01 -0.54791546875E-02  0.66123197181E+01  0.51100000000E-03 0.  1.
         12    1    4    4    0    0  0.14962482392E+02 -0.12352646235E+01 -0.14136659816E+02  0.20621515676E+02  0.00000000000E+00 0. -1.
</event>
<event>
 8    1  0.2390921E-006  0.9118800E+02  0.7816164E-02  0.1184000E+00
        -11   -1    0    0    0    0  0.00000000000E+00  0.00000000000E+00  0.45593999997E+02  0.45594000000E+02  0.51100000000E-03 0.  1.
         11   -1    0    0    0    0 -0.00000000000E+00 -0.00000000000E+00 -0.45593999997E+02  0.45594000000E+02  0.51100000000E-03 0. -1.
         23    2    1    2    0    0  0.00000000000E+00  0.00000000000E+00  0.71054273576E-14  0.91188000000E+02  0.91188000000E+02 0.  0.
    9900012    2    3    3    0    0 -0.53745656804E+01 -0.12395762423E+02  0.34252582249E+02  0.54367078324E+02  0.39999986655E+02 0.  0.
         12    1    3    3    0    0  0.53745656804E+01  0.12395762423E+02 -0.34252582249E+02  0.36820921676E+02  0.00000000000E+00 0. -1.
         11    1    4    4    0    0 -0.17099764999E+02 -0.96823474624E+01  0.62991800185E+01  0.20635636277E+02  0.51100000000E-03 0. -1.
        -11    1    4    4    0    0  0.70459954311E+00  0.51702332564E+01  0.62065367943E+01  0.81085677947E+01  0.51100000000E-03 0.  1.
        -12    1    4    4    0    0  0.11020599775E+02 -0.78836482173E+01  0.21746865437E+02  0.25622874252E+02  0.00000000000E+00 0.  1.
</event>
<event>
 8    1  0.2390921E-006  0.9118800E+02  0.7816164E-02  0.1184000E+00
        -11   -1    0    0    0    0  0.00000000000E+00  0.00000000000E+00  0.45593999997E+02  0.45594000000E+02  0.51100000000E-03 0. -1.
         11   -1    0    0    0    0 -0.00000000000E+00 -0.00000000000E+00 -0.45593999997E+02  0.45594000000E+02  0.51100000000E-03 0.  1.
         23    2    1    2    0    0  0.00000000000E+00 -0.71054273576E-14  0.00000000000E+00  0.91188000000E+02  0.91188000000E+02 0.  0.
    9900012    2    3    3    0    0  0.77160764537E+01 -0.28373083341E+02 -0.22163288816E+02  0.54367067567E+02  0.39999962133E+02 0.  0.
        -12    1    3    3    0    0 -0.77160764537E+01  0.28373083341E+02  0.22163288816E+02  0.36820932433E+02  0.00000000000E+00 0.  1.
         11    1    4    4    0    0  0.40628028043E+01 -0.28240242309E+02 -0.76018019731E+01  0.29526344945E+02  0.51100000000E-03 0. -1.
        -11    1    4    4    0    0  0.77868908321E+01  0.35010483683E+01 -0.16842567967E+02  0.18882931565E+02  0.51100000000E-03 0.  1.
        -12    1    4    4    0    0 -0.41336171828E+01 -0.36338894002E+01  0.22810811246E+01  0.59577910574E+01  0.00000000000E+00 0.  1.
</event>
<event>
 8    1  0.2390921E-006  0.9118800E+02  0.7816164E-02  0.1184000E+00
        -11   -1    0    0    0    0  0.00000000000E+00  0.00000000000E+00  0.45593999997E+02  0.45594000000E+02  0.51100000000E-03 0. -1.
         11   -1    0    0    0    0 -0.00000000000E+00 -0.00000000000E+00 -0.45593999997E+02  0.45594000000E+02  0.51100000000E-03 0.  1.
         23    2    1    2    0    0 -0.17763568394E-14  0.00000000000E+00 -0.17763568394E-14  0.91188000000E+02  0.91188000000E+02 0.  0.
    9900012    2    3    3    0    0 -0.15478245593E+02 -0.29813100498E+02 -0.15079195574E+02  0.54367093071E+02  0.40000020274E+02 0.  0.
         12    1    3    3    0    0  0.15478245593E+02  0.29813100498E+02  0.15079195574E+02  0.36820906929E+02  0.00000000000E+00 0. -1.
         11    1    4    4    0    0 -0.38706387085E+01 -0.25946674479E+02 -0.16704865010E+02  0.31100872589E+02  0.51100000000E-03 0. -1.
        -11    1    4    4    0    0 -0.98157190253E+01 -0.70836476942E+01 -0.69324760501E+01  0.13949395295E+02  0.51100000000E-03 0.  1.
         12    1    4    4    0    0 -0.17918878594E+01  0.32172216756E+01  0.85581454861E+01  0.93168251873E+01  0.00000000000E+00 0. -1.
</event>
<event>
 8    1  0.2390921E-006  0.9118800E+02  0.7816164E-02  0.1184000E+00
        -11   -1    0    0    0    0  0.00000000000E+00  0.00000000000E+00  0.45593999997E+02  0.45594000000E+02  0.51100000000E-03 0. -1.
         11   -1    0    0    0    0 -0.00000000000E+00 -0.00000000000E+00 -0.45593999997E+02  0.45594000000E+02  0.51100000000E-03 0.  1.
         23    2    1    2    0    0  0.17763568394E-14 -0.17763568394E-14  0.00000000000E+00  0.91188000000E+02  0.91188000000E+02 0.  0.
    9900012    2    3    3    0    0  0.14496210290E+02 -0.14161624256E+02  0.30742296725E+02  0.54367074940E+02  0.39999978942E+02 0.  0.
        -12    1    3    3    0    0 -0.14496210290E+02  0.14161624256E+02 -0.30742296725E+02  0.36820925060E+02  0.00000000000E+00 0.  1.
         11    1    4    4    0    0  0.15531756913E+02 -0.20828946455E+01  0.72318508809E+01  0.17259014755E+02  0.51100000000E-03 0. -1.
        -11    1    4    4    0    0  0.80157937733E+01 -0.13102304722E+02  0.44637819287E+01  0.15995270808E+02  0.51100000000E-03 0.  1.
         12    1    4    4    0    0 -0.90513403964E+01  0.10235751117E+01  0.19046663915E+02  0.21112789377E+02  0.00000000000E+00 0. -1.
</event>
<event>
 8    1  0.2390921E-006  0.9118800E+02  0.7816164E-02  0.1184000E+00
        -11   -1    0    0    0    0  0.00000000000E+00  0.00000000000E+00  0.45593999997E+02  0.45594000000E+02  0.51100000000E-03 0.  1.
         11   -1    0    0    0    0 -0.00000000000E+00 -0.00000000000E+00 -0.45593999997E+02  0.45594000000E+02  0.51100000000E-03 0. -1.
         23    2    1    2    0    0 -0.35527136788E-14  0.00000000000E+00 -0.17763568394E-14  0.91188000000E+02  0.91188000000E+02 0.  0.
    9900012    2    3    3    0    0 -0.25234610350E+02  0.26678073598E+02  0.26970132866E+01  0.54367094918E+02  0.40000024484E+02 0.  0.
        -12    1    3    3    0    0  0.25234610350E+02 -0.26678073598E+02 -0.26970132866E+01  0.36820905082E+02  0.00000000000E+00 0.  1.
         11    1    4    4    0    0 -0.10400812645E+01  0.47820476076E+01  0.27356026297E+01  0.56065381803E+01  0.51100000000E-03 0. -1.
        -11    1    4    4    0    0 -0.77366682655E+01  0.36428467305E+01  0.16880362960E+02  0.18922817498E+02  0.51100000000E-03 0.  1.
         12    1    4    4    0    0 -0.16457860820E+02  0.18253179260E+02 -0.16918952303E+02  0.29837739239E+02  0.00000000000E+00 0. -1.
</event>
<event>
 8    1  0.2390921E-006  0.9118800E+02  0.7816164E-02  0.1184000E+00
        -11   -1    0    0    0    0  0.00000000000E+00  0.00000000000E+00  0.45593999997E+02  0.45594000000E+02  0.51100000000E-03 0.  1.
         11   -1    0    0    0    0 -0.00000000000E+00 -0.00000000000E+00 -0.45593999997E+02  0.45594000000E+02  0.51100000000E-03 0. -1.
         23    2    1    2    0    0  0.00000000000E+00  0.00000000000E+00  0.00000000000E+00  0.91188000000E+02  0.91188000000E+02 0.  0.
    9900012    2    3    3    0    0 -0.20223787576E+02 -0.10829484623E+02 -0.28801050884E+02  0.54367084026E+02  0.39999999655E+02 0.  0.
        -12    1    3    3    0    0  0.20223787576E+02  0.10829484623E+02  0.28801050884E+02  0.36820915974E+02  0.00000000000E+00 0.  1.
         11    1    4    4    0    0 -0.44170817732E+01 -0.11423478163E+02 -0.80833336117E+01  0.14674697519E+02  0.51100000000E-03 0. -1.
        -11    1    4    4    0    0 -0.21298336713E+02 -0.81561495884E+01 -0.17877490776E+02  0.28978381590E+02  0.51100000000E-03 0.  1.
         12    1    4    4    0    0  0.54916309106E+01  0.87501431281E+01 -0.28402264959E+01  0.10714004917E+02  0.00000000000E+00 0. -1.
</event>
<event>
 8    1  0.2390921E-006  0.9118800E+02  0.7816164E-02  0.1184000E+00
        -11   -1    0    0    0    0  0.00000000000E+00  0.00000000000E+00  0.45593999997E+02  0.45594000000E+02  0.51100000000E-03 0. -1.
         11   -1    0    0    0    0 -0.00000000000E+00 -0.00000000000E+00 -0.45593999997E+02  0.45594000000E+02  0.51100000000E-03 0.  1.
         23    2    1    2    0    0 -0.44408920985E-15  0.35527136788E-14 -0.35527136788E-14  0.91188000000E+02  0.91188000000E+02 0.  0.
    9900012    2    3    3    0    0  0.27613881821E+01 -0.23314005629E+02  0.28365645640E+02  0.54367109520E+02  0.40000057773E+02 0.  0.
        -12    1    3    3    0    0 -0.27613881821E+01  0.23314005629E+02 -0.28365645640E+02  0.36820890480E+02  0.00000000000E+00 0.  1.
         11    1    4    4    0    0  0.11122675151E+02 -0.15826109968E+02  0.13979108166E+02  0.23866192085E+02  0.51100000000E-03 0. -1.
        -11    1    4    4    0    0 -0.63861463947E+01 -0.14708801780E+02  0.21816888051E+01  0.16183061573E+02  0.51100000000E-03 0.  1.
        -12    1    4    4    0    0 -0.19751405741E+01  0.72209061190E+01  0.12204848668E+02  0.14317855862E+02  0.00000000000E+00 0.  1.
</event>
<event>
 8    1  0.2390921E-006  0.9118800E+02  0.7816164E-02  0.1184000E+00
        -11   -1    0    0    0    0  0.00000000000E+00  0.00000000000E+00  0.45593999997E+02  0.45594000000E+02  0.51100000000E-03 0. -1.
         11   -1    0    0    0    0 -0.00000000000E+00 -0.00000000000E+00 -0.45593999997E+02  0.45594000000E+02  0.51100000000E-03 0.  1.
         23    2    1    2    0    0 -0.35527136788E-14  0.35527136788E-14  0.00000000000E+00  0.91188000000E+02  0.91188000000E+02 0.  0.
    9900012    2    3    3    0    0 -0.17589868964E+02  0.22147717879E+02 -0.23576600147E+02  0.54367068834E+02  0.39999965021E+02 0.  0.
         12    1    3    3    0    0  0.17589868964E+02 -0.22147717879E+02  0.23576600147E+02  0.36820931166E+02  0.00000000000E+00 0. -1.
         11    1    4    4    0    0 -0.23214181115E+01  0.10703587610E+02 -0.41327350392E+01  0.11706206428E+02  0.51100000000E-03 0. -1.
        -11    1    4    4    0    0 -0.25351751306E+02  0.11071434038E+02 -0.12171547978E+02  0.30223079366E+02  0.51100000000E-03 0.  1.
        -12    1    4    4    0    0  0.10083300453E+02  0.37269623142E+00 -0.72723171298E+01  0.12437783040E+02  0.00000000000E+00 0.  1.
</event>
<event>
 8    1  0.2390921E-006  0.9118800E+02  0.7816164E-02  0.1184000E+00
        -11   -1    0    0    0    0  0.00000000000E+00  0.00000000000E+00  0.45593999997E+02  0.45594000000E+02  0.51100000000E-03 0.  1.
         11   -1    0    0    0    0 -0.00000000000E+00 -0.00000000000E+00 -0.45593999997E+02  0.45594000000E+02  0.51100000000E-03 0. -1.
         23    2    1    2    0    0  0.00000000000E+00 -0.17763568394E-14  0.35527136788E-14  0.91188000000E+02  0.91188000000E+02 0.  0.
    9900012    2    3    3    0    0  0.22616556260E+02  0.11148049254E+02 -0.26832677265E+02  0.54367079473E+02  0.39999989275E+02 0.  0.
        -12    1    3    3    0    0 -0.22616556260E+02 -0.11148049254E+02  0.26832677265E+02  0.36820920527E+02  0.00000000000E+00 0.  1.
         11    1    4    4    0    0 -0.46292458796E-02  0.99191973032E+01 -0.67068684192E+01  0.11973828996E+02  0.51100000000E-03 0. -1.
        -11    1    4    4    0    0  0.49796723699E+01 -0.62709140810E+00  0.78204626634E+01  0.92924709887E+01  0.51100000000E-03 0.  1.
        -12    1    4    4    0    0  0.17641513136E+02  0.18559433584E+01 -0.27946271509E+02  0.33100779489E+02  0.00000000000E+00 0.  1.
</event>
<event>
 8    1  0.2390921E-006  0.9118800E+02  0.7816164E-02  0.1184000E+00
        -11   -1    0    0    0    0  0.00000000000E+00  0.00000000000E+00  0.45593999997E+02  0.45594000000E+02  0.51100000000E-03 0. -1.
         11   -1    0    0    0    0 -0.00000000000E+00 -0.00000000000E+00 -0.45593999997E+02  0.45594000000E+02  0.51100000000E-03 0.  1.
         23    2    1    2    0    0  0.00000000000E+00  0.00000000000E+00  0.00000000000E+00  0.91188000000E+02  0.91188000000E+02 0.  0.
    9900012    2    3    3    0    0  0.27688924066E+02 -0.17318593658E+02  0.17004840599E+02  0.54367152562E+02  0.40000155896E+02 0.  0.
        -12    1    3    3    0    0 -0.27688924066E+02  0.17318593658E+02 -0.17004840599E+02  0.36820847438E+02  0.00000000000E+00 0.  1.
         11    1    4    4    0    0  0.85081215886E+01  0.79136318757E+01  0.28856291515E+01  0.11972491733E+02  0.51100000000E-03 0. -1.
        -11    1    4    4    0    0  0.23436209973E+02 -0.20327444238E+02  0.16903153556E+02  0.35329556006E+02  0.51100000000E-03 0.  1.
        -12    1    4    4    0    0 -0.42554074951E+01 -0.49047812955E+01 -0.27839421090E+01  0.70651048238E+01  0.00000000000E+00 0.  1.
</event>
<event>
 8    1  0.2390921E-006  0.9118800E+02  0.7816164E-02  0.1184000E+00
        -11   -1    0    0    0    0  0.00000000000E+00  0.00000000000E+00  0.45593999997E+02  0.45594000000E+02  0.51100000000E-03 0.  1.
         11   -1    0    0    0    0 -0.00000000000E+00 -0.00000000000E+00 -0.45593999997E+02  0.45594000000E+02  0.51100000000E-03 0. -1.
         23    2    1    2    0    0  0.00000000000E+00  0.00000000000E+00  0.35527136788E-14  0.91188000000E+02  0.91188000000E+02 0.  0.
    9900012    2    3    3    0    0  0.21652107102E+02  0.21442053380E+02  0.20668934945E+02  0.54367078408E+02  0.39999986847E+02 0.  0.
         12    1    3    3    0    0 -0.21652107102E+02 -0.21442053380E+02 -0.20668934945E+02  0.36820921592E+02  0.00000000000E+00 0. -1.
         11    1    4    4    0    0 -0.40343531600E+01  0.14298095019E+01  0.28878769134E+01  0.51633510397E+01  0.51100000000E-03 0. -1.
        -11    1    4    4    0    0  0.13849911766E+01  0.76598208073E+01  0.20383412672E+02  0.21819133066E+02  0.51100000000E-03 0.  1.
         12    1    4    4    0    0  0.24301469085E+02  0.12352423071E+02 -0.26023546399E+01  0.27384594302E+02  0.00000000000E+00 0. -1.
</event>
<event>
 8    1  0.2390921E-006  0.9118800E+02  0.7816164E-02  0.1184000E+00
        -11   -1    0    0    0    0  0.00000000000E+00  0.00000000000E+00  0.45593999997E+02  0.45594000000E+02  0.51100000000E-03 0.  1.
         11   -1    0    0    0    0 -0.00000000000E+00 -0.00000000000E+00 -0.45593999997E+02  0.45594000000E+02  0.51100000000E-03 0. -1.
         23    2    1    2    0    0  0.00000000000E+00  0.00000000000E+00 -0.35527136788E-14  0.91188000000E+02  0.91188000000E+02 0.  0.
    9900012    2    3    3    0    0  0.10944897318E+02  0.28700188404E+02 -0.20304843915E+02  0.54367105413E+02  0.40000048410E+02 0.  0.
        -12    1    3    3    0    0 -0.10944897318E+02 -0.28700188404E+02  0.20304843915E+02  0.36820894587E+02  0.00000000000E+00 0.  1.
         11    1    4    4    0    0 -0.12609409768E+01 -0.24003373934E+01  0.27453539122E+01  0.38585696979E+01  0.51100000000E-03 0. -1.
        -11    1    4    4    0    0 -0.32477540707E+01 -0.47636605843E+01 -0.17490115972E+01  0.60248992103E+01  0.51100000000E-03 0.  1.
         12    1    4    4    0    0  0.15453592366E+02  0.35864186382E+02 -0.21301186230E+02  0.44483636505E+02  0.00000000000E+00 0. -1.
</event>
<event>
 8    1  0.2390921E-006  0.9118800E+02  0.7816164E-02  0.1184000E+00
        -11   -1    0    0    0    0  0.00000000000E+00  0.00000000000E+00  0.45593999997E+02  0.45594000000E+02  0.51100000000E-03 0. -1.
         11   -1    0    0    0    0 -0.00000000000E+00 -0.00000000000E+00 -0.45593999997E+02  0.45594000000E+02  0.51100000000E-03 0.  1.
         23    2    1    2    0    0  0.00000000000E+00  0.53290705182E-14  0.00000000000E+00  0.91188000000E+02  0.91188000000E+02 0.  0.
    9900012    2    3    3    0    0  0.47196500574E+01  0.13796455568E+02 -0.33810708706E+02  0.54367064296E+02  0.39999954675E+02 0.  0.
         12    1    3    3    0    0 -0.47196500574E+01 -0.13796455568E+02  0.33810708706E+02  0.36820935704E+02  0.00000000000E+00 0. -1.
         11    1    4    4    0    0 -0.83835737703E+01  0.53576425323E+01  0.17780316936E+01  0.10106930277E+02  0.51100000000E-03 0. -1.
        -11    1    4    4    0    0  0.14629746417E+02 -0.17052668825E+01 -0.13828434161E+02  0.20203044497E+02  0.51100000000E-03 0.  1.
        -12    1    4    4    0    0 -0.15265225889E+01  0.10144079918E+02 -0.21760306239E+02  0.24057089521E+02  0.00000000000E+00 0.  1.
</event>
<event>
 8    1  0.2390921E-006  0.9118800E+02  0.7816164E-02  0.1184000E+00
        -11   -1    0    0    0    0  0.00000000000E+00  0.00000000000E+00  0.45593999997E+02  0.45594000000E+02  0.51100000000E-03 0.  1.
         11   -1    0    0    0    0 -0.00000000000E+00 -0.00000000000E+00 -0.45593999997E+02  0.45594000000E+02  0.51100000000E-03 0. -1.
         23    2    1    2    0    0  0.00000000000E+00  0.00000000000E+00  0.35527136788E-14  0.91188000000E+02  0.91188000000E+02 0.  0.
    9900012    2    3    3    0    0  0.18639439504E+02 -0.16910312258E+02  0.26877312905E+02  0.54367118496E+02  0.40000078235E+02 0.  0.
         12    1    3    3    0    0 -0.18639439504E+02  0.16910312258E+02 -0.26877312905E+02  0.36820881504E+02  0.00000000000E+00 0. -1.
         11    1    4    4    0    0  0.91032040742E+01 -0.15037375396E+02  0.81979582856E+01  0.19395811495E+02  0.51100000000E-03 0. -1.
        -11    1    4    4    0    0 -0.10051024834E+01 -0.11452411157E+02  0.17148378364E+02  0.20645455506E+02  0.51100000000E-03 0.  1.
         12    1    4    4    0    0  0.10541337913E+02  0.95794742943E+01  0.15309762560E+01  0.14325851495E+02  0.00000000000E+00 0. -1.
</event>
<event>
 8    1  0.2390921E-006  0.9118800E+02  0.7816164E-02  0.1184000E+00
        -11   -1    0    0    0    0  0.00000000000E+00  0.00000000000E+00  0.45593999997E+02  0.45594000000E+02  0.51100000000E-03 0.  1.
         11   -1    0    0    0    0 -0.00000000000E+00 -0.00000000000E+00 -0.45593999997E+02  0.45594000000E+02  0.51100000000E-03 0. -1.
         23    2    1    2    0    0  0.00000000000E+00  0.00000000000E+00  0.00000000000E+00  0.91188000000E+02  0.91188000000E+02 0.  0.
    9900012    2    3    3    0    0 -0.27798071838E+02  0.21146759638E+02  0.11655968405E+02  0.54367084198E+02  0.40000000045E+02 0.  0.
         12    1    3    3    0    0  0.27798071838E+02 -0.21146759638E+02 -0.11655968405E+02  0.36820915802E+02  0.00000000000E+00 0. -1.
         11    1    4    4    0    0 -0.23864139187E+02  0.71937016054E+01  0.12145548549E+02  0.27726536599E+02  0.51100000000E-03 0. -1.
        -11    1    4    4    0    0  0.58332245873E+01  0.63667603097E+01  0.78940646125E+01  0.11699504361E+02  0.51100000000E-03 0.  1.
         12    1    4    4    0    0 -0.97671572376E+01  0.75862977225E+01 -0.83836447560E+01  0.14941043238E+02  0.00000000000E+00 0. -1.
</event>
<event>
 8    1  0.2390921E-006  0.9118800E+02  0.7816164E-02  0.1184000E+00
        -11   -1    0    0    0    0  0.00000000000E+00  0.00000000000E+00  0.45593999997E+02  0.45594000000E+02  0.51100000000E-03 0.  1.
         11   -1    0    0    0    0 -0.00000000000E+00 -0.00000000000E+00 -0.45593999997E+02  0.45594000000E+02  0.51100000000E-03 0. -1.
         23    2    1    2    0    0  0.00000000000E+00  0.17763568394E-14 -0.35527136788E-14  0.91188000000E+02  0.91188000000E+02 0.  0.
    9900012    2    3    3    0    0 -0.23217107037E+02 -0.93083818510E+01  0.27020354499E+02  0.54367087611E+02  0.40000007828E+02 0.  0.
         12    1    3    3    0    0  0.23217107037E+02  0.93083818510E+01 -0.27020354499E+02  0.36820912389E+02  0.00000000000E+00 0. -1.
         11    1    4    4    0    0 -0.91452014962E+01 -0.14697400666E+02  0.21285482483E+02  0.27435744231E+02  0.51100000000E-03 0. -1.
        -11    1    4    4    0    0 -0.98564894890E+01  0.10307191501E+02  0.11453036460E+02  0.18290998499E+02  0.51100000000E-03 0.  1.
         12    1    4    4    0    0 -0.42154160520E+01 -0.49181726863E+01 -0.57181644431E+01  0.86403448810E+01  0.00000000000E+00 0. -1.
</event>
<event>
 8    1  0.2390921E-006  0.9118800E+02  0.7816164E-02  0.1184000E+00
        -11   -1    0    0    0    0  0.00000000000E+00  0.00000000000E+00  0.45593999997E+02  0.45594000000E+02  0.51100000000E-03 0.  1.
         11   -1    0    0    0    0 -0.00000000000E+00 -0.00000000000E+00 -0.45593999997E+02  0.45594000000E+02  0.51100000000E-03 0. -1.
         23    2    1    2    0    0 -0.71054273576E-14  0.00000000000E+00  0.00000000000E+00  0.91188000000E+02  0.91188000000E+02 0.  0.
    9900012    2    3    3    0    0 -0.35689597257E+02  0.22362353325E+01  0.87766833138E+01  0.54367105513E+02  0.40000048638E+02 0.  0.
        -12    1    3    3    0    0  0.35689597257E+02 -0.22362353325E+01 -0.87766833138E+01  0.36820894487E+02  0.00000000000E+00 0.  1.
         11    1    4    4    0    0 -0.17512030031E+02 -0.16357525377E+02  0.34010057094E+01  0.24203443399E+02  0.51100000000E-03 0.  1.
        -11    1    4    4    0    0 -0.12242960534E+02  0.17211560739E+02  0.91256169810E+01  0.23008798127E+02  0.51100000000E-03 0. -1.
        -12    1    4    4    0    0 -0.59346066920E+01  0.13821999709E+01 -0.37499393766E+01  0.71548639873E+01  0.00000000000E+00 0.  1.
</event>
<event>
 8    1  0.2390921E-006  0.9118800E+02  0.7816164E-02  0.1184000E+00
        -11   -1    0    0    0    0  0.00000000000E+00  0.00000000000E+00  0.45593999997E+02  0.45594000000E+02  0.51100000000E-03 0.  1.
         11   -1    0    0    0    0 -0.00000000000E+00 -0.00000000000E+00 -0.45593999997E+02  0.45594000000E+02  0.51100000000E-03 0. -1.
         23    2    1    2    0    0  0.35527136788E-14  0.35527136788E-14  0.17763568394E-14  0.91188000000E+02  0.91188000000E+02 0.  0.
    9900012    2    3    3    0    0  0.27993098563E+02 -0.20203302291E+02 -0.12805993143E+02  0.54367075908E+02  0.39999981146E+02 0.  0.
        -12    1    3    3    0    0 -0.27993098563E+02  0.20203302291E+02  0.12805993143E+02  0.36820924092E+02  0.00000000000E+00 0.  1.
         11    1    4    4    0    0  0.17200421082E+02 -0.62738674111E+01 -0.29194677228E+01  0.18540204685E+02  0.51100000000E-03 0. -1.
        -11    1    4    4    0    0  0.15641620563E+02  0.33379925690E+01 -0.16121597523E+01  0.16074873174E+02  0.51100000000E-03 0.  1.
         12    1    4    4    0    0 -0.48489430821E+01 -0.17267427449E+02 -0.82743656676E+01  0.19751998049E+02  0.00000000000E+00 0. -1.
</event>
<event>
 8    1  0.2390921E-006  0.9118800E+02  0.7816164E-02  0.1184000E+00
        -11   -1    0    0    0    0  0.00000000000E+00  0.00000000000E+00  0.45593999997E+02  0.45594000000E+02  0.51100000000E-03 0. -1.
         11   -1    0    0    0    0 -0.00000000000E+00 -0.00000000000E+00 -0.45593999997E+02  0.45594000000E+02  0.51100000000E-03 0.  1.
         23    2    1    2    0    0 -0.88817841970E-15 -0.17763568394E-14 -0.71054273576E-14  0.91188000000E+02  0.91188000000E+02 0.  0.
    9900012    2    3    3    0    0  0.11740648265E+01  0.13292170541E+02 -0.34317962028E+02  0.54367044775E+02  0.39999910173E+02 0.  0.
         12    1    3    3    0    0 -0.11740648265E+01 -0.13292170541E+02  0.34317962028E+02  0.36820955225E+02  0.00000000000E+00 0. -1.
         11    1    4    4    0    0 -0.11365245614E+02 -0.27684701381E+01 -0.10578080000E+02  0.15771144902E+02  0.51100000000E-03 0. -1.
        -11    1    4    4    0    0  0.34198009992E+00 -0.12918355538E+01  0.36885221026E+01  0.39231345949E+01  0.51100000000E-03 0.  1.
        -12    1    4    4    0    0  0.12197330341E+02  0.17352476233E+02 -0.27428404131E+02  0.34672765278E+02  0.00000000000E+00 0.  1.
</event>
<event>
 8    1  0.2390921E-006  0.9118800E+02  0.7816164E-02  0.1184000E+00
        -11   -1    0    0    0    0  0.00000000000E+00  0.00000000000E+00  0.45593999997E+02  0.45594000000E+02  0.51100000000E-03 0. -1.
         11   -1    0    0    0    0 -0.00000000000E+00 -0.00000000000E+00 -0.45593999997E+02  0.45594000000E+02  0.51100000000E-03 0.  1.
         23    2    1    2    0    0 -0.88817841970E-15  0.71054273576E-14  0.00000000000E+00  0.91188000000E+02  0.91188000000E+02 0.  0.
    9900012    2    3    3    0    0 -0.40595205426E+01  0.32579166100E+02  0.16670258715E+02  0.54367091586E+02  0.40000016889E+02 0.  0.
        -12    1    3    3    0    0  0.40595205426E+01 -0.32579166100E+02 -0.16670258715E+02  0.36820908414E+02  0.00000000000E+00 0.  1.
         11    1    4    4    0    0  0.17390484124E+00 -0.16287743979E+01 -0.20459233222E+01  0.26208684505E+01  0.51100000000E-03 0. -1.
        -11    1    4    4    0    0 -0.22955073140E+01 -0.44922878103E+01 -0.43418188130E+01  0.66559292713E+01  0.51100000000E-03 0.  1.
         12    1    4    4    0    0 -0.19379180698E+01  0.38700228308E+02  0.23058000850E+02  0.45090293864E+02  0.00000000000E+00 0. -1.
</event>
<event>
 8    1  0.2390921E-006  0.9118800E+02  0.7816164E-02  0.1184000E+00
        -11   -1    0    0    0    0  0.00000000000E+00  0.00000000000E+00  0.45593999997E+02  0.45594000000E+02  0.51100000000E-03 0. -1.
         11   -1    0    0    0    0 -0.00000000000E+00 -0.00000000000E+00 -0.45593999997E+02  0.45594000000E+02  0.51100000000E-03 0.  1.
         23    2    1    2    0    0  0.00000000000E+00  0.00000000000E+00 -0.35527136788E-14  0.91188000000E+02  0.91188000000E+02 0.  0.
    9900012    2    3    3    0    0 -0.22694544410E+02 -0.11353233178E+02 -0.26680342381E+02  0.54367096709E+02  0.40000028568E+02 0.  0.
         12    1    3    3    0    0  0.22694544410E+02  0.11353233178E+02  0.26680342381E+02  0.36820903291E+02  0.00000000000E+00 0. -1.
         11    1    4    4    0    0 -0.73048409326E+01  0.36245565480E+01 -0.12624931538E+01  0.82517877121E+01  0.51100000000E-03 0. -1.
        -11    1    4    4    0    0 -0.18541573980E+02 -0.69960743695E+01 -0.30327708946E+02  0.36228510215E+02  0.51100000000E-03 0.  1.
        -12    1    4    4    0    0  0.31518705030E+01 -0.79817153569E+01  0.49098597182E+01  0.98867987821E+01  0.00000000000E+00 0.  1.
</event>
<event>
 8    1  0.2390921E-006  0.9118800E+02  0.7816164E-02  0.1184000E+00
        -11   -1    0    0    0    0  0.00000000000E+00  0.00000000000E+00  0.45593999997E+02  0.45594000000E+02  0.51100000000E-03 0.  1.
         11   -1    0    0    0    0 -0.00000000000E+00 -0.00000000000E+00 -0.45593999997E+02  0.45594000000E+02  0.51100000000E-03 0. -1.
         23    2    1    2    0    0  0.00000000000E+00 -0.71054273576E-14  0.00000000000E+00  0.91188000000E+02  0.91188000000E+02 0.  0.
    9900012    2    3    3    0    0  0.97089192273E+01 -0.35189664277E+02  0.48170156389E+01  0.54367092568E+02  0.40000019126E+02 0.  0.
         12    1    3    3    0    0 -0.97089192273E+01  0.35189664277E+02 -0.48170156389E+01  0.36820907432E+02  0.00000000000E+00 0. -1.
         11    1    4    4    0    0 -0.63801176304E+00  0.20604789702E+01 -0.18578215399E+01  0.28467760242E+01  0.51100000000E-03 0. -1.
        -11    1    4    4    0    0  0.19831761595E+02 -0.11624823795E+02 -0.13927706037E+01  0.23029874217E+02  0.51100000000E-03 0.  1.
        -12    1    4    4    0    0 -0.94848306046E+01 -0.25625319453E+02  0.80676077825E+01  0.28490442327E+02  0.00000000000E+00 0.  1.
</event>
<event>
 8    1  0.2390921E-006  0.9118800E+02  0.7816164E-02  0.1184000E+00
        -11   -1    0    0    0    0  0.00000000000E+00  0.00000000000E+00  0.45593999997E+02  0.45594000000E+02  0.51100000000E-03 0. -1.
         11   -1    0    0    0    0 -0.00000000000E+00 -0.00000000000E+00 -0.45593999997E+02  0.45594000000E+02  0.51100000000E-03 0.  1.
         23    2    1    2    0    0  0.00000000000E+00  0.00000000000E+00  0.00000000000E+00  0.91188000000E+02  0.91188000000E+02 0.  0.
    9900012    2    3    3    0    0 -0.11542955890E+02  0.20394115154E+02 -0.28401050557E+02  0.54367089686E+02  0.40000012558E+02 0.  0.
         12    1    3    3    0    0  0.11542955890E+02 -0.20394115154E+02  0.28401050557E+02  0.36820910314E+02  0.00000000000E+00 0. -1.
         11    1    4    4    0    0 -0.60925817885E+00  0.24867145796E+02 -0.11699318480E+02  0.27488546501E+02  0.51100000000E-03 0. -1.
        -11    1    4    4    0    0 -0.88978716497E+01 -0.13828676079E+01  0.75275510941E+00  0.90360988945E+01  0.51100000000E-03 0.  1.
         12    1    4    4    0    0 -0.20358260613E+01 -0.30901630348E+01 -0.17454487186E+02  0.17842444291E+02  0.00000000000E+00 0. -1.
</event>
<event>
 8    1  0.2390921E-006  0.9118800E+02  0.7816164E-02  0.1184000E+00
        -11   -1    0    0    0    0  0.00000000000E+00  0.00000000000E+00  0.45593999997E+02  0.45594000000E+02  0.51100000000E-03 0. -1.
         11   -1    0    0    0    0 -0.00000000000E+00 -0.00000000000E+00 -0.45593999997E+02  0.45594000000E+02  0.51100000000E-03 0.  1.
         23    2    1    2    0    0 -0.35527136788E-14  0.00000000000E+00 -0.26645352591E-14  0.91188000000E+02  0.91188000000E+02 0.  0.
    9900012    2    3    3    0    0  0.27092353765E+02 -0.23893246039E+02  0.71341795360E+01  0.54367090771E+02  0.40000015030E+02 0.  0.
         12    1    3    3    0    0 -0.27092353765E+02  0.23893246039E+02 -0.71341795360E+01  0.36820909229E+02  0.00000000000E+00 0. -1.
         11    1    4    4    0    0  0.20206460585E+02 -0.59047470036E+01 -0.76093545666E+01  0.22384578703E+02  0.51100000000E-03 0. -1.
        -11    1    4    4    0    0  0.77502431209E+01  0.17726760653E+01  0.12740635125E+01  0.80518250702E+01  0.51100000000E-03 0.  1.
        -12    1    4    4    0    0 -0.86434994068E+00 -0.19761175101E+02  0.13469470590E+02  0.23930686997E+02  0.00000000000E+00 0.  1.
</event>
<event>
 8    1  0.2390921E-006  0.9118800E+02  0.7816164E-02  0.1184000E+00
        -11   -1    0    0    0    0  0.00000000000E+00  0.00000000000E+00  0.45593999997E+02  0.45594000000E+02  0.51100000000E-03 0.  1.
         11   -1    0    0    0    0 -0.00000000000E+00 -0.00000000000E+00 -0.45593999997E+02  0.45594000000E+02  0.51100000000E-03 0. -1.
         23    2    1    2    0    0  0.00000000000E+00 -0.71054273576E-14 -0.88817841970E-15  0.91188000000E+02  0.91188000000E+02 0.  0.
    9900012    2    3    3    0    0 -0.17446956438E+02  0.32075248620E+02  0.47500119072E+01  0.54367075567E+02  0.39999980370E+02 0.  0.
        -12    1    3    3    0    0  0.17446956438E+02 -0.32075248620E+02 -0.47500119072E+01  0.36820924433E+02  0.00000000000E+00 0.  1.
         11    1    4    4    0    0 -0.14376936504E+02  0.23904638669E+01  0.40927450675E+01  0.15138070656E+02  0.51100000000E-03 0.  1.
        -11    1    4    4    0    0  0.34275239839E+01  0.90333621652E+01 -0.10999907890E+02  0.14640612232E+02  0.51100000000E-03 0. -1.
        -12    1    4    4    0    0 -0.64975439174E+01  0.20651422588E+02  0.11657174730E+02  0.24588392679E+02  0.00000000000E+00 0.  1.
</event>
<event>
 8    1  0.2390921E-006  0.9118800E+02  0.7816164E-02  0.1184000E+00
        -11   -1    0    0    0    0  0.00000000000E+00  0.00000000000E+00  0.45593999997E+02  0.45594000000E+02  0.51100000000E-03 0. -1.
         11   -1    0    0    0    0 -0.00000000000E+00 -0.00000000000E+00 -0.45593999997E+02  0.45594000000E+02  0.51100000000E-03 0.  1.
         23    2    1    2    0    0 -0.35527136788E-14  0.00000000000E+00 -0.35527136788E-14  0.91188000000E+02  0.91188000000E+02 0.  0.
    9900012    2    3    3    0    0  0.22471936712E+02 -0.16668350029E+02 -0.23936561851E+02  0.54367070822E+02  0.39999969554E+02 0.  0.
         12    1    3    3    0    0 -0.22471936712E+02  0.16668350029E+02  0.23936561851E+02  0.36820929178E+02  0.00000000000E+00 0. -1.
         11    1    4    4    0    0  0.86755537319E+01  0.22096861483E+01 -0.36817446969E+01  0.96800407904E+01  0.51100000000E-03 0. -1.
        -11    1    4    4    0    0 -0.83653022088E+01 -0.11349134709E+02 -0.58063634404E+00  0.14110927627E+02  0.51100000000E-03 0.  1.
        -12    1    4    4    0    0  0.22161685189E+02 -0.75289014686E+01 -0.19674180810E+02  0.30576102405E+02  0.00000000000E+00 0.  1.
</event>
<event>
 8    1  0.2390921E-006  0.9118800E+02  0.7816164E-02  0.1184000E+00
        -11   -1    0    0    0    0  0.00000000000E+00  0.00000000000E+00  0.45593999997E+02  0.45594000000E+02  0.51100000000E-03 0.  1.
         11   -1    0    0    0    0 -0.00000000000E+00 -0.00000000000E+00 -0.45593999997E+02  0.45594000000E+02  0.51100000000E-03 0. -1.
         23    2    1    2    0    0  0.00000000000E+00  0.00000000000E+00  0.00000000000E+00  0.91188000000E+02  0.91188000000E+02 0.  0.
    9900012    2    3    3    0    0 -0.22996304386E+02  0.21714283956E+02 -0.18853009539E+02  0.54367134831E+02  0.40000115474E+02 0.  0.
        -12    1    3    3    0    0  0.22996304386E+02 -0.21714283956E+02  0.18853009539E+02  0.36820865169E+02  0.00000000000E+00 0.  1.
         11    1    4    4    0    0 -0.24327412243E+02  0.10920291864E+02 -0.12400635326E+02  0.29408357955E+02  0.51100000000E-03 0. -1.
        -11    1    4    4    0    0  0.30183335115E+01  0.17059279404E+02 -0.64043285480E+01  0.18470104909E+02  0.51100000000E-03 0.  1.
         12    1    4    4    0    0 -0.16872256547E+01 -0.62652873116E+01 -0.48045664353E-01  0.64886719668E+01  0.00000000000E+00 0. -1.
</event>
<event>
 8    1  0.2390921E-006  0.9118800E+02  0.7816164E-02  0.1184000E+00
        -11   -1    0    0    0    0  0.00000000000E+00  0.00000000000E+00  0.45593999997E+02  0.45594000000E+02  0.51100000000E-03 0.  1.
         11   -1    0    0    0    0 -0.00000000000E+00 -0.00000000000E+00 -0.45593999997E+02  0.45594000000E+02  0.51100000000E-03 0. -1.
         23    2    1    2    0    0  0.00000000000E+00  0.00000000000E+00 -0.17763568394E-14  0.91188000000E+02  0.91188000000E+02 0.  0.
    9900012    2    3    3    0    0  0.21402325394E+02 -0.28525461572E+02  0.91662508233E+01  0.54367059704E+02  0.39999944206E+02 0.  0.
         12    1    3    3    0    0 -0.21402325394E+02  0.28525461572E+02 -0.91662508233E+01  0.36820940296E+02  0.00000000000E+00 0. -1.
         11    1    4    4    0    0 -0.14436445911E+01  0.31918172063E+01 -0.34931446354E+01  0.49471068807E+01  0.51100000000E-03 0. -1.
        -11    1    4    4    0    0  0.36054814659E+01 -0.10855029618E+02  0.17223103159E+02  0.20675261723E+02  0.51100000000E-03 0.  1.
        -12    1    4    4    0    0  0.19240488519E+02 -0.20862249160E+02 -0.45637077003E+01  0.28744691100E+02  0.00000000000E+00 0.  1.
</event>
<event>
 8    1  0.2390921E-006  0.9118800E+02  0.7816164E-02  0.1184000E+00
        -11   -1    0    0    0    0  0.00000000000E+00  0.00000000000E+00  0.45593999997E+02  0.45594000000E+02  0.51100000000E-03 0.  1.
         11   -1    0    0    0    0 -0.00000000000E+00 -0.00000000000E+00 -0.45593999997E+02  0.45594000000E+02  0.51100000000E-03 0. -1.
         23    2    1    2    0    0  0.00000000000E+00 -0.17763568394E-14 -0.35527136788E-14  0.91188000000E+02  0.91188000000E+02 0.  0.
    9900012    2    3    3    0    0 -0.25178498891E+02 -0.98976669829E+01 -0.24977261994E+02  0.54367024527E+02  0.39999864013E+02 0.  0.
        -12    1    3    3    0    0  0.25178498891E+02  0.98976669829E+01  0.24977261994E+02  0.36820975473E+02  0.00000000000E+00 0.  1.
         11    1    4    4    0    0 -0.46346539556E+01 -0.16416336037E+02  0.28398395129E+01  0.17292796040E+02  0.51100000000E-03 0. -1.
        -11    1    4    4    0    0 -0.14634139933E+02  0.54343263524E+01 -0.10679942160E+02  0.18914309908E+02  0.51100000000E-03 0.  1.
         12    1    4    4    0    0 -0.59097050017E+01  0.10843427016E+01 -0.17137159347E+02  0.18159918579E+02  0.00000000000E+00 0. -1.
</event>
<event>
 8    1  0.2390921E-006  0.9118800E+02  0.7816164E-02  0.1184000E+00
        -11   -1    0    0    0    0  0.00000000000E+00  0.00000000000E+00  0.45593999997E+02  0.45594000000E+02  0.51100000000E-03 0. -1.
         11   -1    0    0    0    0 -0.00000000000E+00 -0.00000000000E+00 -0.45593999997E+02  0.45594000000E+02  0.51100000000E-03 0.  1.
         23    2    1    2    0    0  0.00000000000E+00 -0.17763568394E-14  0.71054273576E-14  0.91188000000E+02  0.91188000000E+02 0.  0.
    9900012    2    3    3    0    0  0.14788105935E+02  0.65196923510E+01  0.33084527428E+02  0.54367076320E+02  0.39999982086E+02 0.  0.
        -12    1    3    3    0    0 -0.14788105935E+02 -0.65196923510E+01 -0.33084527428E+02  0.36820923680E+02  0.00000000000E+00 0.  1.
         11    1    4    4    0    0  0.56873881865E+01 -0.14243810543E+02  0.73493283367E+01  0.17007208779E+02  0.51100000000E-03 0. -1.
        -11    1    4    4    0    0  0.36334486239E+01  0.17842890023E+02  0.10755361462E+02  0.21148249897E+02  0.51100000000E-03 0.  1.
         12    1    4    4    0    0  0.54672691244E+01  0.29206128714E+01  0.14979837629E+02  0.16211617644E+02  0.00000000000E+00 0. -1.
</event>
<event>
 8    1  0.2390921E-006  0.9118800E+02  0.7816164E-02  0.1184000E+00
        -11   -1    0    0    0    0  0.00000000000E+00  0.00000000000E+00  0.45593999997E+02  0.45594000000E+02  0.51100000000E-03 0.  1.
         11   -1    0    0    0    0 -0.00000000000E+00 -0.00000000000E+00 -0.45593999997E+02  0.45594000000E+02  0.51100000000E-03 0. -1.
         23    2    1    2    0    0  0.00000000000E+00  0.00000000000E+00 -0.17763568394E-14  0.91188000000E+02  0.91188000000E+02 0.  0.
    9900012    2    3    3    0    0  0.20058768008E+02 -0.27409629903E+02  0.14217538636E+02  0.54367076732E+02  0.39999983027E+02 0.  0.
         12    1    3    3    0    0 -0.20058768008E+02  0.27409629903E+02 -0.14217538636E+02  0.36820923268E+02  0.00000000000E+00 0. -1.
         11    1    4    4    0    0 -0.75685884322E+01 -0.11996799581E+01  0.33548186911E+01  0.83652598028E+01  0.51100000000E-03 0. -1.
        -11    1    4    4    0    0  0.19582351441E+02 -0.11447013251E+02  0.16740541344E+02  0.28191281012E+02  0.51100000000E-03 0.  1.
        -12    1    4    4    0    0  0.80450049994E+01 -0.14762936694E+02 -0.58778213997E+01  0.17810535918E+02  0.00000000000E+00 0.  1.
</event>
<event>
 8    1  0.2390921E-006  0.9118800E+02  0.7816164E-02  0.1184000E+00
        -11   -1    0    0    0    0  0.00000000000E+00  0.00000000000E+00  0.45593999997E+02  0.45594000000E+02  0.51100000000E-03 0.  1.
         11   -1    0    0    0    0 -0.00000000000E+00 -0.00000000000E+00 -0.45593999997E+02  0.45594000000E+02  0.51100000000E-03 0. -1.
         23    2    1    2    0    0  0.00000000000E+00 -0.35527136788E-14  0.00000000000E+00  0.91188000000E+02  0.91188000000E+02 0.  0.
    9900012    2    3    3    0    0  0.23973784266E+02 -0.17805715961E+02 -0.21540509414E+02  0.54367090197E+02  0.40000013723E+02 0.  0.
        -12    1    3    3    0    0 -0.23973784266E+02  0.17805715961E+02  0.21540509414E+02  0.36820909803E+02  0.00000000000E+00 0.  1.
         11    1    4    4    0    0  0.47748524641E+01 -0.22705549866E+02 -0.29688885806E+01  0.23391355464E+02  0.51100000000E-03 0. -1.
        -11    1    4    4    0    0  0.23712480016E+01  0.24349762449E+01  0.22612755638E+01  0.40823147643E+01  0.51100000000E-03 0.  1.
        -12    1    4    4    0    0  0.16827683800E+02  0.24648576601E+01 -0.20832896397E+02  0.26893419969E+02  0.00000000000E+00 0.  1.
</event>
<event>
 8    1  0.2390921E-006  0.9118800E+02  0.7816164E-02  0.1184000E+00
        -11   -1    0    0    0    0  0.00000000000E+00  0.00000000000E+00  0.45593999997E+02  0.45594000000E+02  0.51100000000E-03 0.  1.
         11   -1    0    0    0    0 -0.00000000000E+00 -0.00000000000E+00 -0.45593999997E+02  0.45594000000E+02  0.51100000000E-03 0. -1.
         23    2    1    2    0    0 -0.17763568394E-14  0.00000000000E+00  0.00000000000E+00  0.91188000000E+02  0.91188000000E+02 0.  0.
    9900012    2    3    3    0    0 -0.84580475482E+01  0.41243246816E+01 -0.35598191952E+02  0.54367083490E+02  0.39999998432E+02 0.  0.
        -12    1    3    3    0    0  0.84580475482E+01 -0.41243246816E+01  0.35598191952E+02  0.36820916510E+02  0.00000000000E+00 0.  1.
         11    1    4    4    0    0 -0.76482846040E+01 -0.90701657772E+00 -0.11082147990E+02  0.13495663777E+02  0.51100000000E-03 0. -1.
        -11    1    4    4    0    0  0.15420022031E+02  0.29240520216E+01 -0.16038085624E+02  0.22439860749E+02  0.51100000000E-03 0.  1.
        -12    1    4    4    0    0 -0.16229784975E+02  0.21072892377E+01 -0.84779583374E+01  0.18431558964E+02  0.00000000000E+00 0.  1.
</event>
<event>
 8    1  0.2390921E-006  0.9118800E+02  0.7816164E-02  0.1184000E+00
        -11   -1    0    0    0    0  0.00000000000E+00  0.00000000000E+00  0.45593999997E+02  0.45594000000E+02  0.51100000000E-03 0.  1.
         11   -1    0    0    0    0 -0.00000000000E+00 -0.00000000000E+00 -0.45593999997E+02  0.45594000000E+02  0.51100000000E-03 0. -1.
         23    2    1    2    0    0  0.35527136788E-14  0.00000000000E+00 -0.44408920985E-15  0.91188000000E+02  0.91188000000E+02 0.  0.
    9900012    2    3    3    0    0 -0.29238582474E+02 -0.22270932515E+02  0.22118070675E+01  0.54367065320E+02  0.39999957011E+02 0.  0.
        -12    1    3    3    0    0  0.29238582474E+02  0.22270932515E+02 -0.22118070675E+01  0.36820934680E+02  0.00000000000E+00 0.  1.
         11    1    4    4    0    0 -0.16870004632E+02 -0.86557257166E+01 -0.26394410558E+00  0.18962813893E+02  0.51100000000E-03 0. -1.
        -11    1    4    4    0    0 -0.19412921547E+02 -0.20385602679E+01 -0.46895597047E+01  0.20075089575E+02  0.51100000000E-03 0.  1.
        -12    1    4    4    0    0  0.70443437053E+01 -0.11576646531E+02  0.71653108778E+01  0.15329161853E+02  0.00000000000E+00 0.  1.
</event>
<event>
 8    1  0.2390921E-006  0.9118800E+02  0.7816164E-02  0.1184000E+00
        -11   -1    0    0    0    0  0.00000000000E+00  0.00000000000E+00  0.45593999997E+02  0.45594000000E+02  0.51100000000E-03 0.  1.
         11   -1    0    0    0    0 -0.00000000000E+00 -0.00000000000E+00 -0.45593999997E+02  0.45594000000E+02  0.51100000000E-03 0. -1.
         23    2    1    2    0    0 -0.35527136788E-14 -0.35527136788E-14  0.35527136788E-14  0.91188000000E+02  0.91188000000E+02 0.  0.
    9900012    2    3    3    0    0  0.25537575476E+02  0.19748767480E+02 -0.17708588016E+02  0.54367140862E+02  0.40000129222E+02 0.  0.
        -12    1    3    3    0    0 -0.25537575476E+02 -0.19748767480E+02  0.17708588016E+02  0.36820859138E+02  0.00000000000E+00 0.  1.
         11    1    4    4    0    0  0.61237903593E+01 -0.51265134808E+01 -0.44427359941E+01  0.91389196412E+01  0.51100000000E-03 0. -1.
        -11    1    4    4    0    0  0.12075659348E+01 -0.34529705920E+01 -0.10869800417E+02  0.11468817845E+02  0.51100000000E-03 0.  1.
         12    1    4    4    0    0  0.18206219182E+02  0.28328251553E+02 -0.23960516047E+01  0.33759403375E+02  0.00000000000E+00 0. -1.
</event>
<event>
 8    1  0.2390921E-006  0.9118800E+02  0.7816164E-02  0.1184000E+00
        -11   -1    0    0    0    0  0.00000000000E+00  0.00000000000E+00  0.45593999997E+02  0.45594000000E+02  0.51100000000E-03 0. -1.
         11   -1    0    0    0    0 -0.00000000000E+00 -0.00000000000E+00 -0.45593999997E+02  0.45594000000E+02  0.51100000000E-03 0.  1.
         23    2    1    2    0    0  0.00000000000E+00  0.00000000000E+00  0.35527136788E-14  0.91188000000E+02  0.91188000000E+02 0.  0.
    9900012    2    3    3    0    0 -0.66567025178E+01  0.18023665217E+02  0.31410429286E+02  0.54367092024E+02  0.40000017887E+02 0.  0.
        -12    1    3    3    0    0  0.66567025178E+01 -0.18023665217E+02 -0.31410429286E+02  0.36820907976E+02  0.00000000000E+00 0.  1.
         11    1    4    4    0    0 -0.56167983468E+01 -0.23944779826E+01  0.25062934914E+01  0.66002617981E+01  0.51100000000E-03 0. -1.
        -11    1    4    4    0    0  0.11461898625E+01  0.26201484310E+02  0.10324652809E+02  0.28185634411E+02  0.51100000000E-03 0.  1.
        -12    1    4    4    0    0 -0.21860940335E+01 -0.57833411108E+01  0.18579482986E+02  0.19581195815E+02  0.00000000000E+00 0.  1.
</event>
<event>
 8    1  0.2390921E-006  0.9118800E+02  0.7816164E-02  0.1184000E+00
        -11   -1    0    0    0    0  0.00000000000E+00  0.00000000000E+00  0.45593999997E+02  0.45594000000E+02  0.51100000000E-03 0.  1.
         11   -1    0    0    0    0 -0.00000000000E+00 -0.00000000000E+00 -0.45593999997E+02  0.45594000000E+02  0.51100000000E-03 0. -1.
         23    2    1    2    0    0  0.71054273576E-14 -0.17763568394E-14  0.17763568394E-14  0.91188000000E+02  0.91188000000E+02 0.  0.
    9900012    2    3    3    0    0  0.33094690317E+02 -0.84821095569E+01  0.13732327724E+02  0.54367061196E+02  0.39999947609E+02 0.  0.
         12    1    3    3    0    0 -0.33094690317E+02  0.84821095569E+01 -0.13732327724E+02  0.36820938804E+02  0.00000000000E+00 0. -1.
         11    1    4    4    0    0 -0.79397625761E+00 -0.87808895302E+01  0.96858461476E+01  0.13097711063E+02  0.51100000000E-03 0. -1.
        -11    1    4    4    0    0  0.25720773203E+02  0.27952511115E+01  0.12949479037E+02  0.28931999767E+02  0.51100000000E-03 0.  1.
        -12    1    4    4    0    0  0.81678933716E+01 -0.24964711382E+01 -0.89029974606E+01  0.12337350366E+02  0.00000000000E+00 0.  1.
</event>
<event>
 8    1  0.2390921E-006  0.9118800E+02  0.7816164E-02  0.1184000E+00
        -11   -1    0    0    0    0  0.00000000000E+00  0.00000000000E+00  0.45593999997E+02  0.45594000000E+02  0.51100000000E-03 0. -1.
         11   -1    0    0    0    0 -0.00000000000E+00 -0.00000000000E+00 -0.45593999997E+02  0.45594000000E+02  0.51100000000E-03 0.  1.
         23    2    1    2    0    0  0.00000000000E+00  0.17763568394E-14  0.00000000000E+00  0.91188000000E+02  0.91188000000E+02 0.  0.
    9900012    2    3    3    0    0  0.33330751036E+02 -0.11522230473E+02  0.10586834160E+02  0.54367057356E+02  0.39999938854E+02 0.  0.
         12    1    3    3    0    0 -0.33330751036E+02  0.11522230473E+02 -0.10586834160E+02  0.36820942644E+02  0.00000000000E+00 0. -1.
         11    1    4    4    0    0 -0.68917482236E+00 -0.16172540254E+02  0.31156570833E+01  0.16484336187E+02  0.51100000000E-03 0. -1.
        -11    1    4    4    0    0  0.22106072781E+02 -0.96453789955E-01 -0.16155021266E+01  0.22165234141E+02  0.51100000000E-03 0.  1.
        -12    1    4    4    0    0  0.11913853077E+02  0.47467635708E+01  0.90866792033E+01  0.15717487028E+02  0.00000000000E+00 0.  1.
</event>
<event>
 8    1  0.2390921E-006  0.9118800E+02  0.7816164E-02  0.1184000E+00
        -11   -1    0    0    0    0  0.00000000000E+00  0.00000000000E+00  0.45593999997E+02  0.45594000000E+02  0.51100000000E-03 0. -1.
         11   -1    0    0    0    0 -0.00000000000E+00 -0.00000000000E+00 -0.45593999997E+02  0.45594000000E+02  0.51100000000E-03 0.  1.
         23    2    1    2    0    0  0.00000000000E+00  0.17763568394E-14  0.00000000000E+00  0.91188000000E+02  0.91188000000E+02 0.  0.
    9900012    2    3    3    0    0  0.32588301605E+02 -0.11996377163E+02 -0.12242053779E+02  0.54367104475E+02  0.40000046271E+02 0.  0.
         12    1    3    3    0    0 -0.32588301605E+02  0.11996377163E+02  0.12242053779E+02  0.36820895525E+02  0.00000000000E+00 0. -1.
         11    1    4    4    0    0  0.45259598549E+01  0.99616680814E+01 -0.56299553408E+01  0.12305102233E+02  0.51100000000E-03 0. -1.
        -11    1    4    4    0    0  0.29856458413E+02 -0.19763745758E+02 -0.10514682878E+01  0.35820655231E+02  0.51100000000E-03 0.  1.
         12    1    4    4    0    0 -0.17941166621E+01 -0.21942994858E+01 -0.55606301507E+01  0.62413470104E+01  0.00000000000E+00 0. -1.
</event>
<event>
 8    1  0.2390921E-006  0.9118800E+02  0.7816164E-02  0.1184000E+00
        -11   -1    0    0    0    0  0.00000000000E+00  0.00000000000E+00  0.45593999997E+02  0.45594000000E+02  0.51100000000E-03 0.  1.
         11   -1    0    0    0    0 -0.00000000000E+00 -0.00000000000E+00 -0.45593999997E+02  0.45594000000E+02  0.51100000000E-03 0. -1.
         23    2    1    2    0    0  0.00000000000E+00  0.27755575616E-16  0.00000000000E+00  0.91188000000E+02  0.91188000000E+02 0.  0.
    9900012    2    3    3    0    0  0.30383690893E+02 -0.24672880228E+00 -0.20797824742E+02  0.54367094778E+02  0.40000024165E+02 0.  0.
        -12    1    3    3    0    0 -0.30383690893E+02  0.24672880228E+00  0.20797824742E+02  0.36820905222E+02  0.00000000000E+00 0.  1.
         11    1    4    4    0    0  0.29279589862E+02  0.62302654246E+00 -0.21239460919E+02  0.36177302898E+02  0.51100000000E-03 0. -1.
        -11    1    4    4    0    0  0.94622323111E+01 -0.19442081573E+01  0.11746432738E+01  0.97310622621E+01  0.51100000000E-03 0.  1.
         12    1    4    4    0    0 -0.83581312801E+01  0.10744528126E+01 -0.73300709646E+00  0.84587296177E+01  0.00000000000E+00 0. -1.
</event>
<event>
 8    1  0.2390921E-006  0.9118800E+02  0.7816164E-02  0.1184000E+00
        -11   -1    0    0    0    0  0.00000000000E+00  0.00000000000E+00  0.45593999997E+02  0.45594000000E+02  0.51100000000E-03 0.  1.
         11   -1    0    0    0    0 -0.00000000000E+00 -0.00000000000E+00 -0.45593999997E+02  0.45594000000E+02  0.51100000000E-03 0. -1.
         23    2    1    2    0    0  0.00000000000E+00  0.00000000000E+00  0.00000000000E+00  0.91188000000E+02  0.91188000000E+02 0.  0.
    9900012    2    3    3    0    0  0.33358175180E+02  0.10508534277E+02  0.11514405399E+02  0.54367100016E+02  0.40000036106E+02 0.  0.
         12    1    3    3    0    0 -0.33358175180E+02 -0.10508534277E+02 -0.11514405399E+02  0.36820899984E+02  0.00000000000E+00 0. -1.
         11    1    4    4    0    0  0.18310134387E+01  0.88494729083E+01  0.59361905732E+01  0.10812221777E+02  0.51100000000E-03 0.  1.
        -11    1    4    4    0    0  0.12275784946E+01 -0.95488612527E+01  0.58162037317E+01  0.11247929867E+02  0.51100000000E-03 0. -1.
        -12    1    4    4    0    0  0.30299583246E+02  0.11207922621E+02 -0.23798890611E+00  0.32306948372E+02  0.00000000000E+00 0.  1.
</event>
<event>
 8    1  0.2390921E-006  0.9118800E+02  0.7816164E-02  0.1184000E+00
        -11   -1    0    0    0    0  0.00000000000E+00  0.00000000000E+00  0.45593999997E+02  0.45594000000E+02  0.51100000000E-03 0.  1.
         11   -1    0    0    0    0 -0.00000000000E+00 -0.00000000000E+00 -0.45593999997E+02  0.45594000000E+02  0.51100000000E-03 0. -1.
         23    2    1    2    0    0  0.71054273576E-14  0.00000000000E+00 -0.71054273576E-14  0.91188000000E+02  0.91188000000E+02 0.  0.
    9900012    2    3    3    0    0  0.19963605296E+02 -0.24242643808E+02 -0.19222869479E+02  0.54367217469E+02  0.40000303863E+02 0.  0.
        -12    1    3    3    0    0 -0.19963605296E+02  0.24242643808E+02  0.19222869479E+02  0.36820782531E+02  0.00000000000E+00 0.  1.
         11    1    4    4    0    0  0.14915224175E+02  0.32744334270E+01 -0.18305776976E+02  0.23838777180E+02  0.51100000000E-03 0. -1.
        -11    1    4    4    0    0  0.11748856522E+01 -0.45831597492E+00 -0.28591611070E+01  0.31249339713E+01  0.51100000000E-03 0.  1.
        -12    1    4    4    0    0  0.38734954684E+01 -0.27058761260E+02  0.19420686043E+01  0.27403506318E+02  0.00000000000E+00 0.  1.
</event>
<event>
 8    1  0.2390921E-006  0.9118800E+02  0.7816164E-02  0.1184000E+00
        -11   -1    0    0    0    0  0.00000000000E+00  0.00000000000E+00  0.45593999997E+02  0.45594000000E+02  0.51100000000E-03 0.  1.
         11   -1    0    0    0    0 -0.00000000000E+00 -0.00000000000E+00 -0.45593999997E+02  0.45594000000E+02  0.51100000000E-03 0. -1.
         23    2    1    2    0    0 -0.17763568394E-14 -0.17763568394E-14  0.00000000000E+00  0.91188000000E+02  0.91188000000E+02 0.  0.
    9900012    2    3    3    0    0  0.11038280217E+02  0.10727462676E+02  0.33449320640E+02  0.54367093753E+02  0.40000021828E+02 0.  0.
         12    1    3    3    0    0 -0.11038280217E+02 -0.10727462676E+02 -0.33449320640E+02  0.36820906247E+02  0.00000000000E+00 0. -1.
         11    1    4    4    0    0  0.54122288078E+01 -0.67842409931E+01  0.19610022897E+02  0.21444606427E+02  0.51100000000E-03 0. -1.
        -11    1    4    4    0    0  0.62596138993E+00  0.33391789003E+01 -0.66764154062E+01  0.74910924655E+01  0.51100000000E-03 0.  1.
        -12    1    4    4    0    0  0.50000900196E+01  0.14172524769E+02  0.20515713149E+02  0.25431394860E+02  0.00000000000E+00 0.  1.
</event>
<event>
 8    1  0.2390921E-006  0.9118800E+02  0.7816164E-02  0.1184000E+00
        -11   -1    0    0    0    0  0.00000000000E+00  0.00000000000E+00  0.45593999997E+02  0.45594000000E+02  0.51100000000E-03 0.  1.
         11   -1    0    0    0    0 -0.00000000000E+00 -0.00000000000E+00 -0.45593999997E+02  0.45594000000E+02  0.51100000000E-03 0. -1.
         23    2    1    2    0    0  0.88817841970E-15 -0.35527136788E-14  0.00000000000E+00  0.91188000000E+02  0.91188000000E+02 0.  0.
    9900012    2    3    3    0    0  0.54752266760E+01 -0.27447549608E+02  0.23925587747E+02  0.54367084264E+02  0.40000000196E+02 0.  0.
        -12    1    3    3    0    0 -0.54752266760E+01  0.27447549608E+02 -0.23925587747E+02  0.36820915736E+02  0.00000000000E+00 0.  1.
         11    1    4    4    0    0 -0.64339576756E+01 -0.75790591841E+00  0.54457391054E+01  0.84632326812E+01  0.51100000000E-03 0. -1.
        -11    1    4    4    0    0  0.10720250741E+02 -0.15726304103E+02 -0.52443564427E+01  0.19741927247E+02  0.51100000000E-03 0.  1.
         12    1    4    4    0    0  0.11889336107E+01 -0.10963339587E+02  0.23724205084E+02  0.26161924335E+02  0.00000000000E+00 0. -1.
</event>
<event>
 8    1  0.2390921E-006  0.9118800E+02  0.7816164E-02  0.1184000E+00
        -11   -1    0    0    0    0  0.00000000000E+00  0.00000000000E+00  0.45593999997E+02  0.45594000000E+02  0.51100000000E-03 0.  1.
         11   -1    0    0    0    0 -0.00000000000E+00 -0.00000000000E+00 -0.45593999997E+02  0.45594000000E+02  0.51100000000E-03 0. -1.
         23    2    1    2    0    0  0.00000000000E+00 -0.71054273576E-14 -0.53290705182E-14  0.91188000000E+02  0.91188000000E+02 0.  0.
    9900012    2    3    3    0    0 -0.13511273090E+02  0.32371695012E+02  0.11193780951E+02  0.54367056633E+02  0.39999937206E+02 0.  0.
         12    1    3    3    0    0  0.13511273090E+02 -0.32371695012E+02 -0.11193780951E+02  0.36820943367E+02  0.00000000000E+00 0. -1.
         11    1    4    4    0    0 -0.60803319501E+01  0.32538335524E+02  0.17230669113E+02  0.37317685803E+02  0.51100000000E-03 0. -1.
        -11    1    4    4    0    0 -0.76212402265E+01 -0.60121979026E+01 -0.55468524250E+01  0.11180223535E+02  0.51100000000E-03 0.  1.
        -12    1    4    4    0    0  0.19029908673E+00  0.58455573904E+01 -0.49003573717E+00  0.58691472950E+01  0.00000000000E+00 0.  1.
</event>
<event>
 8    1  0.2390921E-006  0.9118800E+02  0.7816164E-02  0.1184000E+00
        -11   -1    0    0    0    0  0.00000000000E+00  0.00000000000E+00  0.45593999997E+02  0.45594000000E+02  0.51100000000E-03 0.  1.
         11   -1    0    0    0    0 -0.00000000000E+00 -0.00000000000E+00 -0.45593999997E+02  0.45594000000E+02  0.51100000000E-03 0. -1.
         23    2    1    2    0    0  0.35527136788E-14  0.35527136788E-14  0.35527136788E-14  0.91188000000E+02  0.91188000000E+02 0.  0.
    9900012    2    3    3    0    0  0.16510750050E+02  0.29546588180E+02  0.14497402689E+02  0.54367076261E+02  0.39999981953E+02 0.  0.
         12    1    3    3    0    0 -0.16510750050E+02 -0.29546588180E+02 -0.14497402689E+02  0.36820923739E+02  0.00000000000E+00 0. -1.
         11    1    4    4    0    0 -0.26930011639E+01 -0.65311814477E+01  0.45757472401E+00  0.70794040188E+01  0.51100000000E-03 0.  1.
        -11    1    4    4    0    0  0.11012021877E+02  0.28129253645E+02  0.13763176591E+01  0.30239275571E+02  0.51100000000E-03 0. -1.
        -12    1    4    4    0    0  0.81917293361E+01  0.79485159819E+01  0.12663510305E+02  0.17048396672E+02  0.00000000000E+00 0.  1.
</event>
<event>
 8    1  0.2390921E-006  0.9118800E+02  0.7816164E-02  0.1184000E+00
        -11   -1    0    0    0    0  0.00000000000E+00  0.00000000000E+00  0.45593999997E+02  0.45594000000E+02  0.51100000000E-03 0. -1.
         11   -1    0    0    0    0 -0.00000000000E+00 -0.00000000000E+00 -0.45593999997E+02  0.45594000000E+02  0.51100000000E-03 0.  1.
         23    2    1    2    0    0  0.35527136788E-14  0.00000000000E+00 -0.88817841970E-15  0.91188000000E+02  0.91188000000E+02 0.  0.
    9900012    2    3    3    0    0 -0.23322313149E+02  0.27650014119E+02 -0.68794688029E+01  0.54367073037E+02  0.39999974603E+02 0.  0.
         12    1    3    3    0    0  0.23322313149E+02 -0.27650014119E+02  0.68794688029E+01  0.36820926963E+02  0.00000000000E+00 0. -1.
         11    1    4    4    0    0  0.28299081746E+01  0.54568636429E+01  0.80885171448E+01  0.10159224919E+02  0.51100000000E-03 0. -1.
        -11    1    4    4    0    0 -0.15733507106E+02  0.23316208466E+02 -0.29800650398E+01  0.28285501780E+02  0.51100000000E-03 0.  1.
         12    1    4    4    0    0 -0.10418714218E+02 -0.11230579902E+01 -0.11987920908E+02  0.15922346338E+02  0.00000000000E+00 0. -1.
</event>
<event>
 8    1  0.2390921E-006  0.9118800E+02  0.7816164E-02  0.1184000E+00
        -11   -1    0    0    0    0  0.00000000000E+00  0.00000000000E+00  0.45593999997E+02  0.45594000000E+02  0.51100000000E-03 0.  1.
         11   -1    0    0    0    0 -0.00000000000E+00 -0.00000000000E+00 -0.45593999997E+02  0.45594000000E+02  0.51100000000E-03 0. -1.
         23    2    1    2    0    0  0.00000000000E+00  0.35527136788E-14  0.00000000000E+00  0.91188000000E+02  0.91188000000E+02 0.  0.
    9900012    2    3    3    0    0  0.61887293394E+01  0.27812091224E+02  0.23323108028E+02  0.54367079897E+02  0.39999990242E+02 0.  0.
         12    1    3    3    0    0 -0.61887293394E+01 -0.27812091224E+02 -0.23323108028E+02  0.36820920103E+02  0.00000000000E+00 0. -1.
         11    1    4    4    0    0 -0.68943864116E+01  0.24686630917E+02  0.33331957343E+01  0.25847098563E+02  0.51100000000E-03 0. -1.
        -11    1    4    4    0    0  0.12044113981E+02  0.74651072227E+01  0.19392523307E+02  0.24017878090E+02  0.51100000000E-03 0.  1.
        -12    1    4    4    0    0  0.10390017697E+01 -0.43396469156E+01  0.59738898619E+00  0.45021032452E+01  0.00000000000E+00 0.  1.
</event>
<event>
 8    1  0.2390921E-006  0.9118800E+02  0.7816164E-02  0.1184000E+00
        -11   -1    0    0    0    0  0.00000000000E+00  0.00000000000E+00  0.45593999997E+02  0.45594000000E+02  0.51100000000E-03 0. -1.
         11   -1    0    0    0    0 -0.00000000000E+00 -0.00000000000E+00 -0.45593999997E+02  0.45594000000E+02  0.51100000000E-03 0.  1.
         23    2    1    2    0    0  0.00000000000E+00  0.17763568394E-14 -0.35527136788E-14  0.91188000000E+02  0.91188000000E+02 0.  0.
    9900012    2    3    3    0    0 -0.14036243491E+02  0.13178980210E+02 -0.31385968606E+02  0.54367072852E+02  0.39999974181E+02 0.  0.
         12    1    3    3    0    0  0.14036243491E+02 -0.13178980210E+02  0.31385968606E+02  0.36820927148E+02  0.00000000000E+00 0. -1.
         11    1    4    4    0    0 -0.87573858312E+01  0.17072223055E+01 -0.35630496517E+01  0.96073793346E+01  0.51100000000E-03 0. -1.
        -11    1    4    4    0    0  0.44840040519E+01 -0.81703239862E+01  0.13273898666E-01  0.93199068040E+01  0.51100000000E-03 0.  1.
        -12    1    4    4    0    0 -0.97628617116E+01  0.19642081890E+02 -0.27836192853E+02  0.35439786714E+02  0.00000000000E+00 0.  1.
</event>
<event>
 8    1  0.2390921E-006  0.9118800E+02  0.7816164E-02  0.1184000E+00
        -11   -1    0    0    0    0  0.00000000000E+00  0.00000000000E+00  0.45593999997E+02  0.45594000000E+02  0.51100000000E-03 0. -1.
         11   -1    0    0    0    0 -0.00000000000E+00 -0.00000000000E+00 -0.45593999997E+02  0.45594000000E+02  0.51100000000E-03 0.  1.
         23    2    1    2    0    0  0.00000000000E+00 -0.44408920985E-15  0.35527136788E-14  0.91188000000E+02  0.91188000000E+02 0.  0.
    9900012    2    3    3    0    0  0.25293370036E+02  0.32910418983E+01 -0.26555484945E+02  0.54367091466E+02  0.40000016616E+02 0.  0.
         12    1    3    3    0    0 -0.25293370036E+02 -0.32910418983E+01  0.26555484945E+02  0.36820908534E+02  0.00000000000E+00 0. -1.
         11    1    4    4    0    0  0.48436355058E+01 -0.17440881121E+02 -0.97057542159E+01  0.20538909522E+02  0.51100000000E-03 0. -1.
        -11    1    4    4    0    0  0.13278377793E+02  0.11087123885E+02 -0.10486976448E+02  0.20229095584E+02  0.51100000000E-03 0.  1.
         12    1    4    4    0    0  0.71713567374E+01  0.96447991346E+01 -0.63627542812E+01  0.13599086361E+02  0.00000000000E+00 0. -1.
</event>
<event>
 8    1  0.2390921E-006  0.9118800E+02  0.7816164E-02  0.1184000E+00
        -11   -1    0    0    0    0  0.00000000000E+00  0.00000000000E+00  0.45593999997E+02  0.45594000000E+02  0.51100000000E-03 0. -1.
         11   -1    0    0    0    0 -0.00000000000E+00 -0.00000000000E+00 -0.45593999997E+02  0.45594000000E+02  0.51100000000E-03 0.  1.
         23    2    1    2    0    0  0.88817841970E-15  0.00000000000E+00  0.00000000000E+00  0.91188000000E+02  0.91188000000E+02 0.  0.
    9900012    2    3    3    0    0 -0.29878228006E+01  0.13859141474E+02  0.33982014817E+02  0.54367079065E+02  0.39999988344E+02 0.  0.
        -12    1    3    3    0    0  0.29878228006E+01 -0.13859141474E+02 -0.33982014817E+02  0.36820920935E+02  0.00000000000E+00 0.  1.
         11    1    4    4    0    0  0.49728878108E+01  0.35397910937E+01  0.16959058491E+02  0.18024133803E+02  0.51100000000E-03 0. -1.
        -11    1    4    4    0    0  0.10352170439E+02  0.83401921934E+01  0.43600111429E+01  0.13990565966E+02  0.51100000000E-03 0.  1.
        -12    1    4    4    0    0 -0.18312881050E+02  0.19791581867E+01  0.12662945183E+02  0.22352379296E+02  0.00000000000E+00 0.  1.
</event>
<event>
 8    1  0.2390921E-006  0.9118800E+02  0.7816164E-02  0.1184000E+00
        -11   -1    0    0    0    0  0.00000000000E+00  0.00000000000E+00  0.45593999997E+02  0.45594000000E+02  0.51100000000E-03 0. -1.
         11   -1    0    0    0    0 -0.00000000000E+00 -0.00000000000E+00 -0.45593999997E+02  0.45594000000E+02  0.51100000000E-03 0.  1.
         23    2    1    2    0    0 -0.17763568394E-14  0.00000000000E+00 -0.71054273576E-14  0.91188000000E+02  0.91188000000E+02 0.  0.
    9900012    2    3    3    0    0  0.18429616412E+01  0.71172437266E+01 -0.36079469963E+02  0.54367084494E+02  0.40000000721E+02 0.  0.
         12    1    3    3    0    0 -0.18429616412E+01 -0.71172437266E+01  0.36079469963E+02  0.36820915506E+02  0.00000000000E+00 0. -1.
         11    1    4    4    0    0 -0.12282219970E+02  0.11136058524E+02 -0.84886415661E+01  0.18625835894E+02  0.51100000000E-03 0. -1.
        -11    1    4    4    0    0  0.95214681653E+01  0.13079898975E+01 -0.27019113501E+02  0.28677546761E+02  0.51100000000E-03 0.  1.
        -12    1    4    4    0    0  0.46037134458E+01 -0.53268046946E+01 -0.57171489586E+00  0.70637018389E+01  0.00000000000E+00 0.  1.
</event>
<event>
 8    1  0.2390921E-006  0.9118800E+02  0.7816164E-02  0.1184000E+00
        -11   -1    0    0    0    0  0.00000000000E+00  0.00000000000E+00  0.45593999997E+02  0.45594000000E+02  0.51100000000E-03 0. -1.
         11   -1    0    0    0    0 -0.00000000000E+00 -0.00000000000E+00 -0.45593999997E+02  0.45594000000E+02  0.51100000000E-03 0.  1.
         23    2    1    2    0    0  0.00000000000E+00  0.00000000000E+00 -0.44408920985E-15  0.91188000000E+02  0.91188000000E+02 0.  0.
    9900012    2    3    3    0    0 -0.99884812000E+01  0.35374268424E+02 -0.21613440801E+01  0.54367081605E+02  0.39999994134E+02 0.  0.
        -12    1    3    3    0    0  0.99884812000E+01 -0.35374268424E+02  0.21613440801E+01  0.36820918395E+02  0.00000000000E+00 0.  1.
         11    1    4    4    0    0 -0.12458910711E+02  0.98523254117E+01 -0.58979887117E+01  0.16943407072E+02  0.51100000000E-03 0. -1.
        -11    1    4    4    0    0 -0.38051235341E+01  0.59884244876E+00  0.10216344681E+02  0.10918391653E+02  0.51100000000E-03 0.  1.
         12    1    4    4    0    0  0.62755530449E+01  0.24923100564E+02 -0.64797000497E+01  0.26505282879E+02  0.00000000000E+00 0. -1.
</event>
<event>
 8    1  0.2390921E-006  0.9118800E+02  0.7816164E-02  0.1184000E+00
        -11   -1    0    0    0    0  0.00000000000E+00  0.00000000000E+00  0.45593999997E+02  0.45594000000E+02  0.51100000000E-03 0.  1.
         11   -1    0    0    0    0 -0.00000000000E+00 -0.00000000000E+00 -0.45593999997E+02  0.45594000000E+02  0.51100000000E-03 0. -1.
         23    2    1    2    0    0  0.00000000000E+00  0.00000000000E+00 -0.35527136788E-14  0.91188000000E+02  0.91188000000E+02 0.  0.
    9900012    2    3    3    0    0  0.88504921318E+01  0.28492066707E+02 -0.21578943967E+02  0.54367083404E+02  0.39999998237E+02 0.  0.
        -12    1    3    3    0    0 -0.88504921318E+01 -0.28492066707E+02  0.21578943967E+02  0.36820916596E+02  0.00000000000E+00 0.  1.
         11    1    4    4    0    0 -0.14882839949E+01  0.74147317515E+01  0.36443050853E+01  0.83948910662E+01  0.51100000000E-03 0.  1.
        -11    1    4    4    0    0  0.24035956347E+01 -0.74155485643E+01 -0.12402985810E+01  0.78934132868E+01  0.51100000000E-03 0. -1.
         12    1    4    4    0    0  0.79351804920E+01  0.28492883520E+02 -0.23982950472E+02  0.38078779051E+02  0.00000000000E+00 0. -1.
</event>
<event>
 8    1  0.2390921E-006  0.9118800E+02  0.7816164E-02  0.1184000E+00
        -11   -1    0    0    0    0  0.00000000000E+00  0.00000000000E+00  0.45593999997E+02  0.45594000000E+02  0.51100000000E-03 0. -1.
         11   -1    0    0    0    0 -0.00000000000E+00 -0.00000000000E+00 -0.45593999997E+02  0.45594000000E+02  0.51100000000E-03 0.  1.
         23    2    1    2    0    0  0.35527136788E-14  0.00000000000E+00  0.00000000000E+00  0.91188000000E+02  0.91188000000E+02 0.  0.
    9900012    2    3    3    0    0 -0.66796222302E+01 -0.33283079378E+02  0.14261780245E+02  0.54367094229E+02  0.40000022914E+02 0.  0.
         12    1    3    3    0    0  0.66796222302E+01  0.33283079378E+02 -0.14261780245E+02  0.36820905771E+02  0.00000000000E+00 0. -1.
         11    1    4    4    0    0  0.91616336247E+01 -0.12707665999E+02 -0.24777774174E+01  0.15860633248E+02  0.51100000000E-03 0.  1.
        -11    1    4    4    0    0 -0.18681230198E+02 -0.61259818715E+01  0.70840529259E+01  0.20897363990E+02  0.51100000000E-03 0. -1.
         12    1    4    4    0    0  0.28399743430E+01 -0.14449431507E+02  0.96555047368E+01  0.17609096992E+02  0.00000000000E+00 0. -1.
</event>
<event>
 8    1  0.2390921E-006  0.9118800E+02  0.7816164E-02  0.1184000E+00
        -11   -1    0    0    0    0  0.00000000000E+00  0.00000000000E+00  0.45593999997E+02  0.45594000000E+02  0.51100000000E-03 0. -1.
         11   -1    0    0    0    0 -0.00000000000E+00 -0.00000000000E+00 -0.45593999997E+02  0.45594000000E+02  0.51100000000E-03 0.  1.
         23    2    1    2    0    0 -0.35527136788E-14 -0.66613381478E-15  0.00000000000E+00  0.91188000000E+02  0.91188000000E+02 0.  0.
    9900012    2    3    3    0    0  0.25774242202E+02  0.10453100904E+01 -0.26275010017E+02  0.54367076795E+02  0.39999983169E+02 0.  0.
         12    1    3    3    0    0 -0.25774242202E+02 -0.10453100904E+01  0.26275010017E+02  0.36820923205E+02  0.00000000000E+00 0. -1.
         11    1    4    4    0    0 -0.56954550099E+01  0.26587343830E+01  0.49801186480E+01  0.80192679403E+01  0.51100000000E-03 0. -1.
        -11    1    4    4    0    0  0.15092630381E+02  0.46013060457E+01 -0.95015347825E+01  0.18418432958E+02  0.51100000000E-03 0.  1.
        -12    1    4    4    0    0  0.16377066831E+02 -0.62147303382E+01 -0.21753593882E+02  0.27929375896E+02  0.00000000000E+00 0.  1.
</event>
<event>
 8    1  0.2390921E-006  0.9118800E+02  0.7816164E-02  0.1184000E+00
        -11   -1    0    0    0    0  0.00000000000E+00  0.00000000000E+00  0.45593999997E+02  0.45594000000E+02  0.51100000000E-03 0. -1.
         11   -1    0    0    0    0 -0.00000000000E+00 -0.00000000000E+00 -0.45593999997E+02  0.45594000000E+02  0.51100000000E-03 0.  1.
         23    2    1    2    0    0  0.00000000000E+00 -0.35527136788E-14  0.35527136788E-14  0.91188000000E+02  0.91188000000E+02 0.  0.
    9900012    2    3    3    0    0 -0.22595235681E+02 -0.21446848159E+02  0.19628250456E+02  0.54367079487E+02  0.39999989307E+02 0.  0.
        -12    1    3    3    0    0  0.22595235681E+02  0.21446848159E+02 -0.19628250456E+02  0.36820920513E+02  0.00000000000E+00 0.  1.
         11    1    4    4    0    0 -0.65796584797E+01 -0.17376777405E+02  0.52342149724E+01  0.19303919429E+02  0.51100000000E-03 0. -1.
        -11    1    4    4    0    0  0.99510044801E+00 -0.11242030643E+02  0.11957171500E+02  0.16442245236E+02  0.51100000000E-03 0.  1.
        -12    1    4    4    0    0 -0.17010677650E+02  0.71719598885E+01  0.24368639838E+01  0.18620914822E+02  0.00000000000E+00 0.  1.
</event>
<event>
 8    1  0.2390921E-006  0.9118800E+02  0.7816164E-02  0.1184000E+00
        -11   -1    0    0    0    0  0.00000000000E+00  0.00000000000E+00  0.45593999997E+02  0.45594000000E+02  0.51100000000E-03 0.  1.
         11   -1    0    0    0    0 -0.00000000000E+00 -0.00000000000E+00 -0.45593999997E+02  0.45594000000E+02  0.51100000000E-03 0. -1.
         23    2    1    2    0    0  0.17763568394E-14 -0.17763568394E-14  0.35527136788E-14  0.91188000000E+02  0.91188000000E+02 0.  0.
    9900012    2    3    3    0    0  0.15132396850E+02 -0.12504226739E+02  0.31151792625E+02  0.54367091476E+02  0.40000016639E+02 0.  0.
         12    1    3    3    0    0 -0.15132396850E+02  0.12504226739E+02 -0.31151792625E+02  0.36820908524E+02  0.00000000000E+00 0. -1.
         11    1    4    4    0    0  0.68357483565E+01  0.42117591198E+01 -0.45431225641E+00  0.80419382219E+01  0.51100000000E-03 0. -1.
        -11    1    4    4    0    0 -0.97768041350E+01 -0.70296341334E+01  0.58045183961E+01  0.13367650849E+02  0.51100000000E-03 0.  1.
        -12    1    4    4    0    0  0.18073452628E+02 -0.96863517255E+01  0.25801586485E+02  0.32957502406E+02  0.00000000000E+00 0.  1.
</event>
<event>
 8    1  0.2390921E-006  0.9118800E+02  0.7816164E-02  0.1184000E+00
        -11   -1    0    0    0    0  0.00000000000E+00  0.00000000000E+00  0.45593999997E+02  0.45594000000E+02  0.51100000000E-03 0.  1.
         11   -1    0    0    0    0 -0.00000000000E+00 -0.00000000000E+00 -0.45593999997E+02  0.45594000000E+02  0.51100000000E-03 0. -1.
         23    2    1    2    0    0 -0.35527136788E-14  0.00000000000E+00  0.00000000000E+00  0.91188000000E+02  0.91188000000E+02 0.  0.
    9900012    2    3    3    0    0  0.26251101328E+02 -0.16197605999E+02  0.20107169897E+02  0.54367067879E+02  0.39999962843E+02 0.  0.
        -12    1    3    3    0    0 -0.26251101328E+02  0.16197605999E+02 -0.20107169897E+02  0.36820932121E+02  0.00000000000E+00 0.  1.
         11    1    4    4    0    0  0.11192497908E+02 -0.90928458532E+01  0.16574997171E+02  0.21970033833E+02  0.51100000000E-03 0. -1.
        -11    1    4    4    0    0  0.70540016463E+01  0.30408491116E+01  0.13865153394E+02  0.15850810120E+02  0.51100000000E-03 0.  1.
         12    1    4    4    0    0  0.80046017736E+01 -0.10145609257E+02 -0.10332980668E+02  0.16546223927E+02  0.00000000000E+00 0. -1.
</event>
<event>
 8    1  0.2390921E-006  0.9118800E+02  0.7816164E-02  0.1184000E+00
        -11   -1    0    0    0    0  0.00000000000E+00  0.00000000000E+00  0.45593999997E+02  0.45594000000E+02  0.51100000000E-03 0. -1.
         11   -1    0    0    0    0 -0.00000000000E+00 -0.00000000000E+00 -0.45593999997E+02  0.45594000000E+02  0.51100000000E-03 0.  1.
         23    2    1    2    0    0  0.00000000000E+00 -0.44408920985E-14  0.00000000000E+00  0.91188000000E+02  0.91188000000E+02 0.  0.
    9900012    2    3    3    0    0 -0.13903209272E+02 -0.65521593141E+01 -0.33459660065E+02  0.54367097357E+02  0.40000030046E+02 0.  0.
         12    1    3    3    0    0  0.13903209272E+02  0.65521593141E+01  0.33459660065E+02  0.36820902643E+02  0.00000000000E+00 0. -1.
         11    1    4    4    0    0 -0.37688417336E+01  0.21298651400E+01  0.14322854705E+01  0.45598174807E+01  0.51100000000E-03 0. -1.
        -11    1    4    4    0    0  0.29084570701E+01  0.10187634139E+02 -0.39877750545E+01  0.11320307505E+02  0.51100000000E-03 0.  1.
        -12    1    4    4    0    0 -0.13042824609E+02 -0.18869658593E+02 -0.30904170481E+02  0.38486972371E+02  0.00000000000E+00 0.  1.
</event>
<event>
 8    1  0.2390921E-006  0.9118800E+02  0.7816164E-02  0.1184000E+00
        -11   -1    0    0    0    0  0.00000000000E+00  0.00000000000E+00  0.45593999997E+02  0.45594000000E+02  0.51100000000E-03 0.  1.
         11   -1    0    0    0    0 -0.00000000000E+00 -0.00000000000E+00 -0.45593999997E+02  0.45594000000E+02  0.51100000000E-03 0. -1.
         23    2    1    2    0    0  0.53290705182E-14 -0.35527136788E-14  0.00000000000E+00  0.91188000000E+02  0.91188000000E+02 0.  0.
    9900012    2    3    3    0    0 -0.15692041280E+02  0.28236350210E+02  0.17670535260E+02  0.54367089513E+02  0.40000012164E+02 0.  0.
         12    1    3    3    0    0  0.15692041280E+02 -0.28236350210E+02 -0.17670535260E+02  0.36820910487E+02  0.00000000000E+00 0. -1.
         11    1    4    4    0    0  0.33844448761E+00  0.20222548587E+01  0.12052377154E+02  0.12225541080E+02  0.51100000000E-03 0. -1.
        -11    1    4    4    0    0 -0.64482162726E+01  0.17931382120E+02  0.16680486077E+02  0.25324939760E+02  0.51100000000E-03 0.  1.
         12    1    4    4    0    0 -0.95822694945E+01  0.82827132311E+01 -0.11062327971E+02  0.16816608673E+02  0.00000000000E+00 0. -1.
</event>
<event>
 8    1  0.2390921E-006  0.9118800E+02  0.7816164E-02  0.1184000E+00
        -11   -1    0    0    0    0  0.00000000000E+00  0.00000000000E+00  0.45593999997E+02  0.45594000000E+02  0.51100000000E-03 0.  1.
         11   -1    0    0    0    0 -0.00000000000E+00 -0.00000000000E+00 -0.45593999997E+02  0.45594000000E+02  0.51100000000E-03 0. -1.
         23    2    1    2    0    0  0.35527136788E-14 -0.17763568394E-14  0.00000000000E+00  0.91188000000E+02  0.91188000000E+02 0.  0.
    9900012    2    3    3    0    0  0.31087968808E+02 -0.98144919548E+01 -0.17117062201E+02  0.54367083725E+02  0.39999998969E+02 0.  0.
        -12    1    3    3    0    0 -0.31087968808E+02  0.98144919548E+01  0.17117062201E+02  0.36820916275E+02  0.00000000000E+00 0.  1.
         11    1    4    4    0    0  0.10327645717E+02 -0.97492593590E+01 -0.36714292088E+01  0.14669277992E+02  0.51100000000E-03 0. -1.
        -11    1    4    4    0    0  0.21726462345E+02  0.95503109019E+01 -0.75283705618E+00  0.23744775599E+02  0.51100000000E-03 0.  1.
         12    1    4    4    0    0 -0.96613925365E+00 -0.96155434978E+01 -0.12692795936E+02  0.15953030135E+02  0.00000000000E+00 0. -1.
</event>
<event>
 8    1  0.2390921E-006  0.9118800E+02  0.7816164E-02  0.1184000E+00
        -11   -1    0    0    0    0  0.00000000000E+00  0.00000000000E+00  0.45593999997E+02  0.45594000000E+02  0.51100000000E-03 0. -1.
         11   -1    0    0    0    0 -0.00000000000E+00 -0.00000000000E+00 -0.45593999997E+02  0.45594000000E+02  0.51100000000E-03 0.  1.
         23    2    1    2    0    0  0.00000000000E+00  0.00000000000E+00  0.00000000000E+00  0.91188000000E+02  0.91188000000E+02 0.  0.
    9900012    2    3    3    0    0  0.27052373973E+02  0.16746282113E+02  0.18534060085E+02  0.54367078157E+02  0.39999986274E+02 0.  0.
        -12    1    3    3    0    0 -0.27052373973E+02 -0.16746282113E+02 -0.18534060085E+02  0.36820921843E+02  0.00000000000E+00 0.  1.
         11    1    4    4    0    0 -0.30009246153E+01 -0.62947661839E+01  0.33549907484E+01  0.77385782311E+01  0.51100000000E-03 0. -1.
        -11    1    4    4    0    0  0.10652310271E+02  0.34562880082E+01  0.15422938069E+02  0.19060027803E+02  0.51100000000E-03 0.  1.
        -12    1    4    4    0    0  0.19400988318E+02  0.19584760288E+02 -0.24386873283E+00  0.27568472123E+02  0.00000000000E+00 0.  1.
</event>
<event>
 8    1  0.2390921E-006  0.9118800E+02  0.7816164E-02  0.1184000E+00
        -11   -1    0    0    0    0  0.00000000000E+00  0.00000000000E+00  0.45593999997E+02  0.45594000000E+02  0.51100000000E-03 0.  1.
         11   -1    0    0    0    0 -0.00000000000E+00 -0.00000000000E+00 -0.45593999997E+02  0.45594000000E+02  0.51100000000E-03 0. -1.
         23    2    1    2    0    0  0.00000000000E+00  0.00000000000E+00  0.17763568394E-14  0.91188000000E+02  0.91188000000E+02 0.  0.
    9900012    2    3    3    0    0 -0.25747631736E+02  0.23469514016E+02 -0.11917298988E+02  0.54367073296E+02  0.39999975193E+02 0.  0.
         12    1    3    3    0    0  0.25747631736E+02 -0.23469514016E+02  0.11917298988E+02  0.36820926704E+02  0.00000000000E+00 0. -1.
         11    1    4    4    0    0 -0.42759446817E+01  0.11996208918E+02 -0.12374807217E+02  0.17757493777E+02  0.51100000000E-03 0. -1.
        -11    1    4    4    0    0 -0.70988269107E+01  0.12775804080E+02 -0.10910021864E+02  0.18238505715E+02  0.51100000000E-03 0.  1.
        -12    1    4    4    0    0 -0.14372860143E+02 -0.13024989812E+01  0.11367530093E+02  0.18371073804E+02  0.00000000000E+00 0.  1.
</event>
<event>
 8    1  0.2390921E-006  0.9118800E+02  0.7816164E-02  0.1184000E+00
        -11   -1    0    0    0    0  0.00000000000E+00  0.00000000000E+00  0.45593999997E+02  0.45594000000E+02  0.51100000000E-03 0. -1.
         11   -1    0    0    0    0 -0.00000000000E+00 -0.00000000000E+00 -0.45593999997E+02  0.45594000000E+02  0.51100000000E-03 0.  1.
         23    2    1    2    0    0  0.88817841970E-15 -0.35527136788E-14  0.00000000000E+00  0.91188000000E+02  0.91188000000E+02 0.  0.
    9900012    2    3    3    0    0 -0.69804000763E+01  0.24439035313E+02 -0.26641829647E+02  0.54367088561E+02  0.40000009993E+02 0.  0.
         12    1    3    3    0    0  0.69804000763E+01 -0.24439035313E+02  0.26641829647E+02  0.36820911439E+02  0.00000000000E+00 0. -1.
         11    1    4    4    0    0  0.28895013533E+01 -0.17924268653E+01 -0.95230354999E+01  0.10111884964E+02  0.51100000000E-03 0. -1.
        -11    1    4    4    0    0 -0.17483703190E+02  0.21188155408E+02 -0.20750725459E+02  0.34426885049E+02  0.51100000000E-03 0.  1.
        -12    1    4    4    0    0  0.76138017603E+01  0.50433067704E+01  0.36319313122E+01  0.98283185480E+01  0.00000000000E+00 0.  1.
</event>
<event>
 8    1  0.2390921E-006  0.9118800E+02  0.7816164E-02  0.1184000E+00
        -11   -1    0    0    0    0  0.00000000000E+00  0.00000000000E+00  0.45593999997E+02  0.45594000000E+02  0.51100000000E-03 0.  1.
         11   -1    0    0    0    0 -0.00000000000E+00 -0.00000000000E+00 -0.45593999997E+02  0.45594000000E+02  0.51100000000E-03 0. -1.
         23    2    1    2    0    0  0.00000000000E+00  0.44408920985E-15  0.00000000000E+00  0.91188000000E+02  0.91188000000E+02 0.  0.
    9900012    2    3    3    0    0  0.28207074699E+02  0.16821711858E+01  0.23607503163E+02  0.54367041721E+02  0.39999903211E+02 0.  0.
         12    1    3    3    0    0 -0.28207074699E+02 -0.16821711858E+01 -0.23607503163E+02  0.36820958279E+02  0.00000000000E+00 0. -1.
         11    1    4    4    0    0  0.15515725449E+02  0.16312135928E+02  0.64439415665E+01  0.23416829374E+02  0.51100000000E-03 0. -1.
        -11    1    4    4    0    0  0.51691602981E+01 -0.14769556675E+02  0.17427965427E+02  0.23422083634E+02  0.51100000000E-03 0.  1.
        -12    1    4    4    0    0  0.75221889519E+01  0.13959193327E+00 -0.26440383060E+00  0.75281287132E+01  0.00000000000E+00 0.  1.
</event>
<event>
 8    1  0.2390921E-006  0.9118800E+02  0.7816164E-02  0.1184000E+00
        -11   -1    0    0    0    0  0.00000000000E+00  0.00000000000E+00  0.45593999997E+02  0.45594000000E+02  0.51100000000E-03 0.  1.
         11   -1    0    0    0    0 -0.00000000000E+00 -0.00000000000E+00 -0.45593999997E+02  0.45594000000E+02  0.51100000000E-03 0. -1.
         23    2    1    2    0    0  0.22204460493E-15  0.00000000000E+00 -0.35527136788E-14  0.91188000000E+02  0.91188000000E+02 0.  0.
    9900012    2    3    3    0    0 -0.78579054021E+00 -0.36410307035E+02  0.54268976075E+01  0.54367093672E+02  0.40000021645E+02 0.  0.
        -12    1    3    3    0    0  0.78579054021E+00  0.36410307035E+02 -0.54268976075E+01  0.36820906328E+02  0.00000000000E+00 0.  1.
         11    1    4    4    0    0  0.11442941556E+01 -0.21031133485E+02  0.19315181660E+02  0.28577862544E+02  0.51100000000E-03 0. -1.
        -11    1    4    4    0    0 -0.59377356748E+01 -0.13629121645E+00 -0.32062510169E+01  0.67494685779E+01  0.51100000000E-03 0.  1.
         12    1    4    4    0    0  0.40076509790E+01 -0.15242882333E+02 -0.10682033036E+02  0.19039762550E+02  0.00000000000E+00 0. -1.
</event>
<event>
 8    1  0.2390921E-006  0.9118800E+02  0.7816164E-02  0.1184000E+00
        -11   -1    0    0    0    0  0.00000000000E+00  0.00000000000E+00  0.45593999997E+02  0.45594000000E+02  0.51100000000E-03 0.  1.
         11   -1    0    0    0    0 -0.00000000000E+00 -0.00000000000E+00 -0.45593999997E+02  0.45594000000E+02  0.51100000000E-03 0. -1.
         23    2    1    2    0    0 -0.88817841970E-15  0.35527136788E-14  0.35527136788E-14  0.91188000000E+02  0.91188000000E+02 0.  0.
    9900012    2    3    3    0    0 -0.79038851282E+01  0.29014326831E+02  0.21247983628E+02  0.54367090589E+02  0.40000014617E+02 0.  0.
         12    1    3    3    0    0  0.79038851282E+01 -0.29014326831E+02 -0.21247983628E+02  0.36820909411E+02  0.00000000000E+00 0. -1.
         11    1    4    4    0    0  0.49761399126E+01  0.12743508679E+02 -0.38300696939E+01  0.14206632817E+02  0.51100000000E-03 0. -1.
        -11    1    4    4    0    0  0.28422412679E+01  0.15232417336E+02  0.10708291233E+02  0.18835402165E+02  0.51100000000E-03 0.  1.
        -12    1    4    4    0    0 -0.15722266309E+02  0.10384008152E+01  0.14369762090E+02  0.21325055607E+02  0.00000000000E+00 0.  1.
</event>
<event>
 8    1  0.2390921E-006  0.9118800E+02  0.7816164E-02  0.1184000E+00
        -11   -1    0    0    0    0  0.00000000000E+00  0.00000000000E+00  0.45593999997E+02  0.45594000000E+02  0.51100000000E-03 0. -1.
         11   -1    0    0    0    0 -0.00000000000E+00 -0.00000000000E+00 -0.45593999997E+02  0.45594000000E+02  0.51100000000E-03 0.  1.
         23    2    1    2    0    0  0.00000000000E+00  0.35527136788E-14  0.35527136788E-14  0.91188000000E+02  0.91188000000E+02 0.  0.
    9900012    2    3    3    0    0  0.91444407355E+01  0.21943740799E+02  0.28118166267E+02  0.54367084329E+02  0.40000000345E+02 0.  0.
        -12    1    3    3    0    0 -0.91444407355E+01 -0.21943740799E+02 -0.28118166267E+02  0.36820915671E+02  0.00000000000E+00 0.  1.
         11    1    4    4    0    0  0.40262916310E+01  0.25231806743E+01  0.19349804218E+02  0.19924667840E+02  0.51100000000E-03 0. -1.
        -11    1    4    4    0    0  0.15124241769E+02  0.71290354938E+01  0.81000571145E+01  0.18578933276E+02  0.51100000000E-03 0.  1.
        -12    1    4    4    0    0 -0.10006092665E+02  0.12291524631E+02  0.66830493524E+00  0.15863483213E+02  0.00000000000E+00 0.  1.
</event>
<event>
 8    1  0.2390921E-006  0.9118800E+02  0.7816164E-02  0.1184000E+00
        -11   -1    0    0    0    0  0.00000000000E+00  0.00000000000E+00  0.45593999997E+02  0.45594000000E+02  0.51100000000E-03 0.  1.
         11   -1    0    0    0    0 -0.00000000000E+00 -0.00000000000E+00 -0.45593999997E+02  0.45594000000E+02  0.51100000000E-03 0. -1.
         23    2    1    2    0    0  0.88817841970E-15  0.17763568394E-14  0.71054273576E-14  0.91188000000E+02  0.91188000000E+02 0.  0.
    9900012    2    3    3    0    0 -0.63305283454E+01  0.94530350219E+01  0.35019196900E+02  0.54367087303E+02  0.40000007126E+02 0.  0.
         12    1    3    3    0    0  0.63305283454E+01 -0.94530350219E+01 -0.35019196900E+02  0.36820912697E+02  0.00000000000E+00 0. -1.
         11    1    4    4    0    0  0.23750471007E+01 -0.62534878228E+01  0.26878639430E+01  0.72091311209E+01  0.51100000000E-03 0. -1.
        -11    1    4    4    0    0 -0.98370231609E+01  0.87991451574E+01  0.36635954893E+02  0.38940790585E+02  0.51100000000E-03 0.  1.
        -12    1    4    4    0    0  0.11314477147E+01  0.69073776873E+01 -0.43046219359E+01  0.82171655976E+01  0.00000000000E+00 0.  1.
</event>
<event>
 8    1  0.2390921E-006  0.9118800E+02  0.7816164E-02  0.1184000E+00
        -11   -1    0    0    0    0  0.00000000000E+00  0.00000000000E+00  0.45593999997E+02  0.45594000000E+02  0.51100000000E-03 0.  1.
         11   -1    0    0    0    0 -0.00000000000E+00 -0.00000000000E+00 -0.45593999997E+02  0.45594000000E+02  0.51100000000E-03 0. -1.
         23    2    1    2    0    0  0.00000000000E+00 -0.35527136788E-14 -0.17763568394E-14  0.91188000000E+02  0.91188000000E+02 0.  0.
    9900012    2    3    3    0    0 -0.25909292192E+02  0.24266378687E+02  0.97791367437E+01  0.54367081056E+02  0.39999992883E+02 0.  0.
        -12    1    3    3    0    0  0.25909292192E+02 -0.24266378687E+02 -0.97791367437E+01  0.36820918944E+02  0.00000000000E+00 0.  1.
         11    1    4    4    0    0 -0.10627772096E+02  0.29526127053E+02  0.99017105621E+01  0.32905707571E+02  0.51100000000E-03 0. -1.
        -11    1    4    4    0    0 -0.76363563488E+00 -0.55859817584E+01 -0.33874595772E+01  0.65773257664E+01  0.51100000000E-03 0.  1.
         12    1    4    4    0    0 -0.14517884461E+02  0.32623339273E+00  0.32648857588E+01  0.14884047718E+02  0.00000000000E+00 0. -1.
</event>
<event>
 8    1  0.2390921E-006  0.9118800E+02  0.7816164E-02  0.1184000E+00
        -11   -1    0    0    0    0  0.00000000000E+00  0.00000000000E+00  0.45593999997E+02  0.45594000000E+02  0.51100000000E-03 0.  1.
         11   -1    0    0    0    0 -0.00000000000E+00 -0.00000000000E+00 -0.45593999997E+02  0.45594000000E+02  0.51100000000E-03 0. -1.
         23    2    1    2    0    0 -0.35527136788E-14  0.00000000000E+00 -0.35527136788E-14  0.91188000000E+02  0.91188000000E+02 0.  0.
    9900012    2    3    3    0    0  0.17008001372E+02  0.89506065819E+01  0.31406920652E+02  0.54367080217E+02  0.39999990970E+02 0.  0.
         12    1    3    3    0    0 -0.17008001372E+02 -0.89506065819E+01 -0.31406920652E+02  0.36820919783E+02  0.00000000000E+00 0. -1.
         11    1    4    4    0    0  0.28300020280E+01 -0.17946898333E+00  0.16204054507E+02  0.16450304050E+02  0.51100000000E-03 0. -1.
        -11    1    4    4    0    0  0.63669563663E+01  0.41286806573E+01  0.23977001005E+02  0.25149169266E+02  0.51100000000E-03 0.  1.
         12    1    4    4    0    0  0.78110429777E+01  0.50013949079E+01 -0.87741348600E+01  0.12767606900E+02  0.00000000000E+00 0. -1.
</event>
<event>
 8    1  0.2390921E-006  0.9118800E+02  0.7816164E-02  0.1184000E+00
        -11   -1    0    0    0    0  0.00000000000E+00  0.00000000000E+00  0.45593999997E+02  0.45594000000E+02  0.51100000000E-03 0.  1.
         11   -1    0    0    0    0 -0.00000000000E+00 -0.00000000000E+00 -0.45593999997E+02  0.45594000000E+02  0.51100000000E-03 0. -1.
         23    2    1    2    0    0  0.17763568394E-14 -0.71054273576E-14 -0.35527136788E-14  0.91188000000E+02  0.91188000000E+02 0.  0.
    9900012    2    3    3    0    0 -0.10831326047E+02  0.26141385490E+02  0.23560369309E+02  0.54367073053E+02  0.39999974639E+02 0.  0.
         12    1    3    3    0    0  0.10831326047E+02 -0.26141385490E+02 -0.23560369309E+02  0.36820926947E+02  0.00000000000E+00 0. -1.
         11    1    4    4    0    0  0.10688756094E+02 -0.88851462288E+00  0.34392316326E+01  0.11263537613E+02  0.51100000000E-03 0. -1.
        -11    1    4    4    0    0 -0.10943063099E+02  0.66965490435E+01  0.34958327454E+00  0.12834196812E+02  0.51100000000E-03 0.  1.
        -12    1    4    4    0    0 -0.10577019041E+02  0.20333351070E+02  0.19771554402E+02  0.30269338628E+02  0.00000000000E+00 0.  1.
</event>
<event>
 8    1  0.2390921E-006  0.9118800E+02  0.7816164E-02  0.1184000E+00
        -11   -1    0    0    0    0  0.00000000000E+00  0.00000000000E+00  0.45593999997E+02  0.45594000000E+02  0.51100000000E-03 0.  1.
         11   -1    0    0    0    0 -0.00000000000E+00 -0.00000000000E+00 -0.45593999997E+02  0.45594000000E+02  0.51100000000E-03 0. -1.
         23    2    1    2    0    0  0.17763568394E-14 -0.35527136788E-14  0.00000000000E+00  0.91188000000E+02  0.91188000000E+02 0.  0.
    9900012    2    3    3    0    0 -0.89614434139E+01 -0.23563980319E+02 -0.26836705688E+02  0.54367117220E+02  0.40000075326E+02 0.  0.
        -12    1    3    3    0    0  0.89614434139E+01  0.23563980319E+02  0.26836705688E+02  0.36820882780E+02  0.00000000000E+00 0.  1.
         11    1    4    4    0    0 -0.71036862043E+01  0.13804258595E+01  0.51714262613E+01  0.88944692410E+01  0.51100000000E-03 0. -1.
        -11    1    4    4    0    0  0.85743243909E+01 -0.60526287813E+01 -0.80434940314E+01  0.13223129373E+02  0.51100000000E-03 0.  1.
         12    1    4    4    0    0 -0.10432081600E+02 -0.18891777397E+02 -0.23964637918E+02  0.32249518605E+02  0.00000000000E+00 0. -1.
</event>
<event>
 8    1  0.2390921E-006  0.9118800E+02  0.7816164E-02  0.1184000E+00
        -11   -1    0    0    0    0  0.00000000000E+00  0.00000000000E+00  0.45593999997E+02  0.45594000000E+02  0.51100000000E-03 0.  1.
         11   -1    0    0    0    0 -0.00000000000E+00 -0.00000000000E+00 -0.45593999997E+02  0.45594000000E+02  0.51100000000E-03 0. -1.
         23    2    1    2    0    0  0.00000000000E+00  0.00000000000E+00 -0.35527136788E-14  0.91188000000E+02  0.91188000000E+02 0.  0.
    9900012    2    3    3    0    0 -0.28158013894E+02  0.13148259434E+02 -0.19749150160E+02  0.54367090117E+02  0.40000013539E+02 0.  0.
        -12    1    3    3    0    0  0.28158013894E+02 -0.13148259434E+02  0.19749150160E+02  0.36820909883E+02  0.00000000000E+00 0.  1.
         11    1    4    4    0    0 -0.45758878205E+00 -0.11615083608E+01  0.92047162768E+01  0.92889876286E+01  0.51100000000E-03 0. -1.
        -11    1    4    4    0    0 -0.76449982672E+00 -0.25922236916E+01 -0.16628058329E+01  0.31731698901E+01  0.51100000000E-03 0.  1.
         12    1    4    4    0    0 -0.26935925285E+02  0.16901991486E+02 -0.27291060604E+02  0.41904932598E+02  0.00000000000E+00 0. -1.
</event>
<event>
 8    1  0.2390921E-006  0.9118800E+02  0.7816164E-02  0.1184000E+00
        -11   -1    0    0    0    0  0.00000000000E+00  0.00000000000E+00  0.45593999997E+02  0.45594000000E+02  0.51100000000E-03 0. -1.
         11   -1    0    0    0    0 -0.00000000000E+00 -0.00000000000E+00 -0.45593999997E+02  0.45594000000E+02  0.51100000000E-03 0.  1.
         23    2    1    2    0    0  0.00000000000E+00  0.00000000000E+00  0.22204460493E-15  0.91188000000E+02  0.91188000000E+02 0.  0.
    9900012    2    3    3    0    0 -0.36743688659E+02 -0.15697425144E+01 -0.17917806392E+01  0.54367174023E+02  0.40000204819E+02 0.  0.
         12    1    3    3    0    0  0.36743688659E+02  0.15697425144E+01  0.17917806392E+01  0.36820825977E+02  0.00000000000E+00 0. -1.
         11    1    4    4    0    0  0.24396377581E+01 -0.38773411253E+01 -0.57931426877E+01  0.73855337690E+01  0.51100000000E-03 0. -1.
        -11    1    4    4    0    0  0.28057243677E+01 -0.26217886476E+01 -0.19170840823E+01  0.42919781663E+01  0.51100000000E-03 0.  1.
         12    1    4    4    0    0 -0.41989050784E+02  0.49293872585E+01  0.59184461308E+01  0.42689662087E+02  0.00000000000E+00 0. -1.
</event>
<event>
 8    1  0.2390921E-006  0.9118800E+02  0.7816164E-02  0.1184000E+00
        -11   -1    0    0    0    0  0.00000000000E+00  0.00000000000E+00  0.45593999997E+02  0.45594000000E+02  0.51100000000E-03 0.  1.
         11   -1    0    0    0    0 -0.00000000000E+00 -0.00000000000E+00 -0.45593999997E+02  0.45594000000E+02  0.51100000000E-03 0. -1.
         23    2    1    2    0    0 -0.88817841970E-15 -0.71054273576E-14 -0.66613381478E-15  0.91188000000E+02  0.91188000000E+02 0.  0.
    9900012    2    3    3    0    0 -0.42294276315E+01  0.36570733393E+02 -0.68931027647E+00  0.54367058300E+02  0.39999941007E+02 0.  0.
        -12    1    3    3    0    0  0.42294276315E+01 -0.36570733393E+02  0.68931027647E+00  0.36820941700E+02  0.00000000000E+00 0.  1.
         11    1    4    4    0    0 -0.10959159392E+02  0.38624573175E+02 -0.45215085577E+01  0.40403030423E+02  0.51100000000E-03 0. -1.
        -11    1    4    4    0    0 -0.58386839747E+00 -0.14071292517E+01 -0.33580815777E+01  0.36874960583E+01  0.51100000000E-03 0.  1.
        -12    1    4    4    0    0  0.73136001575E+01 -0.64671052981E+00  0.71902798589E+01  0.10276531819E+02  0.00000000000E+00 0.  1.
</event>
<event>
 8    1  0.2390921E-006  0.9118800E+02  0.7816164E-02  0.1184000E+00
        -11   -1    0    0    0    0  0.00000000000E+00  0.00000000000E+00  0.45593999997E+02  0.45594000000E+02  0.51100000000E-03 0. -1.
         11   -1    0    0    0    0 -0.00000000000E+00 -0.00000000000E+00 -0.45593999997E+02  0.45594000000E+02  0.51100000000E-03 0.  1.
         23    2    1    2    0    0 -0.71054273576E-14  0.22204460493E-15  0.17763568394E-14  0.91188000000E+02  0.91188000000E+02 0.  0.
    9900012    2    3    3    0    0  0.34310317037E+02 -0.55155078181E+00 -0.13352063033E+02  0.54367086775E+02  0.40000005922E+02 0.  0.
         12    1    3    3    0    0 -0.34310317037E+02  0.55155078181E+00  0.13352063033E+02  0.36820913225E+02  0.00000000000E+00 0. -1.
         11    1    4    4    0    0  0.11876553908E+02  0.72034602058E+01 -0.44043166548E+01  0.14571903689E+02  0.51100000000E-03 0. -1.
        -11    1    4    4    0    0  0.23355411801E+02 -0.32274060685E+01  0.58505038559E+01  0.24292381644E+02  0.51100000000E-03 0.  1.
        -12    1    4    4    0    0 -0.92164867143E+00 -0.45276049191E+01 -0.14798250234E+02  0.15502801442E+02  0.00000000000E+00 0.  1.
</event>
<event>
 8    1  0.2390921E-006  0.9118800E+02  0.7816164E-02  0.1184000E+00
        -11   -1    0    0    0    0  0.00000000000E+00  0.00000000000E+00  0.45593999997E+02  0.45594000000E+02  0.51100000000E-03 0. -1.
         11   -1    0    0    0    0 -0.00000000000E+00 -0.00000000000E+00 -0.45593999997E+02  0.45594000000E+02  0.51100000000E-03 0.  1.
         23    2    1    2    0    0  0.00000000000E+00 -0.88817841970E-15 -0.35527136788E-14  0.91188000000E+02  0.91188000000E+02 0.  0.
    9900012    2    3    3    0    0 -0.27930972623E+02 -0.50840177598E+01  0.23447688982E+02  0.54367074063E+02  0.39999976942E+02 0.  0.
         12    1    3    3    0    0  0.27930972623E+02  0.50840177598E+01 -0.23447688982E+02  0.36820925937E+02  0.00000000000E+00 0. -1.
         11    1    4    4    0    0 -0.16393501928E+02 -0.43216049942E+01  0.47366725766E+01  0.17602819165E+02  0.51100000000E-03 0. -1.
        -11    1    4    4    0    0 -0.13451903436E+02 -0.68803550455E+01 -0.18545352467E+01  0.15222755758E+02  0.51100000000E-03 0.  1.
         12    1    4    4    0    0  0.19144327414E+01  0.61179422799E+01  0.20565551652E+02  0.21541499141E+02  0.00000000000E+00 0. -1.
</event>
<event>
 8    1  0.2390921E-006  0.9118800E+02  0.7816164E-02  0.1184000E+00
        -11   -1    0    0    0    0  0.00000000000E+00  0.00000000000E+00  0.45593999997E+02  0.45594000000E+02  0.51100000000E-03 0. -1.
         11   -1    0    0    0    0 -0.00000000000E+00 -0.00000000000E+00 -0.45593999997E+02  0.45594000000E+02  0.51100000000E-03 0.  1.
         23    2    1    2    0    0  0.00000000000E+00  0.00000000000E+00  0.00000000000E+00  0.91188000000E+02  0.91188000000E+02 0.  0.
    9900012    2    3    3    0    0 -0.17351490715E+02 -0.43538426101E+01 -0.32183058570E+02  0.54367089712E+02  0.40000012617E+02 0.  0.
         12    1    3    3    0    0  0.17351490715E+02  0.43538426101E+01  0.32183058570E+02  0.36820910288E+02  0.00000000000E+00 0. -1.
         11    1    4    4    0    0 -0.10003712259E+02 -0.11155628822E+01 -0.38976401614E+02  0.40255168893E+02  0.51100000000E-03 0. -1.
        -11    1    4    4    0    0 -0.60139958358E+01 -0.27428571003E+01 -0.54926419849E+00  0.66327296346E+01  0.51100000000E-03 0.  1.
         12    1    4    4    0    0 -0.13337826198E+01 -0.49542262762E+00  0.73426072432E+01  0.74791911852E+01  0.00000000000E+00 0. -1.
</event>
<event>
 8    1  0.2390921E-006  0.9118800E+02  0.7816164E-02  0.1184000E+00
        -11   -1    0    0    0    0  0.00000000000E+00  0.00000000000E+00  0.45593999997E+02  0.45594000000E+02  0.51100000000E-03 0.  1.
         11   -1    0    0    0    0 -0.00000000000E+00 -0.00000000000E+00 -0.45593999997E+02  0.45594000000E+02  0.51100000000E-03 0. -1.
         23    2    1    2    0    0 -0.17763568394E-14  0.00000000000E+00  0.35527136788E-14  0.91188000000E+02  0.91188000000E+02 0.  0.
    9900012    2    3    3    0    0  0.13295212473E+02 -0.12476141300E+02  0.31990048628E+02  0.54367082199E+02  0.39999995490E+02 0.  0.
         12    1    3    3    0    0 -0.13295212473E+02  0.12476141300E+02 -0.31990048628E+02  0.36820917801E+02  0.00000000000E+00 0. -1.
         11    1    4    4    0    0  0.72454016600E+01 -0.12749154617E+02  0.35919297544E+02  0.38797328838E+02  0.51100000000E-03 0.  1.
        -11    1    4    4    0    0  0.99253592953E+01 -0.22949356834E+01 -0.14170490906E+01  0.10285305796E+02  0.51100000000E-03 0. -1.
         12    1    4    4    0    0 -0.38755484819E+01  0.25679490005E+01 -0.25121998251E+01  0.52844475649E+01  0.00000000000E+00 0. -1.
</event>
<event>
 8    1  0.2390921E-006  0.9118800E+02  0.7816164E-02  0.1184000E+00
        -11   -1    0    0    0    0  0.00000000000E+00  0.00000000000E+00  0.45593999997E+02  0.45594000000E+02  0.51100000000E-03 0.  1.
         11   -1    0    0    0    0 -0.00000000000E+00 -0.00000000000E+00 -0.45593999997E+02  0.45594000000E+02  0.51100000000E-03 0. -1.
         23    2    1    2    0    0 -0.17763568394E-14  0.00000000000E+00  0.00000000000E+00  0.91188000000E+02  0.91188000000E+02 0.  0.
    9900012    2    3    3    0    0  0.47749791176E+01  0.23540746656E+02 -0.27907270225E+02  0.54367042515E+02  0.39999905021E+02 0.  0.
        -12    1    3    3    0    0 -0.47749791176E+01 -0.23540746656E+02  0.27907270225E+02  0.36820957485E+02  0.00000000000E+00 0.  1.
         11    1    4    4    0    0  0.31356012155E+01  0.18345736957E+02 -0.14889134345E+02  0.23834520790E+02  0.51100000000E-03 0. -1.
        -11    1    4    4    0    0  0.80582506447E+01  0.12076437072E+02 -0.15043601458E+02  0.20906594196E+02  0.51100000000E-03 0.  1.
        -12    1    4    4    0    0 -0.64188727426E+01 -0.68814273730E+01  0.20254655779E+01  0.96259275284E+01  0.00000000000E+00 0.  1.
</event>
<event>
 8    1  0.2390921E-006  0.9118800E+02  0.7816164E-02  0.1184000E+00
        -11   -1    0    0    0    0  0.00000000000E+00  0.00000000000E+00  0.45593999997E+02  0.45594000000E+02  0.51100000000E-03 0.  1.
         11   -1    0    0    0    0 -0.00000000000E+00 -0.00000000000E+00 -0.45593999997E+02  0.45594000000E+02  0.51100000000E-03 0. -1.
         23    2    1    2    0    0  0.00000000000E+00  0.17763568394E-14  0.00000000000E+00  0.91188000000E+02  0.91188000000E+02 0.  0.
    9900012    2    3    3    0    0  0.34981231466E+02  0.45805427723E+01  0.10541126607E+02  0.54367037531E+02  0.39999893660E+02 0.  0.
        -12    1    3    3    0    0 -0.34981231466E+02 -0.45805427723E+01 -0.10541126607E+02  0.36820962469E+02  0.00000000000E+00 0.  1.
         11    1    4    4    0    0  0.15743443872E+02  0.15147957600E+02  0.10213424128E+02  0.24117020485E+02  0.51100000000E-03 0. -1.
        -11    1    4    4    0    0 -0.40775749011E+01 -0.46546968249E+01 -0.19008653944E+00  0.61910381003E+01  0.51100000000E-03 0.  1.
         12    1    4    4    0    0  0.23315362495E+02 -0.59127180026E+01  0.51778901863E+00  0.24058978946E+02  0.00000000000E+00 0. -1.
</event>
<event>
 8    1  0.2390921E-006  0.9118800E+02  0.7816164E-02  0.1184000E+00
        -11   -1    0    0    0    0  0.00000000000E+00  0.00000000000E+00  0.45593999997E+02  0.45594000000E+02  0.51100000000E-03 0. -1.
         11   -1    0    0    0    0 -0.00000000000E+00 -0.00000000000E+00 -0.45593999997E+02  0.45594000000E+02  0.51100000000E-03 0.  1.
         23    2    1    2    0    0  0.00000000000E+00  0.88817841970E-15  0.35527136788E-14  0.91188000000E+02  0.91188000000E+02 0.  0.
    9900012    2    3    3    0    0  0.29893872685E+02 -0.78497085208E+01 -0.20012984479E+02  0.54367067153E+02  0.39999961188E+02 0.  0.
         12    1    3    3    0    0 -0.29893872685E+02  0.78497085208E+01  0.20012984479E+02  0.36820932847E+02  0.00000000000E+00 0. -1.
         11    1    4    4    0    0 -0.75243483963E+00 -0.20038989369E+01  0.25123466772E+01  0.33005537755E+01  0.51100000000E-03 0. -1.
        -11    1    4    4    0    0  0.30927842229E+02 -0.95829178042E+01 -0.29077305930E+02  0.43518426661E+02  0.51100000000E-03 0.  1.
        -12    1    4    4    0    0 -0.28153470412E+00  0.37371082203E+01  0.65519747744E+01  0.75480867168E+01  0.00000000000E+00 0.  1.
</event>
<event>
 8    1  0.2390921E-006  0.9118800E+02  0.7816164E-02  0.1184000E+00
        -11   -1    0    0    0    0  0.00000000000E+00  0.00000000000E+00  0.45593999997E+02  0.45594000000E+02  0.51100000000E-03 0. -1.
         11   -1    0    0    0    0 -0.00000000000E+00 -0.00000000000E+00 -0.45593999997E+02  0.45594000000E+02  0.51100000000E-03 0.  1.
         23    2    1    2    0    0  0.71054273576E-14 -0.35527136788E-14 -0.17763568394E-14  0.91188000000E+02  0.91188000000E+02 0.  0.
    9900012    2    3    3    0    0 -0.23419445978E+02  0.27882348784E+02  0.54665426952E+01  0.54367096798E+02  0.40000028769E+02 0.  0.
         12    1    3    3    0    0  0.23419445978E+02 -0.27882348784E+02 -0.54665426952E+01  0.36820903202E+02  0.00000000000E+00 0. -1.
         11    1    4    4    0    0 -0.32223130967E+01 -0.34115555509E+01 -0.31461185714E+01  0.56497854204E+01  0.51100000000E-03 0. -1.
        -11    1    4    4    0    0 -0.28218859691E+02  0.25624209580E+02  0.72457622145E+01  0.38799551920E+02  0.51100000000E-03 0.  1.
         12    1    4    4    0    0  0.80217268102E+01  0.56696947548E+01  0.13668990521E+01  0.99177594571E+01  0.00000000000E+00 0. -1.
</event>
<event>
 8    1  0.2390921E-006  0.9118800E+02  0.7816164E-02  0.1184000E+00
        -11   -1    0    0    0    0  0.00000000000E+00  0.00000000000E+00  0.45593999997E+02  0.45594000000E+02  0.51100000000E-03 0. -1.
         11   -1    0    0    0    0 -0.00000000000E+00 -0.00000000000E+00 -0.45593999997E+02  0.45594000000E+02  0.51100000000E-03 0.  1.
         23    2    1    2    0    0 -0.22204460493E-15  0.00000000000E+00  0.00000000000E+00  0.91188000000E+02  0.91188000000E+02 0.  0.
    9900012    2    3    3    0    0  0.60313233508E+00 -0.15486088673E+02  0.33400540452E+02  0.54367098144E+02  0.40000031838E+02 0.  0.
        -12    1    3    3    0    0 -0.60313233508E+00  0.15486088673E+02 -0.33400540452E+02  0.36820901856E+02  0.00000000000E+00 0.  1.
         11    1    4    4    0    0 -0.25732574551E+01 -0.13000154490E+02  0.26322837870E+02  0.29470620361E+02  0.51100000000E-03 0. -1.
        -11    1    4    4    0    0  0.35218864567E+01 -0.62776747327E+01  0.14704688322E+02  0.16371949889E+02  0.51100000000E-03 0.  1.
        -12    1    4    4    0    0 -0.34549666654E+00  0.37917405498E+01 -0.76269857391E+01  0.85245278936E+01  0.00000000000E+00 0.  1.
</event>
<event>
 8    1  0.2390921E-006  0.9118800E+02  0.7816164E-02  0.1184000E+00
        -11   -1    0    0    0    0  0.00000000000E+00  0.00000000000E+00  0.45593999997E+02  0.45594000000E+02  0.51100000000E-03 0. -1.
         11   -1    0    0    0    0 -0.00000000000E+00 -0.00000000000E+00 -0.45593999997E+02  0.45594000000E+02  0.51100000000E-03 0.  1.
         23    2    1    2    0    0  0.66613381478E-15  0.00000000000E+00  0.00000000000E+00  0.91188000000E+02  0.91188000000E+02 0.  0.
    9900012    2    3    3    0    0  0.13805884694E+01  0.96746115939E+01  0.35500298108E+02  0.54367145858E+02  0.40000140612E+02 0.  0.
        -12    1    3    3    0    0 -0.13805884694E+01 -0.96746115939E+01 -0.35500298108E+02  0.36820854142E+02  0.00000000000E+00 0.  1.
         11    1    4    4    0    0 -0.12733116516E+00  0.30736242100E+01  0.91271498870E+01  0.96316272940E+01  0.51100000000E-03 0. -1.
        -11    1    4    4    0    0 -0.15430395636E+02 -0.72799224326E+00  0.44450801394E+01  0.16074383967E+02  0.51100000000E-03 0.  1.
        -12    1    4    4    0    0  0.16938315271E+02  0.73289796271E+01  0.21928068082E+02  0.28661134597E+02  0.00000000000E+00 0.  1.
</event>
<event>
 8    1  0.2390921E-006  0.9118800E+02  0.7816164E-02  0.1184000E+00
        -11   -1    0    0    0    0  0.00000000000E+00  0.00000000000E+00  0.45593999997E+02  0.45594000000E+02  0.51100000000E-03 0. -1.
         11   -1    0    0    0    0 -0.00000000000E+00 -0.00000000000E+00 -0.45593999997E+02  0.45594000000E+02  0.51100000000E-03 0.  1.
         23    2    1    2    0    0 -0.17763568394E-14  0.71054273576E-14 -0.71054273576E-14  0.91188000000E+02  0.91188000000E+02 0.  0.
    9900012    2    3    3    0    0  0.15045461143E+02 -0.24759969617E+02  0.22723526049E+02  0.54367073443E+02  0.39999975527E+02 0.  0.
        -12    1    3    3    0    0 -0.15045461143E+02  0.24759969617E+02 -0.22723526049E+02  0.36820926557E+02  0.00000000000E+00 0.  1.
         11    1    4    4    0    0  0.14305062726E+02 -0.12726402928E+02  0.99087073070E+00  0.19172323181E+02  0.51100000000E-03 0. -1.
        -11    1    4    4    0    0 -0.14097582688E+01 -0.38037414092E+01 -0.54034568705E+01  0.67567161770E+01  0.51100000000E-03 0.  1.
        -12    1    4    4    0    0  0.21501566858E+01 -0.82298252801E+01  0.27136112188E+02  0.28438034085E+02  0.00000000000E+00 0.  1.
</event>
<event>
 8    1  0.2390921E-006  0.9118800E+02  0.7816164E-02  0.1184000E+00
        -11   -1    0    0    0    0  0.00000000000E+00  0.00000000000E+00  0.45593999997E+02  0.45594000000E+02  0.51100000000E-03 0.  1.
         11   -1    0    0    0    0 -0.00000000000E+00 -0.00000000000E+00 -0.45593999997E+02  0.45594000000E+02  0.51100000000E-03 0. -1.
         23    2    1    2    0    0  0.17763568394E-14 -0.35527136788E-14  0.35527136788E-14  0.91188000000E+02  0.91188000000E+02 0.  0.
    9900012    2    3    3    0    0 -0.11977523550E+02 -0.20068077711E+02  0.28453313365E+02  0.54367084003E+02  0.39999999602E+02 0.  0.
         12    1    3    3    0    0  0.11977523550E+02  0.20068077711E+02 -0.28453313365E+02  0.36820915997E+02  0.00000000000E+00 0. -1.
         11    1    4    4    0    0  0.98983476050E+01 -0.10880773546E+01  0.83574086296E+00  0.99929805708E+01  0.51100000000E-03 0. -1.
        -11    1    4    4    0    0 -0.41805271549E+01  0.20843569089E+01  0.11682150245E+02  0.12581493775E+02  0.51100000000E-03 0.  1.
        -12    1    4    4    0    0 -0.17695344000E+02 -0.21064357265E+02  0.15935422257E+02  0.31792609657E+02  0.00000000000E+00 0.  1.
</event>
<event>
 8    1  0.2390921E-006  0.9118800E+02  0.7816164E-02  0.1184000E+00
        -11   -1    0    0    0    0  0.00000000000E+00  0.00000000000E+00  0.45593999997E+02  0.45594000000E+02  0.51100000000E-03 0.  1.
         11   -1    0    0    0    0 -0.00000000000E+00 -0.00000000000E+00 -0.45593999997E+02  0.45594000000E+02  0.51100000000E-03 0. -1.
         23    2    1    2    0    0  0.00000000000E+00  0.00000000000E+00 -0.17763568394E-14  0.91188000000E+02  0.91188000000E+02 0.  0.
    9900012    2    3    3    0    0 -0.16148548569E+02  0.32780965600E+02  0.45180326404E+01  0.54367082773E+02  0.39999996796E+02 0.  0.
        -12    1    3    3    0    0  0.16148548569E+02 -0.32780965600E+02 -0.45180326404E+01  0.36820917227E+02  0.00000000000E+00 0.  1.
         11    1    4    4    0    0 -0.57010470515E+01 -0.17604985478E+01 -0.10172531329E+02  0.11793289894E+02  0.51100000000E-03 0. -1.
        -11    1    4    4    0    0 -0.10178100537E+02  0.88299092975E+01  0.91017223068E+01  0.16260454420E+02  0.51100000000E-03 0.  1.
         12    1    4    4    0    0 -0.26940098031E+00  0.25711554850E+02  0.55888416625E+01  0.26313338459E+02  0.00000000000E+00 0. -1.
</event>
<event>
 8    1  0.2390921E-006  0.9118800E+02  0.7816164E-02  0.1184000E+00
        -11   -1    0    0    0    0  0.00000000000E+00  0.00000000000E+00  0.45593999997E+02  0.45594000000E+02  0.51100000000E-03 0. -1.
         11   -1    0    0    0    0 -0.00000000000E+00 -0.00000000000E+00 -0.45593999997E+02  0.45594000000E+02  0.51100000000E-03 0.  1.
         23    2    1    2    0    0  0.00000000000E+00  0.00000000000E+00  0.88817841970E-15  0.91188000000E+02  0.91188000000E+02 0.  0.
    9900012    2    3    3    0    0  0.17613181608E+02  0.32240936025E+02  0.24654184445E+01  0.54367076461E+02  0.39999982409E+02 0.  0.
        -12    1    3    3    0    0 -0.17613181608E+02 -0.32240936025E+02 -0.24654184445E+01  0.36820923539E+02  0.00000000000E+00 0.  1.
         11    1    4    4    0    0  0.88112930798E+01  0.48311926484E+01  0.22906103034E+01  0.10306609722E+02  0.51100000000E-03 0. -1.
        -11    1    4    4    0    0  0.11762015038E+02  0.29854094884E+02 -0.96541480230E+01  0.33508425111E+02  0.51100000000E-03 0.  1.
         12    1    4    4    0    0 -0.29601265107E+01 -0.24443515069E+01  0.98289561641E+01  0.10552041628E+02  0.00000000000E+00 0. -1.
</event>
<event>
 8    1  0.2390921E-006  0.9118800E+02  0.7816164E-02  0.1184000E+00
        -11   -1    0    0    0    0  0.00000000000E+00  0.00000000000E+00  0.45593999997E+02  0.45594000000E+02  0.51100000000E-03 0.  1.
         11   -1    0    0    0    0 -0.00000000000E+00 -0.00000000000E+00 -0.45593999997E+02  0.45594000000E+02  0.51100000000E-03 0. -1.
         23    2    1    2    0    0 -0.35527136788E-14  0.88817841970E-15  0.35527136788E-14  0.91188000000E+02  0.91188000000E+02 0.  0.
    9900012    2    3    3    0    0  0.26671996464E+02 -0.78308305086E+01  0.24146700036E+02  0.54367076269E+02  0.39999981970E+02 0.  0.
         12    1    3    3    0    0 -0.26671996464E+02  0.78308305086E+01 -0.24146700036E+02  0.36820923731E+02  0.00000000000E+00 0. -1.
         11    1    4    4    0    0 -0.32233223470E+01  0.28453301175E+01 -0.34642071863E+01  0.55214528995E+01  0.51100000000E-03 0. -1.
        -11    1    4    4    0    0  0.10992659170E+02 -0.16681405967E+02  0.10088877977E+02  0.22380646098E+02  0.51100000000E-03 0.  1.
        -12    1    4    4    0    0  0.18902659640E+02  0.60052453412E+01  0.17522029245E+02  0.26464977271E+02  0.00000000000E+00 0.  1.
</event>
<event>
 8    1  0.2390921E-006  0.9118800E+02  0.7816164E-02  0.1184000E+00
        -11   -1    0    0    0    0  0.00000000000E+00  0.00000000000E+00  0.45593999997E+02  0.45594000000E+02  0.51100000000E-03 0.  1.
         11   -1    0    0    0    0 -0.00000000000E+00 -0.00000000000E+00 -0.45593999997E+02  0.45594000000E+02  0.51100000000E-03 0. -1.
         23    2    1    2    0    0  0.17763568394E-14  0.17763568394E-14  0.00000000000E+00  0.91188000000E+02  0.91188000000E+02 0.  0.
    9900012    2    3    3    0    0  0.41872592898E+01  0.11166360237E+02 -0.34836169268E+02  0.54367089764E+02  0.40000012736E+02 0.  0.
        -12    1    3    3    0    0 -0.41872592898E+01 -0.11166360237E+02  0.34836169268E+02  0.36820910236E+02  0.00000000000E+00 0.  1.
         11    1    4    4    0    0  0.14953916233E+02  0.46165570823E+01 -0.13218259337E+02  0.20485472661E+02  0.51100000000E-03 0. -1.
        -11    1    4    4    0    0 -0.30520180686E+01  0.11399038378E+02 -0.16273244512E+01  0.11912223779E+02  0.51100000000E-03 0.  1.
         12    1    4    4    0    0 -0.77146388743E+01 -0.48492352230E+01 -0.19990585480E+02  0.21969393324E+02  0.00000000000E+00 0. -1.
</event>
<event>
 8    1  0.2390921E-006  0.9118800E+02  0.7816164E-02  0.1184000E+00
        -11   -1    0    0    0    0  0.00000000000E+00  0.00000000000E+00  0.45593999997E+02  0.45594000000E+02  0.51100000000E-03 0. -1.
         11   -1    0    0    0    0 -0.00000000000E+00 -0.00000000000E+00 -0.45593999997E+02  0.45594000000E+02  0.51100000000E-03 0.  1.
         23    2    1    2    0    0  0.71054273576E-14  0.35527136788E-14  0.00000000000E+00  0.91188000000E+02  0.91188000000E+02 0.  0.
    9900012    2    3    3    0    0  0.30307540703E+02 -0.20281463705E+02 -0.50889434287E+01  0.54367052990E+02  0.39999928901E+02 0.  0.
        -12    1    3    3    0    0 -0.30307540703E+02  0.20281463705E+02  0.50889434287E+01  0.36820947010E+02  0.00000000000E+00 0.  1.
         11    1    4    4    0    0  0.15208228629E+01  0.77520859710E+00  0.44928628544E+01  0.48062113394E+01  0.51100000000E-03 0. -1.
        -11    1    4    4    0    0  0.37102496191E+01  0.67204411282E+01 -0.94028538411E+01  0.12138531287E+02  0.51100000000E-03 0.  1.
         12    1    4    4    0    0  0.25076468221E+02 -0.27777113430E+02 -0.17895244196E+00  0.37422310363E+02  0.00000000000E+00 0. -1.
</event>
<event>
 8    1  0.2390921E-006  0.9118800E+02  0.7816164E-02  0.1184000E+00
        -11   -1    0    0    0    0  0.00000000000E+00  0.00000000000E+00  0.45593999997E+02  0.45594000000E+02  0.51100000000E-03 0.  1.
         11   -1    0    0    0    0 -0.00000000000E+00 -0.00000000000E+00 -0.45593999997E+02  0.45594000000E+02  0.51100000000E-03 0. -1.
         23    2    1    2    0    0 -0.35527136788E-14  0.17763568394E-14  0.35527136788E-14  0.91188000000E+02  0.91188000000E+02 0.  0.
    9900012    2    3    3    0    0  0.24940970145E+02  0.14184650720E+02 -0.23076485166E+02  0.54367075576E+02  0.39999980391E+02 0.  0.
         12    1    3    3    0    0 -0.24940970145E+02 -0.14184650720E+02  0.23076485166E+02  0.36820924424E+02  0.00000000000E+00 0. -1.
         11    1    4    4    0    0  0.12752187045E+02 -0.58691467695E+01 -0.16352617643E+02  0.21551641753E+02  0.51100000000E-03 0. -1.
        -11    1    4    4    0    0  0.18279070224E+02  0.11620416568E+02 -0.36267136236E+01  0.21961592416E+02  0.51100000000E-03 0.  1.
         12    1    4    4    0    0 -0.60902871238E+01  0.84333809211E+01 -0.30971538994E+01  0.10853841407E+02  0.00000000000E+00 0. -1.
</event>
<event>
 8    1  0.2390921E-006  0.9118800E+02  0.7816164E-02  0.1184000E+00
        -11   -1    0    0    0    0  0.00000000000E+00  0.00000000000E+00  0.45593999997E+02  0.45594000000E+02  0.51100000000E-03 0.  1.
         11   -1    0    0    0    0 -0.00000000000E+00 -0.00000000000E+00 -0.45593999997E+02  0.45594000000E+02  0.51100000000E-03 0. -1.
         23    2    1    2    0    0  0.00000000000E+00  0.88817841970E-15  0.00000000000E+00  0.91188000000E+02  0.91188000000E+02 0.  0.
    9900012    2    3    3    0    0 -0.89551342856E+01 -0.52730985299E+01  0.35323959472E+02  0.54367053366E+02  0.39999929759E+02 0.  0.
         12    1    3    3    0    0  0.89551342856E+01  0.52730985299E+01 -0.35323959472E+02  0.36820946634E+02  0.00000000000E+00 0. -1.
         11    1    4    4    0    0 -0.17454426808E+02  0.80049213772E+01  0.15353234848E+02  0.24585719473E+02  0.51100000000E-03 0. -1.
        -11    1    4    4    0    0 -0.39371493598E+01 -0.23934566386E+01  0.84846916708E+01  0.96550387245E+01  0.51100000000E-03 0.  1.
        -12    1    4    4    0    0  0.12436441882E+02 -0.10884563268E+02  0.11486032953E+02  0.20126295169E+02  0.00000000000E+00 0.  1.
</event>
<event>
 8    1  0.2390921E-006  0.9118800E+02  0.7816164E-02  0.1184000E+00
        -11   -1    0    0    0    0  0.00000000000E+00  0.00000000000E+00  0.45593999997E+02  0.45594000000E+02  0.51100000000E-03 0.  1.
         11   -1    0    0    0    0 -0.00000000000E+00 -0.00000000000E+00 -0.45593999997E+02  0.45594000000E+02  0.51100000000E-03 0. -1.
         23    2    1    2    0    0  0.00000000000E+00  0.15543122345E-14  0.00000000000E+00  0.91188000000E+02  0.91188000000E+02 0.  0.
    9900012    2    3    3    0    0  0.31712530890E+02  0.79358863182E+00  0.18693973210E+02  0.54367095167E+02  0.40000025052E+02 0.  0.
         12    1    3    3    0    0 -0.31712530890E+02 -0.79358863182E+00 -0.18693973210E+02  0.36820904833E+02  0.00000000000E+00 0. -1.
         11    1    4    4    0    0  0.12445273618E+01 -0.10060559304E+02 -0.41922658340E+00  0.10145908192E+02  0.51100000000E-03 0. -1.
        -11    1    4    4    0    0  0.16019654745E+02  0.17577934836E+02  0.13359966918E+02  0.27278230286E+02  0.51100000000E-03 0.  1.
        -12    1    4    4    0    0  0.14448348783E+02 -0.67237869002E+01  0.57532328753E+01  0.16942956688E+02  0.00000000000E+00 0.  1.
</event>
<event>
 8    1  0.2390921E-006  0.9118800E+02  0.7816164E-02  0.1184000E+00
        -11   -1    0    0    0    0  0.00000000000E+00  0.00000000000E+00  0.45593999997E+02  0.45594000000E+02  0.51100000000E-03 0. -1.
         11   -1    0    0    0    0 -0.00000000000E+00 -0.00000000000E+00 -0.45593999997E+02  0.45594000000E+02  0.51100000000E-03 0.  1.
         23    2    1    2    0    0  0.00000000000E+00 -0.35527136788E-14 -0.88817841970E-15  0.91188000000E+02  0.91188000000E+02 0.  0.
    9900012    2    3    3    0    0 -0.23487804467E+02 -0.27555644845E+02 -0.66926809983E+01  0.54367048078E+02  0.39999917703E+02 0.  0.
         12    1    3    3    0    0  0.23487804467E+02  0.27555644845E+02  0.66926809983E+01  0.36820951922E+02  0.00000000000E+00 0. -1.
         11    1    4    4    0    0 -0.35084800895E+01  0.16522709597E+01 -0.76858954033E+00  0.39534999690E+01  0.51100000000E-03 0. -1.
        -11    1    4    4    0    0 -0.11498043691E+02 -0.35885948143E+02  0.80784638067E+00  0.37691629030E+02  0.51100000000E-03 0.  1.
        -12    1    4    4    0    0 -0.84812806862E+01  0.66780323385E+01 -0.67319378386E+01  0.12721919079E+02  0.00000000000E+00 0.  1.
</event>
<event>
 8    1  0.2390921E-006  0.9118800E+02  0.7816164E-02  0.1184000E+00
        -11   -1    0    0    0    0  0.00000000000E+00  0.00000000000E+00  0.45593999997E+02  0.45594000000E+02  0.51100000000E-03 0.  1.
         11   -1    0    0    0    0 -0.00000000000E+00 -0.00000000000E+00 -0.45593999997E+02  0.45594000000E+02  0.51100000000E-03 0. -1.
         23    2    1    2    0    0  0.00000000000E+00  0.00000000000E+00  0.00000000000E+00  0.91188000000E+02  0.91188000000E+02 0.  0.
    9900012    2    3    3    0    0 -0.30692860356E+02 -0.16104707466E+02 -0.12424403673E+02  0.54367094443E+02  0.40000023402E+02 0.  0.
         12    1    3    3    0    0  0.30692860356E+02  0.16104707466E+02  0.12424403673E+02  0.36820905557E+02  0.00000000000E+00 0. -1.
         11    1    4    4    0    0  0.57937414160E+01 -0.14013651318E+01 -0.48227260704E+01  0.76674605209E+01  0.51100000000E-03 0.  1.
        -11    1    4    4    0    0 -0.16108484870E+02 -0.94268919778E+01 -0.15454904610E+02  0.24232285363E+02  0.51100000000E-03 0. -1.
        -12    1    4    4    0    0 -0.20378116902E+02 -0.52764503561E+01  0.78532270074E+01  0.22467348559E+02  0.00000000000E+00 0.  1.
</event>
<event>
 8    1  0.2390921E-006  0.9118800E+02  0.7816164E-02  0.1184000E+00
        -11   -1    0    0    0    0  0.00000000000E+00  0.00000000000E+00  0.45593999997E+02  0.45594000000E+02  0.51100000000E-03 0.  1.
         11   -1    0    0    0    0 -0.00000000000E+00 -0.00000000000E+00 -0.45593999997E+02  0.45594000000E+02  0.51100000000E-03 0. -1.
         23    2    1    2    0    0  0.88817841970E-15  0.00000000000E+00  0.00000000000E+00  0.91188000000E+02  0.91188000000E+02 0.  0.
    9900012    2    3    3    0    0  0.37139730611E+01 -0.27046585624E+02 -0.24707644463E+02  0.54367094460E+02  0.40000023441E+02 0.  0.
        -12    1    3    3    0    0 -0.37139730611E+01  0.27046585624E+02  0.24707644463E+02  0.36820905540E+02  0.00000000000E+00 0.  1.
         11    1    4    4    0    0  0.72865123985E+01 -0.74313986638E+01 -0.14207555700E+02  0.17611745748E+02  0.51100000000E-03 0. -1.
        -11    1    4    4    0    0  0.74384937869E+01  0.34962887152E+01  0.17052384405E+01  0.83942279572E+01  0.51100000000E-03 0.  1.
         12    1    4    4    0    0 -0.11011033124E+02 -0.23111475676E+02 -0.12205327203E+02  0.28361120756E+02  0.00000000000E+00 0. -1.
</event>
<event>
 8    1  0.2390921E-006  0.9118800E+02  0.7816164E-02  0.1184000E+00
        -11   -1    0    0    0    0  0.00000000000E+00  0.00000000000E+00  0.45593999997E+02  0.45594000000E+02  0.51100000000E-03 0.  1.
         11   -1    0    0    0    0 -0.00000000000E+00 -0.00000000000E+00 -0.45593999997E+02  0.45594000000E+02  0.51100000000E-03 0. -1.
         23    2    1    2    0    0  0.00000000000E+00  0.00000000000E+00 -0.35527136788E-14  0.91188000000E+02  0.91188000000E+02 0.  0.
    9900012    2    3    3    0    0  0.16445856866E+02 -0.17774179123E+02  0.27737962553E+02  0.54367051911E+02  0.39999926442E+02 0.  0.
         12    1    3    3    0    0 -0.16445856866E+02  0.17774179123E+02 -0.27737962553E+02  0.36820948089E+02  0.00000000000E+00 0. -1.
         11    1    4    4    0    0 -0.37840598457E+00 -0.12865703250E+02  0.43633966413E+01  0.13590759424E+02  0.51100000000E-03 0. -1.
        -11    1    4    4    0    0 -0.79369504736E+01  0.41758102894E+00  0.40624252684E+01  0.89259652732E+01  0.51100000000E-03 0.  1.
         12    1    4    4    0    0  0.24761213324E+02 -0.53260569019E+01  0.19312140644E+02  0.31850327214E+02  0.00000000000E+00 0. -1.
</event>
<event>
 8    1  0.2390921E-006  0.9118800E+02  0.7816164E-02  0.1184000E+00
        -11   -1    0    0    0    0  0.00000000000E+00  0.00000000000E+00  0.45593999997E+02  0.45594000000E+02  0.51100000000E-03 0. -1.
         11   -1    0    0    0    0 -0.00000000000E+00 -0.00000000000E+00 -0.45593999997E+02  0.45594000000E+02  0.51100000000E-03 0.  1.
         23    2    1    2    0    0  0.00000000000E+00  0.17763568394E-14  0.00000000000E+00  0.91188000000E+02  0.91188000000E+02 0.  0.
    9900012    2    3    3    0    0  0.28058452074E+02 -0.58545592104E+01  0.23113360770E+02  0.54367081456E+02  0.39999993796E+02 0.  0.
        -12    1    3    3    0    0 -0.28058452074E+02  0.58545592104E+01 -0.23113360770E+02  0.36820918544E+02  0.00000000000E+00 0.  1.
         11    1    4    4    0    0  0.12749263598E+02 -0.34988287482E+01  0.97758865000E+00  0.13256741860E+02  0.51100000000E-03 0. -1.
        -11    1    4    4    0    0  0.74270602614E+01 -0.11217098885E+02 -0.25783885751E+01  0.13697905659E+02  0.51100000000E-03 0.  1.
        -12    1    4    4    0    0  0.78821282139E+01  0.88613684230E+01  0.24714160695E+02  0.27412433938E+02  0.00000000000E+00 0.  1.
</event>
<event>
 8    1  0.2390921E-006  0.9118800E+02  0.7816164E-02  0.1184000E+00
        -11   -1    0    0    0    0  0.00000000000E+00  0.00000000000E+00  0.45593999997E+02  0.45594000000E+02  0.51100000000E-03 0.  1.
         11   -1    0    0    0    0 -0.00000000000E+00 -0.00000000000E+00 -0.45593999997E+02  0.45594000000E+02  0.51100000000E-03 0. -1.
         23    2    1    2    0    0  0.35527136788E-14  0.00000000000E+00  0.00000000000E+00  0.91188000000E+02  0.91188000000E+02 0.  0.
    9900012    2    3    3    0    0  0.25761564509E+02 -0.71688830983E+01  0.25312605139E+02  0.54367094664E+02  0.40000023905E+02 0.  0.
         12    1    3    3    0    0 -0.25761564509E+02  0.71688830983E+01 -0.25312605139E+02  0.36820905336E+02  0.00000000000E+00 0. -1.
         11    1    4    4    0    0  0.18207949135E+02 -0.59538797510E+01  0.67443735444E+01  0.20309226242E+02  0.51100000000E-03 0. -1.
        -11    1    4    4    0    0  0.82227481503E+01 -0.39538407609E+01 -0.49438925397E+01  0.10377307821E+02  0.51100000000E-03 0.  1.
         12    1    4    4    0    0 -0.66913277587E+00  0.27388374135E+01  0.23512124134E+02  0.23680560601E+02  0.00000000000E+00 0. -1.
</event>
<event>
 8    1  0.2390921E-006  0.9118800E+02  0.7816164E-02  0.1184000E+00
        -11   -1    0    0    0    0  0.00000000000E+00  0.00000000000E+00  0.45593999997E+02  0.45594000000E+02  0.51100000000E-03 0. -1.
         11   -1    0    0    0    0 -0.00000000000E+00 -0.00000000000E+00 -0.45593999997E+02  0.45594000000E+02  0.51100000000E-03 0.  1.
         23    2    1    2    0    0 -0.17763568394E-14  0.00000000000E+00  0.00000000000E+00  0.91188000000E+02  0.91188000000E+02 0.  0.
    9900012    2    3    3    0    0 -0.40993072672E+01  0.16809159310E+02 -0.32502729440E+02  0.54367087765E+02  0.40000008178E+02 0.  0.
         12    1    3    3    0    0  0.40993072672E+01 -0.16809159310E+02  0.32502729440E+02  0.36820912235E+02  0.00000000000E+00 0. -1.
         11    1    4    4    0    0  0.11238476247E+02  0.18947932574E+02 -0.19961628567E+02  0.29728674920E+02  0.51100000000E-03 0. -1.
        -11    1    4    4    0    0 -0.16112987187E+02  0.20582025309E+01 -0.12278507717E+02  0.20362374757E+02  0.51100000000E-03 0.  1.
         12    1    4    4    0    0  0.77520367312E+00 -0.41969757953E+01 -0.26259315702E+00  0.42760380877E+01  0.00000000000E+00 0. -1.
</event>
<event>
 8    1  0.2390921E-006  0.9118800E+02  0.7816164E-02  0.1184000E+00
        -11   -1    0    0    0    0  0.00000000000E+00  0.00000000000E+00  0.45593999997E+02  0.45594000000E+02  0.51100000000E-03 0. -1.
         11   -1    0    0    0    0 -0.00000000000E+00 -0.00000000000E+00 -0.45593999997E+02  0.45594000000E+02  0.51100000000E-03 0.  1.
         23    2    1    2    0    0  0.00000000000E+00  0.13322676296E-14  0.00000000000E+00  0.91188000000E+02  0.91188000000E+02 0.  0.
    9900012    2    3    3    0    0  0.35923253782E+02  0.34759722820E+01 -0.72950697038E+01  0.54367074053E+02  0.39999976919E+02 0.  0.
         12    1    3    3    0    0 -0.35923253782E+02 -0.34759722820E+01  0.72950697038E+01  0.36820925947E+02  0.00000000000E+00 0. -1.
         11    1    4    4    0    0 -0.40031233680E+01 -0.36382413038E+01 -0.33329263995E+01  0.63537544121E+01  0.51100000000E-03 0. -1.
        -11    1    4    4    0    0  0.24517978461E+02 -0.80162902582E+01 -0.54584047946E+01  0.26366386944E+02  0.51100000000E-03 0.  1.
         12    1    4    4    0    0  0.15408398689E+02  0.15130503844E+02  0.14962614902E+01  0.21646932697E+02  0.00000000000E+00 0. -1.
</event>
<event>
 8    1  0.2390921E-006  0.9118800E+02  0.7816164E-02  0.1184000E+00
        -11   -1    0    0    0    0  0.00000000000E+00  0.00000000000E+00  0.45593999997E+02  0.45594000000E+02  0.51100000000E-03 0.  1.
         11   -1    0    0    0    0 -0.00000000000E+00 -0.00000000000E+00 -0.45593999997E+02  0.45594000000E+02  0.51100000000E-03 0. -1.
         23    2    1    2    0    0  0.00000000000E+00  0.00000000000E+00  0.00000000000E+00  0.91188000000E+02  0.91188000000E+02 0.  0.
    9900012    2    3    3    0    0 -0.18415825140E+02  0.31451501480E+02 -0.52384490574E+01  0.54367069682E+02  0.39999966955E+02 0.  0.
        -12    1    3    3    0    0  0.18415825140E+02 -0.31451501480E+02  0.52384490574E+01  0.36820930318E+02  0.00000000000E+00 0.  1.
         11    1    4    4    0    0 -0.16237387149E+02  0.47776159702E+01 -0.16997331939E+02  0.23987239297E+02  0.51100000000E-03 0. -1.
        -11    1    4    4    0    0  0.73937243573E+00  0.62180480447E+01  0.65684986632E+01  0.90750189000E+01  0.51100000000E-03 0.  1.
         12    1    4    4    0    0 -0.29178104275E+01  0.20455837465E+02  0.51903842187E+01  0.21304811485E+02  0.00000000000E+00 0. -1.
</event>
<event>
 8    1  0.2390921E-006  0.9118800E+02  0.7816164E-02  0.1184000E+00
        -11   -1    0    0    0    0  0.00000000000E+00  0.00000000000E+00  0.45593999997E+02  0.45594000000E+02  0.51100000000E-03 0.  1.
         11   -1    0    0    0    0 -0.00000000000E+00 -0.00000000000E+00 -0.45593999997E+02  0.45594000000E+02  0.51100000000E-03 0. -1.
         23    2    1    2    0    0  0.17763568394E-14  0.00000000000E+00  0.00000000000E+00  0.91188000000E+02  0.91188000000E+02 0.  0.
    9900012    2    3    3    0    0 -0.12608523368E+02 -0.33578911940E+02 -0.83223455957E+01  0.54367087127E+02  0.40000006724E+02 0.  0.
        -12    1    3    3    0    0  0.12608523368E+02  0.33578911940E+02  0.83223455957E+01  0.36820912873E+02  0.00000000000E+00 0.  1.
         11    1    4    4    0    0 -0.19420964064E+02 -0.63001757232E+01 -0.73681326075E+01  0.21706115215E+02  0.51100000000E-03 0. -1.
        -11    1    4    4    0    0  0.65209129213E+01 -0.14107644906E+02  0.72408299605E+01  0.17145774083E+02  0.51100000000E-03 0.  1.
         12    1    4    4    0    0  0.29152777509E+00 -0.13171091310E+02 -0.81950429487E+01  0.15515197829E+02  0.00000000000E+00 0. -1.
</event>
<event>
 8    1  0.2390921E-006  0.9118800E+02  0.7816164E-02  0.1184000E+00
        -11   -1    0    0    0    0  0.00000000000E+00  0.00000000000E+00  0.45593999997E+02  0.45594000000E+02  0.51100000000E-03 0. -1.
         11   -1    0    0    0    0 -0.00000000000E+00 -0.00000000000E+00 -0.45593999997E+02  0.45594000000E+02  0.51100000000E-03 0.  1.
         23    2    1    2    0    0  0.00000000000E+00 -0.35527136788E-14 -0.17763568394E-14  0.91188000000E+02  0.91188000000E+02 0.  0.
    9900012    2    3    3    0    0 -0.21510822890E+02 -0.25611564551E+02 -0.15398437861E+02  0.54367087073E+02  0.40000006601E+02 0.  0.
         12    1    3    3    0    0  0.21510822890E+02  0.25611564551E+02  0.15398437861E+02  0.36820912927E+02  0.00000000000E+00 0. -1.
         11    1    4    4    0    0  0.37223603412E+01 -0.20783810480E+02 -0.12286292831E+02  0.24428993765E+02  0.51100000000E-03 0. -1.
        -11    1    4    4    0    0 -0.40103722110E+01  0.25680772389E+01  0.41527603728E+01  0.63185065443E+01  0.51100000000E-03 0.  1.
        -12    1    4    4    0    0 -0.21222811021E+02 -0.73958313097E+01 -0.72649054035E+01  0.23619586764E+02  0.00000000000E+00 0.  1.
</event>
<event>
 8    1  0.2390921E-006  0.9118800E+02  0.7816164E-02  0.1184000E+00
        -11   -1    0    0    0    0  0.00000000000E+00  0.00000000000E+00  0.45593999997E+02  0.45594000000E+02  0.51100000000E-03 0.  1.
         11   -1    0    0    0    0 -0.00000000000E+00 -0.00000000000E+00 -0.45593999997E+02  0.45594000000E+02  0.51100000000E-03 0. -1.
         23    2    1    2    0    0  0.00000000000E+00  0.17763568394E-14  0.00000000000E+00  0.91188000000E+02  0.91188000000E+02 0.  0.
    9900012    2    3    3    0    0 -0.32231358875E+02  0.88316452566E+01  0.15457197057E+02  0.54367035947E+02  0.39999890049E+02 0.  0.
         12    1    3    3    0    0  0.32231358875E+02 -0.88316452566E+01 -0.15457197057E+02  0.36820964053E+02  0.00000000000E+00 0. -1.
         11    1    4    4    0    0  0.50776107570E+01 -0.67891357819E+00  0.24378337955E+01  0.56732784633E+01  0.51100000000E-03 0. -1.
        -11    1    4    4    0    0 -0.27216524852E+00 -0.59449955561E+01  0.49893961646E+01  0.77660234633E+01  0.51100000000E-03 0.  1.
        -12    1    4    4    0    0 -0.37036804384E+02  0.15455554391E+02  0.80299670972E+01  0.40927734021E+02  0.00000000000E+00 0.  1.
</event>
<event>
 8    1  0.2390921E-006  0.9118800E+02  0.7816164E-02  0.1184000E+00
        -11   -1    0    0    0    0  0.00000000000E+00  0.00000000000E+00  0.45593999997E+02  0.45594000000E+02  0.51100000000E-03 0.  1.
         11   -1    0    0    0    0 -0.00000000000E+00 -0.00000000000E+00 -0.45593999997E+02  0.45594000000E+02  0.51100000000E-03 0. -1.
         23    2    1    2    0    0  0.71054273576E-14  0.00000000000E+00  0.88817841970E-15  0.91188000000E+02  0.91188000000E+02 0.  0.
    9900012    2    3    3    0    0 -0.32814004816E+02  0.16104125988E+02 -0.44364004476E+01  0.54367035390E+02  0.39999888778E+02 0.  0.
        -12    1    3    3    0    0  0.32814004816E+02 -0.16104125988E+02  0.44364004476E+01  0.36820964610E+02  0.00000000000E+00 0.  1.
         11    1    4    4    0    0  0.30175566896E+01  0.12942789160E+02 -0.11305882208E+02  0.17448335519E+02  0.51100000000E-03 0. -1.
        -11    1    4    4    0    0 -0.86200446625E+01 -0.72544784115E+00  0.30212307390E+01  0.91629296621E+01  0.51100000000E-03 0.  1.
         12    1    4    4    0    0 -0.27211516843E+02  0.38867846686E+01  0.38482510210E+01  0.27755770209E+02  0.00000000000E+00 0. -1.
</event>
<event>
 8    1  0.2390921E-006  0.9118800E+02  0.7816164E-02  0.1184000E+00
        -11   -1    0    0    0    0  0.00000000000E+00  0.00000000000E+00  0.45593999997E+02  0.45594000000E+02  0.51100000000E-03 0.  1.
         11   -1    0    0    0    0 -0.00000000000E+00 -0.00000000000E+00 -0.45593999997E+02  0.45594000000E+02  0.51100000000E-03 0. -1.
         23    2    1    2    0    0  0.00000000000E+00 -0.88817841970E-15  0.00000000000E+00  0.91188000000E+02  0.91188000000E+02 0.  0.
    9900012    2    3    3    0    0  0.89980378382E+01  0.52196024569E+01 -0.35320963978E+02  0.54367089757E+02  0.40000012720E+02 0.  0.
        -12    1    3    3    0    0 -0.89980378382E+01 -0.52196024569E+01  0.35320963978E+02  0.36820910243E+02  0.00000000000E+00 0.  1.
         11    1    4    4    0    0  0.84143433730E+01  0.12032980639E+02 -0.27830554556E+02  0.31466387855E+02  0.51100000000E-03 0. -1.
        -11    1    4    4    0    0 -0.58746361723E+01  0.20200354462E+01 -0.99078286562E+01  0.11694313246E+02  0.51100000000E-03 0.  1.
        -12    1    4    4    0    0  0.64583306375E+01 -0.88334136286E+01  0.24174192344E+01  0.11206388656E+02  0.00000000000E+00 0.  1.
</event>
<event>
 8    1  0.2390921E-006  0.9118800E+02  0.7816164E-02  0.1184000E+00
        -11   -1    0    0    0    0  0.00000000000E+00  0.00000000000E+00  0.45593999997E+02  0.45594000000E+02  0.51100000000E-03 0.  1.
         11   -1    0    0    0    0 -0.00000000000E+00 -0.00000000000E+00 -0.45593999997E+02  0.45594000000E+02  0.51100000000E-03 0. -1.
         23    2    1    2    0    0  0.00000000000E+00  0.00000000000E+00  0.00000000000E+00  0.91188000000E+02  0.91188000000E+02 0.  0.
    9900012    2    3    3    0    0  0.16282266388E+02  0.20274003873E+02  0.26069762956E+02  0.54367082407E+02  0.39999995963E+02 0.  0.
         12    1    3    3    0    0 -0.16282266388E+02 -0.20274003873E+02 -0.26069762956E+02  0.36820917593E+02  0.00000000000E+00 0. -1.
         11    1    4    4    0    0  0.49370697682E+01 -0.56900297297E+01  0.73712561088E+01  0.10539758683E+02  0.51100000000E-03 0. -1.
        -11    1    4    4    0    0 -0.36622782903E+01  0.88493492400E+00  0.13659584442E+02  0.14169673231E+02  0.51100000000E-03 0.  1.
        -12    1    4    4    0    0  0.15007474910E+02  0.25079098679E+02  0.50389224060E+01  0.29657650493E+02  0.00000000000E+00 0.  1.
</event>
<event>
 8    1  0.2390921E-006  0.9118800E+02  0.7816164E-02  0.1184000E+00
        -11   -1    0    0    0    0  0.00000000000E+00  0.00000000000E+00  0.45593999997E+02  0.45594000000E+02  0.51100000000E-03 0. -1.
         11   -1    0    0    0    0 -0.00000000000E+00 -0.00000000000E+00 -0.45593999997E+02  0.45594000000E+02  0.51100000000E-03 0.  1.
         23    2    1    2    0    0  0.00000000000E+00  0.00000000000E+00  0.00000000000E+00  0.91188000000E+02  0.91188000000E+02 0.  0.
    9900012    2    3    3    0    0 -0.18795444838E+02  0.14556923019E+02 -0.28117666711E+02  0.54367137222E+02  0.40000120925E+02 0.  0.
         12    1    3    3    0    0  0.18795444838E+02 -0.14556923019E+02  0.28117666711E+02  0.36820862778E+02  0.00000000000E+00 0. -1.
         11    1    4    4    0    0 -0.40224977551E+01  0.76380271513E+00 -0.17968171796E+02  0.18428756896E+02  0.51100000000E-03 0. -1.
        -11    1    4    4    0    0 -0.85803914357E+01  0.22152132508E+02 -0.92624459257E+01  0.25497705713E+02  0.51100000000E-03 0.  1.
         12    1    4    4    0    0 -0.61925556472E+01 -0.83590122037E+01 -0.88704898895E+00  0.10440674613E+02  0.00000000000E+00 0. -1.
</event>
<event>
 8    1  0.2390921E-006  0.9118800E+02  0.7816164E-02  0.1184000E+00
        -11   -1    0    0    0    0  0.00000000000E+00  0.00000000000E+00  0.45593999997E+02  0.45594000000E+02  0.51100000000E-03 0. -1.
         11   -1    0    0    0    0 -0.00000000000E+00 -0.00000000000E+00 -0.45593999997E+02  0.45594000000E+02  0.51100000000E-03 0.  1.
         23    2    1    2    0    0  0.00000000000E+00  0.00000000000E+00  0.35527136788E-14  0.91188000000E+02  0.91188000000E+02 0.  0.
    9900012    2    3    3    0    0 -0.16048069053E+02 -0.13396572014E+02  0.30311246290E+02  0.54367077772E+02  0.39999985398E+02 0.  0.
        -12    1    3    3    0    0  0.16048069053E+02  0.13396572014E+02 -0.30311246290E+02  0.36820922228E+02  0.00000000000E+00 0.  1.
         11    1    4    4    0    0 -0.60870269320E+01 -0.29457580731E+01  0.22934911560E+01  0.71406925042E+01  0.51100000000E-03 0. -1.
        -11    1    4    4    0    0  0.42719147527E+01 -0.81555602055E+01 -0.55106297473E+01  0.10729839626E+02  0.51100000000E-03 0.  1.
         12    1    4    4    0    0 -0.14232956873E+02 -0.22952537351E+01  0.33528384882E+02  0.36496545642E+02  0.00000000000E+00 0. -1.
</event>
<event>
 8    1  0.2390921E-006  0.9118800E+02  0.7816164E-02  0.1184000E+00
        -11   -1    0    0    0    0  0.00000000000E+00  0.00000000000E+00  0.45593999997E+02  0.45594000000E+02  0.51100000000E-03 0.  1.
         11   -1    0    0    0    0 -0.00000000000E+00 -0.00000000000E+00 -0.45593999997E+02  0.45594000000E+02  0.51100000000E-03 0. -1.
         23    2    1    2    0    0 -0.35527136788E-14  0.44408920985E-14  0.00000000000E+00  0.91188000000E+02  0.91188000000E+02 0.  0.
    9900012    2    3    3    0    0 -0.80195118107E+01  0.73474308921E+01  0.35177869860E+02  0.54367084228E+02  0.40000000115E+02 0.  0.
         12    1    3    3    0    0  0.80195118107E+01 -0.73474308921E+01 -0.35177869860E+02  0.36820915772E+02  0.00000000000E+00 0. -1.
         11    1    4    4    0    0 -0.17372731328E+02  0.62817944434E+01  0.11963566100E+02  0.22009081064E+02  0.51100000000E-03 0.  1.
        -11    1    4    4    0    0  0.27909689816E+01 -0.91395549383E+01  0.59515819412E+01  0.11257988283E+02  0.51100000000E-03 0. -1.
        -12    1    4    4    0    0  0.65622505355E+01  0.10205191387E+02  0.17262721819E+02  0.21100014880E+02  0.00000000000E+00 0.  1.
</event>
<event>
 8    1  0.2390921E-006  0.9118800E+02  0.7816164E-02  0.1184000E+00
        -11   -1    0    0    0    0  0.00000000000E+00  0.00000000000E+00  0.45593999997E+02  0.45594000000E+02  0.51100000000E-03 0. -1.
         11   -1    0    0    0    0 -0.00000000000E+00 -0.00000000000E+00 -0.45593999997E+02  0.45594000000E+02  0.51100000000E-03 0.  1.
         23    2    1    2    0    0  0.71054273576E-14  0.00000000000E+00  0.41633363423E-16  0.91188000000E+02  0.91188000000E+02 0.  0.
    9900012    2    3    3    0    0 -0.36696981717E+02  0.30161213448E+01 -0.11768847868E+00  0.54367091460E+02  0.40000016601E+02 0.  0.
         12    1    3    3    0    0  0.36696981717E+02 -0.30161213448E+01  0.11768847868E+00  0.36820908540E+02  0.00000000000E+00 0. -1.
         11    1    4    4    0    0 -0.10299844941E+02  0.13421433611E+01 -0.36129204744E-01  0.10386985135E+02  0.51100000000E-03 0. -1.
        -11    1    4    4    0    0 -0.17871984993E+02  0.88129482402E+01  0.15213385905E+02  0.25070361290E+02  0.51100000000E-03 0.  1.
         12    1    4    4    0    0 -0.85251517836E+01 -0.71389702565E+01 -0.15294945179E+02  0.18909745035E+02  0.00000000000E+00 0. -1.
</event>
<event>
 8    1  0.2390921E-006  0.9118800E+02  0.7816164E-02  0.1184000E+00
        -11   -1    0    0    0    0  0.00000000000E+00  0.00000000000E+00  0.45593999997E+02  0.45594000000E+02  0.51100000000E-03 0.  1.
         11   -1    0    0    0    0 -0.00000000000E+00 -0.00000000000E+00 -0.45593999997E+02  0.45594000000E+02  0.51100000000E-03 0. -1.
         23    2    1    2    0    0  0.00000000000E+00 -0.44408920985E-15  0.00000000000E+00  0.91188000000E+02  0.91188000000E+02 0.  0.
    9900012    2    3    3    0    0 -0.35881298798E+02  0.22686677229E+01  0.79476880198E+01  0.54367079295E+02  0.39999988869E+02 0.  0.
         12    1    3    3    0    0  0.35881298798E+02 -0.22686677229E+01 -0.79476880198E+01  0.36820920705E+02  0.00000000000E+00 0. -1.
         11    1    4    4    0    0 -0.15985333617E+01  0.87661572749E+01 -0.57375210979E+01  0.10598111666E+02  0.51100000000E-03 0. -1.
        -11    1    4    4    0    0 -0.16044797347E+02  0.53552591133E+01  0.14089222241E+02  0.22014097885E+02  0.51100000000E-03 0.  1.
        -12    1    4    4    0    0 -0.18237968090E+02 -0.11852748665E+02 -0.40401312348E+00  0.21754869744E+02  0.00000000000E+00 0.  1.
</event>
<event>
 8    1  0.2390921E-006  0.9118800E+02  0.7816164E-02  0.1184000E+00
        -11   -1    0    0    0    0  0.00000000000E+00  0.00000000000E+00  0.45593999997E+02  0.45594000000E+02  0.51100000000E-03 0. -1.
         11   -1    0    0    0    0 -0.00000000000E+00 -0.00000000000E+00 -0.45593999997E+02  0.45594000000E+02  0.51100000000E-03 0.  1.
         23    2    1    2    0    0  0.00000000000E+00  0.00000000000E+00  0.00000000000E+00  0.91188000000E+02  0.91188000000E+02 0.  0.
    9900012    2    3    3    0    0 -0.68190795673E+01 -0.36164865320E+02  0.11757362490E+01  0.54367086303E+02  0.40000004846E+02 0.  0.
        -12    1    3    3    0    0  0.68190795673E+01  0.36164865320E+02 -0.11757362490E+01  0.36820913697E+02  0.00000000000E+00 0.  1.
         11    1    4    4    0    0  0.41642164058E+01  0.16283457736E+01  0.26618889495E+01  0.52036392336E+01  0.51100000000E-03 0.  1.
        -11    1    4    4    0    0 -0.26851216992E+01  0.44668718275E+01  0.27423765232E+01  0.58892658047E+01  0.51100000000E-03 0. -1.
        -12    1    4    4    0    0 -0.82981742739E+01 -0.42260082921E+02 -0.42285292236E+01  0.43274181265E+02  0.00000000000E+00 0.  1.
</event>
<event>
 8    1  0.2390921E-006  0.9118800E+02  0.7816164E-02  0.1184000E+00
        -11   -1    0    0    0    0  0.00000000000E+00  0.00000000000E+00  0.45593999997E+02  0.45594000000E+02  0.51100000000E-03 0.  1.
         11   -1    0    0    0    0 -0.00000000000E+00 -0.00000000000E+00 -0.45593999997E+02  0.45594000000E+02  0.51100000000E-03 0. -1.
         23    2    1    2    0    0  0.00000000000E+00 -0.35527136788E-14  0.00000000000E+00  0.91188000000E+02  0.91188000000E+02 0.  0.
    9900012    2    3    3    0    0 -0.25662532257E+02  0.18836638185E+02 -0.18503915895E+02  0.54367090134E+02  0.40000013578E+02 0.  0.
        -12    1    3    3    0    0  0.25662532257E+02 -0.18836638185E+02  0.18503915895E+02  0.36820909866E+02  0.00000000000E+00 0.  1.
         11    1    4    4    0    0 -0.18825775578E+02  0.13241295621E+02  0.39024255943E+01  0.23344606692E+02  0.51100000000E-03 0.  1.
        -11    1    4    4    0    0  0.10185364365E+01 -0.43426449680E+01  0.84920498155E+00  0.45406091169E+01  0.51100000000E-03 0. -1.
         12    1    4    4    0    0 -0.78552931155E+01  0.99379875327E+01 -0.23255546470E+02  0.26481874325E+02  0.00000000000E+00 0. -1.
</event>
<event>
 8    1  0.2390921E-006  0.9118800E+02  0.7816164E-02  0.1184000E+00
        -11   -1    0    0    0    0  0.00000000000E+00  0.00000000000E+00  0.45593999997E+02  0.45594000000E+02  0.51100000000E-03 0.  1.
         11   -1    0    0    0    0 -0.00000000000E+00 -0.00000000000E+00 -0.45593999997E+02  0.45594000000E+02  0.51100000000E-03 0. -1.
         23    2    1    2    0    0  0.00000000000E+00 -0.88817841970E-15  0.00000000000E+00  0.91188000000E+02  0.91188000000E+02 0.  0.
    9900012    2    3    3    0    0  0.16932894444E+02  0.37226590466E+01  0.32483829249E+02  0.54367078403E+02  0.39999986834E+02 0.  0.
         12    1    3    3    0    0 -0.16932894444E+02 -0.37226590466E+01 -0.32483829249E+02  0.36820921597E+02  0.00000000000E+00 0. -1.
         11    1    4    4    0    0  0.13126253879E+02  0.96221999212E+01  0.25165654411E+01  0.16468708939E+02  0.51100000000E-03 0. -1.
        -11    1    4    4    0    0  0.12651167934E+02 -0.65764356533E+00  0.13744901784E+02  0.18692428159E+02  0.51100000000E-03 0.  1.
        -12    1    4    4    0    0 -0.88445273695E+01 -0.52418973092E+01  0.16222362024E+02  0.19205941305E+02  0.00000000000E+00 0.  1.
</event>
<event>
 8    1  0.2390921E-006  0.9118800E+02  0.7816164E-02  0.1184000E+00
        -11   -1    0    0    0    0  0.00000000000E+00  0.00000000000E+00  0.45593999997E+02  0.45594000000E+02  0.51100000000E-03 0.  1.
         11   -1    0    0    0    0 -0.00000000000E+00 -0.00000000000E+00 -0.45593999997E+02  0.45594000000E+02  0.51100000000E-03 0. -1.
         23    2    1    2    0    0  0.00000000000E+00  0.71054273576E-14 -0.17763568394E-14  0.91188000000E+02  0.91188000000E+02 0.  0.
    9900012    2    3    3    0    0  0.39967674460E+01 -0.33508195846E+02  0.14731193453E+02  0.54367063029E+02  0.39999951787E+02 0.  0.
        -12    1    3    3    0    0 -0.39967674460E+01  0.33508195846E+02 -0.14731193453E+02  0.36820936971E+02  0.00000000000E+00 0.  1.
         11    1    4    4    0    0 -0.36911426199E+01 -0.17350426059E+02 -0.56906223853E+01  0.18629143879E+02  0.51100000000E-03 0. -1.
        -11    1    4    4    0    0  0.19983675365E+01  0.14348997464E+01  0.16696228084E+02  0.16876505639E+02  0.51100000000E-03 0.  1.
        -12    1    4    4    0    0  0.56895425295E+01 -0.17592669533E+02  0.37255877545E+01  0.18861413510E+02  0.00000000000E+00 0.  1.
</event>
<event>
 8    1  0.2390921E-006  0.9118800E+02  0.7816164E-02  0.1184000E+00
        -11   -1    0    0    0    0  0.00000000000E+00  0.00000000000E+00  0.45593999997E+02  0.45594000000E+02  0.51100000000E-03 0. -1.
         11   -1    0    0    0    0 -0.00000000000E+00 -0.00000000000E+00 -0.45593999997E+02  0.45594000000E+02  0.51100000000E-03 0.  1.
         23    2    1    2    0    0 -0.35527136788E-14  0.00000000000E+00  0.00000000000E+00  0.91188000000E+02  0.91188000000E+02 0.  0.
    9900012    2    3    3    0    0  0.20708088720E+02  0.11602459962E+02  0.28148518095E+02  0.54367067277E+02  0.39999961471E+02 0.  0.
        -12    1    3    3    0    0 -0.20708088720E+02 -0.11602459962E+02 -0.28148518095E+02  0.36820932723E+02  0.00000000000E+00 0.  1.
         11    1    4    4    0    0 -0.31561988444E+01  0.13280775898E+01  0.23275374544E+01  0.41403879158E+01  0.51100000000E-03 0. -1.
        -11    1    4    4    0    0 -0.24948497184E+01 -0.57726282352E+01  0.17008008947E+02  0.18133391311E+02  0.51100000000E-03 0.  1.
         12    1    4    4    0    0  0.26359137283E+02  0.16047010608E+02  0.88129716943E+01  0.32093288050E+02  0.00000000000E+00 0. -1.
</event>
<event>
 8    1  0.2390921E-006  0.9118800E+02  0.7816164E-02  0.1184000E+00
        -11   -1    0    0    0    0  0.00000000000E+00  0.00000000000E+00  0.45593999997E+02  0.45594000000E+02  0.51100000000E-03 0. -1.
         11   -1    0    0    0    0 -0.00000000000E+00 -0.00000000000E+00 -0.45593999997E+02  0.45594000000E+02  0.51100000000E-03 0.  1.
         23    2    1    2    0    0 -0.88817841970E-15  0.00000000000E+00  0.00000000000E+00  0.91188000000E+02  0.91188000000E+02 0.  0.
    9900012    2    3    3    0    0 -0.33679578052E+01 -0.83710387480E+01  0.35698231958E+02  0.54367065813E+02  0.39999958134E+02 0.  0.
        -12    1    3    3    0    0  0.33679578052E+01  0.83710387480E+01 -0.35698231958E+02  0.36820934187E+02  0.00000000000E+00 0.  1.
         11    1    4    4    0    0  0.82738806515E+01 -0.38890309395E+01  0.21125346281E+02  0.23018729732E+02  0.51100000000E-03 0. -1.
        -11    1    4    4    0    0  0.23293062025E+01  0.68045204118E+01  0.10832207845E+02  0.13002457171E+02  0.51100000000E-03 0.  1.
         12    1    4    4    0    0 -0.13971144659E+02 -0.11286528220E+02  0.37406778310E+01  0.18345878910E+02  0.00000000000E+00 0. -1.
</event>
<event>
 8    1  0.2390921E-006  0.9118800E+02  0.7816164E-02  0.1184000E+00
        -11   -1    0    0    0    0  0.00000000000E+00  0.00000000000E+00  0.45593999997E+02  0.45594000000E+02  0.51100000000E-03 0. -1.
         11   -1    0    0    0    0 -0.00000000000E+00 -0.00000000000E+00 -0.45593999997E+02  0.45594000000E+02  0.51100000000E-03 0.  1.
         23    2    1    2    0    0 -0.71054273576E-14  0.00000000000E+00 -0.17763568394E-14  0.91188000000E+02  0.91188000000E+02 0.  0.
    9900012    2    3    3    0    0  0.33261862186E+02 -0.77326964244E+01  0.13770757377E+02  0.54367084357E+02  0.40000000408E+02 0.  0.
        -12    1    3    3    0    0 -0.33261862186E+02  0.77326964244E+01 -0.13770757377E+02  0.36820915643E+02  0.00000000000E+00 0.  1.
         11    1    4    4    0    0 -0.24653636616E+01  0.39319668260E+01  0.46200394441E+00  0.46638856130E+01  0.51100000000E-03 0. -1.
        -11    1    4    4    0    0  0.22689346594E+02 -0.10072393927E+02  0.22634597486E+02  0.33594412808E+02  0.51100000000E-03 0.  1.
        -12    1    4    4    0    0  0.13037879253E+02 -0.15922693230E+01 -0.93258440533E+01  0.16108785936E+02  0.00000000000E+00 0.  1.
</event>
<event>
 8    1  0.2390921E-006  0.9118800E+02  0.7816164E-02  0.1184000E+00
        -11   -1    0    0    0    0  0.00000000000E+00  0.00000000000E+00  0.45593999997E+02  0.45594000000E+02  0.51100000000E-03 0. -1.
         11   -1    0    0    0    0 -0.00000000000E+00 -0.00000000000E+00 -0.45593999997E+02  0.45594000000E+02  0.51100000000E-03 0.  1.
         23    2    1    2    0    0  0.00000000000E+00  0.00000000000E+00 -0.44408920985E-15  0.91188000000E+02  0.91188000000E+02 0.  0.
    9900012    2    3    3    0    0 -0.23587692271E+02  0.28064605800E+02 -0.34341693154E+01  0.54366880459E+02  0.39999535580E+02 0.  0.
        -12    1    3    3    0    0  0.23587692271E+02 -0.28064605800E+02  0.34341693154E+01  0.36821119541E+02  0.00000000000E+00 0.  1.
         11    1    4    4    0    0 -0.65762579241E+01  0.20339227848E+02  0.17672844578E+01  0.21448884641E+02  0.51100000000E-03 0. -1.
        -11    1    4    4    0    0  0.81341769335E+00  0.13270827957E+02  0.77167232362E+00  0.13318108028E+02  0.51100000000E-03 0.  1.
        -12    1    4    4    0    0 -0.17824852040E+02 -0.55454500050E+01 -0.59731260968E+01  0.19599887790E+02  0.00000000000E+00 0.  1.
</event>
<event>
 8    1  0.2390921E-006  0.9118800E+02  0.7816164E-02  0.1184000E+00
        -11   -1    0    0    0    0  0.00000000000E+00  0.00000000000E+00  0.45593999997E+02  0.45594000000E+02  0.51100000000E-03 0. -1.
         11   -1    0    0    0    0 -0.00000000000E+00 -0.00000000000E+00 -0.45593999997E+02  0.45594000000E+02  0.51100000000E-03 0.  1.
         23    2    1    2    0    0 -0.35527136788E-14  0.00000000000E+00  0.22204460493E-15  0.91188000000E+02  0.91188000000E+02 0.  0.
    9900012    2    3    3    0    0 -0.23782294967E+02 -0.28049824942E+02 -0.18408895878E+01  0.54367094150E+02  0.40000022733E+02 0.  0.
         12    1    3    3    0    0  0.23782294967E+02  0.28049824942E+02  0.18408895878E+01  0.36820905850E+02  0.00000000000E+00 0. -1.
         11    1    4    4    0    0 -0.73571241224E+01 -0.77776922014E+01  0.29314760956E+01  0.11100149715E+02  0.51100000000E-03 0. -1.
        -11    1    4    4    0    0 -0.17665450590E+02 -0.26358104086E+02  0.45602928746E+01  0.32056420057E+02  0.51100000000E-03 0.  1.
         12    1    4    4    0    0  0.12402797450E+01  0.60859713452E+01 -0.93326585580E+01  0.11210524378E+02  0.00000000000E+00 0. -1.
</event>
<event>
 8    1  0.2390921E-006  0.9118800E+02  0.7816164E-02  0.1184000E+00
        -11   -1    0    0    0    0  0.00000000000E+00  0.00000000000E+00  0.45593999997E+02  0.45594000000E+02  0.51100000000E-03 0. -1.
         11   -1    0    0    0    0 -0.00000000000E+00 -0.00000000000E+00 -0.45593999997E+02  0.45594000000E+02  0.51100000000E-03 0.  1.
         23    2    1    2    0    0  0.00000000000E+00  0.00000000000E+00  0.00000000000E+00  0.91188000000E+02  0.91188000000E+02 0.  0.
    9900012    2    3    3    0    0 -0.25740573546E+02 -0.12060841651E+02  0.23403826139E+02  0.54367080596E+02  0.39999991834E+02 0.  0.
        -12    1    3    3    0    0  0.25740573546E+02  0.12060841651E+02 -0.23403826139E+02  0.36820919404E+02  0.00000000000E+00 0.  1.
         11    1    4    4    0    0 -0.15923342087E+02  0.35824804023E+01  0.23333260275E+02  0.28475042131E+02  0.51100000000E-03 0. -1.
        -11    1    4    4    0    0 -0.62394921578E+01 -0.81992216123E+01 -0.89598858042E+01  0.13654231993E+02  0.51100000000E-03 0.  1.
        -12    1    4    4    0    0 -0.35777393014E+01 -0.74441004412E+01  0.90304516686E+01  0.12237806471E+02  0.00000000000E+00 0.  1.
</event>
<event>
 8    1  0.2390921E-006  0.9118800E+02  0.7816164E-02  0.1184000E+00
        -11   -1    0    0    0    0  0.00000000000E+00  0.00000000000E+00  0.45593999997E+02  0.45594000000E+02  0.51100000000E-03 0.  1.
         11   -1    0    0    0    0 -0.00000000000E+00 -0.00000000000E+00 -0.45593999997E+02  0.45594000000E+02  0.51100000000E-03 0. -1.
         23    2    1    2    0    0  0.35527136788E-14 -0.35527136788E-14  0.00000000000E+00  0.91188000000E+02  0.91188000000E+02 0.  0.
    9900012    2    3    3    0    0 -0.20273701533E+02  0.17778664545E+02 -0.25073304489E+02  0.54367156924E+02  0.40000165839E+02 0.  0.
        -12    1    3    3    0    0  0.20273701533E+02 -0.17778664545E+02  0.25073304489E+02  0.36820843076E+02  0.00000000000E+00 0.  1.
         11    1    4    4    0    0 -0.19692910138E+02  0.25837499997E+02 -0.22578572234E+02  0.39562343715E+02  0.51100000000E-03 0. -1.
        -11    1    4    4    0    0 -0.56159793826E+01 -0.67832427065E+00 -0.85318669270E+00  0.57207758247E+01  0.51100000000E-03 0.  1.
         12    1    4    4    0    0  0.50351879879E+01 -0.73805111815E+01 -0.16415455616E+01  0.90840373846E+01  0.00000000000E+00 0. -1.
</event>
<event>
 8    1  0.2390921E-006  0.9118800E+02  0.7816164E-02  0.1184000E+00
        -11   -1    0    0    0    0  0.00000000000E+00  0.00000000000E+00  0.45593999997E+02  0.45594000000E+02  0.51100000000E-03 0. -1.
         11   -1    0    0    0    0 -0.00000000000E+00 -0.00000000000E+00 -0.45593999997E+02  0.45594000000E+02  0.51100000000E-03 0.  1.
         23    2    1    2    0    0  0.00000000000E+00  0.00000000000E+00  0.11657341759E-14  0.91188000000E+02  0.91188000000E+02 0.  0.
    9900012    2    3    3    0    0  0.19442461866E+02 -0.31269226058E+02  0.76941999893E-01  0.54367085539E+02  0.40000003103E+02 0.  0.
         12    1    3    3    0    0 -0.19442461866E+02  0.31269226058E+02 -0.76941999893E-01  0.36820914461E+02  0.00000000000E+00 0. -1.
         11    1    4    4    0    0  0.61822214179E+01  0.26332087982E+01  0.56720511680E+01  0.87935098197E+01  0.51100000000E-03 0. -1.
        -11    1    4    4    0    0  0.22450197983E+01 -0.17764933703E+02  0.10058396930E+02  0.20537875558E+02  0.51100000000E-03 0.  1.
         12    1    4    4    0    0  0.11015220650E+02 -0.16137501153E+02 -0.15653506098E+02  0.25035700161E+02  0.00000000000E+00 0. -1.
</event>
<event>
 8    1  0.2390921E-006  0.9118800E+02  0.7816164E-02  0.1184000E+00
        -11   -1    0    0    0    0  0.00000000000E+00  0.00000000000E+00  0.45593999997E+02  0.45594000000E+02  0.51100000000E-03 0.  1.
         11   -1    0    0    0    0 -0.00000000000E+00 -0.00000000000E+00 -0.45593999997E+02  0.45594000000E+02  0.51100000000E-03 0. -1.
         23    2    1    2    0    0  0.35527136788E-14 -0.17763568394E-14  0.00000000000E+00  0.91188000000E+02  0.91188000000E+02 0.  0.
    9900012    2    3    3    0    0 -0.18437384077E+02 -0.13972981450E+02 -0.28646100616E+02  0.54367076292E+02  0.39999982023E+02 0.  0.
        -12    1    3    3    0    0  0.18437384077E+02  0.13972981450E+02  0.28646100616E+02  0.36820923708E+02  0.00000000000E+00 0.  1.
         11    1    4    4    0    0 -0.56376886777E+01 -0.15276309434E+01 -0.28712749999E+02  0.29300839624E+02  0.51100000000E-03 0. -1.
        -11    1    4    4    0    0 -0.50727460753E+01 -0.70589541834E+01 -0.86280346724E+01  0.12247635261E+02  0.51100000000E-03 0.  1.
        -12    1    4    4    0    0 -0.77269493239E+01 -0.53863963236E+01  0.86946840557E+01  0.12818601407E+02  0.00000000000E+00 0.  1.
</event>
<event>
 8    1  0.2390921E-006  0.9118800E+02  0.7816164E-02  0.1184000E+00
        -11   -1    0    0    0    0  0.00000000000E+00  0.00000000000E+00  0.45593999997E+02  0.45594000000E+02  0.51100000000E-03 0.  1.
         11   -1    0    0    0    0 -0.00000000000E+00 -0.00000000000E+00 -0.45593999997E+02  0.45594000000E+02  0.51100000000E-03 0. -1.
         23    2    1    2    0    0  0.00000000000E+00  0.00000000000E+00  0.00000000000E+00  0.91188000000E+02  0.91188000000E+02 0.  0.
    9900012    2    3    3    0    0  0.16759573166E+02 -0.16797939525E+02 -0.28155382382E+02  0.54367087164E+02  0.40000006807E+02 0.  0.
        -12    1    3    3    0    0 -0.16759573166E+02  0.16797939525E+02  0.28155382382E+02  0.36820912836E+02  0.00000000000E+00 0.  1.
         11    1    4    4    0    0  0.12332735837E+02 -0.15389232187E+02 -0.72456357041E+01  0.21010094658E+02  0.51100000000E-03 0. -1.
        -11    1    4    4    0    0 -0.73023912893E+00  0.55855743398E+01 -0.23597759229E+02  0.24260794109E+02  0.51100000000E-03 0.  1.
        -12    1    4    4    0    0  0.51570764582E+01 -0.69942816785E+01  0.26880125513E+01  0.90961983965E+01  0.00000000000E+00 0.  1.
</event>
<event>
 8    1  0.2390921E-006  0.9118800E+02  0.7816164E-02  0.1184000E+00
        -11   -1    0    0    0    0  0.00000000000E+00  0.00000000000E+00  0.45593999997E+02  0.45594000000E+02  0.51100000000E-03 0. -1.
         11   -1    0    0    0    0 -0.00000000000E+00 -0.00000000000E+00 -0.45593999997E+02  0.45594000000E+02  0.51100000000E-03 0.  1.
         23    2    1    2    0    0  0.00000000000E+00  0.00000000000E+00  0.00000000000E+00  0.91188000000E+02  0.91188000000E+02 0.  0.
    9900012    2    3    3    0    0 -0.20002373189E+01 -0.32698273694E+02  0.16810757563E+02  0.54367087169E+02  0.40000006819E+02 0.  0.
         12    1    3    3    0    0  0.20002373189E+01  0.32698273694E+02 -0.16810757563E+02  0.36820912831E+02  0.00000000000E+00 0. -1.
         11    1    4    4    0    0 -0.57113067556E+01 -0.20584493564E+02  0.12471292157E+02  0.24736077467E+02  0.51100000000E-03 0. -1.
        -11    1    4    4    0    0  0.14754026307E+02 -0.53806218138E+01  0.55130659731E+01  0.16644106466E+02  0.51100000000E-03 0.  1.
        -12    1    4    4    0    0 -0.11042956871E+02 -0.67331583163E+01 -0.11736005673E+01  0.12986903236E+02  0.00000000000E+00 0.  1.
</event>
<event>
 8    1  0.2390921E-006  0.9118800E+02  0.7816164E-02  0.1184000E+00
        -11   -1    0    0    0    0  0.00000000000E+00  0.00000000000E+00  0.45593999997E+02  0.45594000000E+02  0.51100000000E-03 0.  1.
         11   -1    0    0    0    0 -0.00000000000E+00 -0.00000000000E+00 -0.45593999997E+02  0.45594000000E+02  0.51100000000E-03 0. -1.
         23    2    1    2    0    0  0.35527136788E-14 -0.71054273576E-14  0.00000000000E+00  0.91188000000E+02  0.91188000000E+02 0.  0.
    9900012    2    3    3    0    0  0.24121511735E+02 -0.22225620475E+02 -0.16731799540E+02  0.54367100367E+02  0.40000036908E+02 0.  0.
        -12    1    3    3    0    0 -0.24121511735E+02  0.22225620475E+02  0.16731799540E+02  0.36820899633E+02  0.00000000000E+00 0.  1.
         11    1    4    4    0    0  0.16435605524E+01 -0.20145433845E+02 -0.81443559135E+01  0.21791519672E+02  0.51100000000E-03 0. -1.
        -11    1    4    4    0    0  0.19323720438E+02 -0.86493434361E+01  0.18409790934E+00  0.21171943835E+02  0.51100000000E-03 0.  1.
         12    1    4    4    0    0  0.31542307451E+01  0.65691568063E+01 -0.87715415359E+01  0.11403636861E+02  0.00000000000E+00 0. -1.
</event>
<event>
 8    1  0.2390921E-006  0.9118800E+02  0.7816164E-02  0.1184000E+00
        -11   -1    0    0    0    0  0.00000000000E+00  0.00000000000E+00  0.45593999997E+02  0.45594000000E+02  0.51100000000E-03 0.  1.
         11   -1    0    0    0    0 -0.00000000000E+00 -0.00000000000E+00 -0.45593999997E+02  0.45594000000E+02  0.51100000000E-03 0. -1.
         23    2    1    2    0    0 -0.35527136788E-14  0.44408920985E-15 -0.35527136788E-14  0.91188000000E+02  0.91188000000E+02 0.  0.
    9900012    2    3    3    0    0 -0.24004669512E+02 -0.39651355815E+01 -0.27637524452E+02  0.54367092673E+02  0.40000019366E+02 0.  0.
         12    1    3    3    0    0  0.24004669512E+02  0.39651355815E+01  0.27637524452E+02  0.36820907327E+02  0.00000000000E+00 0. -1.
         11    1    4    4    0    0  0.70422811117E+01 -0.64261543628E+01 -0.63875509810E+01  0.11475625950E+02  0.51100000000E-03 0. -1.
        -11    1    4    4    0    0 -0.19108354400E+02  0.11355817232E+02 -0.10878870371E+02  0.24747396099E+02  0.51100000000E-03 0.  1.
        -12    1    4    4    0    0 -0.11938596224E+02 -0.88947984508E+01 -0.10371103100E+02  0.18144070623E+02  0.00000000000E+00 0.  1.
</event>
<event>
 8    1  0.2390921E-006  0.9118800E+02  0.7816164E-02  0.1184000E+00
        -11   -1    0    0    0    0  0.00000000000E+00  0.00000000000E+00  0.45593999997E+02  0.45594000000E+02  0.51100000000E-03 0. -1.
         11   -1    0    0    0    0 -0.00000000000E+00 -0.00000000000E+00 -0.45593999997E+02  0.45594000000E+02  0.51100000000E-03 0.  1.
         23    2    1    2    0    0  0.88817841970E-15  0.35527136788E-14  0.00000000000E+00  0.91188000000E+02  0.91188000000E+02 0.  0.
    9900012    2    3    3    0    0  0.22653241177E+01  0.16465941128E+02  0.32855971520E+02  0.54367166562E+02  0.40000187810E+02 0.  0.
        -12    1    3    3    0    0 -0.22653241177E+01 -0.16465941128E+02 -0.32855971520E+02  0.36820833438E+02  0.00000000000E+00 0.  1.
         11    1    4    4    0    0 -0.10103062321E+02 -0.12864070364E+01  0.31153508483E+01  0.10650451751E+02  0.51100000000E-03 0. -1.
        -11    1    4    4    0    0 -0.62412733388E+01  0.17696807655E+00  0.39992805027E+01  0.74147862674E+01  0.51100000000E-03 0.  1.
         12    1    4    4    0    0  0.18609659778E+02  0.17575380088E+02  0.25741340169E+02  0.36301928543E+02  0.00000000000E+00 0. -1.
</event>
<event>
 8    1  0.2390921E-006  0.9118800E+02  0.7816164E-02  0.1184000E+00
        -11   -1    0    0    0    0  0.00000000000E+00  0.00000000000E+00  0.45593999997E+02  0.45594000000E+02  0.51100000000E-03 0. -1.
         11   -1    0    0    0    0 -0.00000000000E+00 -0.00000000000E+00 -0.45593999997E+02  0.45594000000E+02  0.51100000000E-03 0.  1.
         23    2    1    2    0    0 -0.66613381478E-15 -0.35527136788E-14  0.35527136788E-14  0.91188000000E+02  0.91188000000E+02 0.  0.
    9900012    2    3    3    0    0 -0.15538757347E+01 -0.20653228442E+02 -0.30443542648E+02  0.54367086597E+02  0.40000005515E+02 0.  0.
         12    1    3    3    0    0  0.15538757347E+01  0.20653228442E+02  0.30443542648E+02  0.36820913403E+02  0.00000000000E+00 0. -1.
         11    1    4    4    0    0 -0.55494140892E+01 -0.15799852406E+02 -0.30317290294E+00  0.16748828223E+02  0.51100000000E-03 0. -1.
        -11    1    4    4    0    0  0.41568815752E+01  0.72175181552E+01 -0.20637190612E+02  0.22254569629E+02  0.51100000000E-03 0.  1.
        -12    1    4    4    0    0 -0.16134322066E+00 -0.12070894192E+02 -0.95031791325E+01  0.15363688745E+02  0.00000000000E+00 0.  1.
</event>
<event>
 8    1  0.2390921E-006  0.9118800E+02  0.7816164E-02  0.1184000E+00
        -11   -1    0    0    0    0  0.00000000000E+00  0.00000000000E+00  0.45593999997E+02  0.45594000000E+02  0.51100000000E-03 0. -1.
         11   -1    0    0    0    0 -0.00000000000E+00 -0.00000000000E+00 -0.45593999997E+02  0.45594000000E+02  0.51100000000E-03 0.  1.
         23    2    1    2    0    0 -0.35527136788E-14 -0.17763568394E-14 -0.35527136788E-14  0.91188000000E+02  0.91188000000E+02 0.  0.
    9900012    2    3    3    0    0  0.23228024841E+02 -0.13214662319E+02  0.25330056569E+02  0.54367079262E+02  0.39999988794E+02 0.  0.
        -12    1    3    3    0    0 -0.23228024841E+02  0.13214662319E+02 -0.25330056569E+02  0.36820920738E+02  0.00000000000E+00 0.  1.
         11    1    4    4    0    0  0.20461567810E+02 -0.44736679707E+01  0.17462218664E+02  0.27269370057E+02  0.51100000000E-03 0. -1.
        -11    1    4    4    0    0 -0.56961876915E+01 -0.14574069609E+02  0.45021061680E+01  0.16282475837E+02  0.51100000000E-03 0.  1.
         12    1    4    4    0    0  0.84626447221E+01  0.58330752602E+01  0.33657317367E+01  0.10815233368E+02  0.00000000000E+00 0. -1.
</event>
<event>
 8    1  0.2390921E-006  0.9118800E+02  0.7816164E-02  0.1184000E+00
        -11   -1    0    0    0    0  0.00000000000E+00  0.00000000000E+00  0.45593999997E+02  0.45594000000E+02  0.51100000000E-03 0. -1.
         11   -1    0    0    0    0 -0.00000000000E+00 -0.00000000000E+00 -0.45593999997E+02  0.45594000000E+02  0.51100000000E-03 0.  1.
         23    2    1    2    0    0 -0.88817841970E-15  0.00000000000E+00 -0.13322676296E-14  0.91188000000E+02  0.91188000000E+02 0.  0.
    9900012    2    3    3    0    0  0.68234963290E+01 -0.36087767581E+02 -0.26256403094E+01  0.54367067663E+02  0.39999962351E+02 0.  0.
        -12    1    3    3    0    0 -0.68234963290E+01  0.36087767581E+02  0.26256403094E+01  0.36820932337E+02  0.00000000000E+00 0.  1.
         11    1    4    4    0    0 -0.47950240262E+01 -0.21189263730E+02  0.47927315512E+01  0.22247413980E+02  0.51100000000E-03 0. -1.
        -11    1    4    4    0    0 -0.34340110082E+01 -0.77243008996E+01  0.62873290110E+01  0.10535072963E+02  0.51100000000E-03 0.  1.
         12    1    4    4    0    0  0.15052531363E+02 -0.71742029518E+01 -0.13705700872E+02  0.21584580719E+02  0.00000000000E+00 0. -1.
</event>
<event>
 8    1  0.2390921E-006  0.9118800E+02  0.7816164E-02  0.1184000E+00
        -11   -1    0    0    0    0  0.00000000000E+00  0.00000000000E+00  0.45593999997E+02  0.45594000000E+02  0.51100000000E-03 0. -1.
         11   -1    0    0    0    0 -0.00000000000E+00 -0.00000000000E+00 -0.45593999997E+02  0.45594000000E+02  0.51100000000E-03 0.  1.
         23    2    1    2    0    0  0.00000000000E+00  0.00000000000E+00 -0.88817841970E-15  0.91188000000E+02  0.91188000000E+02 0.  0.
    9900012    2    3    3    0    0  0.34435496203E+02 -0.11487569749E+02 -0.61653966245E+01  0.54367085115E+02  0.40000002136E+02 0.  0.
         12    1    3    3    0    0 -0.34435496203E+02  0.11487569749E+02  0.61653966245E+01  0.36820914885E+02  0.00000000000E+00 0. -1.
         11    1    4    4    0    0  0.21520483691E+01 -0.17006753319E+01  0.62183953374E+01  0.67964733209E+01  0.51100000000E-03 0. -1.
        -11    1    4    4    0    0  0.27280385655E+02 -0.48270775794E+01  0.55926620567E+01  0.28263014499E+02  0.51100000000E-03 0.  1.
        -12    1    4    4    0    0  0.50030621787E+01 -0.49598168373E+01 -0.17976454019E+02  0.19307597295E+02  0.00000000000E+00 0.  1.
</event>
<event>
 8    1  0.2390921E-006  0.9118800E+02  0.7816164E-02  0.1184000E+00
        -11   -1    0    0    0    0  0.00000000000E+00  0.00000000000E+00  0.45593999997E+02  0.45594000000E+02  0.51100000000E-03 0.  1.
         11   -1    0    0    0    0 -0.00000000000E+00 -0.00000000000E+00 -0.45593999997E+02  0.45594000000E+02  0.51100000000E-03 0. -1.
         23    2    1    2    0    0  0.00000000000E+00  0.00000000000E+00  0.71054273576E-14  0.91188000000E+02  0.91188000000E+02 0.  0.
    9900012    2    3    3    0    0  0.21505420122E+02  0.80910325508E+01 -0.28772071146E+02  0.54367082298E+02  0.39999995715E+02 0.  0.
        -12    1    3    3    0    0 -0.21505420122E+02 -0.80910325508E+01  0.28772071146E+02  0.36820917702E+02  0.00000000000E+00 0.  1.
         11    1    4    4    0    0  0.90642351770E+01 -0.16276967051E+01 -0.75029167245E+01  0.11878700078E+02  0.51100000000E-03 0. -1.
        -11    1    4    4    0    0  0.77256935307E+01 -0.11122264752E+02 -0.19499201853E+01  0.13681860354E+02  0.51100000000E-03 0.  1.
        -12    1    4    4    0    0  0.47154914144E+01  0.20840994008E+02 -0.19319234237E+02  0.28806521866E+02  0.00000000000E+00 0.  1.
</event>
<event>
 8    1  0.2390921E-006  0.9118800E+02  0.7816164E-02  0.1184000E+00
        -11   -1    0    0    0    0  0.00000000000E+00  0.00000000000E+00  0.45593999997E+02  0.45594000000E+02  0.51100000000E-03 0.  1.
         11   -1    0    0    0    0 -0.00000000000E+00 -0.00000000000E+00 -0.45593999997E+02  0.45594000000E+02  0.51100000000E-03 0. -1.
         23    2    1    2    0    0  0.44408920985E-15  0.00000000000E+00 -0.17763568394E-14  0.91188000000E+02  0.91188000000E+02 0.  0.
    9900012    2    3    3    0    0  0.23662703967E+01 -0.34616875815E+02 -0.12322873703E+02  0.54367074657E+02  0.39999978295E+02 0.  0.
        -12    1    3    3    0    0 -0.23662703967E+01  0.34616875815E+02  0.12322873703E+02  0.36820925343E+02  0.00000000000E+00 0.  1.
         11    1    4    4    0    0  0.13881156750E+01 -0.90672202954E+01  0.33277632759E+01  0.97578357074E+01  0.51100000000E-03 0. -1.
        -11    1    4    4    0    0  0.76905595789E+01 -0.15246709783E+02 -0.24210287483E+02  0.29626759629E+02  0.51100000000E-03 0.  1.
         12    1    4    4    0    0 -0.67124048572E+01 -0.10302945737E+02  0.85596505041E+01  0.14982479320E+02  0.00000000000E+00 0. -1.
</event>
<event>
 8    1  0.2390921E-006  0.9118800E+02  0.7816164E-02  0.1184000E+00
        -11   -1    0    0    0    0  0.00000000000E+00  0.00000000000E+00  0.45593999997E+02  0.45594000000E+02  0.51100000000E-03 0.  1.
         11   -1    0    0    0    0 -0.00000000000E+00 -0.00000000000E+00 -0.45593999997E+02  0.45594000000E+02  0.51100000000E-03 0. -1.
         23    2    1    2    0    0 -0.17763568394E-14  0.17763568394E-14  0.35527136788E-14  0.91188000000E+02  0.91188000000E+02 0.  0.
    9900012    2    3    3    0    0  0.10570182687E+02  0.15346875088E+02  0.31757182434E+02  0.54367163872E+02  0.40000181679E+02 0.  0.
         12    1    3    3    0    0 -0.10570182687E+02 -0.15346875088E+02 -0.31757182434E+02  0.36820836128E+02  0.00000000000E+00 0. -1.
         11    1    4    4    0    0  0.16880687646E+02  0.82864270187E+01  0.25746583074E+02  0.31882738722E+02  0.51100000000E-03 0.  1.
        -11    1    4    4    0    0 -0.10784550103E+02 -0.10914282762E+01 -0.93208844784E+00  0.10879638125E+02  0.51100000000E-03 0. -1.
         12    1    4    4    0    0  0.44740451438E+01  0.81518763455E+01  0.69426878080E+01  0.11604787025E+02  0.00000000000E+00 0. -1.
</event>
<event>
 8    1  0.2390921E-006  0.9118800E+02  0.7816164E-02  0.1184000E+00
        -11   -1    0    0    0    0  0.00000000000E+00  0.00000000000E+00  0.45593999997E+02  0.45594000000E+02  0.51100000000E-03 0.  1.
         11   -1    0    0    0    0 -0.00000000000E+00 -0.00000000000E+00 -0.45593999997E+02  0.45594000000E+02  0.51100000000E-03 0. -1.
         23    2    1    2    0    0  0.00000000000E+00 -0.35527136788E-14  0.35527136788E-14  0.91188000000E+02  0.91188000000E+02 0.  0.
    9900012    2    3    3    0    0  0.12373596731E+02 -0.30479457994E+02 -0.16543209846E+02  0.54367067806E+02  0.39999962677E+02 0.  0.
        -12    1    3    3    0    0 -0.12373596731E+02  0.30479457994E+02  0.16543209846E+02  0.36820932194E+02  0.00000000000E+00 0.  1.
         11    1    4    4    0    0  0.49327338473E+01 -0.22026157984E+02  0.67073050022E+01  0.23547217233E+02  0.51100000000E-03 0. -1.
        -11    1    4    4    0    0  0.65890580784E+01 -0.24749340877E+01 -0.25339207754E+00  0.70430954065E+01  0.51100000000E-03 0.  1.
        -12    1    4    4    0    0  0.85180480508E+00 -0.59783659219E+01 -0.22997122770E+02  0.23776755166E+02  0.00000000000E+00 0.  1.
</event>
<event>
 8    1  0.2390921E-006  0.9118800E+02  0.7816164E-02  0.1184000E+00
        -11   -1    0    0    0    0  0.00000000000E+00  0.00000000000E+00  0.45593999997E+02  0.45594000000E+02  0.51100000000E-03 0. -1.
         11   -1    0    0    0    0 -0.00000000000E+00 -0.00000000000E+00 -0.45593999997E+02  0.45594000000E+02  0.51100000000E-03 0.  1.
         23    2    1    2    0    0  0.00000000000E+00  0.00000000000E+00  0.88817841970E-15  0.91188000000E+02  0.91188000000E+02 0.  0.
    9900012    2    3    3    0    0  0.35711557203E+02 -0.53167958225E+01  0.72246853707E+01  0.54367085911E+02  0.40000003951E+02 0.  0.
        -12    1    3    3    0    0 -0.35711557203E+02  0.53167958225E+01 -0.72246853707E+01  0.36820914089E+02  0.00000000000E+00 0.  1.
         11    1    4    4    0    0 -0.14719018708E+01  0.33741438228E+01 -0.48295620755E+01  0.60725622069E+01  0.51100000000E-03 0.  1.
        -11    1    4    4    0    0 -0.88359535104E+00 -0.51584199638E+01  0.83903071054E+01  0.98887456662E+01  0.51100000000E-03 0. -1.
        -12    1    4    4    0    0  0.38067054425E+02 -0.35325196816E+01  0.36639403407E+01  0.38405778038E+02  0.00000000000E+00 0.  1.
</event>
<event>
 8    1  0.2390921E-006  0.9118800E+02  0.7816164E-02  0.1184000E+00
        -11   -1    0    0    0    0  0.00000000000E+00  0.00000000000E+00  0.45593999997E+02  0.45594000000E+02  0.51100000000E-03 0. -1.
         11   -1    0    0    0    0 -0.00000000000E+00 -0.00000000000E+00 -0.45593999997E+02  0.45594000000E+02  0.51100000000E-03 0.  1.
         23    2    1    2    0    0 -0.35527136788E-14  0.00000000000E+00 -0.35527136788E-14  0.91188000000E+02  0.91188000000E+02 0.  0.
    9900012    2    3    3    0    0 -0.16401137990E+02  0.11449068769E+02 -0.30914433884E+02  0.54367072182E+02  0.39999972653E+02 0.  0.
         12    1    3    3    0    0  0.16401137990E+02 -0.11449068769E+02  0.30914433884E+02  0.36820927818E+02  0.00000000000E+00 0. -1.
         11    1    4    4    0    0 -0.15474263812E+01 -0.38672641596E+01  0.38417024495E+01  0.56664749586E+01  0.51100000000E-03 0. -1.
        -11    1    4    4    0    0 -0.15680419436E+02  0.20678375306E+02 -0.19361889203E+02  0.32378287675E+02  0.51100000000E-03 0.  1.
        -12    1    4    4    0    0  0.82670782806E+00 -0.53620423776E+01 -0.15394247130E+02  0.16322309548E+02  0.00000000000E+00 0.  1.
</event>
<event>
 8    1  0.2390921E-006  0.9118800E+02  0.7816164E-02  0.1184000E+00
        -11   -1    0    0    0    0  0.00000000000E+00  0.00000000000E+00  0.45593999997E+02  0.45594000000E+02  0.51100000000E-03 0.  1.
         11   -1    0    0    0    0 -0.00000000000E+00 -0.00000000000E+00 -0.45593999997E+02  0.45594000000E+02  0.51100000000E-03 0. -1.
         23    2    1    2    0    0 -0.35527136788E-14  0.17763568394E-14 -0.35527136788E-14  0.91188000000E+02  0.91188000000E+02 0.  0.
    9900012    2    3    3    0    0 -0.29363812277E+02  0.14778159555E+02 -0.16587737115E+02  0.54367075326E+02  0.39999979820E+02 0.  0.
        -12    1    3    3    0    0  0.29363812277E+02 -0.14778159555E+02  0.16587737115E+02  0.36820924674E+02  0.00000000000E+00 0.  1.
         11    1    4    4    0    0 -0.12181851479E+02 -0.54577649349E+01  0.30908814293E+01  0.13701760902E+02  0.51100000000E-03 0. -1.
        -11    1    4    4    0    0  0.22536712833E+01  0.37412187858E+00 -0.11461230593E+02  0.11686693647E+02  0.51100000000E-03 0.  1.
         12    1    4    4    0    0 -0.19435632081E+02  0.19861802612E+02 -0.82173879508E+01  0.28978620776E+02  0.00000000000E+00 0. -1.
</event>
<event>
 8    1  0.2390921E-006  0.9118800E+02  0.7816164E-02  0.1184000E+00
        -11   -1    0    0    0    0  0.00000000000E+00  0.00000000000E+00  0.45593999997E+02  0.45594000000E+02  0.51100000000E-03 0.  1.
         11   -1    0    0    0    0 -0.00000000000E+00 -0.00000000000E+00 -0.45593999997E+02  0.45594000000E+02  0.51100000000E-03 0. -1.
         23    2    1    2    0    0  0.71054273576E-14  0.00000000000E+00  0.88817841970E-15  0.91188000000E+02  0.91188000000E+02 0.  0.
    9900012    2    3    3    0    0 -0.36212245310E+02 -0.41444960204E+01  0.52226237380E+01  0.54367090772E+02  0.40000015032E+02 0.  0.
         12    1    3    3    0    0  0.36212245310E+02  0.41444960204E+01 -0.52226237380E+01  0.36820909228E+02  0.00000000000E+00 0. -1.
         11    1    4    4    0    0 -0.29487973617E+01  0.42506854303E+01 -0.14010382061E+02  0.14935010488E+02  0.51100000000E-03 0. -1.
        -11    1    4    4    0    0 -0.19200242105E+02 -0.59087854049E+01  0.10154831807E+02  0.22509634629E+02  0.51100000000E-03 0.  1.
         12    1    4    4    0    0 -0.14063205844E+02 -0.24863960457E+01  0.90781739925E+01  0.16922445655E+02  0.00000000000E+00 0. -1.
</event>
<event>
 8    1  0.2390921E-006  0.9118800E+02  0.7816164E-02  0.1184000E+00
        -11   -1    0    0    0    0  0.00000000000E+00  0.00000000000E+00  0.45593999997E+02  0.45594000000E+02  0.51100000000E-03 0.  1.
         11   -1    0    0    0    0 -0.00000000000E+00 -0.00000000000E+00 -0.45593999997E+02  0.45594000000E+02  0.51100000000E-03 0. -1.
         23    2    1    2    0    0  0.00000000000E+00  0.00000000000E+00  0.35527136788E-14  0.91188000000E+02  0.91188000000E+02 0.  0.
    9900012    2    3    3    0    0  0.16301823816E+02 -0.11848282669E+02 -0.30816293150E+02  0.54367147410E+02  0.40000144150E+02 0.  0.
        -12    1    3    3    0    0 -0.16301823816E+02  0.11848282669E+02  0.30816293150E+02  0.36820852590E+02  0.00000000000E+00 0.  1.
         11    1    4    4    0    0  0.22570897656E+02 -0.12663057528E+02 -0.27187154574E+02  0.37535847147E+02  0.51100000000E-03 0. -1.
        -11    1    4    4    0    0  0.27456035027E+01 -0.41648988081E+01  0.16554390158E+01  0.52559679672E+01  0.51100000000E-03 0.  1.
         12    1    4    4    0    0 -0.90146773426E+01  0.49796736676E+01 -0.52845775925E+01  0.11575332296E+02  0.00000000000E+00 0. -1.
</event>
<event>
 8    1  0.2390921E-006  0.9118800E+02  0.7816164E-02  0.1184000E+00
        -11   -1    0    0    0    0  0.00000000000E+00  0.00000000000E+00  0.45593999997E+02  0.45594000000E+02  0.51100000000E-03 0.  1.
         11   -1    0    0    0    0 -0.00000000000E+00 -0.00000000000E+00 -0.45593999997E+02  0.45594000000E+02  0.51100000000E-03 0. -1.
         23    2    1    2    0    0  0.00000000000E+00  0.00000000000E+00  0.00000000000E+00  0.91188000000E+02  0.91188000000E+02 0.  0.
    9900012    2    3    3    0    0 -0.79178946091E+01  0.12585917530E+02 -0.33685011582E+02  0.54367104025E+02  0.40000045245E+02 0.  0.
        -12    1    3    3    0    0  0.79178946091E+01 -0.12585917530E+02  0.33685011582E+02  0.36820895975E+02  0.00000000000E+00 0.  1.
         11    1    4    4    0    0 -0.56890623033E+01  0.14224930622E+02 -0.28922280506E+02  0.32729381158E+02  0.51100000000E-03 0. -1.
        -11    1    4    4    0    0  0.86148019762E+01 -0.43563612892E+01 -0.39460719763E+01  0.10429006716E+02  0.51100000000E-03 0.  1.
        -12    1    4    4    0    0 -0.10843634282E+02  0.27173481967E+01 -0.81665910056E+00  0.11208716151E+02  0.00000000000E+00 0.  1.
</event>
<event>
 8    1  0.2390921E-006  0.9118800E+02  0.7816164E-02  0.1184000E+00
        -11   -1    0    0    0    0  0.00000000000E+00  0.00000000000E+00  0.45593999997E+02  0.45594000000E+02  0.51100000000E-03 0.  1.
         11   -1    0    0    0    0 -0.00000000000E+00 -0.00000000000E+00 -0.45593999997E+02  0.45594000000E+02  0.51100000000E-03 0. -1.
         23    2    1    2    0    0  0.00000000000E+00  0.00000000000E+00  0.00000000000E+00  0.91188000000E+02  0.91188000000E+02 0.  0.
    9900012    2    3    3    0    0  0.93710909164E+01  0.34381976927E+02  0.92659000274E+01  0.54366883970E+02  0.39999543583E+02 0.  0.
        -12    1    3    3    0    0 -0.93710909164E+01 -0.34381976927E+02 -0.92659000274E+01  0.36821116030E+02  0.00000000000E+00 0.  1.
         11    1    4    4    0    0  0.12690687052E+01  0.38481601057E+01  0.51103740730E+01  0.65218705143E+01  0.51100000000E-03 0. -1.
        -11    1    4    4    0    0 -0.11211032086E+02  0.24542571758E+02 -0.91686842807E+00  0.26997513162E+02  0.51100000000E-03 0.  1.
        -12    1    4    4    0    0  0.19313054298E+02  0.59912450631E+01  0.50723943825E+01  0.20847500293E+02  0.00000000000E+00 0.  1.
</event>
<event>
 8    1  0.2390921E-006  0.9118800E+02  0.7816164E-02  0.1184000E+00
        -11   -1    0    0    0    0  0.00000000000E+00  0.00000000000E+00  0.45593999997E+02  0.45594000000E+02  0.51100000000E-03 0. -1.
         11   -1    0    0    0    0 -0.00000000000E+00 -0.00000000000E+00 -0.45593999997E+02  0.45594000000E+02  0.51100000000E-03 0.  1.
         23    2    1    2    0    0  0.61062266354E-15  0.00000000000E+00  0.00000000000E+00  0.91188000000E+02  0.91188000000E+02 0.  0.
    9900012    2    3    3    0    0  0.17898547029E+00  0.23614941757E+02  0.28250369344E+02  0.54367070109E+02  0.39999967928E+02 0.  0.
        -12    1    3    3    0    0 -0.17898547029E+00 -0.23614941757E+02 -0.28250369344E+02  0.36820929891E+02  0.00000000000E+00 0.  1.
         11    1    4    4    0    0  0.35692881992E+01 -0.49563356726E+01  0.73517860258E+01  0.95579202538E+01  0.51100000000E-03 0. -1.
        -11    1    4    4    0    0 -0.12253419706E+02  0.13202342966E+02  0.84242139849E+00  0.18032133217E+02  0.51100000000E-03 0.  1.
         12    1    4    4    0    0  0.88631169774E+01  0.15368934463E+02  0.20056161920E+02  0.26777016638E+02  0.00000000000E+00 0. -1.
</event>
<event>
 8    1  0.2390921E-006  0.9118800E+02  0.7816164E-02  0.1184000E+00
        -11   -1    0    0    0    0  0.00000000000E+00  0.00000000000E+00  0.45593999997E+02  0.45594000000E+02  0.51100000000E-03 0. -1.
         11   -1    0    0    0    0 -0.00000000000E+00 -0.00000000000E+00 -0.45593999997E+02  0.45594000000E+02  0.51100000000E-03 0.  1.
         23    2    1    2    0    0 -0.35527136788E-14  0.17763568394E-14  0.35527136788E-14  0.91188000000E+02  0.91188000000E+02 0.  0.
    9900012    2    3    3    0    0  0.16147281095E+02 -0.11646161074E+02 -0.30974381973E+02  0.54367080767E+02  0.39999992225E+02 0.  0.
         12    1    3    3    0    0 -0.16147281095E+02  0.11646161074E+02  0.30974381973E+02  0.36820919233E+02  0.00000000000E+00 0. -1.
         11    1    4    4    0    0  0.17999380329E+02 -0.68857377138E+01  0.32813161599E+00  0.19274302756E+02  0.51100000000E-03 0. -1.
        -11    1    4    4    0    0  0.25928092641E+01 -0.86689520306E+01 -0.24264597744E+02  0.25896796967E+02  0.51100000000E-03 0.  1.
         12    1    4    4    0    0 -0.44449084986E+01  0.39085286704E+01 -0.70379158452E+01  0.91959810446E+01  0.00000000000E+00 0. -1.
</event>
<event>
 8    1  0.2390921E-006  0.9118800E+02  0.7816164E-02  0.1184000E+00
        -11   -1    0    0    0    0  0.00000000000E+00  0.00000000000E+00  0.45593999997E+02  0.45594000000E+02  0.51100000000E-03 0. -1.
         11   -1    0    0    0    0 -0.00000000000E+00 -0.00000000000E+00 -0.45593999997E+02  0.45594000000E+02  0.51100000000E-03 0.  1.
         23    2    1    2    0    0  0.00000000000E+00  0.00000000000E+00  0.35527136788E-14  0.91188000000E+02  0.91188000000E+02 0.  0.
    9900012    2    3    3    0    0  0.10918638863E+02 -0.17958566084E+02 -0.30233363791E+02  0.54367040527E+02  0.39999900489E+02 0.  0.
         12    1    3    3    0    0 -0.10918638863E+02  0.17958566084E+02  0.30233363791E+02  0.36820959473E+02  0.00000000000E+00 0. -1.
         11    1    4    4    0    0  0.89979414158E+01  0.84373762957E+01 -0.50453783896E+01  0.13326969342E+02  0.51100000000E-03 0. -1.
        -11    1    4    4    0    0 -0.10123111056E+00 -0.64568934428E+00 -0.12038197488E+02  0.12055926405E+02  0.51100000000E-03 0.  1.
        -12    1    4    4    0    0  0.20219285579E+01 -0.25750253035E+02 -0.13149787914E+02  0.28984144780E+02  0.00000000000E+00 0.  1.
</event>
<event>
 8    1  0.2390921E-006  0.9118800E+02  0.7816164E-02  0.1184000E+00
        -11   -1    0    0    0    0  0.00000000000E+00  0.00000000000E+00  0.45593999997E+02  0.45594000000E+02  0.51100000000E-03 0.  1.
         11   -1    0    0    0    0 -0.00000000000E+00 -0.00000000000E+00 -0.45593999997E+02  0.45594000000E+02  0.51100000000E-03 0. -1.
         23    2    1    2    0    0  0.00000000000E+00  0.15543122345E-14  0.00000000000E+00  0.91188000000E+02  0.91188000000E+02 0.  0.
    9900012    2    3    3    0    0  0.14134130872E+02  0.17393108130E+01  0.33955631414E+02  0.54367030942E+02  0.39999878639E+02 0.  0.
         12    1    3    3    0    0 -0.14134130872E+02 -0.17393108130E+01 -0.33955631414E+02  0.36820969058E+02  0.00000000000E+00 0. -1.
         11    1    4    4    0    0 -0.50698128559E+01 -0.13638634447E+02  0.45280129481E+01  0.15238709050E+02  0.51100000000E-03 0. -1.
        -11    1    4    4    0    0  0.69681396464E+01  0.10018752995E+02  0.11475225736E+02  0.16751453299E+02  0.51100000000E-03 0.  1.
         12    1    4    4    0    0  0.12235804082E+02  0.53591922656E+01  0.17952392731E+02  0.22376868593E+02  0.00000000000E+00 0. -1.
</event>
<event>
 8    1  0.2390921E-006  0.9118800E+02  0.7816164E-02  0.1184000E+00
        -11   -1    0    0    0    0  0.00000000000E+00  0.00000000000E+00  0.45593999997E+02  0.45594000000E+02  0.51100000000E-03 0.  1.
         11   -1    0    0    0    0 -0.00000000000E+00 -0.00000000000E+00 -0.45593999997E+02  0.45594000000E+02  0.51100000000E-03 0. -1.
         23    2    1    2    0    0 -0.35527136788E-14  0.00000000000E+00 -0.35527136788E-14  0.91188000000E+02  0.91188000000E+02 0.  0.
    9900012    2    3    3    0    0  0.22539721106E+02 -0.22205154798E+02  0.18832722034E+02  0.54367090909E+02  0.40000015344E+02 0.  0.
         12    1    3    3    0    0 -0.22539721106E+02  0.22205154798E+02 -0.18832722034E+02  0.36820909091E+02  0.00000000000E+00 0. -1.
         11    1    4    4    0    0 -0.12672157294E+01 -0.22086023027E+02  0.66551682406E+01  0.23101721006E+02  0.51100000000E-03 0. -1.
        -11    1    4    4    0    0  0.50228479494E+01  0.70718602266E+01  0.40246775358E+01  0.95623343445E+01  0.51100000000E-03 0.  1.
         12    1    4    4    0    0  0.18784088886E+02 -0.71909919974E+01  0.81528762575E+01  0.21703035558E+02  0.00000000000E+00 0. -1.
</event>
<event>
 8    1  0.2390921E-006  0.9118800E+02  0.7816164E-02  0.1184000E+00
        -11   -1    0    0    0    0  0.00000000000E+00  0.00000000000E+00  0.45593999997E+02  0.45594000000E+02  0.51100000000E-03 0. -1.
         11   -1    0    0    0    0 -0.00000000000E+00 -0.00000000000E+00 -0.45593999997E+02  0.45594000000E+02  0.51100000000E-03 0.  1.
         23    2    1    2    0    0  0.00000000000E+00  0.35527136788E-14  0.35527136788E-14  0.91188000000E+02  0.91188000000E+02 0.  0.
    9900012    2    3    3    0    0  0.24134535003E+02  0.17295938553E+02  0.21775094323E+02  0.54367081991E+02  0.39999995015E+02 0.  0.
        -12    1    3    3    0    0 -0.24134535003E+02 -0.17295938553E+02 -0.21775094323E+02  0.36820918009E+02  0.00000000000E+00 0.  1.
         11    1    4    4    0    0  0.16949163620E+01  0.11367922351E+02  0.19353525447E+02  0.22509139200E+02  0.51100000000E-03 0. -1.
        -11    1    4    4    0    0  0.35827067332E+01  0.64212742232E+01 -0.75348934846E+01  0.10528208313E+02  0.51100000000E-03 0.  1.
        -12    1    4    4    0    0  0.18856911908E+02 -0.49325802057E+00  0.99564623607E+01  0.21329734479E+02  0.00000000000E+00 0.  1.
</event>
<event>
 8    1  0.2390921E-006  0.9118800E+02  0.7816164E-02  0.1184000E+00
        -11   -1    0    0    0    0  0.00000000000E+00  0.00000000000E+00  0.45593999997E+02  0.45594000000E+02  0.51100000000E-03 0. -1.
         11   -1    0    0    0    0 -0.00000000000E+00 -0.00000000000E+00 -0.45593999997E+02  0.45594000000E+02  0.51100000000E-03 0.  1.
         23    2    1    2    0    0 -0.71054273576E-14  0.00000000000E+00 -0.19428902931E-15  0.91188000000E+02  0.91188000000E+02 0.  0.
    9900012    2    3    3    0    0 -0.32237992632E+02 -0.17788987282E+02 -0.20946446150E+00  0.54367080501E+02  0.39999991617E+02 0.  0.
        -12    1    3    3    0    0  0.32237992632E+02  0.17788987282E+02  0.20946446150E+00  0.36820919499E+02  0.00000000000E+00 0.  1.
         11    1    4    4    0    0 -0.20377448795E+02 -0.38599246752E+01  0.76381699788E+01  0.22101608059E+02  0.51100000000E-03 0. -1.
        -11    1    4    4    0    0 -0.13967146291E+02  0.27845300551E+01 -0.54532324181E+01  0.15250328758E+02  0.51100000000E-03 0.  1.
        -12    1    4    4    0    0  0.21066024545E+01 -0.16713592661E+02 -0.23944020222E+01  0.17015143684E+02  0.00000000000E+00 0.  1.
</event>
<event>
 8    1  0.2390921E-006  0.9118800E+02  0.7816164E-02  0.1184000E+00
        -11   -1    0    0    0    0  0.00000000000E+00  0.00000000000E+00  0.45593999997E+02  0.45594000000E+02  0.51100000000E-03 0.  1.
         11   -1    0    0    0    0 -0.00000000000E+00 -0.00000000000E+00 -0.45593999997E+02  0.45594000000E+02  0.51100000000E-03 0. -1.
         23    2    1    2    0    0  0.00000000000E+00  0.71054273576E-14  0.00000000000E+00  0.91188000000E+02  0.91188000000E+02 0.  0.
    9900012    2    3    3    0    0 -0.83425241241E+01 -0.32008046776E+02 -0.16176137256E+02  0.54367079537E+02  0.39999989421E+02 0.  0.
        -12    1    3    3    0    0  0.83425241241E+01  0.32008046776E+02  0.16176137256E+02  0.36820920463E+02  0.00000000000E+00 0.  1.
         11    1    4    4    0    0 -0.69341975605E+01 -0.20577372482E+02  0.22794326880E+01  0.21833624704E+02  0.51100000000E-03 0. -1.
        -11    1    4    4    0    0 -0.57672783993E+01  0.29680549180E+01  0.23150474393E+01  0.68869655901E+01  0.51100000000E-03 0.  1.
        -12    1    4    4    0    0  0.43589518356E+01 -0.14398729212E+02 -0.20770617383E+02  0.25646489243E+02  0.00000000000E+00 0.  1.
</event>
<event>
 8    1  0.2390921E-006  0.9118800E+02  0.7816164E-02  0.1184000E+00
        -11   -1    0    0    0    0  0.00000000000E+00  0.00000000000E+00  0.45593999997E+02  0.45594000000E+02  0.51100000000E-03 0.  1.
         11   -1    0    0    0    0 -0.00000000000E+00 -0.00000000000E+00 -0.45593999997E+02  0.45594000000E+02  0.51100000000E-03 0. -1.
         23    2    1    2    0    0  0.35527136788E-14  0.00000000000E+00  0.00000000000E+00  0.91188000000E+02  0.91188000000E+02 0.  0.
    9900012    2    3    3    0    0 -0.29542310449E+02 -0.44275843605E+01  0.21527406910E+02  0.54367070378E+02  0.39999968542E+02 0.  0.
         12    1    3    3    0    0  0.29542310449E+02  0.44275843605E+01 -0.21527406910E+02  0.36820929622E+02  0.00000000000E+00 0. -1.
         11    1    4    4    0    0 -0.20335169915E+02 -0.74030690596E+01  0.13303669671E+01  0.21681661456E+02  0.51100000000E-03 0.  1.
        -11    1    4    4    0    0 -0.45764361905E+01  0.13454550818E+02  0.11969369780E+02  0.18580487591E+02  0.51100000000E-03 0. -1.
         12    1    4    4    0    0 -0.46307043434E+01 -0.10479066119E+02  0.82276701631E+01  0.14104921331E+02  0.00000000000E+00 0. -1.
</event>
<event>
 8    1  0.2390921E-006  0.9118800E+02  0.7816164E-02  0.1184000E+00
        -11   -1    0    0    0    0  0.00000000000E+00  0.00000000000E+00  0.45593999997E+02  0.45594000000E+02  0.51100000000E-03 0. -1.
         11   -1    0    0    0    0 -0.00000000000E+00 -0.00000000000E+00 -0.45593999997E+02  0.45594000000E+02  0.51100000000E-03 0.  1.
         23    2    1    2    0    0  0.88817841970E-15 -0.71054273576E-14  0.00000000000E+00  0.91188000000E+02  0.91188000000E+02 0.  0.
    9900012    2    3    3    0    0  0.42374550538E+01 -0.35918674596E+02 -0.69047116451E+01  0.54367051438E+02  0.39999925364E+02 0.  0.
        -12    1    3    3    0    0 -0.42374550538E+01  0.35918674596E+02  0.69047116451E+01  0.36820948562E+02  0.00000000000E+00 0.  1.
         11    1    4    4    0    0  0.51264613170E+01 -0.80342480386E+01  0.68416286939E+01  0.11731906521E+02  0.51100000000E-03 0. -1.
        -11    1    4    4    0    0 -0.19909103033E+01 -0.24728712909E+02  0.35120130643E+01  0.25056081138E+02  0.51100000000E-03 0.  1.
        -12    1    4    4    0    0  0.11019040400E+01 -0.31557136483E+01 -0.17258353403E+02  0.17579063779E+02  0.00000000000E+00 0.  1.
</event>
<event>
 8    1  0.2390921E-006  0.9118800E+02  0.7816164E-02  0.1184000E+00
        -11   -1    0    0    0    0  0.00000000000E+00  0.00000000000E+00  0.45593999997E+02  0.45594000000E+02  0.51100000000E-03 0.  1.
         11   -1    0    0    0    0 -0.00000000000E+00 -0.00000000000E+00 -0.45593999997E+02  0.45594000000E+02  0.51100000000E-03 0. -1.
         23    2    1    2    0    0  0.35527136788E-14 -0.35527136788E-14  0.00000000000E+00  0.91188000000E+02  0.91188000000E+02 0.  0.
    9900012    2    3    3    0    0  0.22999161215E+02 -0.18508378777E+02  0.22005874912E+02  0.54367081595E+02  0.39999994113E+02 0.  0.
         12    1    3    3    0    0 -0.22999161215E+02  0.18508378777E+02 -0.22005874912E+02  0.36820918405E+02  0.00000000000E+00 0. -1.
         11    1    4    4    0    0  0.79705733342E+00  0.29504165397E+01 -0.21785553539E+01  0.37531802304E+01  0.51100000000E-03 0. -1.
        -11    1    4    4    0    0  0.10387601405E+01  0.39573676992E+01 -0.50308472015E+01  0.64845358787E+01  0.51100000000E-03 0.  1.
        -12    1    4    4    0    0  0.21163343741E+02 -0.25416163016E+02  0.29215277467E+02  0.44129365486E+02  0.00000000000E+00 0.  1.
</event>
<event>
 8    1  0.2390921E-006  0.9118800E+02  0.7816164E-02  0.1184000E+00
        -11   -1    0    0    0    0  0.00000000000E+00  0.00000000000E+00  0.45593999997E+02  0.45594000000E+02  0.51100000000E-03 0.  1.
         11   -1    0    0    0    0 -0.00000000000E+00 -0.00000000000E+00 -0.45593999997E+02  0.45594000000E+02  0.51100000000E-03 0. -1.
         23    2    1    2    0    0  0.00000000000E+00 -0.88817841970E-15  0.00000000000E+00  0.91188000000E+02  0.91188000000E+02 0.  0.
    9900012    2    3    3    0    0  0.10170556524E+01 -0.10580138467E+01 -0.36791528976E+02  0.54367212395E+02  0.40000292296E+02 0.  0.
        -12    1    3    3    0    0 -0.10170556524E+01  0.10580138467E+01  0.36791528976E+02  0.36820787605E+02  0.00000000000E+00 0.  1.
         11    1    4    4    0    0  0.11655249753E+01  0.42277837412E+01  0.46976528768E+01  0.64265501354E+01  0.51100000000E-03 0. -1.
        -11    1    4    4    0    0  0.40664852671E+00  0.10126692422E+01  0.29025410546E+01  0.31009041993E+01  0.51100000000E-03 0.  1.
         12    1    4    4    0    0 -0.55511784960E+00 -0.62984668301E+01 -0.44391722907E+02  0.44839758060E+02  0.00000000000E+00 0. -1.
</event>
<event>
 8    1  0.2390921E-006  0.9118800E+02  0.7816164E-02  0.1184000E+00
        -11   -1    0    0    0    0  0.00000000000E+00  0.00000000000E+00  0.45593999997E+02  0.45594000000E+02  0.51100000000E-03 0.  1.
         11   -1    0    0    0    0 -0.00000000000E+00 -0.00000000000E+00 -0.45593999997E+02  0.45594000000E+02  0.51100000000E-03 0. -1.
         23    2    1    2    0    0  0.88817841970E-15  0.00000000000E+00  0.00000000000E+00  0.91188000000E+02  0.91188000000E+02 0.  0.
    9900012    2    3    3    0    0  0.54717112470E+01  0.28822306119E+02  0.22251184675E+02  0.54367079677E+02  0.39999989739E+02 0.  0.
         12    1    3    3    0    0 -0.54717112470E+01 -0.28822306119E+02 -0.22251184675E+02  0.36820920323E+02  0.00000000000E+00 0. -1.
         11    1    4    4    0    0 -0.19027279363E+01  0.11965182650E+02 -0.29252645039E+00  0.12119056953E+02  0.51100000000E-03 0. -1.
        -11    1    4    4    0    0  0.18950713029E+01  0.20612823279E+02  0.27167115379E+02  0.34154530257E+02  0.51100000000E-03 0.  1.
         12    1    4    4    0    0  0.54793678803E+01 -0.37556998098E+01 -0.46234042530E+01  0.80934924672E+01  0.00000000000E+00 0. -1.
</event>
<event>
 8    1  0.2390921E-006  0.9118800E+02  0.7816164E-02  0.1184000E+00
        -11   -1    0    0    0    0  0.00000000000E+00  0.00000000000E+00  0.45593999997E+02  0.45594000000E+02  0.51100000000E-03 0.  1.
         11   -1    0    0    0    0 -0.00000000000E+00 -0.00000000000E+00 -0.45593999997E+02  0.45594000000E+02  0.51100000000E-03 0. -1.
         23    2    1    2    0    0 -0.17763568394E-14  0.00000000000E+00 -0.17763568394E-14  0.91188000000E+02  0.91188000000E+02 0.  0.
    9900012    2    3    3    0    0 -0.14266659742E+02 -0.32885012192E+02 -0.84155380772E+01  0.54367042812E+02  0.39999905699E+02 0.  0.
        -12    1    3    3    0    0  0.14266659742E+02  0.32885012192E+02  0.84155380772E+01  0.36820957188E+02  0.00000000000E+00 0.  1.
         11    1    4    4    0    0  0.32999834256E+01  0.19383376449E+01 -0.67885793577E+01  0.77930644417E+01  0.51100000000E-03 0. -1.
        -11    1    4    4    0    0 -0.30616658242E+00 -0.13793621604E+02 -0.11160503369E+02  0.17745832487E+02  0.51100000000E-03 0.  1.
        -12    1    4    4    0    0 -0.17260476586E+02 -0.21029728233E+02  0.95335446499E+01  0.28828145884E+02  0.00000000000E+00 0.  1.
</event>
<event>
 8    1  0.2390921E-006  0.9118800E+02  0.7816164E-02  0.1184000E+00
        -11   -1    0    0    0    0  0.00000000000E+00  0.00000000000E+00  0.45593999997E+02  0.45594000000E+02  0.51100000000E-03 0. -1.
         11   -1    0    0    0    0 -0.00000000000E+00 -0.00000000000E+00 -0.45593999997E+02  0.45594000000E+02  0.51100000000E-03 0.  1.
         23    2    1    2    0    0  0.00000000000E+00  0.00000000000E+00  0.00000000000E+00  0.91188000000E+02  0.91188000000E+02 0.  0.
    9900012    2    3    3    0    0 -0.56137211862E+01 -0.14062677800E+02 -0.33563504011E+02  0.54367060659E+02  0.39999946384E+02 0.  0.
         12    1    3    3    0    0  0.56137211862E+01  0.14062677800E+02  0.33563504011E+02  0.36820939341E+02  0.00000000000E+00 0. -1.
         11    1    4    4    0    0  0.13625831348E+02 -0.51591599090E+01 -0.10844875190E+02  0.18162916315E+02  0.51100000000E-03 0. -1.
        -11    1    4    4    0    0 -0.15177206769E+01 -0.21723784046E+00 -0.14895293749E+02  0.14973992269E+02  0.51100000000E-03 0.  1.
         12    1    4    4    0    0 -0.17721831858E+02 -0.86862800501E+01 -0.78233350712E+01  0.21230152075E+02  0.00000000000E+00 0. -1.
</event>
<event>
 8    1  0.2390921E-006  0.9118800E+02  0.7816164E-02  0.1184000E+00
        -11   -1    0    0    0    0  0.00000000000E+00  0.00000000000E+00  0.45593999997E+02  0.45594000000E+02  0.51100000000E-03 0.  1.
         11   -1    0    0    0    0 -0.00000000000E+00 -0.00000000000E+00 -0.45593999997E+02  0.45594000000E+02  0.51100000000E-03 0. -1.
         23    2    1    2    0    0 -0.35527136788E-14  0.00000000000E+00  0.17763568394E-14  0.91188000000E+02  0.91188000000E+02 0.  0.
    9900012    2    3    3    0    0 -0.30706754453E+02 -0.16394384821E+02 -0.12004162946E+02  0.54367074553E+02  0.39999978060E+02 0.  0.
         12    1    3    3    0    0  0.30706754453E+02  0.16394384821E+02  0.12004162946E+02  0.36820925447E+02  0.00000000000E+00 0. -1.
         11    1    4    4    0    0 -0.26278059877E+01 -0.59211379659E+01 -0.21339113379E+02  0.22300739879E+02  0.51100000000E-03 0. -1.
        -11    1    4    4    0    0 -0.21431260550E+02 -0.80710202218E+01  0.40864476336E+01  0.23262402084E+02  0.51100000000E-03 0.  1.
         12    1    4    4    0    0 -0.66476879152E+01 -0.24022266335E+01  0.52485027994E+01  0.88039325901E+01  0.00000000000E+00 0. -1.
</event>
<event>
 8    1  0.2390921E-006  0.9118800E+02  0.7816164E-02  0.1184000E+00
        -11   -1    0    0    0    0  0.00000000000E+00  0.00000000000E+00  0.45593999997E+02  0.45594000000E+02  0.51100000000E-03 0.  1.
         11   -1    0    0    0    0 -0.00000000000E+00 -0.00000000000E+00 -0.45593999997E+02  0.45594000000E+02  0.51100000000E-03 0. -1.
         23    2    1    2    0    0  0.71054273576E-14  0.00000000000E+00 -0.88817841970E-15  0.91188000000E+02  0.91188000000E+02 0.  0.
    9900012    2    3    3    0    0 -0.35402525636E+02  0.98165988389E+01  0.24647273675E+01  0.54367091331E+02  0.40000016308E+02 0.  0.
         12    1    3    3    0    0  0.35402525636E+02 -0.98165988389E+01 -0.24647273675E+01  0.36820908669E+02  0.00000000000E+00 0. -1.
         11    1    4    4    0    0  0.19407299418E+01  0.11758511084E+02 -0.63512760205E+01  0.13504359406E+02  0.51100000000E-03 0. -1.
        -11    1    4    4    0    0 -0.43188329716E+01 -0.40009309006E+01  0.46717772242E+01  0.75156682339E+01  0.51100000000E-03 0.  1.
        -12    1    4    4    0    0 -0.33024422606E+02  0.20590186551E+01  0.41442261638E+01  0.33347063691E+02  0.00000000000E+00 0.  1.
</event>
<event>
 8    1  0.2390921E-006  0.9118800E+02  0.7816164E-02  0.1184000E+00
        -11   -1    0    0    0    0  0.00000000000E+00  0.00000000000E+00  0.45593999997E+02  0.45594000000E+02  0.51100000000E-03 0. -1.
         11   -1    0    0    0    0 -0.00000000000E+00 -0.00000000000E+00 -0.45593999997E+02  0.45594000000E+02  0.51100000000E-03 0.  1.
         23    2    1    2    0    0 -0.17763568394E-14  0.00000000000E+00 -0.71054273576E-14  0.91188000000E+02  0.91188000000E+02 0.  0.
    9900012    2    3    3    0    0 -0.15530988180E+02 -0.69242950590E+01 -0.32659184529E+02  0.54367084884E+02  0.40000001610E+02 0.  0.
         12    1    3    3    0    0  0.15530988180E+02  0.69242950590E+01  0.32659184529E+02  0.36820915116E+02  0.00000000000E+00 0. -1.
         11    1    4    4    0    0 -0.16889084771E+01  0.90954633993E+01 -0.64351718007E+01  0.11269041781E+02  0.51100000000E-03 0. -1.
        -11    1    4    4    0    0 -0.15383775604E+02 -0.37469575761E+01 -0.20794390782E+01  0.15969480582E+02  0.51100000000E-03 0.  1.
         12    1    4    4    0    0  0.15416959011E+01 -0.12272800882E+02 -0.24144573650E+02  0.27128562521E+02  0.00000000000E+00 0. -1.
</event>
<event>
 8    1  0.2390921E-006  0.9118800E+02  0.7816164E-02  0.1184000E+00
        -11   -1    0    0    0    0  0.00000000000E+00  0.00000000000E+00  0.45593999997E+02  0.45594000000E+02  0.51100000000E-03 0.  1.
         11   -1    0    0    0    0 -0.00000000000E+00 -0.00000000000E+00 -0.45593999997E+02  0.45594000000E+02  0.51100000000E-03 0. -1.
         23    2    1    2    0    0 -0.17763568394E-14 -0.35527136788E-14 -0.35527136788E-14  0.91188000000E+02  0.91188000000E+02 0.  0.
    9900012    2    3    3    0    0 -0.11728173620E+02  0.25954586233E+02 -0.23336230909E+02  0.54367214076E+02  0.40000296129E+02 0.  0.
        -12    1    3    3    0    0  0.11728173620E+02 -0.25954586233E+02  0.23336230909E+02  0.36820785924E+02  0.00000000000E+00 0.  1.
         11    1    4    4    0    0  0.98550785973E+00 -0.14782301318E+01 -0.89792135243E-01  0.17788909334E+01  0.51100000000E-03 0. -1.
        -11    1    4    4    0    0 -0.18991822716E+02  0.18946536967E+02  0.25205094963E+00  0.26827674574E+02  0.51100000000E-03 0.  1.
         12    1    4    4    0    0  0.62781412355E+01  0.84862793971E+01 -0.23498489724E+02  0.25760648569E+02  0.00000000000E+00 0. -1.
</event>
<event>
 8    1  0.2390921E-006  0.9118800E+02  0.7816164E-02  0.1184000E+00
        -11   -1    0    0    0    0  0.00000000000E+00  0.00000000000E+00  0.45593999997E+02  0.45594000000E+02  0.51100000000E-03 0. -1.
         11   -1    0    0    0    0 -0.00000000000E+00 -0.00000000000E+00 -0.45593999997E+02  0.45594000000E+02  0.51100000000E-03 0.  1.
         23    2    1    2    0    0 -0.88817841970E-15 -0.35527136788E-14  0.00000000000E+00  0.91188000000E+02  0.91188000000E+02 0.  0.
    9900012    2    3    3    0    0 -0.51899544852E+01 -0.10513547732E+02 -0.34904306767E+02  0.54367069208E+02  0.39999965875E+02 0.  0.
         12    1    3    3    0    0  0.51899544852E+01  0.10513547732E+02  0.34904306767E+02  0.36820930792E+02  0.00000000000E+00 0. -1.
         11    1    4    4    0    0  0.58048695309E+01 -0.65138946071E+01 -0.34050802669E+02  0.35150881865E+02  0.51100000000E-03 0. -1.
        -11    1    4    4    0    0 -0.25133567770E+01  0.30818896301E+01 -0.58629959912E+01  0.70844709213E+01  0.51100000000E-03 0.  1.
        -12    1    4    4    0    0 -0.84814672391E+01 -0.70815427555E+01  0.50094918932E+01  0.12131716422E+02  0.00000000000E+00 0.  1.
</event>
<event>
 8    1  0.2390921E-006  0.9118800E+02  0.7816164E-02  0.1184000E+00
        -11   -1    0    0    0    0  0.00000000000E+00  0.00000000000E+00  0.45593999997E+02  0.45594000000E+02  0.51100000000E-03 0.  1.
         11   -1    0    0    0    0 -0.00000000000E+00 -0.00000000000E+00 -0.45593999997E+02  0.45594000000E+02  0.51100000000E-03 0. -1.
         23    2    1    2    0    0  0.00000000000E+00  0.00000000000E+00  0.35527136788E-14  0.91188000000E+02  0.91188000000E+02 0.  0.
    9900012    2    3    3    0    0  0.22284996141E+02 -0.26009237386E+02  0.13515864364E+02  0.54367081055E+02  0.39999992882E+02 0.  0.
         12    1    3    3    0    0 -0.22284996141E+02  0.26009237386E+02 -0.13515864364E+02  0.36820918945E+02  0.00000000000E+00 0. -1.
         11    1    4    4    0    0  0.17409648819E+01 -0.57116249638E+01 -0.72542883977E+01  0.93956542542E+01  0.51100000000E-03 0. -1.
        -11    1    4    4    0    0  0.20857168309E+02 -0.36351829692E+01  0.44264257880E+01  0.21629361308E+02  0.51100000000E-03 0.  1.
        -12    1    4    4    0    0 -0.31313704937E+00 -0.16662429453E+02  0.16343726974E+02  0.23342065493E+02  0.00000000000E+00 0.  1.
</event>
<event>
 8    1  0.2390921E-006  0.9118800E+02  0.7816164E-02  0.1184000E+00
        -11   -1    0    0    0    0  0.00000000000E+00  0.00000000000E+00  0.45593999997E+02  0.45594000000E+02  0.51100000000E-03 0. -1.
         11   -1    0    0    0    0 -0.00000000000E+00 -0.00000000000E+00 -0.45593999997E+02  0.45594000000E+02  0.51100000000E-03 0.  1.
         23    2    1    2    0    0  0.35527136788E-14  0.00000000000E+00  0.00000000000E+00  0.91188000000E+02  0.91188000000E+02 0.  0.
    9900012    2    3    3    0    0  0.22229702848E+02  0.87286900825E+01 -0.28025480260E+02  0.54367119198E+02  0.40000079835E+02 0.  0.
         12    1    3    3    0    0 -0.22229702848E+02 -0.87286900825E+01  0.28025480260E+02  0.36820880802E+02  0.00000000000E+00 0. -1.
         11    1    4    4    0    0  0.24721358032E+02  0.44054868858E+01 -0.13514798383E+02  0.28516725500E+02  0.51100000000E-03 0. -1.
        -11    1    4    4    0    0  0.37254684463E+01 -0.45842661837E+01 -0.13745305192E+02  0.14960883219E+02  0.51100000000E-03 0.  1.
         12    1    4    4    0    0 -0.62171236305E+01  0.89074693805E+01 -0.76537668422E+00  0.10889510479E+02  0.00000000000E+00 0. -1.
</event>
<event>
 8    1  0.2390921E-006  0.9118800E+02  0.7816164E-02  0.1184000E+00
        -11   -1    0    0    0    0  0.00000000000E+00  0.00000000000E+00  0.45593999997E+02  0.45594000000E+02  0.51100000000E-03 0.  1.
         11   -1    0    0    0    0 -0.00000000000E+00 -0.00000000000E+00 -0.45593999997E+02  0.45594000000E+02  0.51100000000E-03 0. -1.
         23    2    1    2    0    0  0.44408920985E-15  0.00000000000E+00  0.00000000000E+00  0.91188000000E+02  0.91188000000E+02 0.  0.
    9900012    2    3    3    0    0 -0.27530926340E+01 -0.36206615797E+02  0.61059128264E+01  0.54367072283E+02  0.39999972884E+02 0.  0.
         12    1    3    3    0    0  0.27530926340E+01  0.36206615797E+02 -0.61059128264E+01  0.36820927717E+02  0.00000000000E+00 0. -1.
         11    1    4    4    0    0 -0.28953520905E+01  0.65709719938E+01  0.60171098532E+00  0.72057472230E+01  0.51100000000E-03 0. -1.
        -11    1    4    4    0    0 -0.17368836468E+01 -0.35838873737E+02  0.11627857619E+02  0.37718015704E+02  0.51100000000E-03 0.  1.
        -12    1    4    4    0    0  0.18791431033E+01 -0.69387140532E+01 -0.61236557778E+01  0.94433093564E+01  0.00000000000E+00 0.  1.
</event>
<event>
 8    1  0.2390921E-006  0.9118800E+02  0.7816164E-02  0.1184000E+00
        -11   -1    0    0    0    0  0.00000000000E+00  0.00000000000E+00  0.45593999997E+02  0.45594000000E+02  0.51100000000E-03 0.  1.
         11   -1    0    0    0    0 -0.00000000000E+00 -0.00000000000E+00 -0.45593999997E+02  0.45594000000E+02  0.51100000000E-03 0. -1.
         23    2    1    2    0    0  0.00000000000E+00  0.00000000000E+00  0.00000000000E+00  0.91188000000E+02  0.91188000000E+02 0.  0.
    9900012    2    3    3    0    0  0.12014469494E+02  0.19560090791E+02  0.28789518303E+02  0.54367068546E+02  0.39999964365E+02 0.  0.
         12    1    3    3    0    0 -0.12014469494E+02 -0.19560090791E+02 -0.28789518303E+02  0.36820931454E+02  0.00000000000E+00 0. -1.
         11    1    4    4    0    0  0.44366657592E+01  0.49546835720E+01 -0.18531044183E+01  0.69041211319E+01  0.51100000000E-03 0. -1.
        -11    1    4    4    0    0 -0.11412359333E+02  0.28061770028E+00  0.49298952134E+01  0.12434812380E+02  0.51100000000E-03 0.  1.
        -12    1    4    4    0    0  0.18990163068E+02  0.14324789519E+02  0.25712727508E+02  0.35028135035E+02  0.00000000000E+00 0.  1.
</event>
<event>
 8    1  0.2390921E-006  0.9118800E+02  0.7816164E-02  0.1184000E+00
        -11   -1    0    0    0    0  0.00000000000E+00  0.00000000000E+00  0.45593999997E+02  0.45594000000E+02  0.51100000000E-03 0.  1.
         11   -1    0    0    0    0 -0.00000000000E+00 -0.00000000000E+00 -0.45593999997E+02  0.45594000000E+02  0.51100000000E-03 0. -1.
         23    2    1    2    0    0  0.00000000000E+00  0.00000000000E+00  0.00000000000E+00  0.91188000000E+02  0.91188000000E+02 0.  0.
    9900012    2    3    3    0    0  0.92909065018E+01 -0.21214164348E+02 -0.28625490355E+02  0.54367076456E+02  0.39999982397E+02 0.  0.
        -12    1    3    3    0    0 -0.92909065018E+01  0.21214164348E+02  0.28625490355E+02  0.36820923544E+02  0.00000000000E+00 0.  1.
         11    1    4    4    0    0 -0.53195070318E+01  0.43106937094E+01 -0.11304576897E+02  0.13216379777E+02  0.51100000000E-03 0. -1.
        -11    1    4    4    0    0  0.66161800514E+01  0.33151544748E+01 -0.34629646555E+01  0.81704474865E+01  0.51100000000E-03 0.  1.
        -12    1    4    4    0    0  0.79942334822E+01 -0.28840012532E+02 -0.13857948802E+02  0.32980249193E+02  0.00000000000E+00 0.  1.
</event>
<event>
 8    1  0.2390921E-006  0.9118800E+02  0.7816164E-02  0.1184000E+00
        -11   -1    0    0    0    0  0.00000000000E+00  0.00000000000E+00  0.45593999997E+02  0.45594000000E+02  0.51100000000E-03 0.  1.
         11   -1    0    0    0    0 -0.00000000000E+00 -0.00000000000E+00 -0.45593999997E+02  0.45594000000E+02  0.51100000000E-03 0. -1.
         23    2    1    2    0    0  0.00000000000E+00 -0.13322676296E-14  0.00000000000E+00  0.91188000000E+02  0.91188000000E+02 0.  0.
    9900012    2    3    3    0    0  0.91270439002E+01 -0.15679501909E+01  0.35637320552E+02  0.54367081838E+02  0.39999994666E+02 0.  0.
         12    1    3    3    0    0 -0.91270439002E+01  0.15679501909E+01 -0.35637320552E+02  0.36820918162E+02  0.00000000000E+00 0. -1.
         11    1    4    4    0    0  0.17157687794E+02  0.66913862318E+01  0.26875759232E+02  0.32580167813E+02  0.51100000000E-03 0. -1.
        -11    1    4    4    0    0 -0.42082948623E+01  0.25517198236E+00  0.11344820340E+02  0.12102884251E+02  0.51100000000E-03 0.  1.
        -12    1    4    4    0    0 -0.38223490320E+01 -0.85145084051E+01 -0.25832590199E+01  0.96840297742E+01  0.00000000000E+00 0.  1.
</event>
<event>
 8    1  0.2390921E-006  0.9118800E+02  0.7816164E-02  0.1184000E+00
        -11   -1    0    0    0    0  0.00000000000E+00  0.00000000000E+00  0.45593999997E+02  0.45594000000E+02  0.51100000000E-03 0. -1.
         11   -1    0    0    0    0 -0.00000000000E+00 -0.00000000000E+00 -0.45593999997E+02  0.45594000000E+02  0.51100000000E-03 0.  1.
         23    2    1    2    0    0 -0.17763568394E-14  0.71054273576E-14  0.00000000000E+00  0.91188000000E+02  0.91188000000E+02 0.  0.
    9900012    2    3    3    0    0 -0.10544945962E+02  0.35126331309E+02 -0.32742843960E+01  0.54367136690E+02  0.40000119712E+02 0.  0.
         12    1    3    3    0    0  0.10544945962E+02 -0.35126331309E+02  0.32742843960E+01  0.36820863310E+02  0.00000000000E+00 0. -1.
         11    1    4    4    0    0 -0.42446033819E+01  0.23198219455E+02 -0.27858968933E+01  0.23747321228E+02  0.51100000000E-03 0. -1.
        -11    1    4    4    0    0  0.24667763087E+01  0.43558859222E+01 -0.12782425064E+02  0.13727677091E+02  0.51100000000E-03 0.  1.
         12    1    4    4    0    0 -0.87671188893E+01  0.75722259318E+01  0.12294037562E+02  0.16892138371E+02  0.00000000000E+00 0. -1.
</event>
<event>
 8    1  0.2390921E-006  0.9118800E+02  0.7816164E-02  0.1184000E+00
        -11   -1    0    0    0    0  0.00000000000E+00  0.00000000000E+00  0.45593999997E+02  0.45594000000E+02  0.51100000000E-03 0.  1.
         11   -1    0    0    0    0 -0.00000000000E+00 -0.00000000000E+00 -0.45593999997E+02  0.45594000000E+02  0.51100000000E-03 0. -1.
         23    2    1    2    0    0  0.00000000000E+00  0.35527136788E-14  0.00000000000E+00  0.91188000000E+02  0.91188000000E+02 0.  0.
    9900012    2    3    3    0    0  0.17541956539E+02  0.31673697455E+02  0.66959987530E+01  0.54367085440E+02  0.40000002878E+02 0.  0.
         12    1    3    3    0    0 -0.17541956539E+02 -0.31673697455E+02 -0.66959987530E+01  0.36820914560E+02  0.00000000000E+00 0. -1.
         11    1    4    4    0    0  0.17848263735E+02  0.21153591326E+02  0.82862418428E+01  0.28891118851E+02  0.51100000000E-03 0. -1.
        -11    1    4    4    0    0  0.11335895544E+02  0.67276595246E+01 -0.83176202348E+00  0.13208170153E+02  0.51100000000E-03 0.  1.
         12    1    4    4    0    0 -0.11642202739E+02  0.37924466048E+01 -0.75848106630E+00  0.12267796436E+02  0.00000000000E+00 0. -1.
</event>
<event>
 8    1  0.2390921E-006  0.9118800E+02  0.7816164E-02  0.1184000E+00
        -11   -1    0    0    0    0  0.00000000000E+00  0.00000000000E+00  0.45593999997E+02  0.45594000000E+02  0.51100000000E-03 0. -1.
         11   -1    0    0    0    0 -0.00000000000E+00 -0.00000000000E+00 -0.45593999997E+02  0.45594000000E+02  0.51100000000E-03 0.  1.
         23    2    1    2    0    0  0.00000000000E+00 -0.35527136788E-14 -0.35527136788E-14  0.91188000000E+02  0.91188000000E+02 0.  0.
    9900012    2    3    3    0    0 -0.57570765481E+01  0.22530966072E+02  0.28548072360E+02  0.54367071196E+02  0.39999970406E+02 0.  0.
        -12    1    3    3    0    0  0.57570765481E+01 -0.22530966072E+02 -0.28548072360E+02  0.36820928804E+02  0.00000000000E+00 0.  1.
         11    1    4    4    0    0 -0.60065460503E+01  0.22179240087E+01  0.47110256611E+01  0.79493110018E+01  0.51100000000E-03 0. -1.
        -11    1    4    4    0    0 -0.15360369305E+02  0.15798598818E+02  0.19916609213E+02  0.29701986341E+02  0.51100000000E-03 0.  1.
         12    1    4    4    0    0  0.15609838808E+02  0.45144432458E+01  0.39204374854E+01  0.16715773853E+02  0.00000000000E+00 0. -1.
</event>
<event>
 8    1  0.2390921E-006  0.9118800E+02  0.7816164E-02  0.1184000E+00
        -11   -1    0    0    0    0  0.00000000000E+00  0.00000000000E+00  0.45593999997E+02  0.45594000000E+02  0.51100000000E-03 0. -1.
         11   -1    0    0    0    0 -0.00000000000E+00 -0.00000000000E+00 -0.45593999997E+02  0.45594000000E+02  0.51100000000E-03 0.  1.
         23    2    1    2    0    0  0.00000000000E+00  0.66613381478E-15  0.00000000000E+00  0.91188000000E+02  0.91188000000E+02 0.  0.
    9900012    2    3    3    0    0  0.63850389760E+01 -0.15568666389E+01  0.36229643936E+02  0.54367086700E+02  0.40000005751E+02 0.  0.
        -12    1    3    3    0    0 -0.63850389760E+01  0.15568666389E+01 -0.36229643936E+02  0.36820913300E+02  0.00000000000E+00 0.  1.
         11    1    4    4    0    0 -0.12273106617E+01  0.84760615618E+00  0.34598885700E+02  0.34631021060E+02  0.51100000000E-03 0. -1.
        -11    1    4    4    0    0  0.70837319507E+01 -0.95728375667E+01  0.32988418879E+01  0.12357217951E+02  0.51100000000E-03 0.  1.
         12    1    4    4    0    0  0.52861768700E+00  0.71683647716E+01 -0.16680836519E+01  0.73788476897E+01  0.00000000000E+00 0. -1.
</event>
<event>
 8    1  0.2390921E-006  0.9118800E+02  0.7816164E-02  0.1184000E+00
        -11   -1    0    0    0    0  0.00000000000E+00  0.00000000000E+00  0.45593999997E+02  0.45594000000E+02  0.51100000000E-03 0.  1.
         11   -1    0    0    0    0 -0.00000000000E+00 -0.00000000000E+00 -0.45593999997E+02  0.45594000000E+02  0.51100000000E-03 0. -1.
         23    2    1    2    0    0 -0.11102230246E-14 -0.71054273576E-14  0.17763568394E-14  0.91188000000E+02  0.91188000000E+02 0.  0.
    9900012    2    3    3    0    0  0.16753130736E+01 -0.36333357353E+02  0.57325498521E+01  0.54367059515E+02  0.39999943775E+02 0.  0.
         12    1    3    3    0    0 -0.16753130736E+01  0.36333357353E+02 -0.57325498521E+01  0.36820940485E+02  0.00000000000E+00 0. -1.
         11    1    4    4    0    0 -0.11270695100E+02 -0.19143365497E+02  0.11403492942E+02  0.24970716091E+02  0.51100000000E-03 0. -1.
        -11    1    4    4    0    0  0.58993757452E+01 -0.16482678858E+02 -0.10873629037E+02  0.20608666750E+02  0.51100000000E-03 0.  1.
        -12    1    4    4    0    0  0.70466324281E+01 -0.70731299810E+00  0.52026859472E+01  0.87876766735E+01  0.00000000000E+00 0.  1.
</event>
<event>
 8    1  0.2390921E-006  0.9118800E+02  0.7816164E-02  0.1184000E+00
        -11   -1    0    0    0    0  0.00000000000E+00  0.00000000000E+00  0.45593999997E+02  0.45594000000E+02  0.51100000000E-03 0.  1.
         11   -1    0    0    0    0 -0.00000000000E+00 -0.00000000000E+00 -0.45593999997E+02  0.45594000000E+02  0.51100000000E-03 0. -1.
         23    2    1    2    0    0 -0.44408920985E-15  0.00000000000E+00 -0.17763568394E-14  0.91188000000E+02  0.91188000000E+02 0.  0.
    9900012    2    3    3    0    0  0.68833740668E+00  0.36431366157E+02 -0.52973737306E+01  0.54367076371E+02  0.39999982204E+02 0.  0.
        -12    1    3    3    0    0 -0.68833740668E+00 -0.36431366157E+02  0.52973737306E+01  0.36820923629E+02  0.00000000000E+00 0.  1.
         11    1    4    4    0    0 -0.11793581542E+02  0.77067012175E+01 -0.17392811560E+01  0.14195312904E+02  0.51100000000E-03 0.  1.
        -11    1    4    4    0    0  0.82176740679E+01  0.22887029766E+02  0.87946734489E+01  0.25859090856E+02  0.51100000000E-03 0. -1.
         12    1    4    4    0    0  0.42642448811E+01  0.58376351735E+01 -0.12352766024E+02  0.14312672611E+02  0.00000000000E+00 0. -1.
</event>
<event>
 8    1  0.2390921E-006  0.9118800E+02  0.7816164E-02  0.1184000E+00
        -11   -1    0    0    0    0  0.00000000000E+00  0.00000000000E+00  0.45593999997E+02  0.45594000000E+02  0.51100000000E-03 0. -1.
         11   -1    0    0    0    0 -0.00000000000E+00 -0.00000000000E+00 -0.45593999997E+02  0.45594000000E+02  0.51100000000E-03 0.  1.
         23    2    1    2    0    0  0.00000000000E+00 -0.88817841970E-15  0.00000000000E+00  0.91188000000E+02  0.91188000000E+02 0.  0.
    9900012    2    3    3    0    0  0.34015670472E+02 -0.78256232318E+01 -0.11724860901E+02  0.54367101318E+02  0.40000039075E+02 0.  0.
        -12    1    3    3    0    0 -0.34015670472E+02  0.78256232318E+01  0.11724860901E+02  0.36820898682E+02  0.00000000000E+00 0.  1.
         11    1    4    4    0    0 -0.31937728542E+01  0.19643764675E+01  0.34952570566E+01  0.51259908411E+01  0.51100000000E-03 0. -1.
        -11    1    4    4    0    0  0.35397905508E+02 -0.16706816874E+02 -0.15465118839E+02  0.42086807260E+02  0.51100000000E-03 0.  1.
        -12    1    4    4    0    0  0.18115378184E+01  0.69168171743E+01  0.24500088087E+00  0.71543032171E+01  0.00000000000E+00 0.  1.
</event>
<event>
 8    1  0.2390921E-006  0.9118800E+02  0.7816164E-02  0.1184000E+00
        -11   -1    0    0    0    0  0.00000000000E+00  0.00000000000E+00  0.45593999997E+02  0.45594000000E+02  0.51100000000E-03 0. -1.
         11   -1    0    0    0    0 -0.00000000000E+00 -0.00000000000E+00 -0.45593999997E+02  0.45594000000E+02  0.51100000000E-03 0.  1.
         23    2    1    2    0    0  0.00000000000E+00  0.00000000000E+00 -0.88817841970E-15  0.91188000000E+02  0.91188000000E+02 0.  0.
    9900012    2    3    3    0    0  0.36010906150E+02  0.72417896108E+01 -0.25595507222E+01  0.54367079609E+02  0.39999989585E+02 0.  0.
         12    1    3    3    0    0 -0.36010906150E+02 -0.72417896108E+01  0.25595507222E+01  0.36820920391E+02  0.00000000000E+00 0. -1.
         11    1    4    4    0    0  0.38223670235E+01  0.42248484999E+01  0.14373997073E+02  0.15461941231E+02  0.51100000000E-03 0. -1.
        -11    1    4    4    0    0  0.51337978293E+01  0.54465809217E+01 -0.61199506291E+01  0.96682428524E+01  0.51100000000E-03 0.  1.
        -12    1    4    4    0    0  0.27054741298E+02 -0.24296398108E+01 -0.10813597166E+02  0.29236895525E+02  0.00000000000E+00 0.  1.
</event>
<event>
 8    1  0.2390921E-006  0.9118800E+02  0.7816164E-02  0.1184000E+00
        -11   -1    0    0    0    0  0.00000000000E+00  0.00000000000E+00  0.45593999997E+02  0.45594000000E+02  0.51100000000E-03 0. -1.
         11   -1    0    0    0    0 -0.00000000000E+00 -0.00000000000E+00 -0.45593999997E+02  0.45594000000E+02  0.51100000000E-03 0.  1.
         23    2    1    2    0    0  0.44408920985E-15  0.00000000000E+00 -0.35527136788E-14  0.91188000000E+02  0.91188000000E+02 0.  0.
    9900012    2    3    3    0    0  0.13664809184E+01  0.24550340926E+02 -0.27407918764E+02  0.54367074962E+02  0.39999978990E+02 0.  0.
         12    1    3    3    0    0 -0.13664809184E+01 -0.24550340926E+02  0.27407918764E+02  0.36820925038E+02  0.00000000000E+00 0. -1.
         11    1    4    4    0    0 -0.10714913830E+02  0.67930348990E+01 -0.17821946783E+01  0.12811359009E+02  0.51100000000E-03 0.  1.
        -11    1    4    4    0    0  0.13954161579E+02  0.15493424956E+02 -0.59801249136E+01  0.21691628258E+02  0.51100000000E-03 0. -1.
         12    1    4    4    0    0 -0.18727668308E+01  0.22638810713E+01 -0.19645599172E+02  0.19864087695E+02  0.00000000000E+00 0. -1.
</event>
<event>
 8    1  0.2390921E-006  0.9118800E+02  0.7816164E-02  0.1184000E+00
        -11   -1    0    0    0    0  0.00000000000E+00  0.00000000000E+00  0.45593999997E+02  0.45594000000E+02  0.51100000000E-03 0.  1.
         11   -1    0    0    0    0 -0.00000000000E+00 -0.00000000000E+00 -0.45593999997E+02  0.45594000000E+02  0.51100000000E-03 0. -1.
         23    2    1    2    0    0 -0.17763568394E-14  0.00000000000E+00  0.35527136788E-14  0.91188000000E+02  0.91188000000E+02 0.  0.
    9900012    2    3    3    0    0 -0.14799785490E+02 -0.21584124907E+02 -0.25901174747E+02  0.54367096266E+02  0.40000027556E+02 0.  0.
         12    1    3    3    0    0  0.14799785490E+02  0.21584124907E+02  0.25901174747E+02  0.36820903734E+02  0.00000000000E+00 0. -1.
         11    1    4    4    0    0  0.10427329433E+02 -0.10413448403E+02 -0.90223048821E+01  0.17279209831E+02  0.51100000000E-03 0.  1.
        -11    1    4    4    0    0 -0.55392603330E+01  0.48310980882E+01 -0.59796412721E+01  0.94751793533E+01  0.51100000000E-03 0. -1.
        -12    1    4    4    0    0 -0.19687854589E+02 -0.16001774592E+02 -0.10899228593E+02  0.27612707081E+02  0.00000000000E+00 0.  1.
</event>
<event>
 8    1  0.2390921E-006  0.9118800E+02  0.7816164E-02  0.1184000E+00
        -11   -1    0    0    0    0  0.00000000000E+00  0.00000000000E+00  0.45593999997E+02  0.45594000000E+02  0.51100000000E-03 0.  1.
         11   -1    0    0    0    0 -0.00000000000E+00 -0.00000000000E+00 -0.45593999997E+02  0.45594000000E+02  0.51100000000E-03 0. -1.
         23    2    1    2    0    0  0.00000000000E+00  0.00000000000E+00  0.00000000000E+00  0.91188000000E+02  0.91188000000E+02 0.  0.
    9900012    2    3    3    0    0 -0.72687953686E+01 -0.26456594389E+02  0.24555904037E+02  0.54367092952E+02  0.40000020003E+02 0.  0.
         12    1    3    3    0    0  0.72687953686E+01  0.26456594389E+02 -0.24555904037E+02  0.36820907048E+02  0.00000000000E+00 0. -1.
         11    1    4    4    0    0  0.50997128852E+01  0.36365609968E+01  0.77316569056E+01  0.99503852268E+01  0.51100000000E-03 0. -1.
        -11    1    4    4    0    0 -0.12905984910E+02 -0.76215611833E+01  0.15999694109E+02  0.21923568442E+02  0.51100000000E-03 0.  1.
        -12    1    4    4    0    0  0.53747665578E+00 -0.22471594202E+02  0.82455302206E+00  0.22493139284E+02  0.00000000000E+00 0.  1.
</event>
<event>
 8    1  0.2390921E-006  0.9118800E+02  0.7816164E-02  0.1184000E+00
        -11   -1    0    0    0    0  0.00000000000E+00  0.00000000000E+00  0.45593999997E+02  0.45594000000E+02  0.51100000000E-03 0. -1.
         11   -1    0    0    0    0 -0.00000000000E+00 -0.00000000000E+00 -0.45593999997E+02  0.45594000000E+02  0.51100000000E-03 0.  1.
         23    2    1    2    0    0  0.00000000000E+00  0.00000000000E+00  0.00000000000E+00  0.91188000000E+02  0.91188000000E+02 0.  0.
    9900012    2    3    3    0    0 -0.35795026684E+02 -0.53821140383E+01 -0.67475788157E+01  0.54367069719E+02  0.39999967039E+02 0.  0.
         12    1    3    3    0    0  0.35795026684E+02  0.53821140383E+01  0.67475788157E+01  0.36820930281E+02  0.00000000000E+00 0. -1.
         11    1    4    4    0    0 -0.22033721374E+02 -0.68083310966E+01 -0.40790194844E+01  0.23419578350E+02  0.51100000000E-03 0.  1.
        -11    1    4    4    0    0 -0.20277309845E+02 -0.40525677822E+01 -0.64090391859E+01  0.21648750166E+02  0.51100000000E-03 0. -1.
        -12    1    4    4    0    0  0.65160045345E+01  0.54787848405E+01  0.37404798546E+01  0.92987412032E+01  0.00000000000E+00 0.  1.
</event>
<event>
 8    1  0.2390921E-006  0.9118800E+02  0.7816164E-02  0.1184000E+00
        -11   -1    0    0    0    0  0.00000000000E+00  0.00000000000E+00  0.45593999997E+02  0.45594000000E+02  0.51100000000E-03 0.  1.
         11   -1    0    0    0    0 -0.00000000000E+00 -0.00000000000E+00 -0.45593999997E+02  0.45594000000E+02  0.51100000000E-03 0. -1.
         23    2    1    2    0    0  0.00000000000E+00  0.00000000000E+00  0.00000000000E+00  0.91188000000E+02  0.91188000000E+02 0.  0.
    9900012    2    3    3    0    0  0.13871910074E+02  0.16842624460E+02 -0.29659345379E+02  0.54367073123E+02  0.39999974798E+02 0.  0.
        -12    1    3    3    0    0 -0.13871910074E+02 -0.16842624460E+02  0.29659345379E+02  0.36820926877E+02  0.00000000000E+00 0.  1.
         11    1    4    4    0    0 -0.69640230346E+00  0.52456200177E+01 -0.11819588749E+02  0.12950065019E+02  0.51100000000E-03 0. -1.
        -11    1    4    4    0    0  0.12506181351E+02  0.17136871911E+02  0.14278585284E+01  0.21263013218E+02  0.51100000000E-03 0.  1.
        -12    1    4    4    0    0  0.20621310263E+01 -0.55398674689E+01 -0.19267615158E+02  0.20153994885E+02  0.00000000000E+00 0.  1.
</event>
<event>
 8    1  0.2390921E-006  0.9118800E+02  0.7816164E-02  0.1184000E+00
        -11   -1    0    0    0    0  0.00000000000E+00  0.00000000000E+00  0.45593999997E+02  0.45594000000E+02  0.51100000000E-03 0.  1.
         11   -1    0    0    0    0 -0.00000000000E+00 -0.00000000000E+00 -0.45593999997E+02  0.45594000000E+02  0.51100000000E-03 0. -1.
         23    2    1    2    0    0 -0.17763568394E-14  0.00000000000E+00  0.35527136788E-14  0.91188000000E+02  0.91188000000E+02 0.  0.
    9900012    2    3    3    0    0  0.60319091534E+01 -0.19728658721E+02 -0.30498775689E+02  0.54367092604E+02  0.40000019209E+02 0.  0.
        -12    1    3    3    0    0 -0.60319091534E+01  0.19728658721E+02  0.30498775689E+02  0.36820907396E+02  0.00000000000E+00 0.  1.
         11    1    4    4    0    0  0.11175710715E+02 -0.11928053103E+02 -0.13413178945E+02  0.21144463353E+02  0.51100000000E-03 0. -1.
        -11    1    4    4    0    0 -0.25083759378E+01 -0.12989383817E+02  0.18999881423E+01  0.13365103703E+02  0.51100000000E-03 0.  1.
        -12    1    4    4    0    0 -0.26354256235E+01  0.51887781988E+01 -0.18985584886E+02  0.19857525548E+02  0.00000000000E+00 0.  1.
</event>
<event>
 8    1  0.2390921E-006  0.9118800E+02  0.7816164E-02  0.1184000E+00
        -11   -1    0    0    0    0  0.00000000000E+00  0.00000000000E+00  0.45593999997E+02  0.45594000000E+02  0.51100000000E-03 0.  1.
         11   -1    0    0    0    0 -0.00000000000E+00 -0.00000000000E+00 -0.45593999997E+02  0.45594000000E+02  0.51100000000E-03 0. -1.
         23    2    1    2    0    0  0.00000000000E+00  0.00000000000E+00  0.00000000000E+00  0.91188000000E+02  0.91188000000E+02 0.  0.
    9900012    2    3    3    0    0  0.33209911313E+02  0.12731230415E+02 -0.95288041421E+01  0.54367074622E+02  0.39999978217E+02 0.  0.
        -12    1    3    3    0    0 -0.33209911313E+02 -0.12731230415E+02  0.95288041421E+01  0.36820925378E+02  0.00000000000E+00 0.  1.
         11    1    4    4    0    0  0.81463727047E+01 -0.47640297413E+01 -0.11003138772E+02  0.14495807350E+02  0.51100000000E-03 0. -1.
        -11    1    4    4    0    0  0.50116100128E+01  0.12022274904E+02 -0.97302654384E+01  0.16258210066E+02  0.51100000000E-03 0.  1.
        -12    1    4    4    0    0  0.20051928595E+02  0.54729852521E+01  0.11204600068E+02  0.23613057207E+02  0.00000000000E+00 0.  1.
</event>
<event>
 8    1  0.2390921E-006  0.9118800E+02  0.7816164E-02  0.1184000E+00
        -11   -1    0    0    0    0  0.00000000000E+00  0.00000000000E+00  0.45593999997E+02  0.45594000000E+02  0.51100000000E-03 0. -1.
         11   -1    0    0    0    0 -0.00000000000E+00 -0.00000000000E+00 -0.45593999997E+02  0.45594000000E+02  0.51100000000E-03 0.  1.
         23    2    1    2    0    0  0.88817841970E-15  0.00000000000E+00  0.71054273576E-14  0.91188000000E+02  0.91188000000E+02 0.  0.
    9900012    2    3    3    0    0  0.59789470517E+01 -0.90664602369E+01 -0.35182943187E+02  0.54366973394E+02  0.39999747445E+02 0.  0.
         12    1    3    3    0    0 -0.59789470517E+01  0.90664602369E+01  0.35182943187E+02  0.36821026606E+02  0.00000000000E+00 0. -1.
         11    1    4    4    0    0 -0.12264179898E+02 -0.29267961125E+01 -0.55927897136E+01  0.13793315087E+02  0.51100000000E-03 0. -1.
        -11    1    4    4    0    0  0.21412409599E+02 -0.14056903272E+01 -0.26479855781E+02  0.34082987143E+02  0.51100000000E-03 0.  1.
        -12    1    4    4    0    0 -0.31692826492E+01 -0.47339737972E+01 -0.31102976923E+01  0.64906711639E+01  0.00000000000E+00 0.  1.
</event>
<event>
 8    1  0.2390921E-006  0.9118800E+02  0.7816164E-02  0.1184000E+00
        -11   -1    0    0    0    0  0.00000000000E+00  0.00000000000E+00  0.45593999997E+02  0.45594000000E+02  0.51100000000E-03 0. -1.
         11   -1    0    0    0    0 -0.00000000000E+00 -0.00000000000E+00 -0.45593999997E+02  0.45594000000E+02  0.51100000000E-03 0.  1.
         23    2    1    2    0    0  0.00000000000E+00  0.00000000000E+00  0.00000000000E+00  0.91188000000E+02  0.91188000000E+02 0.  0.
    9900012    2    3    3    0    0 -0.34747029501E+02  0.80600262059E+01  0.91355035543E+01  0.54367115888E+02  0.40000072291E+02 0.  0.
         12    1    3    3    0    0  0.34747029501E+02 -0.80600262059E+01 -0.91355035543E+01  0.36820884112E+02  0.00000000000E+00 0. -1.
         11    1    4    4    0    0 -0.37889177009E+02 -0.55267376679E+01  0.80884781506E+01  0.39135125434E+02  0.51100000000E-03 0. -1.
        -11    1    4    4    0    0  0.73412319384E+00  0.63438688220E+01 -0.24451973964E+01  0.68383184382E+01  0.51100000000E-03 0.  1.
         12    1    4    4    0    0  0.24080243143E+01  0.72428950519E+01  0.34922228001E+01  0.83936720162E+01  0.00000000000E+00 0. -1.
</event>
<event>
 8    1  0.2390921E-006  0.9118800E+02  0.7816164E-02  0.1184000E+00
        -11   -1    0    0    0    0  0.00000000000E+00  0.00000000000E+00  0.45593999997E+02  0.45594000000E+02  0.51100000000E-03 0.  1.
         11   -1    0    0    0    0 -0.00000000000E+00 -0.00000000000E+00 -0.45593999997E+02  0.45594000000E+02  0.51100000000E-03 0. -1.
         23    2    1    2    0    0  0.00000000000E+00  0.00000000000E+00  0.13322676296E-14  0.91188000000E+02  0.91188000000E+02 0.  0.
    9900012    2    3    3    0    0 -0.32819609410E+02 -0.16530597144E+02 -0.23221092167E+01  0.54367087532E+02  0.40000007647E+02 0.  0.
         12    1    3    3    0    0  0.32819609410E+02  0.16530597144E+02  0.23221092167E+01  0.36820912468E+02  0.00000000000E+00 0. -1.
         11    1    4    4    0    0 -0.82190113990E+01 -0.10868515919E+02  0.69553913782E+01  0.15298831855E+02  0.51100000000E-03 0. -1.
        -11    1    4    4    0    0 -0.22848469711E+02 -0.52195864884E+01  0.55874138044E+01  0.24093896416E+02  0.51100000000E-03 0.  1.
         12    1    4    4    0    0 -0.17521283001E+01 -0.44249473721E+00 -0.14864914399E+02  0.14974359261E+02  0.00000000000E+00 0. -1.
</event>
<event>
 8    1  0.2390921E-006  0.9118800E+02  0.7816164E-02  0.1184000E+00
        -11   -1    0    0    0    0  0.00000000000E+00  0.00000000000E+00  0.45593999997E+02  0.45594000000E+02  0.51100000000E-03 0. -1.
         11   -1    0    0    0    0 -0.00000000000E+00 -0.00000000000E+00 -0.45593999997E+02  0.45594000000E+02  0.51100000000E-03 0.  1.
         23    2    1    2    0    0  0.00000000000E+00 -0.17763568394E-14  0.00000000000E+00  0.91188000000E+02  0.91188000000E+02 0.  0.
    9900012    2    3    3    0    0  0.33787286643E+02 -0.11590261444E+02 -0.89366764824E+01  0.54367094449E+02  0.40000023416E+02 0.  0.
        -12    1    3    3    0    0 -0.33787286643E+02  0.11590261444E+02  0.89366764824E+01  0.36820905551E+02  0.00000000000E+00 0.  1.
         11    1    4    4    0    0  0.91237282704E+01 -0.15737504054E+01 -0.12622030718E+02  0.15653586413E+02  0.51100000000E-03 0. -1.
        -11    1    4    4    0    0  0.15491958926E+01  0.85166550441E+01  0.27095562617E+01  0.90705631826E+01  0.51100000000E-03 0.  1.
        -12    1    4    4    0    0  0.23114362480E+02 -0.18533166083E+02  0.97579797379E+00  0.29642944853E+02  0.00000000000E+00 0.  1.
</event>
<event>
 8    1  0.2390921E-006  0.9118800E+02  0.7816164E-02  0.1184000E+00
        -11   -1    0    0    0    0  0.00000000000E+00  0.00000000000E+00  0.45593999997E+02  0.45594000000E+02  0.51100000000E-03 0.  1.
         11   -1    0    0    0    0 -0.00000000000E+00 -0.00000000000E+00 -0.45593999997E+02  0.45594000000E+02  0.51100000000E-03 0. -1.
         23    2    1    2    0    0  0.00000000000E+00  0.00000000000E+00  0.00000000000E+00  0.91188000000E+02  0.91188000000E+02 0.  0.
    9900012    2    3    3    0    0 -0.12805087527E+02 -0.28169403879E+02 -0.19957295932E+02  0.54367092320E+02  0.40000018561E+02 0.  0.
        -12    1    3    3    0    0  0.12805087527E+02  0.28169403879E+02  0.19957295932E+02  0.36820907680E+02  0.00000000000E+00 0.  1.
         11    1    4    4    0    0 -0.91411641573E+01 -0.24588249032E+01 -0.10765554195E+02  0.14335405800E+02  0.51100000000E-03 0. -1.
        -11    1    4    4    0    0 -0.55954548756E+00 -0.17664604532E+02  0.90487119474E+01  0.19855239425E+02  0.51100000000E-03 0.  1.
         12    1    4    4    0    0 -0.31043778818E+01 -0.80459744439E+01 -0.18240453684E+02  0.20176447096E+02  0.00000000000E+00 0. -1.
</event>
<event>
 8    1  0.2390921E-006  0.9118800E+02  0.7816164E-02  0.1184000E+00
        -11   -1    0    0    0    0  0.00000000000E+00  0.00000000000E+00  0.45593999997E+02  0.45594000000E+02  0.51100000000E-03 0. -1.
         11   -1    0    0    0    0 -0.00000000000E+00 -0.00000000000E+00 -0.45593999997E+02  0.45594000000E+02  0.51100000000E-03 0.  1.
         23    2    1    2    0    0 -0.71054273576E-14  0.66613381478E-15  0.00000000000E+00  0.91188000000E+02  0.91188000000E+02 0.  0.
    9900012    2    3    3    0    0 -0.33301750054E+02  0.77088929552E+00 -0.15690096925E+02  0.54367082461E+02  0.39999996085E+02 0.  0.
         12    1    3    3    0    0  0.33301750054E+02 -0.77088929552E+00  0.15690096925E+02  0.36820917539E+02  0.00000000000E+00 0. -1.
         11    1    4    4    0    0 -0.29469698512E+02  0.88626978052E+01  0.12656353551E+01  0.30799551553E+02  0.51100000000E-03 0. -1.
        -11    1    4    4    0    0 -0.36635850364E+01 -0.11845023697E+02 -0.11286296838E+02  0.16766244012E+02  0.51100000000E-03 0.  1.
        -12    1    4    4    0    0 -0.16846650517E+00  0.37532151870E+01 -0.56694354414E+01  0.68012868950E+01  0.00000000000E+00 0.  1.
</event>
<event>
 8    1  0.2390921E-006  0.9118800E+02  0.7816164E-02  0.1184000E+00
        -11   -1    0    0    0    0  0.00000000000E+00  0.00000000000E+00  0.45593999997E+02  0.45594000000E+02  0.51100000000E-03 0. -1.
         11   -1    0    0    0    0 -0.00000000000E+00 -0.00000000000E+00 -0.45593999997E+02  0.45594000000E+02  0.51100000000E-03 0.  1.
         23    2    1    2    0    0  0.00000000000E+00  0.00000000000E+00  0.00000000000E+00  0.91188000000E+02  0.91188000000E+02 0.  0.
    9900012    2    3    3    0    0  0.22784604976E+02 -0.12653511235E+02 -0.26010191470E+02  0.54367087046E+02  0.40000006539E+02 0.  0.
         12    1    3    3    0    0 -0.22784604976E+02  0.12653511235E+02  0.26010191470E+02  0.36820912954E+02  0.00000000000E+00 0. -1.
         11    1    4    4    0    0  0.29162160391E+02 -0.77355160756E+01 -0.59167221900E+01  0.30745364030E+02  0.51100000000E-03 0. -1.
        -11    1    4    4    0    0  0.55882417301E+00 -0.50669389749E+01 -0.11484712333E+02  0.12565220757E+02  0.51100000000E-03 0.  1.
         12    1    4    4    0    0 -0.69363795878E+01  0.14894381560E+00 -0.86087569468E+01  0.11056502259E+02  0.00000000000E+00 0. -1.
</event>
<event>
 8    1  0.2390921E-006  0.9118800E+02  0.7816164E-02  0.1184000E+00
        -11   -1    0    0    0    0  0.00000000000E+00  0.00000000000E+00  0.45593999997E+02  0.45594000000E+02  0.51100000000E-03 0. -1.
         11   -1    0    0    0    0 -0.00000000000E+00 -0.00000000000E+00 -0.45593999997E+02  0.45594000000E+02  0.51100000000E-03 0.  1.
         23    2    1    2    0    0  0.17763568394E-14  0.35527136788E-14  0.00000000000E+00  0.91188000000E+02  0.91188000000E+02 0.  0.
    9900012    2    3    3    0    0  0.15541079969E+02  0.29071345607E+02 -0.16404620076E+02  0.54367083908E+02  0.39999999385E+02 0.  0.
         12    1    3    3    0    0 -0.15541079969E+02 -0.29071345607E+02  0.16404620076E+02  0.36820916092E+02  0.00000000000E+00 0. -1.
         11    1    4    4    0    0 -0.54378659867E+00  0.11637002131E+02  0.39124276676E+01  0.12289125802E+02  0.51100000000E-03 0. -1.
        -11    1    4    4    0    0  0.21477384574E+02  0.12133835503E+02 -0.52506312772E+01  0.25220569804E+02  0.51100000000E-03 0.  1.
        -12    1    4    4    0    0 -0.53925180064E+01  0.53005079726E+01 -0.15066416466E+02  0.16857388302E+02  0.00000000000E+00 0.  1.
</event>
<event>
 8    1  0.2390921E-006  0.9118800E+02  0.7816164E-02  0.1184000E+00
        -11   -1    0    0    0    0  0.00000000000E+00  0.00000000000E+00  0.45593999997E+02  0.45594000000E+02  0.51100000000E-03 0.  1.
         11   -1    0    0    0    0 -0.00000000000E+00 -0.00000000000E+00 -0.45593999997E+02  0.45594000000E+02  0.51100000000E-03 0. -1.
         23    2    1    2    0    0  0.00000000000E+00  0.00000000000E+00  0.00000000000E+00  0.91188000000E+02  0.91188000000E+02 0.  0.
    9900012    2    3    3    0    0 -0.52476236612E+01  0.24296557009E+02  0.27164670655E+02  0.54367087893E+02  0.40000008470E+02 0.  0.
         12    1    3    3    0    0  0.52476236612E+01 -0.24296557009E+02 -0.27164670655E+02  0.36820912107E+02  0.00000000000E+00 0. -1.
         11    1    4    4    0    0 -0.90320943881E+01  0.20613602839E+02  0.12143721477E+02  0.25572823908E+02  0.51100000000E-03 0.  1.
        -11    1    4    4    0    0  0.41934127115E+01 -0.87320924030E+01  0.52058846483E+00  0.97007814383E+01  0.51100000000E-03 0. -1.
        -12    1    4    4    0    0 -0.40894198463E+00  0.12415046573E+02  0.14500360713E+02  0.19093482547E+02  0.00000000000E+00 0.  1.
</event>
<event>
 8    1  0.2390921E-006  0.9118800E+02  0.7816164E-02  0.1184000E+00
        -11   -1    0    0    0    0  0.00000000000E+00  0.00000000000E+00  0.45593999997E+02  0.45594000000E+02  0.51100000000E-03 0. -1.
         11   -1    0    0    0    0 -0.00000000000E+00 -0.00000000000E+00 -0.45593999997E+02  0.45594000000E+02  0.51100000000E-03 0.  1.
         23    2    1    2    0    0  0.00000000000E+00  0.00000000000E+00 -0.35527136788E-14  0.91188000000E+02  0.91188000000E+02 0.  0.
    9900012    2    3    3    0    0 -0.28956273373E+02 -0.88840744581E+01  0.20937643570E+02  0.54367116457E+02  0.40000073587E+02 0.  0.
        -12    1    3    3    0    0  0.28956273373E+02  0.88840744581E+01 -0.20937643570E+02  0.36820883543E+02  0.00000000000E+00 0.  1.
         11    1    4    4    0    0 -0.33421506849E+01 -0.69205289209E+01  0.84486176160E+01  0.11421157193E+02  0.51100000000E-03 0. -1.
        -11    1    4    4    0    0 -0.45049636659E+01  0.87134420934E+01 -0.72004491805E+01  0.12168206088E+02  0.51100000000E-03 0.  1.
        -12    1    4    4    0    0 -0.21109159022E+02 -0.10676987631E+02  0.19689475134E+02  0.30777753176E+02  0.00000000000E+00 0.  1.
</event>
<event>
 8    1  0.2390921E-006  0.9118800E+02  0.7816164E-02  0.1184000E+00
        -11   -1    0    0    0    0  0.00000000000E+00  0.00000000000E+00  0.45593999997E+02  0.45594000000E+02  0.51100000000E-03 0. -1.
         11   -1    0    0    0    0 -0.00000000000E+00 -0.00000000000E+00 -0.45593999997E+02  0.45594000000E+02  0.51100000000E-03 0.  1.
         23    2    1    2    0    0  0.00000000000E+00  0.00000000000E+00  0.17763568394E-14  0.91188000000E+02  0.91188000000E+02 0.  0.
    9900012    2    3    3    0    0  0.27781693155E+02 -0.20725641726E+02  0.12426017778E+02  0.54367073649E+02  0.39999975998E+02 0.  0.
         12    1    3    3    0    0 -0.27781693155E+02  0.20725641726E+02 -0.12426017778E+02  0.36820926351E+02  0.00000000000E+00 0. -1.
         11    1    4    4    0    0  0.40854349529E+00  0.45458305119E+01  0.52565967240E+01  0.69615581741E+01  0.51100000000E-03 0. -1.
        -11    1    4    4    0    0  0.42344549730E+01 -0.15338956571E+02 -0.82039709652E+01  0.17903053858E+02  0.51100000000E-03 0.  1.
        -12    1    4    4    0    0  0.23138694686E+02 -0.99325156672E+01  0.15373392019E+02  0.29502461617E+02  0.00000000000E+00 0.  1.
</event>
<event>
 8    1  0.2390921E-006  0.9118800E+02  0.7816164E-02  0.1184000E+00
        -11   -1    0    0    0    0  0.00000000000E+00  0.00000000000E+00  0.45593999997E+02  0.45594000000E+02  0.51100000000E-03 0. -1.
         11   -1    0    0    0    0 -0.00000000000E+00 -0.00000000000E+00 -0.45593999997E+02  0.45594000000E+02  0.51100000000E-03 0.  1.
         23    2    1    2    0    0  0.00000000000E+00 -0.49960036108E-15  0.00000000000E+00  0.91188000000E+02  0.91188000000E+02 0.  0.
    9900012    2    3    3    0    0  0.32044758598E+02  0.26301877974E+00 -0.18134039777E+02  0.54367093830E+02  0.40000022005E+02 0.  0.
         12    1    3    3    0    0 -0.32044758598E+02 -0.26301877974E+00  0.18134039777E+02  0.36820906170E+02  0.00000000000E+00 0. -1.
         11    1    4    4    0    0  0.12640392995E+02  0.79097393295E+01 -0.13461999249E+02  0.20089025247E+02  0.51100000000E-03 0. -1.
        -11    1    4    4    0    0  0.15870520209E+02 -0.12529112318E+01 -0.14835917405E+02  0.21761149873E+02  0.51100000000E-03 0.  1.
         12    1    4    4    0    0  0.35338453940E+01 -0.63938093179E+01  0.10163876876E+02  0.12516918711E+02  0.00000000000E+00 0. -1.
</event>
<event>
 8    1  0.2390921E-006  0.9118800E+02  0.7816164E-02  0.1184000E+00
        -11   -1    0    0    0    0  0.00000000000E+00  0.00000000000E+00  0.45593999997E+02  0.45594000000E+02  0.51100000000E-03 0. -1.
         11   -1    0    0    0    0 -0.00000000000E+00 -0.00000000000E+00 -0.45593999997E+02  0.45594000000E+02  0.51100000000E-03 0.  1.
         23    2    1    2    0    0  0.00000000000E+00  0.00000000000E+00 -0.17763568394E-14  0.91188000000E+02  0.91188000000E+02 0.  0.
    9900012    2    3    3    0    0 -0.91402120984E+01  0.33619793732E+02 -0.11913987594E+02  0.54367121301E+02  0.40000084630E+02 0.  0.
         12    1    3    3    0    0  0.91402120984E+01 -0.33619793732E+02  0.11913987594E+02  0.36820878699E+02  0.00000000000E+00 0. -1.
         11    1    4    4    0    0  0.13482129957E+02  0.41337662711E+01 -0.48372121832E+01  0.14908201559E+02  0.51100000000E-03 0. -1.
        -11    1    4    4    0    0 -0.89894488150E+01  0.20591738820E+02 -0.52955206492E+01  0.23084029909E+02  0.51100000000E-03 0.  1.
         12    1    4    4    0    0 -0.13632893240E+02  0.88942886408E+01 -0.17812547619E+01  0.16374889833E+02  0.00000000000E+00 0. -1.
</event>
<event>
 8    1  0.2390921E-006  0.9118800E+02  0.7816164E-02  0.1184000E+00
        -11   -1    0    0    0    0  0.00000000000E+00  0.00000000000E+00  0.45593999997E+02  0.45594000000E+02  0.51100000000E-03 0.  1.
         11   -1    0    0    0    0 -0.00000000000E+00 -0.00000000000E+00 -0.45593999997E+02  0.45594000000E+02  0.51100000000E-03 0. -1.
         23    2    1    2    0    0  0.17763568394E-14  0.17763568394E-14  0.00000000000E+00  0.91188000000E+02  0.91188000000E+02 0.  0.
    9900012    2    3    3    0    0 -0.98614881010E+01 -0.15202452965E+02  0.32053334082E+02  0.54367085434E+02  0.40000002864E+02 0.  0.
         12    1    3    3    0    0  0.98614881010E+01  0.15202452965E+02 -0.32053334082E+02  0.36820914566E+02  0.00000000000E+00 0. -1.
         11    1    4    4    0    0  0.12418810207E+01  0.11555438137E+01  0.53832666718E-01  0.16971883196E+01  0.51100000000E-03 0. -1.
        -11    1    4    4    0    0 -0.10613445561E+02  0.32041885852E+01  0.31171182296E+02  0.33084054424E+02  0.51100000000E-03 0.  1.
         12    1    4    4    0    0 -0.48992356064E+00 -0.19562185364E+02  0.82831911938E+00  0.19585842690E+02  0.00000000000E+00 0. -1.
</event>
<event>
 8    1  0.2390921E-006  0.9118800E+02  0.7816164E-02  0.1184000E+00
        -11   -1    0    0    0    0  0.00000000000E+00  0.00000000000E+00  0.45593999997E+02  0.45594000000E+02  0.51100000000E-03 0. -1.
         11   -1    0    0    0    0 -0.00000000000E+00 -0.00000000000E+00 -0.45593999997E+02  0.45594000000E+02  0.51100000000E-03 0.  1.
         23    2    1    2    0    0  0.00000000000E+00  0.35527136788E-14  0.00000000000E+00  0.91188000000E+02  0.91188000000E+02 0.  0.
    9900012    2    3    3    0    0 -0.20011829129E+02  0.28964745122E+02  0.10786557278E+02  0.54367087695E+02  0.40000008019E+02 0.  0.
        -12    1    3    3    0    0  0.20011829129E+02 -0.28964745122E+02 -0.10786557278E+02  0.36820912305E+02  0.00000000000E+00 0.  1.
         11    1    4    4    0    0  0.35560383528E+01  0.11966619357E+02  0.99275151520E+01  0.15949951252E+02  0.51100000000E-03 0. -1.
        -11    1    4    4    0    0 -0.72399306231E+01 -0.59498827498E+01  0.37743069520E+01  0.10102628044E+02  0.51100000000E-03 0.  1.
        -12    1    4    4    0    0 -0.16327936858E+02  0.22948008515E+02 -0.29152648265E+01  0.28314508399E+02  0.00000000000E+00 0.  1.
</event>
<event>
 8    1  0.2390921E-006  0.9118800E+02  0.7816164E-02  0.1184000E+00
        -11   -1    0    0    0    0  0.00000000000E+00  0.00000000000E+00  0.45593999997E+02  0.45594000000E+02  0.51100000000E-03 0. -1.
         11   -1    0    0    0    0 -0.00000000000E+00 -0.00000000000E+00 -0.45593999997E+02  0.45594000000E+02  0.51100000000E-03 0.  1.
         23    2    1    2    0    0  0.17763568394E-14 -0.22204460493E-15  0.00000000000E+00  0.91188000000E+02  0.91188000000E+02 0.  0.
    9900012    2    3    3    0    0  0.95467624287E+01 -0.15534960864E+01 -0.35527818563E+02  0.54367083189E+02  0.39999997745E+02 0.  0.
         12    1    3    3    0    0 -0.95467624287E+01  0.15534960864E+01  0.35527818563E+02  0.36820916811E+02  0.00000000000E+00 0. -1.
         11    1    4    4    0    0 -0.13798125525E+02  0.32803768289E+01 -0.23463440420E+02  0.27416822879E+02  0.51100000000E-03 0. -1.
        -11    1    4    4    0    0  0.20815520607E+02 -0.34002705550E+01 -0.11370835361E+02  0.23961294519E+02  0.51100000000E-03 0.  1.
         12    1    4    4    0    0  0.25293673474E+01 -0.14336023603E+01 -0.69354278188E+00  0.29889657903E+01  0.00000000000E+00 0. -1.
</event>
<event>
 8    1  0.2390921E-006  0.9118800E+02  0.7816164E-02  0.1184000E+00
        -11   -1    0    0    0    0  0.00000000000E+00  0.00000000000E+00  0.45593999997E+02  0.45594000000E+02  0.51100000000E-03 0.  1.
         11   -1    0    0    0    0 -0.00000000000E+00 -0.00000000000E+00 -0.45593999997E+02  0.45594000000E+02  0.51100000000E-03 0. -1.
         23    2    1    2    0    0 -0.17763568394E-14  0.00000000000E+00  0.35527136788E-14  0.91188000000E+02  0.91188000000E+02 0.  0.
    9900012    2    3    3    0    0 -0.11882323228E+02  0.23246373377E+02 -0.25965278054E+02  0.54367093644E+02  0.40000021579E+02 0.  0.
        -12    1    3    3    0    0  0.11882323228E+02 -0.23246373377E+02  0.25965278054E+02  0.36820906356E+02  0.00000000000E+00 0.  1.
         11    1    4    4    0    0 -0.10970309969E+02 -0.31310766486E+01 -0.25586559493E+01  0.11691794658E+02  0.51100000000E-03 0. -1.
        -11    1    4    4    0    0 -0.60263410143E+01 -0.23764645761E+01 -0.43158060226E+01  0.77839933060E+01  0.51100000000E-03 0.  1.
         12    1    4    4    0    0  0.51143277558E+01  0.28753914602E+02 -0.19090816082E+02  0.34891305679E+02  0.00000000000E+00 0. -1.
</event>
<event>
 8    1  0.2390921E-006  0.9118800E+02  0.7816164E-02  0.1184000E+00
        -11   -1    0    0    0    0  0.00000000000E+00  0.00000000000E+00  0.45593999997E+02  0.45594000000E+02  0.51100000000E-03 0.  1.
         11   -1    0    0    0    0 -0.00000000000E+00 -0.00000000000E+00 -0.45593999997E+02  0.45594000000E+02  0.51100000000E-03 0. -1.
         23    2    1    2    0    0  0.00000000000E+00 -0.35527136788E-14  0.00000000000E+00  0.91188000000E+02  0.91188000000E+02 0.  0.
    9900012    2    3    3    0    0  0.71845826869E+01  0.28801085862E+02  0.21786669392E+02  0.54367085584E+02  0.40000003205E+02 0.  0.
         12    1    3    3    0    0 -0.71845826869E+01 -0.28801085862E+02 -0.21786669392E+02  0.36820914416E+02  0.00000000000E+00 0. -1.
         11    1    4    4    0    0 -0.78883835569E+01  0.63582131382E+01 -0.42663831583E+01  0.10993429627E+02  0.51100000000E-03 0. -1.
        -11    1    4    4    0    0  0.53802105402E+01  0.11010117047E+02 -0.11566229516E+01  0.12308822842E+02  0.51100000000E-03 0.  1.
        -12    1    4    4    0    0  0.96927557036E+01  0.11432755677E+02  0.27209675502E+02  0.31064833115E+02  0.00000000000E+00 0.  1.
</event>
<event>
 8    1  0.2390921E-006  0.9118800E+02  0.7816164E-02  0.1184000E+00
        -11   -1    0    0    0    0  0.00000000000E+00  0.00000000000E+00  0.45593999997E+02  0.45594000000E+02  0.51100000000E-03 0. -1.
         11   -1    0    0    0    0 -0.00000000000E+00 -0.00000000000E+00 -0.45593999997E+02  0.45594000000E+02  0.51100000000E-03 0.  1.
         23    2    1    2    0    0  0.88817841970E-15 -0.88817841970E-15  0.00000000000E+00  0.91188000000E+02  0.91188000000E+02 0.  0.
    9900012    2    3    3    0    0 -0.40099901899E+01  0.49038117525E+01  0.36271975090E+02  0.54367033582E+02  0.39999884657E+02 0.  0.
        -12    1    3    3    0    0  0.40099901899E+01 -0.49038117525E+01 -0.36271975090E+02  0.36820966418E+02  0.00000000000E+00 0.  1.
         11    1    4    4    0    0 -0.37658785880E+01 -0.31957491812E+01  0.52358344127E+01  0.71978202691E+01  0.51100000000E-03 0. -1.
        -11    1    4    4    0    0 -0.98338317817E+01  0.14509763287E+02  0.42955820914E+01  0.18046869643E+02  0.51100000000E-03 0.  1.
         12    1    4    4    0    0  0.95897201799E+01 -0.64102023531E+01  0.26740558586E+02  0.29122343670E+02  0.00000000000E+00 0. -1.
</event>
<event>
 8    1  0.2390921E-006  0.9118800E+02  0.7816164E-02  0.1184000E+00
        -11   -1    0    0    0    0  0.00000000000E+00  0.00000000000E+00  0.45593999997E+02  0.45594000000E+02  0.51100000000E-03 0.  1.
         11   -1    0    0    0    0 -0.00000000000E+00 -0.00000000000E+00 -0.45593999997E+02  0.45594000000E+02  0.51100000000E-03 0. -1.
         23    2    1    2    0    0 -0.17763568394E-14 -0.88817841970E-15  0.71054273576E-14  0.91188000000E+02  0.91188000000E+02 0.  0.
    9900012    2    3    3    0    0 -0.89036339065E+01 -0.54356793164E+01  0.35312291484E+02  0.54367092404E+02  0.40000018753E+02 0.  0.
         12    1    3    3    0    0  0.89036339065E+01  0.54356793164E+01 -0.35312291484E+02  0.36820907596E+02  0.00000000000E+00 0. -1.
         11    1    4    4    0    0 -0.10787901391E+02  0.31880647506E+01 -0.15962171510E+00  0.11250246781E+02  0.51100000000E-03 0. -1.
        -11    1    4    4    0    0 -0.40423347660E+01  0.26298497123E+01 -0.60807116576E+00  0.48606924068E+01  0.51100000000E-03 0.  1.
        -12    1    4    4    0    0  0.59266022503E+01 -0.11253593779E+02  0.36079984364E+02  0.38256153216E+02  0.00000000000E+00 0.  1.
</event>
<event>
 8    1  0.2390921E-006  0.9118800E+02  0.7816164E-02  0.1184000E+00
        -11   -1    0    0    0    0  0.00000000000E+00  0.00000000000E+00  0.45593999997E+02  0.45594000000E+02  0.51100000000E-03 0.  1.
         11   -1    0    0    0    0 -0.00000000000E+00 -0.00000000000E+00 -0.45593999997E+02  0.45594000000E+02  0.51100000000E-03 0. -1.
         23    2    1    2    0    0  0.00000000000E+00  0.44408920985E-15  0.35527136788E-14  0.91188000000E+02  0.91188000000E+02 0.  0.
    9900012    2    3    3    0    0  0.29924798317E+02 -0.70193125957E+00 -0.21442792144E+02  0.54367087508E+02  0.40000007591E+02 0.  0.
         12    1    3    3    0    0 -0.29924798317E+02  0.70193125957E+00  0.21442792144E+02  0.36820912492E+02  0.00000000000E+00 0. -1.
         11    1    4    4    0    0  0.72512178229E+01 -0.65220480280E+01 -0.49172398796E+01  0.10922294571E+02  0.51100000000E-03 0. -1.
        -11    1    4    4    0    0  0.28829496462E+02 -0.30221580439E+01 -0.91854456894E+01  0.30407987738E+02  0.51100000000E-03 0.  1.
        -12    1    4    4    0    0 -0.61559159678E+01  0.88422748123E+01 -0.73401065751E+01  0.13036805199E+02  0.00000000000E+00 0.  1.
</event>
<event>
 8    1  0.2390921E-006  0.9118800E+02  0.7816164E-02  0.1184000E+00
        -11   -1    0    0    0    0  0.00000000000E+00  0.00000000000E+00  0.45593999997E+02  0.45594000000E+02  0.51100000000E-03 0. -1.
         11   -1    0    0    0    0 -0.00000000000E+00 -0.00000000000E+00 -0.45593999997E+02  0.45594000000E+02  0.51100000000E-03 0.  1.
         23    2    1    2    0    0  0.00000000000E+00 -0.17763568394E-14  0.00000000000E+00  0.91188000000E+02  0.91188000000E+02 0.  0.
    9900012    2    3    3    0    0 -0.14457833348E+02  0.15502919635E+02 -0.30106643321E+02  0.54367089713E+02  0.40000012618E+02 0.  0.
         12    1    3    3    0    0  0.14457833348E+02 -0.15502919635E+02  0.30106643321E+02  0.36820910287E+02  0.00000000000E+00 0. -1.
         11    1    4    4    0    0 -0.18673064725E+01 -0.41992470037E+01  0.54295332897E+00  0.46276676024E+01  0.51100000000E-03 0. -1.
        -11    1    4    4    0    0 -0.20396389458E+02  0.34594408288E+01 -0.20168886870E+02  0.28892290176E+02  0.51100000000E-03 0.  1.
        -12    1    4    4    0    0  0.78058625829E+01  0.16242725810E+02 -0.10480709780E+02  0.20847131935E+02  0.00000000000E+00 0.  1.
</event>
<event>
 8    1  0.2390921E-006  0.9118800E+02  0.7816164E-02  0.1184000E+00
        -11   -1    0    0    0    0  0.00000000000E+00  0.00000000000E+00  0.45593999997E+02  0.45594000000E+02  0.51100000000E-03 0. -1.
         11   -1    0    0    0    0 -0.00000000000E+00 -0.00000000000E+00 -0.45593999997E+02  0.45594000000E+02  0.51100000000E-03 0.  1.
         23    2    1    2    0    0  0.00000000000E+00 -0.71054273576E-14  0.17763568394E-14  0.91188000000E+02  0.91188000000E+02 0.  0.
    9900012    2    3    3    0    0 -0.12769761661E+02 -0.32139222257E+02 -0.12640632385E+02  0.54367054775E+02  0.39999932971E+02 0.  0.
         12    1    3    3    0    0  0.12769761661E+02  0.32139222257E+02  0.12640632385E+02  0.36820945225E+02  0.00000000000E+00 0. -1.
         11    1    4    4    0    0 -0.44502924745E+01  0.56404589589E+01 -0.34641344827E+01  0.79762214331E+01  0.51100000000E-03 0. -1.
        -11    1    4    4    0    0  0.20879398764E+01 -0.26406031420E+02  0.31190276782E+01  0.26671451446E+02  0.51100000000E-03 0.  1.
        -12    1    4    4    0    0 -0.10407409063E+02 -0.11373649795E+02 -0.12295525580E+02  0.19719381896E+02  0.00000000000E+00 0.  1.
</event>
<event>
 8    1  0.2390921E-006  0.9118800E+02  0.7816164E-02  0.1184000E+00
        -11   -1    0    0    0    0  0.00000000000E+00  0.00000000000E+00  0.45593999997E+02  0.45594000000E+02  0.51100000000E-03 0.  1.
         11   -1    0    0    0    0 -0.00000000000E+00 -0.00000000000E+00 -0.45593999997E+02  0.45594000000E+02  0.51100000000E-03 0. -1.
         23    2    1    2    0    0 -0.17763568394E-14  0.00000000000E+00  0.00000000000E+00  0.91188000000E+02  0.91188000000E+02 0.  0.
    9900012    2    3    3    0    0  0.15053696568E+02  0.13999742327E+02  0.30547892066E+02  0.54367078294E+02  0.39999986587E+02 0.  0.
         12    1    3    3    0    0 -0.15053696568E+02 -0.13999742327E+02 -0.30547892066E+02  0.36820921706E+02  0.00000000000E+00 0. -1.
         11    1    4    4    0    0 -0.41706169166E+01  0.54863887497E+00 -0.32182703360E+00  0.42188414264E+01  0.51100000000E-03 0. -1.
        -11    1    4    4    0    0 -0.75333753642E+01  0.89695439165E+01  0.13772428220E+02  0.18079940315E+02  0.51100000000E-03 0.  1.
         12    1    4    4    0    0  0.26757688849E+02  0.44815595356E+01  0.17097290880E+02  0.32068296553E+02  0.00000000000E+00 0. -1.
</event>
<event>
 8    1  0.2390921E-006  0.9118800E+02  0.7816164E-02  0.1184000E+00
        -11   -1    0    0    0    0  0.00000000000E+00  0.00000000000E+00  0.45593999997E+02  0.45594000000E+02  0.51100000000E-03 0. -1.
         11   -1    0    0    0    0 -0.00000000000E+00 -0.00000000000E+00 -0.45593999997E+02  0.45594000000E+02  0.51100000000E-03 0.  1.
         23    2    1    2    0    0 -0.35527136788E-14  0.55511151231E-15 -0.35527136788E-14  0.91188000000E+02  0.91188000000E+02 0.  0.
    9900012    2    3    3    0    0 -0.30347829576E+02  0.96863779805E+00 -0.20828977338E+02  0.54367145636E+02  0.40000140106E+02 0.  0.
         12    1    3    3    0    0  0.30347829576E+02 -0.96863779805E+00  0.20828977338E+02  0.36820854364E+02  0.00000000000E+00 0. -1.
         11    1    4    4    0    0 -0.19165610835E+02 -0.39799229032E+01 -0.26636078985E+01  0.19754878696E+02  0.51100000000E-03 0. -1.
        -11    1    4    4    0    0 -0.10304845699E+02 -0.10064721172E+02 -0.95079316157E+01  0.17259467577E+02  0.51100000000E-03 0.  1.
        -12    1    4    4    0    0 -0.87737304120E+00  0.15013281873E+02 -0.86574378239E+01  0.17352799363E+02  0.00000000000E+00 0.  1.
</event>
<event>
 8    1  0.2390921E-006  0.9118800E+02  0.7816164E-02  0.1184000E+00
        -11   -1    0    0    0    0  0.00000000000E+00  0.00000000000E+00  0.45593999997E+02  0.45594000000E+02  0.51100000000E-03 0.  1.
         11   -1    0    0    0    0 -0.00000000000E+00 -0.00000000000E+00 -0.45593999997E+02  0.45594000000E+02  0.51100000000E-03 0. -1.
         23    2    1    2    0    0  0.17763568394E-14  0.17763568394E-14  0.00000000000E+00  0.91188000000E+02  0.91188000000E+02 0.  0.
    9900012    2    3    3    0    0  0.84581382421E+01 -0.83994967498E+01 -0.34838013009E+02  0.54367098347E+02  0.40000032301E+02 0.  0.
        -12    1    3    3    0    0 -0.84581382421E+01  0.83994967498E+01  0.34838013009E+02  0.36820901653E+02  0.00000000000E+00 0.  1.
         11    1    4    4    0    0  0.82532054862E+01  0.49631350429E+01 -0.14036058586E+02  0.17022310394E+02  0.51100000000E-03 0. -1.
        -11    1    4    4    0    0 -0.13451727819E+00 -0.21752502660E+02 -0.10802728884E+02  0.24287618625E+02  0.51100000000E-03 0.  1.
        -12    1    4    4    0    0  0.33945003414E+00  0.83898708671E+01 -0.99992255384E+01  0.13057169328E+02  0.00000000000E+00 0.  1.
</event>
<event>
 8    1  0.2390921E-006  0.9118800E+02  0.7816164E-02  0.1184000E+00
        -11   -1    0    0    0    0  0.00000000000E+00  0.00000000000E+00  0.45593999997E+02  0.45594000000E+02  0.51100000000E-03 0.  1.
         11   -1    0    0    0    0 -0.00000000000E+00 -0.00000000000E+00 -0.45593999997E+02  0.45594000000E+02  0.51100000000E-03 0. -1.
         23    2    1    2    0    0  0.00000000000E+00  0.00000000000E+00  0.00000000000E+00  0.91188000000E+02  0.91188000000E+02 0.  0.
    9900012    2    3    3    0    0 -0.19561279701E+01  0.32812276475E+02  0.16592381515E+02  0.54367094954E+02  0.40000024566E+02 0.  0.
        -12    1    3    3    0    0  0.19561279701E+01 -0.32812276475E+02 -0.16592381515E+02  0.36820905046E+02  0.00000000000E+00 0.  1.
         11    1    4    4    0    0  0.32674141626E+01  0.19862769216E+02 -0.41086550074E+01  0.20544747321E+02  0.51100000000E-03 0. -1.
        -11    1    4    4    0    0 -0.17397349638E+01  0.12179254991E+02  0.25222270082E+02  0.28062855134E+02  0.51100000000E-03 0.  1.
        -12    1    4    4    0    0 -0.34838071690E+01  0.77025226782E+00 -0.45212335602E+01  0.57594924996E+01  0.00000000000E+00 0.  1.
</event>
<event>
 8    1  0.2390921E-006  0.9118800E+02  0.7816164E-02  0.1184000E+00
        -11   -1    0    0    0    0  0.00000000000E+00  0.00000000000E+00  0.45593999997E+02  0.45594000000E+02  0.51100000000E-03 0. -1.
         11   -1    0    0    0    0 -0.00000000000E+00 -0.00000000000E+00 -0.45593999997E+02  0.45594000000E+02  0.51100000000E-03 0.  1.
         23    2    1    2    0    0 -0.44408920985E-15  0.35527136788E-14 -0.71054273576E-14  0.91188000000E+02  0.91188000000E+02 0.  0.
    9900012    2    3    3    0    0  0.28692676388E+01 -0.23010609496E+02  0.28601743247E+02  0.54367074388E+02  0.39999977682E+02 0.  0.
        -12    1    3    3    0    0 -0.28692676388E+01  0.23010609496E+02 -0.28601743247E+02  0.36820925612E+02  0.00000000000E+00 0.  1.
         11    1    4    4    0    0 -0.40151802475E+01 -0.85391690229E+01  0.21360439090E+01  0.96748004560E+01  0.51100000000E-03 0. -1.
        -11    1    4    4    0    0 -0.11267389001E+02 -0.37173733922E+01  0.14278897328E+01  0.11950388663E+02  0.51100000000E-03 0.  1.
         12    1    4    4    0    0  0.18151836887E+02 -0.10754067081E+02  0.25037809605E+02  0.32741885269E+02  0.00000000000E+00 0. -1.
</event>
<event>
 8    1  0.2390921E-006  0.9118800E+02  0.7816164E-02  0.1184000E+00
        -11   -1    0    0    0    0  0.00000000000E+00  0.00000000000E+00  0.45593999997E+02  0.45594000000E+02  0.51100000000E-03 0. -1.
         11   -1    0    0    0    0 -0.00000000000E+00 -0.00000000000E+00 -0.45593999997E+02  0.45594000000E+02  0.51100000000E-03 0.  1.
         23    2    1    2    0    0  0.00000000000E+00 -0.35527136788E-14  0.17763568394E-14  0.91188000000E+02  0.91188000000E+02 0.  0.
    9900012    2    3    3    0    0  0.20173242062E+02 -0.26459601362E+02  0.15770388338E+02  0.54367145204E+02  0.40000139122E+02 0.  0.
        -12    1    3    3    0    0 -0.20173242062E+02  0.26459601362E+02 -0.15770388338E+02  0.36820854796E+02  0.00000000000E+00 0.  1.
         11    1    4    4    0    0  0.12159133117E+02 -0.25532855969E+01 -0.28049946760E+01  0.12737024020E+02  0.51100000000E-03 0. -1.
        -11    1    4    4    0    0  0.38224017088E+00 -0.24277343337E+01 -0.69717605076E+01  0.73922558383E+01  0.51100000000E-03 0.  1.
         12    1    4    4    0    0  0.76318687737E+01 -0.21478581432E+02  0.25547143522E+02  0.34237865346E+02  0.00000000000E+00 0. -1.
</event>
<event>
 8    1  0.2390921E-006  0.9118800E+02  0.7816164E-02  0.1184000E+00
        -11   -1    0    0    0    0  0.00000000000E+00  0.00000000000E+00  0.45593999997E+02  0.45594000000E+02  0.51100000000E-03 0.  1.
         11   -1    0    0    0    0 -0.00000000000E+00 -0.00000000000E+00 -0.45593999997E+02  0.45594000000E+02  0.51100000000E-03 0. -1.
         23    2    1    2    0    0  0.00000000000E+00  0.00000000000E+00  0.00000000000E+00  0.91188000000E+02  0.91188000000E+02 0.  0.
    9900012    2    3    3    0    0 -0.31851380953E+02  0.16553729110E+02 -0.82002267627E+01  0.54367080198E+02  0.39999990928E+02 0.  0.
        -12    1    3    3    0    0  0.31851380953E+02 -0.16553729110E+02  0.82002267627E+01  0.36820919802E+02  0.00000000000E+00 0.  1.
         11    1    4    4    0    0 -0.40031607476E+01 -0.36863392837E+01 -0.16930474609E+01  0.56991932106E+01  0.51100000000E-03 0.  1.
        -11    1    4    4    0    0 -0.12557060199E+02  0.19712635900E+02  0.10645735966E+02  0.25682668660E+02  0.51100000000E-03 0. -1.
         12    1    4    4    0    0 -0.15291160007E+02  0.52743249428E+00 -0.17152915268E+02  0.22985218328E+02  0.00000000000E+00 0. -1.
</event>
<event>
 8    1  0.2390921E-006  0.9118800E+02  0.7816164E-02  0.1184000E+00
        -11   -1    0    0    0    0  0.00000000000E+00  0.00000000000E+00  0.45593999997E+02  0.45594000000E+02  0.51100000000E-03 0. -1.
         11   -1    0    0    0    0 -0.00000000000E+00 -0.00000000000E+00 -0.45593999997E+02  0.45594000000E+02  0.51100000000E-03 0.  1.
         23    2    1    2    0    0  0.17763568394E-14  0.88817841970E-15 -0.71054273576E-14  0.91188000000E+02  0.91188000000E+02 0.  0.
    9900012    2    3    3    0    0  0.11682055804E+02  0.57276752791E+00  0.34913922709E+02  0.54367075386E+02  0.39999979958E+02 0.  0.
        -12    1    3    3    0    0 -0.11682055804E+02 -0.57276752791E+00 -0.34913922709E+02  0.36820924614E+02  0.00000000000E+00 0.  1.
         11    1    4    4    0    0 -0.98839000321E+01  0.11164826023E+02  0.16589664770E+02  0.22306093280E+02  0.51100000000E-03 0. -1.
        -11    1    4    4    0    0  0.10736743829E+02  0.56697880177E+00  0.78508562599E+01  0.13312966510E+02  0.51100000000E-03 0.  1.
         12    1    4    4    0    0  0.10829212007E+02 -0.11159037297E+02  0.10473401679E+02  0.18748015597E+02  0.00000000000E+00 0. -1.
</event>
<event>
 8    1  0.2390921E-006  0.9118800E+02  0.7816164E-02  0.1184000E+00
        -11   -1    0    0    0    0  0.00000000000E+00  0.00000000000E+00  0.45593999997E+02  0.45594000000E+02  0.51100000000E-03 0. -1.
         11   -1    0    0    0    0 -0.00000000000E+00 -0.00000000000E+00 -0.45593999997E+02  0.45594000000E+02  0.51100000000E-03 0.  1.
         23    2    1    2    0    0  0.88817841970E-15  0.35527136788E-14 -0.71054273576E-14  0.91188000000E+02  0.91188000000E+02 0.  0.
    9900012    2    3    3    0    0  0.63007737328E+01 -0.20364068852E+02  0.30023071753E+02  0.54367083562E+02  0.39999998596E+02 0.  0.
         12    1    3    3    0    0 -0.63007737328E+01  0.20364068852E+02 -0.30023071753E+02  0.36820916438E+02  0.00000000000E+00 0. -1.
         11    1    4    4    0    0 -0.75096702784E+01 -0.22063381736E+02  0.27452847664E+02  0.36011759280E+02  0.51100000000E-03 0. -1.
        -11    1    4    4    0    0  0.37803304164E+00  0.21746351709E+01  0.42706925774E+01  0.48073654384E+01  0.51100000000E-03 0.  1.
        -12    1    4    4    0    0  0.13432410970E+02 -0.47532228683E+00 -0.17004684885E+01  0.13547958843E+02  0.00000000000E+00 0.  1.
</event>
<event>
 8    1  0.2390921E-006  0.9118800E+02  0.7816164E-02  0.1184000E+00
        -11   -1    0    0    0    0  0.00000000000E+00  0.00000000000E+00  0.45593999997E+02  0.45594000000E+02  0.51100000000E-03 0. -1.
         11   -1    0    0    0    0 -0.00000000000E+00 -0.00000000000E+00 -0.45593999997E+02  0.45594000000E+02  0.51100000000E-03 0.  1.
         23    2    1    2    0    0  0.00000000000E+00  0.00000000000E+00 -0.35527136788E-14  0.91188000000E+02  0.91188000000E+02 0.  0.
    9900012    2    3    3    0    0 -0.23715035842E+02  0.20353019465E+02  0.19471435525E+02  0.54367012402E+02  0.39999836372E+02 0.  0.
        -12    1    3    3    0    0  0.23715035842E+02 -0.20353019465E+02 -0.19471435525E+02  0.36820987598E+02  0.00000000000E+00 0.  1.
         11    1    4    4    0    0 -0.91361690969E+01 -0.82481355023E+01  0.83123941344E+01  0.14852515664E+02  0.51100000000E-03 0. -1.
        -11    1    4    4    0    0 -0.15822139556E+02  0.99940786953E+01  0.22559531118E+01  0.18849695854E+02  0.51100000000E-03 0.  1.
        -12    1    4    4    0    0  0.12432728107E+01  0.18607076272E+02  0.89030882787E+01  0.20664800884E+02  0.00000000000E+00 0.  1.
</event>
<event>
 8    1  0.2390921E-006  0.9118800E+02  0.7816164E-02  0.1184000E+00
        -11   -1    0    0    0    0  0.00000000000E+00  0.00000000000E+00  0.45593999997E+02  0.45594000000E+02  0.51100000000E-03 0.  1.
         11   -1    0    0    0    0 -0.00000000000E+00 -0.00000000000E+00 -0.45593999997E+02  0.45594000000E+02  0.51100000000E-03 0. -1.
         23    2    1    2    0    0  0.26645352591E-14  0.88817841970E-15  0.71054273576E-14  0.91188000000E+02  0.91188000000E+02 0.  0.
    9900012    2    3    3    0    0 -0.14212637365E+01  0.48993965534E+01  0.36465816558E+02  0.54367084008E+02  0.39999999614E+02 0.  0.
         12    1    3    3    0    0  0.14212637365E+01 -0.48993965534E+01 -0.36465816558E+02  0.36820915992E+02  0.00000000000E+00 0. -1.
         11    1    4    4    0    0  0.36507340990E+01 -0.41683848301E+01  0.19896234304E+01  0.58874351979E+01  0.51100000000E-03 0. -1.
        -11    1    4    4    0    0 -0.16046912551E+02  0.61303350641E+01  0.32758601995E+02  0.36989328398E+02  0.51100000000E-03 0.  1.
        -12    1    4    4    0    0  0.10974914715E+02  0.29374463194E+01  0.17175911332E+01  0.11490320413E+02  0.00000000000E+00 0.  1.
</event>
<event>
 8    1  0.2390921E-006  0.9118800E+02  0.7816164E-02  0.1184000E+00
        -11   -1    0    0    0    0  0.00000000000E+00  0.00000000000E+00  0.45593999997E+02  0.45594000000E+02  0.51100000000E-03 0. -1.
         11   -1    0    0    0    0 -0.00000000000E+00 -0.00000000000E+00 -0.45593999997E+02  0.45594000000E+02  0.51100000000E-03 0.  1.
         23    2    1    2    0    0  0.00000000000E+00  0.88817841970E-15 -0.35527136788E-14  0.91188000000E+02  0.91188000000E+02 0.  0.
    9900012    2    3    3    0    0  0.31985835817E+02  0.56826424856E+01 -0.17331890291E+02  0.54367074705E+02  0.39999978404E+02 0.  0.
         12    1    3    3    0    0 -0.31985835817E+02 -0.56826424856E+01  0.17331890291E+02  0.36820925295E+02  0.00000000000E+00 0. -1.
         11    1    4    4    0    0  0.27015118775E+02  0.97779830243E+01 -0.81303556707E+01  0.29858470792E+02  0.51100000000E-03 0. -1.
        -11    1    4    4    0    0  0.13342144726E+02 -0.12206298824E+00 -0.42563652741E+01  0.14005155154E+02  0.51100000000E-03 0.  1.
         12    1    4    4    0    0 -0.83714276842E+01 -0.39732775504E+01 -0.49451693464E+01  0.10503448759E+02  0.00000000000E+00 0. -1.
</event>
<event>
 8    1  0.2390921E-006  0.9118800E+02  0.7816164E-02  0.1184000E+00
        -11   -1    0    0    0    0  0.00000000000E+00  0.00000000000E+00  0.45593999997E+02  0.45594000000E+02  0.51100000000E-03 0.  1.
         11   -1    0    0    0    0 -0.00000000000E+00 -0.00000000000E+00 -0.45593999997E+02  0.45594000000E+02  0.51100000000E-03 0. -1.
         23    2    1    2    0    0 -0.35527136788E-14  0.88817841970E-15  0.00000000000E+00  0.91188000000E+02  0.91188000000E+02 0.  0.
    9900012    2    3    3    0    0  0.30929041965E+02  0.66551264326E+01  0.18838318903E+02  0.54367100991E+02  0.40000038329E+02 0.  0.
         12    1    3    3    0    0 -0.30929041965E+02 -0.66551264326E+01 -0.18838318903E+02  0.36820899009E+02  0.00000000000E+00 0. -1.
         11    1    4    4    0    0  0.63768422102E+00  0.14403262069E+01 -0.56128967812E+01  0.58297333803E+01  0.51100000000E-03 0. -1.
        -11    1    4    4    0    0 -0.34731459414E+00  0.95139227468E+01  0.72402836820E+00  0.95477521333E+01  0.51100000000E-03 0.  1.
        -12    1    4    4    0    0  0.30638672339E+02 -0.42991225211E+01  0.23727187316E+02  0.38989615477E+02  0.00000000000E+00 0.  1.
</event>
<event>
 8    1  0.2390921E-006  0.9118800E+02  0.7816164E-02  0.1184000E+00
        -11   -1    0    0    0    0  0.00000000000E+00  0.00000000000E+00  0.45593999997E+02  0.45594000000E+02  0.51100000000E-03 0.  1.
         11   -1    0    0    0    0 -0.00000000000E+00 -0.00000000000E+00 -0.45593999997E+02  0.45594000000E+02  0.51100000000E-03 0. -1.
         23    2    1    2    0    0  0.00000000000E+00  0.00000000000E+00  0.00000000000E+00  0.91188000000E+02  0.91188000000E+02 0.  0.
    9900012    2    3    3    0    0  0.27235538338E+02 -0.11145616070E+02 -0.22130969657E+02  0.54367093927E+02  0.40000022224E+02 0.  0.
        -12    1    3    3    0    0 -0.27235538338E+02  0.11145616070E+02  0.22130969657E+02  0.36820906073E+02  0.00000000000E+00 0.  1.
         11    1    4    4    0    0  0.18099545705E+02 -0.77103115558E+01 -0.21018833606E+02  0.28789474212E+02  0.51100000000E-03 0. -1.
        -11    1    4    4    0    0  0.37248787984E+01  0.21269918167E+01 -0.11693682013E+02  0.12455561630E+02  0.51100000000E-03 0.  1.
         12    1    4    4    0    0  0.54111138345E+01 -0.55622963312E+01  0.10581545962E+02  0.13122058084E+02  0.00000000000E+00 0. -1.
</event>
<event>
 8    1  0.2390921E-006  0.9118800E+02  0.7816164E-02  0.1184000E+00
        -11   -1    0    0    0    0  0.00000000000E+00  0.00000000000E+00  0.45593999997E+02  0.45594000000E+02  0.51100000000E-03 0.  1.
         11   -1    0    0    0    0 -0.00000000000E+00 -0.00000000000E+00 -0.45593999997E+02  0.45594000000E+02  0.51100000000E-03 0. -1.
         23    2    1    2    0    0  0.00000000000E+00  0.00000000000E+00  0.00000000000E+00  0.91188000000E+02  0.91188000000E+02 0.  0.
    9900012    2    3    3    0    0  0.28179916465E+02  0.23081113656E+02 -0.53789967174E+01  0.54367094182E+02  0.40000022807E+02 0.  0.
        -12    1    3    3    0    0 -0.28179916465E+02 -0.23081113656E+02  0.53789967174E+01  0.36820905818E+02  0.00000000000E+00 0.  1.
         11    1    4    4    0    0  0.60222250437E+01  0.15167129825E+02 -0.88109578586E+01  0.18545673357E+02  0.51100000000E-03 0.  1.
        -11    1    4    4    0    0  0.10019834305E+02  0.11612097767E+02 -0.92260643851E+01  0.17898551851E+02  0.51100000000E-03 0. -1.
        -12    1    4    4    0    0  0.12137857117E+02 -0.36981139360E+01  0.12658025526E+02  0.17922868975E+02  0.00000000000E+00 0.  1.
</event>
<event>
 8    1  0.2390921E-006  0.9118800E+02  0.7816164E-02  0.1184000E+00
        -11   -1    0    0    0    0  0.00000000000E+00  0.00000000000E+00  0.45593999997E+02  0.45594000000E+02  0.51100000000E-03 0.  1.
         11   -1    0    0    0    0 -0.00000000000E+00 -0.00000000000E+00 -0.45593999997E+02  0.45594000000E+02  0.51100000000E-03 0. -1.
         23    2    1    2    0    0  0.00000000000E+00  0.55511151231E-15 -0.71054273576E-14  0.91188000000E+02  0.91188000000E+02 0.  0.
    9900012    2    3    3    0    0 -0.27486592114E+02  0.70266851528E+00  0.24490279250E+02  0.54367078409E+02  0.39999986848E+02 0.  0.
         12    1    3    3    0    0  0.27486592114E+02 -0.70266851528E+00 -0.24490279250E+02  0.36820921591E+02  0.00000000000E+00 0. -1.
         11    1    4    4    0    0 -0.19400048904E+01  0.37162102492E+01 -0.45215080429E+01  0.61658635108E+01  0.51100000000E-03 0. -1.
        -11    1    4    4    0    0 -0.10075289274E+02  0.64607273459E+01 -0.21334893961E+01  0.12157476262E+02  0.51100000000E-03 0.  1.
        -12    1    4    4    0    0 -0.15471297950E+02 -0.94742690799E+01  0.31145276689E+02  0.36043738636E+02  0.00000000000E+00 0.  1.
</event>
<event>
 8    1  0.2390921E-006  0.9118800E+02  0.7816164E-02  0.1184000E+00
        -11   -1    0    0    0    0  0.00000000000E+00  0.00000000000E+00  0.45593999997E+02  0.45594000000E+02  0.51100000000E-03 0. -1.
         11   -1    0    0    0    0 -0.00000000000E+00 -0.00000000000E+00 -0.45593999997E+02  0.45594000000E+02  0.51100000000E-03 0.  1.
         23    2    1    2    0    0 -0.17763568394E-14  0.00000000000E+00 -0.35527136788E-14  0.91188000000E+02  0.91188000000E+02 0.  0.
    9900012    2    3    3    0    0 -0.75492053992E+01 -0.18185864405E+02 -0.31113837833E+02  0.54366986013E+02  0.39999776213E+02 0.  0.
         12    1    3    3    0    0  0.75492053992E+01  0.18185864405E+02  0.31113837833E+02  0.36821013987E+02  0.00000000000E+00 0. -1.
         11    1    4    4    0    0  0.68327862552E+01  0.16973930637E+01 -0.20561998980E+02  0.21733934608E+02  0.51100000000E-03 0. -1.
        -11    1    4    4    0    0 -0.20429607300E+01 -0.10478219651E+02 -0.13112213493E+02  0.16908486584E+02  0.51100000000E-03 0.  1.
         12    1    4    4    0    0 -0.12339030924E+02 -0.94050378181E+01  0.25603746405E+01  0.15724564821E+02  0.00000000000E+00 0. -1.
</event>
<event>
 8    1  0.2390921E-006  0.9118800E+02  0.7816164E-02  0.1184000E+00
        -11   -1    0    0    0    0  0.00000000000E+00  0.00000000000E+00  0.45593999997E+02  0.45594000000E+02  0.51100000000E-03 0.  1.
         11   -1    0    0    0    0 -0.00000000000E+00 -0.00000000000E+00 -0.45593999997E+02  0.45594000000E+02  0.51100000000E-03 0. -1.
         23    2    1    2    0    0 -0.35527136788E-14 -0.35527136788E-14  0.00000000000E+00  0.91188000000E+02  0.91188000000E+02 0.  0.
    9900012    2    3    3    0    0  0.25121126138E+02  0.18068572329E+02  0.19955834001E+02  0.54367087530E+02  0.40000007642E+02 0.  0.
         12    1    3    3    0    0 -0.25121126138E+02 -0.18068572329E+02 -0.19955834001E+02  0.36820912470E+02  0.00000000000E+00 0. -1.
         11    1    4    4    0    0 -0.19801228098E+01  0.39641192026E+01 -0.34419213573E+00  0.44445017586E+01  0.51100000000E-03 0. -1.
        -11    1    4    4    0    0  0.90772752299E+01  0.13546743866E+02  0.26276707978E+02  0.30925338760E+02  0.51100000000E-03 0.  1.
        -12    1    4    4    0    0  0.18023973718E+02  0.55770926024E+00 -0.59766818409E+01  0.18997247012E+02  0.00000000000E+00 0.  1.
</event>
<event>
 8    1  0.2390921E-006  0.9118800E+02  0.7816164E-02  0.1184000E+00
        -11   -1    0    0    0    0  0.00000000000E+00  0.00000000000E+00  0.45593999997E+02  0.45594000000E+02  0.51100000000E-03 0.  1.
         11   -1    0    0    0    0 -0.00000000000E+00 -0.00000000000E+00 -0.45593999997E+02  0.45594000000E+02  0.51100000000E-03 0. -1.
         23    2    1    2    0    0  0.35527136788E-14  0.00000000000E+00  0.00000000000E+00  0.91188000000E+02  0.91188000000E+02 0.  0.
    9900012    2    3    3    0    0 -0.19834935315E+02 -0.66671017319E+01 -0.30296933475E+02  0.54367094492E+02  0.40000023513E+02 0.  0.
        -12    1    3    3    0    0  0.19834935315E+02  0.66671017319E+01  0.30296933475E+02  0.36820905508E+02  0.00000000000E+00 0.  1.
         11    1    4    4    0    0 -0.10080780480E+02 -0.68455006428E+01 -0.73324805615E+01  0.14221402377E+02  0.51100000000E-03 0. -1.
        -11    1    4    4    0    0  0.24644042676E+01 -0.81507559918E+00 -0.27087837164E+02  0.27211919431E+02  0.51100000000E-03 0.  1.
         12    1    4    4    0    0 -0.12218559103E+02  0.99347451013E+00  0.41233842508E+01  0.12933772684E+02  0.00000000000E+00 0. -1.
</event>
<event>
 8    1  0.2390921E-006  0.9118800E+02  0.7816164E-02  0.1184000E+00
        -11   -1    0    0    0    0  0.00000000000E+00  0.00000000000E+00  0.45593999997E+02  0.45594000000E+02  0.51100000000E-03 0. -1.
         11   -1    0    0    0    0 -0.00000000000E+00 -0.00000000000E+00 -0.45593999997E+02  0.45594000000E+02  0.51100000000E-03 0.  1.
         23    2    1    2    0    0 -0.17763568394E-14 -0.83266726847E-15  0.00000000000E+00  0.91188000000E+02  0.91188000000E+02 0.  0.
    9900012    2    3    3    0    0  0.82189061060E+01  0.19934299288E+00  0.35891350389E+02  0.54367093059E+02  0.40000020246E+02 0.  0.
        -12    1    3    3    0    0 -0.82189061060E+01 -0.19934299288E+00 -0.35891350389E+02  0.36820906941E+02  0.00000000000E+00 0.  1.
         11    1    4    4    0    0  0.15141555379E+02  0.56168866950E+01  0.99577211007E+01  0.18972936653E+02  0.51100000000E-03 0. -1.
        -11    1    4    4    0    0 -0.94294676015E+01 -0.13795673528E+00  0.65998156593E+00  0.94535425760E+01  0.51100000000E-03 0.  1.
         12    1    4    4    0    0  0.25068183284E+01 -0.52795869668E+01  0.25273647723E+02  0.25940613830E+02  0.00000000000E+00 0. -1.
</event>
<event>
 8    1  0.2390921E-006  0.9118800E+02  0.7816164E-02  0.1184000E+00
        -11   -1    0    0    0    0  0.00000000000E+00  0.00000000000E+00  0.45593999997E+02  0.45594000000E+02  0.51100000000E-03 0. -1.
         11   -1    0    0    0    0 -0.00000000000E+00 -0.00000000000E+00 -0.45593999997E+02  0.45594000000E+02  0.51100000000E-03 0.  1.
         23    2    1    2    0    0 -0.35527136788E-14 -0.88817841970E-15  0.00000000000E+00  0.91188000000E+02  0.91188000000E+02 0.  0.
    9900012    2    3    3    0    0 -0.25455764219E+02 -0.61854342023E+01  0.25875169239E+02  0.54367083235E+02  0.39999997852E+02 0.  0.
        -12    1    3    3    0    0  0.25455764219E+02  0.61854342023E+01 -0.25875169239E+02  0.36820916765E+02  0.00000000000E+00 0.  1.
         11    1    4    4    0    0 -0.77742612964E+01 -0.30121755653E+01  0.25938051963E+02  0.27245089103E+02  0.51100000000E-03 0. -1.
        -11    1    4    4    0    0 -0.20103564025E+02 -0.64479016983E+01  0.38654598685E+01  0.21463236081E+02  0.51100000000E-03 0.  1.
        -12    1    4    4    0    0  0.24220611024E+01  0.32746430613E+01 -0.39283425923E+01  0.56587580515E+01  0.00000000000E+00 0.  1.
</event>
<event>
 8    1  0.2390921E-006  0.9118800E+02  0.7816164E-02  0.1184000E+00
        -11   -1    0    0    0    0  0.00000000000E+00  0.00000000000E+00  0.45593999997E+02  0.45594000000E+02  0.51100000000E-03 0. -1.
         11   -1    0    0    0    0 -0.00000000000E+00 -0.00000000000E+00 -0.45593999997E+02  0.45594000000E+02  0.51100000000E-03 0.  1.
         23    2    1    2    0    0  0.00000000000E+00  0.00000000000E+00 -0.99920072216E-15  0.91188000000E+02  0.91188000000E+02 0.  0.
    9900012    2    3    3    0    0  0.35704762052E+02  0.89594513005E+01 -0.82371259029E+00  0.54367077914E+02  0.39999985721E+02 0.  0.
        -12    1    3    3    0    0 -0.35704762052E+02 -0.89594513005E+01  0.82371259029E+00  0.36820922086E+02  0.00000000000E+00 0.  1.
         11    1    4    4    0    0  0.13483998275E+01  0.35467612250E+01  0.68926714999E+01  0.78680758733E+01  0.51100000000E-03 0. -1.
        -11    1    4    4    0    0  0.23772338839E+02  0.44440829097E+01  0.97316926727E+01  0.26068751587E+02  0.51100000000E-03 0.  1.
        -12    1    4    4    0    0  0.10584023386E+02  0.96860716578E+00 -0.17448076763E+02  0.20430250454E+02  0.00000000000E+00 0.  1.
</event>
<event>
 8    1  0.2390921E-006  0.9118800E+02  0.7816164E-02  0.1184000E+00
        -11   -1    0    0    0    0  0.00000000000E+00  0.00000000000E+00  0.45593999997E+02  0.45594000000E+02  0.51100000000E-03 0.  1.
         11   -1    0    0    0    0 -0.00000000000E+00 -0.00000000000E+00 -0.45593999997E+02  0.45594000000E+02  0.51100000000E-03 0. -1.
         23    2    1    2    0    0  0.00000000000E+00 -0.35527136788E-14  0.35527136788E-14  0.91188000000E+02  0.91188000000E+02 0.  0.
    9900012    2    3    3    0    0 -0.76673790223E+01  0.30138300813E+02 -0.19714801924E+02  0.54367091649E+02  0.40000017031E+02 0.  0.
        -12    1    3    3    0    0  0.76673790223E+01 -0.30138300813E+02  0.19714801924E+02  0.36820908351E+02  0.00000000000E+00 0.  1.
         11    1    4    4    0    0 -0.36143248972E+01  0.15266951564E+02 -0.12842559936E+02  0.20274972268E+02  0.51100000000E-03 0. -1.
        -11    1    4    4    0    0 -0.33599089012E+01 -0.14086153576E+00  0.10556332305E+02  0.11079033433E+02  0.51100000000E-03 0.  1.
        -12    1    4    4    0    0 -0.69314522389E+00  0.15012210784E+02 -0.17428574293E+02  0.23013085948E+02  0.00000000000E+00 0.  1.
</event>
<event>
 8    1  0.2390921E-006  0.9118800E+02  0.7816164E-02  0.1184000E+00
        -11   -1    0    0    0    0  0.00000000000E+00  0.00000000000E+00  0.45593999997E+02  0.45594000000E+02  0.51100000000E-03 0.  1.
         11   -1    0    0    0    0 -0.00000000000E+00 -0.00000000000E+00 -0.45593999997E+02  0.45594000000E+02  0.51100000000E-03 0. -1.
         23    2    1    2    0    0 -0.88817841970E-15  0.00000000000E+00 -0.17763568394E-14  0.91188000000E+02  0.91188000000E+02 0.  0.
    9900012    2    3    3    0    0 -0.56192174923E+01 -0.33415637069E+02 -0.14408337832E+02  0.54367073817E+02  0.39999976380E+02 0.  0.
        -12    1    3    3    0    0  0.56192174923E+01  0.33415637069E+02  0.14408337832E+02  0.36820926183E+02  0.00000000000E+00 0.  1.
         11    1    4    4    0    0  0.18460413431E+01 -0.27129548544E+02 -0.71846465979E+01  0.28125423017E+02  0.51100000000E-03 0. -1.
        -11    1    4    4    0    0  0.45942864652E+00  0.84167955024E+01 -0.13519607820E+01  0.85370556651E+01  0.51100000000E-03 0.  1.
        -12    1    4    4    0    0 -0.79246874820E+01 -0.14702884027E+02 -0.58717304517E+01  0.17704595135E+02  0.00000000000E+00 0.  1.
</event>
<event>
 8    1  0.2390921E-006  0.9118800E+02  0.7816164E-02  0.1184000E+00
        -11   -1    0    0    0    0  0.00000000000E+00  0.00000000000E+00  0.45593999997E+02  0.45594000000E+02  0.51100000000E-03 0. -1.
         11   -1    0    0    0    0 -0.00000000000E+00 -0.00000000000E+00 -0.45593999997E+02  0.45594000000E+02  0.51100000000E-03 0.  1.
         23    2    1    2    0    0  0.00000000000E+00  0.00000000000E+00  0.00000000000E+00  0.91188000000E+02  0.91188000000E+02 0.  0.
    9900012    2    3    3    0    0 -0.96625117304E+01  0.35249230254E+02 -0.44617132773E+01  0.54367092192E+02  0.40000018269E+02 0.  0.
        -12    1    3    3    0    0  0.96625117304E+01 -0.35249230254E+02  0.44617132773E+01  0.36820907808E+02  0.00000000000E+00 0.  1.
         11    1    4    4    0    0 -0.20237180206E+01  0.16363385365E+02 -0.89659523887E+01  0.18768167671E+02  0.51100000000E-03 0. -1.
        -11    1    4    4    0    0 -0.51030206523E+01  0.81484907381E+01 -0.12228987010E+02  0.15555926351E+02  0.51100000000E-03 0.  1.
         12    1    4    4    0    0 -0.25357730574E+01  0.10737354152E+02  0.16733226122E+02  0.20042998169E+02  0.00000000000E+00 0. -1.
</event>
<event>
 8    1  0.2390921E-006  0.9118800E+02  0.7816164E-02  0.1184000E+00
        -11   -1    0    0    0    0  0.00000000000E+00  0.00000000000E+00  0.45593999997E+02  0.45594000000E+02  0.51100000000E-03 0.  1.
         11   -1    0    0    0    0 -0.00000000000E+00 -0.00000000000E+00 -0.45593999997E+02  0.45594000000E+02  0.51100000000E-03 0. -1.
         23    2    1    2    0    0 -0.88817841970E-15  0.00000000000E+00 -0.88817841970E-15  0.91188000000E+02  0.91188000000E+02 0.  0.
    9900012    2    3    3    0    0  0.59242174799E+01 -0.36175321542E+02 -0.34682550486E+01  0.54367095143E+02  0.40000024997E+02 0.  0.
         12    1    3    3    0    0 -0.59242174799E+01  0.36175321542E+02  0.34682550486E+01  0.36820904857E+02  0.00000000000E+00 0. -1.
         11    1    4    4    0    0 -0.16949242921E+01 -0.71929298996E+01 -0.15007972521E+02  0.16728725245E+02  0.51100000000E-03 0. -1.
        -11    1    4    4    0    0  0.12497974548E+02 -0.23388997551E+02  0.35871043847E+01  0.26760267046E+02  0.51100000000E-03 0.  1.
        -12    1    4    4    0    0 -0.48788327765E+01 -0.55933940917E+01  0.79526130873E+01  0.10878102851E+02  0.00000000000E+00 0.  1.
</event>
<event>
 8    1  0.2390921E-006  0.9118800E+02  0.7816164E-02  0.1184000E+00
        -11   -1    0    0    0    0  0.00000000000E+00  0.00000000000E+00  0.45593999997E+02  0.45594000000E+02  0.51100000000E-03 0. -1.
         11   -1    0    0    0    0 -0.00000000000E+00 -0.00000000000E+00 -0.45593999997E+02  0.45594000000E+02  0.51100000000E-03 0.  1.
         23    2    1    2    0    0  0.00000000000E+00 -0.88817841970E-15 -0.17763568394E-14  0.91188000000E+02  0.91188000000E+02 0.  0.
    9900012    2    3    3    0    0 -0.34850805513E+02  0.61403957884E+01 -0.10173242707E+02  0.54367109563E+02  0.40000057872E+02 0.  0.
         12    1    3    3    0    0  0.34850805513E+02 -0.61403957884E+01  0.10173242707E+02  0.36820890437E+02  0.00000000000E+00 0. -1.
         11    1    4    4    0    0 -0.31825429725E+02 -0.54097040314E+01  0.30594323425E+01  0.32426578626E+02  0.51100000000E-03 0. -1.
        -11    1    4    4    0    0 -0.75816243653E+01  0.70689569414E+01 -0.49724327901E+01  0.11496793830E+02  0.51100000000E-03 0.  1.
         12    1    4    4    0    0  0.45562485767E+01  0.44811428783E+01 -0.82602422592E+01  0.10443737107E+02  0.00000000000E+00 0. -1.
</event>
<event>
 8    1  0.2390921E-006  0.9118800E+02  0.7816164E-02  0.1184000E+00
        -11   -1    0    0    0    0  0.00000000000E+00  0.00000000000E+00  0.45593999997E+02  0.45594000000E+02  0.51100000000E-03 0.  1.
         11   -1    0    0    0    0 -0.00000000000E+00 -0.00000000000E+00 -0.45593999997E+02  0.45594000000E+02  0.51100000000E-03 0. -1.
         23    2    1    2    0    0  0.17763568394E-14  0.00000000000E+00  0.00000000000E+00  0.91188000000E+02  0.91188000000E+02 0.  0.
    9900012    2    3    3    0    0 -0.12591069926E+02 -0.27578446969E+02  0.20896745634E+02  0.54367085329E+02  0.40000002626E+02 0.  0.
         12    1    3    3    0    0  0.12591069926E+02  0.27578446969E+02 -0.20896745634E+02  0.36820914671E+02  0.00000000000E+00 0. -1.
         11    1    4    4    0    0 -0.94209838921E+01 -0.11048756470E+02 -0.43616552138E+01  0.15160936432E+02  0.51100000000E-03 0. -1.
        -11    1    4    4    0    0 -0.10097497083E+02 -0.18880727367E+02  0.13356106967E+02  0.25235429595E+02  0.51100000000E-03 0.  1.
         12    1    4    4    0    0  0.69274110493E+01  0.23510368689E+01  0.11902293881E+02  0.13970719303E+02  0.00000000000E+00 0. -1.
</event>
<event>
 8    1  0.2390921E-006  0.9118800E+02  0.7816164E-02  0.1184000E+00
        -11   -1    0    0    0    0  0.00000000000E+00  0.00000000000E+00  0.45593999997E+02  0.45594000000E+02  0.51100000000E-03 0.  1.
         11   -1    0    0    0    0 -0.00000000000E+00 -0.00000000000E+00 -0.45593999997E+02  0.45594000000E+02  0.51100000000E-03 0. -1.
         23    2    1    2    0    0 -0.35527136788E-14  0.00000000000E+00  0.00000000000E+00  0.91188000000E+02  0.91188000000E+02 0.  0.
    9900012    2    3    3    0    0  0.23914667271E+02  0.11088721674E+02  0.25708153158E+02  0.54367079346E+02  0.39999988984E+02 0.  0.
         12    1    3    3    0    0 -0.23914667271E+02 -0.11088721674E+02 -0.25708153158E+02  0.36820920654E+02  0.00000000000E+00 0. -1.
         11    1    4    4    0    0 -0.80352695171E+01  0.95291583324E+01  0.95845044326E+00  0.12501561592E+02  0.51100000000E-03 0. -1.
        -11    1    4    4    0    0  0.17327812407E+02  0.97529307221E+00  0.66395393695E+01  0.18581920317E+02  0.51100000000E-03 0.  1.
        -12    1    4    4    0    0  0.14622124382E+02  0.58427026907E+00  0.18110163345E+02  0.23283597436E+02  0.00000000000E+00 0.  1.
</event>
<event>
 8    1  0.2390921E-006  0.9118800E+02  0.7816164E-02  0.1184000E+00
        -11   -1    0    0    0    0  0.00000000000E+00  0.00000000000E+00  0.45593999997E+02  0.45594000000E+02  0.51100000000E-03 0. -1.
         11   -1    0    0    0    0 -0.00000000000E+00 -0.00000000000E+00 -0.45593999997E+02  0.45594000000E+02  0.51100000000E-03 0.  1.
         23    2    1    2    0    0  0.00000000000E+00 -0.83266726847E-16  0.00000000000E+00  0.91188000000E+02  0.91188000000E+02 0.  0.
    9900012    2    3    3    0    0 -0.16172045948E+02 -0.47541477965E-01 -0.33079340334E+02  0.54367080847E+02  0.39999992407E+02 0.  0.
         12    1    3    3    0    0  0.16172045948E+02  0.47541477965E-01  0.33079340334E+02  0.36820919153E+02  0.00000000000E+00 0. -1.
         11    1    4    4    0    0 -0.19578633324E+01 -0.13906958757E+01  0.60195558452E+01  0.64809194319E+01  0.51100000000E-03 0. -1.
        -11    1    4    4    0    0  0.16004042323E+01 -0.34355170361E+00  0.27035360689E+01  0.31604475975E+01  0.51100000000E-03 0.  1.
        -12    1    4    4    0    0 -0.15814586848E+02  0.16867061014E+01 -0.41802432248E+02  0.44725713818E+02  0.00000000000E+00 0.  1.
</event>
<event>
 8    1  0.2390921E-006  0.9118800E+02  0.7816164E-02  0.1184000E+00
        -11   -1    0    0    0    0  0.00000000000E+00  0.00000000000E+00  0.45593999997E+02  0.45594000000E+02  0.51100000000E-03 0. -1.
         11   -1    0    0    0    0 -0.00000000000E+00 -0.00000000000E+00 -0.45593999997E+02  0.45594000000E+02  0.51100000000E-03 0.  1.
         23    2    1    2    0    0 -0.11102230246E-15 -0.35527136788E-14  0.35527136788E-14  0.91188000000E+02  0.91188000000E+02 0.  0.
    9900012    2    3    3    0    0 -0.63646674053E+00 -0.20132176874E+02 -0.30823212485E+02  0.54367081170E+02  0.39999993143E+02 0.  0.
         12    1    3    3    0    0  0.63646674053E+00  0.20132176874E+02  0.30823212485E+02  0.36820918830E+02  0.00000000000E+00 0. -1.
         11    1    4    4    0    0  0.54132206073E+01 -0.73573976117E+01  0.28601699515E+00  0.91387123241E+01  0.51100000000E-03 0. -1.
        -11    1    4    4    0    0 -0.13428512829E+02  0.22677127288E+01 -0.22724035395E+02  0.26492437840E+02  0.51100000000E-03 0.  1.
         12    1    4    4    0    0  0.73788254817E+01 -0.15042491991E+02 -0.83851940851E+01  0.18735931005E+02  0.00000000000E+00 0. -1.
</event>
<event>
 8    1  0.2390921E-006  0.9118800E+02  0.7816164E-02  0.1184000E+00
        -11   -1    0    0    0    0  0.00000000000E+00  0.00000000000E+00  0.45593999997E+02  0.45594000000E+02  0.51100000000E-03 0.  1.
         11   -1    0    0    0    0 -0.00000000000E+00 -0.00000000000E+00 -0.45593999997E+02  0.45594000000E+02  0.51100000000E-03 0. -1.
         23    2    1    2    0    0  0.00000000000E+00 -0.17763568394E-14  0.00000000000E+00  0.91188000000E+02  0.91188000000E+02 0.  0.
    9900012    2    3    3    0    0 -0.10130212627E+02 -0.15078462758E+02 -0.32028086789E+02  0.54367087595E+02  0.40000007789E+02 0.  0.
        -12    1    3    3    0    0  0.10130212627E+02  0.15078462758E+02  0.32028086789E+02  0.36820912405E+02  0.00000000000E+00 0.  1.
         11    1    4    4    0    0 -0.12595009655E+02  0.11503200726E+01 -0.12952021858E+02  0.18102827816E+02  0.51100000000E-03 0. -1.
        -11    1    4    4    0    0  0.10191641604E+02  0.23759775386E+01 -0.86702374464E+01  0.13589990636E+02  0.51100000000E-03 0.  1.
         12    1    4    4    0    0 -0.77268445763E+01 -0.18604760369E+02 -0.10405827484E+02  0.22674269142E+02  0.00000000000E+00 0. -1.
</event>
<event>
 8    1  0.2390921E-006  0.9118800E+02  0.7816164E-02  0.1184000E+00
        -11   -1    0    0    0    0  0.00000000000E+00  0.00000000000E+00  0.45593999997E+02  0.45594000000E+02  0.51100000000E-03 0.  1.
         11   -1    0    0    0    0 -0.00000000000E+00 -0.00000000000E+00 -0.45593999997E+02  0.45594000000E+02  0.51100000000E-03 0. -1.
         23    2    1    2    0    0 -0.71054273576E-14  0.00000000000E+00  0.11102230246E-15  0.91188000000E+02  0.91188000000E+02 0.  0.
    9900012    2    3    3    0    0  0.34883885566E+02 -0.11784088374E+02 -0.17094686130E+00  0.54367089721E+02  0.40000012636E+02 0.  0.
        -12    1    3    3    0    0 -0.34883885566E+02  0.11784088374E+02  0.17094686130E+00  0.36820910279E+02  0.00000000000E+00 0.  1.
         11    1    4    4    0    0  0.15066880724E+02  0.12936651334E+01 -0.10309439183E+01  0.15157417651E+02  0.51100000000E-03 0. -1.
        -11    1    4    4    0    0 -0.81339353643E+01 -0.66651831061E+01 -0.10149320172E+00  0.10516457173E+02  0.51100000000E-03 0.  1.
        -12    1    4    4    0    0  0.27950940207E+02 -0.64125704009E+01  0.96149025873E+00  0.28693214897E+02  0.00000000000E+00 0.  1.
</event>
<event>
 8    1  0.2390921E-006  0.9118800E+02  0.7816164E-02  0.1184000E+00
        -11   -1    0    0    0    0  0.00000000000E+00  0.00000000000E+00  0.45593999997E+02  0.45594000000E+02  0.51100000000E-03 0.  1.
         11   -1    0    0    0    0 -0.00000000000E+00 -0.00000000000E+00 -0.45593999997E+02  0.45594000000E+02  0.51100000000E-03 0. -1.
         23    2    1    2    0    0  0.35527136788E-14  0.00000000000E+00 -0.17763568394E-14  0.91188000000E+02  0.91188000000E+02 0.  0.
    9900012    2    3    3    0    0 -0.29346188297E+02 -0.20623478028E+02  0.83218338003E+01  0.54367088397E+02  0.40000009618E+02 0.  0.
         12    1    3    3    0    0  0.29346188297E+02  0.20623478028E+02 -0.83218338003E+01  0.36820911603E+02  0.00000000000E+00 0. -1.
         11    1    4    4    0    0 -0.14231835408E+02 -0.14625762146E+02  0.76331893408E+01  0.21788153598E+02  0.51100000000E-03 0. -1.
        -11    1    4    4    0    0 -0.13900850172E+02 -0.55636012065E+01  0.13224589154E+02  0.19976912986E+02  0.51100000000E-03 0.  1.
         12    1    4    4    0    0 -0.12135027169E+01 -0.43411467567E+00 -0.12535944695E+02  0.12602021813E+02  0.00000000000E+00 0. -1.
</event>
<event>
 8    1  0.2390921E-006  0.9118800E+02  0.7816164E-02  0.1184000E+00
        -11   -1    0    0    0    0  0.00000000000E+00  0.00000000000E+00  0.45593999997E+02  0.45594000000E+02  0.51100000000E-03 0. -1.
         11   -1    0    0    0    0 -0.00000000000E+00 -0.00000000000E+00 -0.45593999997E+02  0.45594000000E+02  0.51100000000E-03 0.  1.
         23    2    1    2    0    0 -0.44408920985E-15  0.00000000000E+00  0.35527136788E-14  0.91188000000E+02  0.91188000000E+02 0.  0.
    9900012    2    3    3    0    0  0.27150890324E+01 -0.29331470134E+02  0.22092374267E+02  0.54367084077E+02  0.39999999771E+02 0.  0.
        -12    1    3    3    0    0 -0.27150890324E+01  0.29331470134E+02 -0.22092374267E+02  0.36820915923E+02  0.00000000000E+00 0.  1.
         11    1    4    4    0    0  0.10839428144E+02 -0.60486810124E+01  0.13523066984E+02  0.18356281906E+02  0.51100000000E-03 0. -1.
        -11    1    4    4    0    0 -0.45618292456E+01 -0.21153162328E+01 -0.76168024471E+01  0.91269123262E+01  0.51100000000E-03 0.  1.
        -12    1    4    4    0    0 -0.35625098663E+01 -0.21167472889E+02  0.16186109730E+02  0.26883889845E+02  0.00000000000E+00 0.  1.
</event>
<event>
 8    1  0.2390921E-006  0.9118800E+02  0.7816164E-02  0.1184000E+00
        -11   -1    0    0    0    0  0.00000000000E+00  0.00000000000E+00  0.45593999997E+02  0.45594000000E+02  0.51100000000E-03 0.  1.
         11   -1    0    0    0    0 -0.00000000000E+00 -0.00000000000E+00 -0.45593999997E+02  0.45594000000E+02  0.51100000000E-03 0. -1.
         23    2    1    2    0    0  0.71054273576E-14  0.00000000000E+00  0.17763568394E-14  0.91188000000E+02  0.91188000000E+02 0.  0.
    9900012    2    3    3    0    0  0.33553769659E+02 -0.51932234128E+01 -0.14246262660E+02  0.54367068079E+02  0.39999963299E+02 0.  0.
        -12    1    3    3    0    0 -0.33553769659E+02  0.51932234128E+01  0.14246262660E+02  0.36820931921E+02  0.00000000000E+00 0.  1.
         11    1    4    4    0    0  0.17274742013E+02 -0.61306534545E+01 -0.82053502636E+01  0.20083062431E+02  0.51100000000E-03 0. -1.
        -11    1    4    4    0    0 -0.53650108233E+01  0.27662430348E+01  0.67669659467E+01  0.90679253441E+01  0.51100000000E-03 0.  1.
        -12    1    4    4    0    0  0.21644038469E+02 -0.18288129931E+01 -0.12807878343E+02  0.25216080303E+02  0.00000000000E+00 0.  1.
</event>
<event>
 8    1  0.2390921E-006  0.9118800E+02  0.7816164E-02  0.1184000E+00
        -11   -1    0    0    0    0  0.00000000000E+00  0.00000000000E+00  0.45593999997E+02  0.45594000000E+02  0.51100000000E-03 0.  1.
         11   -1    0    0    0    0 -0.00000000000E+00 -0.00000000000E+00 -0.45593999997E+02  0.45594000000E+02  0.51100000000E-03 0. -1.
         23    2    1    2    0    0 -0.35527136788E-14  0.00000000000E+00  0.00000000000E+00  0.91188000000E+02  0.91188000000E+02 0.  0.
    9900012    2    3    3    0    0 -0.25475283197E+02 -0.86020245492E+00  0.26571591338E+02  0.54367089250E+02  0.40000011564E+02 0.  0.
         12    1    3    3    0    0  0.25475283197E+02  0.86020245492E+00 -0.26571591338E+02  0.36820910750E+02  0.00000000000E+00 0. -1.
         11    1    4    4    0    0  0.63634527128E-01 -0.61846775955E+01  0.19465898494E+02  0.20424874314E+02  0.51100000000E-03 0. -1.
        -11    1    4    4    0    0 -0.19597142141E+02  0.37741718881E+01  0.14249249381E+02  0.24522101495E+02  0.51100000000E-03 0.  1.
         12    1    4    4    0    0 -0.59417755826E+01  0.15503032524E+01 -0.71435565371E+01  0.94201134413E+01  0.00000000000E+00 0. -1.
</event>
<event>
 8    1  0.2390921E-006  0.9118800E+02  0.7816164E-02  0.1184000E+00
        -11   -1    0    0    0    0  0.00000000000E+00  0.00000000000E+00  0.45593999997E+02  0.45594000000E+02  0.51100000000E-03 0.  1.
         11   -1    0    0    0    0 -0.00000000000E+00 -0.00000000000E+00 -0.45593999997E+02  0.45594000000E+02  0.51100000000E-03 0. -1.
         23    2    1    2    0    0 -0.35527136788E-14  0.00000000000E+00  0.44408920985E-15  0.91188000000E+02  0.91188000000E+02 0.  0.
    9900012    2    3    3    0    0  0.29477897347E+02 -0.21957990142E+02  0.21632981938E+01  0.54367087163E+02  0.40000006805E+02 0.  0.
        -12    1    3    3    0    0 -0.29477897347E+02  0.21957990142E+02 -0.21632981938E+01  0.36820912837E+02  0.00000000000E+00 0.  1.
         11    1    4    4    0    0  0.28484057427E+02 -0.24797891129E+02 -0.42865012324E+01  0.38008565154E+02  0.51100000000E-03 0. -1.
        -11    1    4    4    0    0  0.27949105767E+01  0.85189129996E+01  0.28982329376E+01  0.94224815335E+01  0.51100000000E-03 0.  1.
         12    1    4    4    0    0 -0.18010706572E+01 -0.56790120134E+01  0.35515664886E+01  0.69360404759E+01  0.00000000000E+00 0. -1.
</event>
<event>
 8    1  0.2390921E-006  0.9118800E+02  0.7816164E-02  0.1184000E+00
        -11   -1    0    0    0    0  0.00000000000E+00  0.00000000000E+00  0.45593999997E+02  0.45594000000E+02  0.51100000000E-03 0.  1.
         11   -1    0    0    0    0 -0.00000000000E+00 -0.00000000000E+00 -0.45593999997E+02  0.45594000000E+02  0.51100000000E-03 0. -1.
         23    2    1    2    0    0  0.35527136788E-14  0.00000000000E+00  0.17763568394E-14  0.91188000000E+02  0.91188000000E+02 0.  0.
    9900012    2    3    3    0    0  0.28752080396E+02  0.18882175967E+02  0.13136240785E+02  0.54367088573E+02  0.40000010019E+02 0.  0.
         12    1    3    3    0    0 -0.28752080396E+02 -0.18882175967E+02 -0.13136240785E+02  0.36820911427E+02  0.00000000000E+00 0. -1.
         11    1    4    4    0    0 -0.85800934175E+01  0.48436993337E+01  0.23769731475E+01  0.10135552668E+02  0.51100000000E-03 0. -1.
        -11    1    4    4    0    0  0.65951812144E+00 -0.64096570015E+00  0.40638436540E+01  0.41666085354E+01  0.51100000000E-03 0.  1.
        -12    1    4    4    0    0  0.36672655692E+02  0.14679442333E+02  0.66954239837E+01  0.40064927369E+02  0.00000000000E+00 0.  1.
</event>
<event>
 8    1  0.2390921E-006  0.9118800E+02  0.7816164E-02  0.1184000E+00
        -11   -1    0    0    0    0  0.00000000000E+00  0.00000000000E+00  0.45593999997E+02  0.45594000000E+02  0.51100000000E-03 0. -1.
         11   -1    0    0    0    0 -0.00000000000E+00 -0.00000000000E+00 -0.45593999997E+02  0.45594000000E+02  0.51100000000E-03 0.  1.
         23    2    1    2    0    0 -0.35527136788E-14 -0.17763568394E-14 -0.35527136788E-14  0.91188000000E+02  0.91188000000E+02 0.  0.
    9900012    2    3    3    0    0 -0.18024221920E+02  0.10465941013E+02  0.30354102574E+02  0.54367081486E+02  0.39999993864E+02 0.  0.
        -12    1    3    3    0    0  0.18024221920E+02 -0.10465941013E+02 -0.30354102574E+02  0.36820918514E+02  0.00000000000E+00 0.  1.
         11    1    4    4    0    0 -0.48155708944E+00 -0.81597186810E+01  0.63508881500E+01  0.10351168376E+02  0.51100000000E-03 0.  1.
        -11    1    4    4    0    0 -0.24491244361E+02  0.16740466135E+02  0.18606729361E+02  0.35018204331E+02  0.51100000000E-03 0. -1.
         12    1    4    4    0    0  0.69485795308E+01  0.18851935589E+01  0.53964850634E+01  0.89977087800E+01  0.00000000000E+00 0. -1.
</event>
<event>
 8    1  0.2390921E-006  0.9118800E+02  0.7816164E-02  0.1184000E+00
        -11   -1    0    0    0    0  0.00000000000E+00  0.00000000000E+00  0.45593999997E+02  0.45594000000E+02  0.51100000000E-03 0.  1.
         11   -1    0    0    0    0 -0.00000000000E+00 -0.00000000000E+00 -0.45593999997E+02  0.45594000000E+02  0.51100000000E-03 0. -1.
         23    2    1    2    0    0  0.35527136788E-14  0.00000000000E+00  0.00000000000E+00  0.91188000000E+02  0.91188000000E+02 0.  0.
    9900012    2    3    3    0    0 -0.22087962323E+02 -0.11310596016E+02  0.27202467915E+02  0.54367055926E+02  0.39999935594E+02 0.  0.
         12    1    3    3    0    0  0.22087962323E+02  0.11310596016E+02 -0.27202467915E+02  0.36820944074E+02  0.00000000000E+00 0. -1.
         11    1    4    4    0    0  0.83926747048E+01 -0.59811996947E+01  0.14301175099E+02  0.17627686971E+02  0.51100000000E-03 0. -1.
        -11    1    4    4    0    0 -0.16069254772E+02  0.41000089586E+01  0.29360932770E+01  0.16841961477E+02  0.51100000000E-03 0.  1.
         12    1    4    4    0    0 -0.14411382256E+02 -0.94294052804E+01  0.99651995398E+01  0.19897407478E+02  0.00000000000E+00 0. -1.
</event>
<event>
 8    1  0.2390921E-006  0.9118800E+02  0.7816164E-02  0.1184000E+00
        -11   -1    0    0    0    0  0.00000000000E+00  0.00000000000E+00  0.45593999997E+02  0.45594000000E+02  0.51100000000E-03 0.  1.
         11   -1    0    0    0    0 -0.00000000000E+00 -0.00000000000E+00 -0.45593999997E+02  0.45594000000E+02  0.51100000000E-03 0. -1.
         23    2    1    2    0    0 -0.71054273576E-14 -0.88817841970E-15  0.17763568394E-14  0.91188000000E+02  0.91188000000E+02 0.  0.
    9900012    2    3    3    0    0 -0.32908290318E+02 -0.79241486748E+01 -0.14492436581E+02  0.54367103461E+02  0.40000043961E+02 0.  0.
        -12    1    3    3    0    0  0.32908290318E+02  0.79241486748E+01  0.14492436581E+02  0.36820896539E+02  0.00000000000E+00 0.  1.
         11    1    4    4    0    0 -0.10484257963E+02 -0.53201757734E+00 -0.20309772547E+02  0.22862405143E+02  0.51100000000E-03 0. -1.
        -11    1    4    4    0    0 -0.15433957070E+01  0.47885516460E+01 -0.29001181869E+01  0.58071492950E+01  0.51100000000E-03 0.  1.
        -12    1    4    4    0    0 -0.20880636647E+02 -0.12180682743E+02  0.87174541531E+01  0.25697549023E+02  0.00000000000E+00 0.  1.
</event>
<event>
 8    1  0.2390921E-006  0.9118800E+02  0.7816164E-02  0.1184000E+00
        -11   -1    0    0    0    0  0.00000000000E+00  0.00000000000E+00  0.45593999997E+02  0.45594000000E+02  0.51100000000E-03 0.  1.
         11   -1    0    0    0    0 -0.00000000000E+00 -0.00000000000E+00 -0.45593999997E+02  0.45594000000E+02  0.51100000000E-03 0. -1.
         23    2    1    2    0    0  0.55511151231E-16  0.35527136788E-14  0.00000000000E+00  0.91188000000E+02  0.91188000000E+02 0.  0.
    9900012    2    3    3    0    0  0.47504387669E+00 -0.15973520270E+02  0.33172275659E+02  0.54367097120E+02  0.40000029505E+02 0.  0.
         12    1    3    3    0    0 -0.47504387669E+00  0.15973520270E+02 -0.33172275659E+02  0.36820902880E+02  0.00000000000E+00 0. -1.
         11    1    4    4    0    0 -0.22364727304E+01 -0.14149321049E+02 -0.39161927581E+01  0.14850645185E+02  0.51100000000E-03 0. -1.
        -11    1    4    4    0    0 -0.31794930666E+01 -0.28215595557E+01  0.29755122817E+02  0.30057240535E+02  0.51100000000E-03 0.  1.
        -12    1    4    4    0    0  0.58910096737E+01  0.99736033543E+00  0.73333456000E+01  0.94592113996E+01  0.00000000000E+00 0.  1.
</event>
<event>
 8    1  0.2390921E-006  0.9118800E+02  0.7816164E-02  0.1184000E+00
        -11   -1    0    0    0    0  0.00000000000E+00  0.00000000000E+00  0.45593999997E+02  0.45594000000E+02  0.51100000000E-03 0. -1.
         11   -1    0    0    0    0 -0.00000000000E+00 -0.00000000000E+00 -0.45593999997E+02  0.45594000000E+02  0.51100000000E-03 0.  1.
         23    2    1    2    0    0  0.35527136788E-14  0.13322676296E-14  0.00000000000E+00  0.91188000000E+02  0.91188000000E+02 0.  0.
    9900012    2    3    3    0    0  0.29238853236E+02  0.35574216000E+01  0.22095550747E+02  0.54367093577E+02  0.40000021428E+02 0.  0.
        -12    1    3    3    0    0 -0.29238853236E+02 -0.35574216000E+01 -0.22095550747E+02  0.36820906423E+02  0.00000000000E+00 0.  1.
         11    1    4    4    0    0  0.10607053556E+02  0.11909534558E+02  0.48424524050E+01  0.16667211648E+02  0.51100000000E-03 0. -1.
        -11    1    4    4    0    0 -0.35320770896E+01  0.40028556277E+01 -0.21517164681E+01  0.57557193958E+01  0.51100000000E-03 0.  1.
        -12    1    4    4    0    0  0.22163876769E+02 -0.12354968586E+02  0.19404814810E+02  0.31944162534E+02  0.00000000000E+00 0.  1.
</event>
<event>
 8    1  0.2390921E-006  0.9118800E+02  0.7816164E-02  0.1184000E+00
        -11   -1    0    0    0    0  0.00000000000E+00  0.00000000000E+00  0.45593999997E+02  0.45594000000E+02  0.51100000000E-03 0.  1.
         11   -1    0    0    0    0 -0.00000000000E+00 -0.00000000000E+00 -0.45593999997E+02  0.45594000000E+02  0.51100000000E-03 0. -1.
         23    2    1    2    0    0 -0.35527136788E-14  0.88817841970E-15  0.00000000000E+00  0.91188000000E+02  0.91188000000E+02 0.  0.
    9900012    2    3    3    0    0  0.29585986083E+02 -0.20706402915E+01  0.21821103588E+02  0.54367099882E+02  0.40000035800E+02 0.  0.
         12    1    3    3    0    0 -0.29585986083E+02  0.20706402915E+01 -0.21821103588E+02  0.36820900118E+02  0.00000000000E+00 0. -1.
         11    1    4    4    0    0  0.16317825068E+02  0.18066635785E+01 -0.63193186184E+00  0.16429692218E+02  0.51100000000E-03 0. -1.
        -11    1    4    4    0    0  0.21412265496E+02 -0.44728769167E+01  0.13000364212E+02  0.25446045105E+02  0.51100000000E-03 0.  1.
         12    1    4    4    0    0 -0.81441044806E+01  0.59557304677E+00  0.94526712380E+01  0.12491362559E+02  0.00000000000E+00 0. -1.
</event>
<event>
 8    1  0.2390921E-006  0.9118800E+02  0.7816164E-02  0.1184000E+00
        -11   -1    0    0    0    0  0.00000000000E+00  0.00000000000E+00  0.45593999997E+02  0.45594000000E+02  0.51100000000E-03 0.  1.
         11   -1    0    0    0    0 -0.00000000000E+00 -0.00000000000E+00 -0.45593999997E+02  0.45594000000E+02  0.51100000000E-03 0. -1.
         23    2    1    2    0    0  0.00000000000E+00  0.00000000000E+00  0.35527136788E-14  0.91188000000E+02  0.91188000000E+02 0.  0.
    9900012    2    3    3    0    0  0.19927860602E+02  0.20133388863E+02 -0.23522478973E+02  0.54367082136E+02  0.39999995345E+02 0.  0.
        -12    1    3    3    0    0 -0.19927860602E+02 -0.20133388863E+02  0.23522478973E+02  0.36820917864E+02  0.00000000000E+00 0.  1.
         11    1    4    4    0    0  0.13841155097E+02  0.23931563325E+02 -0.15859073537E+02  0.31871735305E+02  0.51100000000E-03 0. -1.
        -11    1    4    4    0    0  0.97303621776E+01 -0.90681715587E+01 -0.88545953039E+01  0.15978596365E+02  0.51100000000E-03 0.  1.
         12    1    4    4    0    0 -0.36436566722E+01  0.52699970967E+01  0.11911898674E+01  0.65167504667E+01  0.00000000000E+00 0. -1.
</event>
<event>
 8    1  0.2390921E-006  0.9118800E+02  0.7816164E-02  0.1184000E+00
        -11   -1    0    0    0    0  0.00000000000E+00  0.00000000000E+00  0.45593999997E+02  0.45594000000E+02  0.51100000000E-03 0.  1.
         11   -1    0    0    0    0 -0.00000000000E+00 -0.00000000000E+00 -0.45593999997E+02  0.45594000000E+02  0.51100000000E-03 0. -1.
         23    2    1    2    0    0  0.17763568394E-14  0.88817841970E-15  0.00000000000E+00  0.91188000000E+02  0.91188000000E+02 0.  0.
    9900012    2    3    3    0    0 -0.10314574432E+02 -0.62170431497E+01  0.34795654328E+02  0.54367087038E+02  0.40000006520E+02 0.  0.
         12    1    3    3    0    0  0.10314574432E+02  0.62170431497E+01 -0.34795654328E+02  0.36820912962E+02  0.00000000000E+00 0. -1.
         11    1    4    4    0    0 -0.28859713654E+01  0.10991828638E+02  0.95925234703E+01  0.14871638589E+02  0.51100000000E-03 0. -1.
        -11    1    4    4    0    0 -0.48931880624E+01  0.52362225730E+01  0.98599460677E+01  0.12189333574E+02  0.51100000000E-03 0.  1.
        -12    1    4    4    0    0 -0.25354150042E+01 -0.22445094360E+02  0.15343184790E+02  0.27306114876E+02  0.00000000000E+00 0.  1.
</event>
<event>
 8    1  0.2390921E-006  0.9118800E+02  0.7816164E-02  0.1184000E+00
        -11   -1    0    0    0    0  0.00000000000E+00  0.00000000000E+00  0.45593999997E+02  0.45594000000E+02  0.51100000000E-03 0. -1.
         11   -1    0    0    0    0 -0.00000000000E+00 -0.00000000000E+00 -0.45593999997E+02  0.45594000000E+02  0.51100000000E-03 0.  1.
         23    2    1    2    0    0  0.00000000000E+00  0.35527136788E-14  0.00000000000E+00  0.91188000000E+02  0.91188000000E+02 0.  0.
    9900012    2    3    3    0    0  0.21669595448E+02 -0.29469675752E+02  0.42126738998E+01  0.54367085058E+02  0.40000002006E+02 0.  0.
        -12    1    3    3    0    0 -0.21669595448E+02  0.29469675752E+02 -0.42126738998E+01  0.36820914942E+02  0.00000000000E+00 0.  1.
         11    1    4    4    0    0  0.61271249641E+01  0.14635062516E-01 -0.31048095674E+01  0.68688949055E+01  0.51100000000E-03 0. -1.
        -11    1    4    4    0    0 -0.36424462632E+01 -0.27345733689E+02  0.52706893862E+01  0.28086237424E+02  0.51100000000E-03 0.  1.
        -12    1    4    4    0    0  0.19184916747E+02 -0.21385771254E+01  0.20467940810E+01  0.19411952728E+02  0.00000000000E+00 0.  1.
</event>
<event>
 8    1  0.2390921E-006  0.9118800E+02  0.7816164E-02  0.1184000E+00
        -11   -1    0    0    0    0  0.00000000000E+00  0.00000000000E+00  0.45593999997E+02  0.45594000000E+02  0.51100000000E-03 0.  1.
         11   -1    0    0    0    0 -0.00000000000E+00 -0.00000000000E+00 -0.45593999997E+02  0.45594000000E+02  0.51100000000E-03 0. -1.
         23    2    1    2    0    0 -0.66613381478E-15 -0.71054273576E-14  0.17763568394E-14  0.91188000000E+02  0.91188000000E+02 0.  0.
    9900012    2    3    3    0    0  0.76327418529E+00  0.35552955907E+02 -0.95490789646E+01  0.54367079720E+02  0.39999989837E+02 0.  0.
        -12    1    3    3    0    0 -0.76327418529E+00 -0.35552955907E+02  0.95490789646E+01  0.36820920280E+02  0.00000000000E+00 0.  1.
         11    1    4    4    0    0 -0.75166456148E+01 -0.10179234355E+01  0.14541146109E+00  0.75866510512E+01  0.51100000000E-03 0. -1.
        -11    1    4    4    0    0  0.28662791809E+01 -0.29928176961E+01  0.27269780830E+01  0.49607382344E+01  0.51100000000E-03 0.  1.
         12    1    4    4    0    0  0.54136406192E+01  0.39563697038E+02 -0.12421468509E+02  0.41819690434E+02  0.00000000000E+00 0. -1.
</event>
<event>
 8    1  0.2390921E-006  0.9118800E+02  0.7816164E-02  0.1184000E+00
        -11   -1    0    0    0    0  0.00000000000E+00  0.00000000000E+00  0.45593999997E+02  0.45594000000E+02  0.51100000000E-03 0. -1.
         11   -1    0    0    0    0 -0.00000000000E+00 -0.00000000000E+00 -0.45593999997E+02  0.45594000000E+02  0.51100000000E-03 0.  1.
         23    2    1    2    0    0 -0.26645352591E-14  0.00000000000E+00  0.00000000000E+00  0.91188000000E+02  0.91188000000E+02 0.  0.
    9900012    2    3    3    0    0  0.78962721588E+01  0.23240042489E+02 -0.27446831429E+02  0.54367092293E+02  0.40000018500E+02 0.  0.
         12    1    3    3    0    0 -0.78962721588E+01 -0.23240042489E+02  0.27446831429E+02  0.36820907707E+02  0.00000000000E+00 0. -1.
         11    1    4    4    0    0  0.19691018130E+02  0.76787509468E+01 -0.12583742487E+02  0.24597763848E+02  0.51100000000E-03 0. -1.
        -11    1    4    4    0    0 -0.26017394878E+00  0.13305520282E+02 -0.11382025136E+02  0.17511569231E+02  0.51100000000E-03 0.  1.
         12    1    4    4    0    0 -0.11534572022E+02  0.22557712593E+01 -0.34810638060E+01  0.12257759214E+02  0.00000000000E+00 0. -1.
</event>
<event>
 8    1  0.2390921E-006  0.9118800E+02  0.7816164E-02  0.1184000E+00
        -11   -1    0    0    0    0  0.00000000000E+00  0.00000000000E+00  0.45593999997E+02  0.45594000000E+02  0.51100000000E-03 0. -1.
         11   -1    0    0    0    0 -0.00000000000E+00 -0.00000000000E+00 -0.45593999997E+02  0.45594000000E+02  0.51100000000E-03 0.  1.
         23    2    1    2    0    0  0.00000000000E+00  0.00000000000E+00  0.00000000000E+00  0.91188000000E+02  0.91188000000E+02 0.  0.
    9900012    2    3    3    0    0  0.10003952931E+02 -0.27176580744E+02 -0.22740613362E+02  0.54367066942E+02  0.39999960708E+02 0.  0.
         12    1    3    3    0    0 -0.10003952931E+02  0.27176580744E+02  0.22740613362E+02  0.36820933058E+02  0.00000000000E+00 0. -1.
         11    1    4    4    0    0 -0.43303864172E+01 -0.44328023145E+01  0.32773884482E+01  0.70102252591E+01  0.51100000000E-03 0. -1.
        -11    1    4    4    0    0  0.99468922591E+00 -0.13204111702E+02  0.34047790055E+01  0.13672252662E+02  0.51100000000E-03 0.  1.
        -12    1    4    4    0    0  0.13339650122E+02 -0.95396667270E+01 -0.29422780815E+02  0.33684589022E+02  0.00000000000E+00 0.  1.
</event>
<event>
 8    1  0.2390921E-006  0.9118800E+02  0.7816164E-02  0.1184000E+00
        -11   -1    0    0    0    0  0.00000000000E+00  0.00000000000E+00  0.45593999997E+02  0.45594000000E+02  0.51100000000E-03 0.  1.
         11   -1    0    0    0    0 -0.00000000000E+00 -0.00000000000E+00 -0.45593999997E+02  0.45594000000E+02  0.51100000000E-03 0. -1.
         23    2    1    2    0    0 -0.35527136788E-14  0.00000000000E+00  0.35527136788E-14  0.91188000000E+02  0.91188000000E+02 0.  0.
    9900012    2    3    3    0    0 -0.24816208153E+02  0.17867532897E+02  0.20510564961E+02  0.54367133716E+02  0.40000112932E+02 0.  0.
         12    1    3    3    0    0  0.24816208153E+02 -0.17867532897E+02 -0.20510564961E+02  0.36820866284E+02  0.00000000000E+00 0. -1.
         11    1    4    4    0    0 -0.24990258626E+02 -0.53886447882E+01  0.82635035097E+01  0.26867005962E+02  0.51100000000E-03 0. -1.
        -11    1    4    4    0    0  0.38635863421E+01  0.11554916758E+02  0.44914131989E+01  0.12985229820E+02  0.51100000000E-03 0.  1.
         12    1    4    4    0    0 -0.36895358685E+01  0.11701260927E+02  0.77556482520E+01  0.14514897934E+02  0.00000000000E+00 0. -1.
</event>
<event>
 8    1  0.2390921E-006  0.9118800E+02  0.7816164E-02  0.1184000E+00
        -11   -1    0    0    0    0  0.00000000000E+00  0.00000000000E+00  0.45593999997E+02  0.45594000000E+02  0.51100000000E-03 0.  1.
         11   -1    0    0    0    0 -0.00000000000E+00 -0.00000000000E+00 -0.45593999997E+02  0.45594000000E+02  0.51100000000E-03 0. -1.
         23    2    1    2    0    0  0.35527136788E-14  0.00000000000E+00  0.00000000000E+00  0.91188000000E+02  0.91188000000E+02 0.  0.
    9900012    2    3    3    0    0 -0.29896973126E+02  0.12815059874E+02  0.17254698607E+02  0.54367090374E+02  0.40000014125E+02 0.  0.
         12    1    3    3    0    0  0.29896973126E+02 -0.12815059874E+02 -0.17254698607E+02  0.36820909626E+02  0.00000000000E+00 0. -1.
         11    1    4    4    0    0 -0.14028813018E+02 -0.69884988932E+01 -0.70493079422E+00  0.15688965522E+02  0.51100000000E-03 0. -1.
        -11    1    4    4    0    0 -0.16957117088E+02  0.23923168675E+02  0.18017827349E+02  0.34416622758E+02  0.51100000000E-03 0.  1.
         12    1    4    4    0    0  0.10889569794E+01 -0.41196099079E+01 -0.58197948383E-01  0.42615020940E+01  0.00000000000E+00 0. -1.
</event>
<event>
 8    1  0.2390921E-006  0.9118800E+02  0.7816164E-02  0.1184000E+00
        -11   -1    0    0    0    0  0.00000000000E+00  0.00000000000E+00  0.45593999997E+02  0.45594000000E+02  0.51100000000E-03 0.  1.
         11   -1    0    0    0    0 -0.00000000000E+00 -0.00000000000E+00 -0.45593999997E+02  0.45594000000E+02  0.51100000000E-03 0. -1.
         23    2    1    2    0    0  0.00000000000E+00  0.00000000000E+00  0.88817841970E-15  0.91188000000E+02  0.91188000000E+02 0.  0.
    9900012    2    3    3    0    0 -0.35388570727E+02 -0.96967303632E+01  0.30659890894E+01  0.54367111812E+02  0.40000062997E+02 0.  0.
         12    1    3    3    0    0  0.35388570727E+02  0.96967303632E+01 -0.30659890894E+01  0.36820888188E+02  0.00000000000E+00 0. -1.
         11    1    4    4    0    0  0.56949016764E+01  0.18213857347E+00  0.16376058117E+01  0.59284764164E+01  0.51100000000E-03 0. -1.
        -11    1    4    4    0    0 -0.24940376019E+02 -0.61772281833E+01  0.12442990908E+02  0.28548354191E+02  0.51100000000E-03 0.  1.
         12    1    4    4    0    0 -0.16143096385E+02 -0.37016407534E+01 -0.11014607630E+02  0.19890281205E+02  0.00000000000E+00 0. -1.
</event>
<event>
 8    1  0.2390921E-006  0.9118800E+02  0.7816164E-02  0.1184000E+00
        -11   -1    0    0    0    0  0.00000000000E+00  0.00000000000E+00  0.45593999997E+02  0.45594000000E+02  0.51100000000E-03 0. -1.
         11   -1    0    0    0    0 -0.00000000000E+00 -0.00000000000E+00 -0.45593999997E+02  0.45594000000E+02  0.51100000000E-03 0.  1.
         23    2    1    2    0    0  0.88817841970E-15  0.00000000000E+00  0.35527136788E-14  0.91188000000E+02  0.91188000000E+02 0.  0.
    9900012    2    3    3    0    0 -0.59926115563E+01  0.29575864980E+02 -0.21098296759E+02  0.54367064261E+02  0.39999954595E+02 0.  0.
         12    1    3    3    0    0  0.59926115563E+01 -0.29575864980E+02  0.21098296759E+02  0.36820935739E+02  0.00000000000E+00 0. -1.
         11    1    4    4    0    0 -0.12631461442E+01 -0.94829478288E+01 -0.38576276814E+01  0.10315189251E+02  0.51100000000E-03 0. -1.
        -11    1    4    4    0    0 -0.34397079663E-01  0.29886662640E+02 -0.15267955907E+02  0.33560754830E+02  0.51100000000E-03 0.  1.
         12    1    4    4    0    0 -0.46950683325E+01  0.91721501683E+01 -0.19727131710E+01  0.10491120179E+02  0.00000000000E+00 0. -1.
</event>
<event>
 8    1  0.2390921E-006  0.9118800E+02  0.7816164E-02  0.1184000E+00
        -11   -1    0    0    0    0  0.00000000000E+00  0.00000000000E+00  0.45593999997E+02  0.45594000000E+02  0.51100000000E-03 0. -1.
         11   -1    0    0    0    0 -0.00000000000E+00 -0.00000000000E+00 -0.45593999997E+02  0.45594000000E+02  0.51100000000E-03 0.  1.
         23    2    1    2    0    0  0.00000000000E+00 -0.22204460493E-15  0.00000000000E+00  0.91188000000E+02  0.91188000000E+02 0.  0.
    9900012    2    3    3    0    0 -0.26156624333E+02  0.16851179039E+01  0.25860664016E+02  0.54367047240E+02  0.39999915792E+02 0.  0.
        -12    1    3    3    0    0  0.26156624333E+02 -0.16851179039E+01 -0.25860664016E+02  0.36820952760E+02  0.00000000000E+00 0.  1.
         11    1    4    4    0    0 -0.66438293200E+01 -0.72289423085E+01  0.13457544699E+02  0.16658438838E+02  0.51100000000E-03 0. -1.
        -11    1    4    4    0    0  0.63618580029E+01  0.69812454195E+01  0.14973648573E+01  0.95631128109E+01  0.51100000000E-03 0.  1.
        -12    1    4    4    0    0 -0.25874653016E+02  0.19328147929E+01  0.10905754459E+02  0.28145495591E+02  0.00000000000E+00 0.  1.
</event>
<event>
 8    1  0.2390921E-006  0.9118800E+02  0.7816164E-02  0.1184000E+00
        -11   -1    0    0    0    0  0.00000000000E+00  0.00000000000E+00  0.45593999997E+02  0.45594000000E+02  0.51100000000E-03 0.  1.
         11   -1    0    0    0    0 -0.00000000000E+00 -0.00000000000E+00 -0.45593999997E+02  0.45594000000E+02  0.51100000000E-03 0. -1.
         23    2    1    2    0    0  0.00000000000E+00  0.35527136788E-14  0.00000000000E+00  0.91188000000E+02  0.91188000000E+02 0.  0.
    9900012    2    3    3    0    0 -0.32565531101E+02  0.10196578484E+02  0.13830985749E+02  0.54367079378E+02  0.39999989058E+02 0.  0.
         12    1    3    3    0    0  0.32565531101E+02 -0.10196578484E+02 -0.13830985749E+02  0.36820920622E+02  0.00000000000E+00 0. -1.
         11    1    4    4    0    0 -0.25446057733E+02 -0.73164740670E+01  0.10271613949E+02  0.28399625002E+02  0.51100000000E-03 0. -1.
        -11    1    4    4    0    0 -0.96276965304E+01  0.85606438727E+01  0.85043845884E+01  0.15437024373E+02  0.51100000000E-03 0.  1.
         12    1    4    4    0    0  0.25082231625E+01  0.89524086784E+01 -0.49450127877E+01  0.10530430003E+02  0.00000000000E+00 0. -1.
</event>
<event>
 8    1  0.2390921E-006  0.9118800E+02  0.7816164E-02  0.1184000E+00
        -11   -1    0    0    0    0  0.00000000000E+00  0.00000000000E+00  0.45593999997E+02  0.45594000000E+02  0.51100000000E-03 0.  1.
         11   -1    0    0    0    0 -0.00000000000E+00 -0.00000000000E+00 -0.45593999997E+02  0.45594000000E+02  0.51100000000E-03 0. -1.
         23    2    1    2    0    0 -0.13322676296E-14 -0.71054273576E-14  0.00000000000E+00  0.91188000000E+02  0.91188000000E+02 0.  0.
    9900012    2    3    3    0    0  0.31976846247E+01 -0.32583765990E+02  0.16847938285E+02  0.54367081795E+02  0.39999994567E+02 0.  0.
        -12    1    3    3    0    0 -0.31976846247E+01  0.32583765990E+02 -0.16847938285E+02  0.36820918205E+02  0.00000000000E+00 0.  1.
         11    1    4    4    0    0  0.92086541922E+01 -0.15885767860E+02  0.92001535351E+01  0.20537764188E+02  0.51100000000E-03 0. -1.
        -11    1    4    4    0    0 -0.11911067771E+02  0.30106608517E+01  0.41071668345E+01  0.12954012270E+02  0.51100000000E-03 0.  1.
        -12    1    4    4    0    0  0.59000982037E+01 -0.19708658982E+02  0.35406179157E+01  0.20875305336E+02  0.00000000000E+00 0.  1.
</event>
<event>
 8    1  0.2390921E-006  0.9118800E+02  0.7816164E-02  0.1184000E+00
        -11   -1    0    0    0    0  0.00000000000E+00  0.00000000000E+00  0.45593999997E+02  0.45594000000E+02  0.51100000000E-03 0. -1.
         11   -1    0    0    0    0 -0.00000000000E+00 -0.00000000000E+00 -0.45593999997E+02  0.45594000000E+02  0.51100000000E-03 0.  1.
         23    2    1    2    0    0  0.00000000000E+00  0.35527136788E-14 -0.35527136788E-14  0.91188000000E+02  0.91188000000E+02 0.  0.
    9900012    2    3    3    0    0  0.22918732098E+02  0.19785635074E+02 -0.20953281506E+02  0.54367086891E+02  0.40000006186E+02 0.  0.
         12    1    3    3    0    0 -0.22918732098E+02 -0.19785635074E+02  0.20953281506E+02  0.36820913109E+02  0.00000000000E+00 0. -1.
         11    1    4    4    0    0  0.22446613794E+02  0.25201937710E+01 -0.11177407882E+02  0.25201910537E+02  0.51100000000E-03 0. -1.
        -11    1    4    4    0    0  0.91695628419E+01  0.24347556037E+01 -0.69055043216E+01  0.11734347351E+02  0.51100000000E-03 0.  1.
        -12    1    4    4    0    0 -0.86974445378E+01  0.14830685700E+02 -0.28703693025E+01  0.17430829003E+02  0.00000000000E+00 0.  1.
</event>
<event>
 8    1  0.2390921E-006  0.9118800E+02  0.7816164E-02  0.1184000E+00
        -11   -1    0    0    0    0  0.00000000000E+00  0.00000000000E+00  0.45593999997E+02  0.45594000000E+02  0.51100000000E-03 0. -1.
         11   -1    0    0    0    0 -0.00000000000E+00 -0.00000000000E+00 -0.45593999997E+02  0.45594000000E+02  0.51100000000E-03 0.  1.
         23    2    1    2    0    0 -0.17763568394E-14  0.00000000000E+00  0.00000000000E+00  0.91188000000E+02  0.91188000000E+02 0.  0.
    9900012    2    3    3    0    0  0.14655960752E+02  0.21122987657E+02  0.26359086018E+02  0.54367092776E+02  0.40000019601E+02 0.  0.
        -12    1    3    3    0    0 -0.14655960752E+02 -0.21122987657E+02 -0.26359086018E+02  0.36820907224E+02  0.00000000000E+00 0.  1.
         11    1    4    4    0    0  0.11514500386E+02  0.95062419594E+01 -0.58957909574E+01  0.16053432860E+02  0.51100000000E-03 0. -1.
        -11    1    4    4    0    0  0.81528843517E+01  0.65157901456E+01  0.83612535634E+01  0.13372943053E+02  0.51100000000E-03 0.  1.
        -12    1    4    4    0    0 -0.50114239850E+01  0.51009555519E+01  0.23893623412E+02  0.24940716863E+02  0.00000000000E+00 0.  1.
</event>
<event>
 8    1  0.2390921E-006  0.9118800E+02  0.7816164E-02  0.1184000E+00
        -11   -1    0    0    0    0  0.00000000000E+00  0.00000000000E+00  0.45593999997E+02  0.45594000000E+02  0.51100000000E-03 0.  1.
         11   -1    0    0    0    0 -0.00000000000E+00 -0.00000000000E+00 -0.45593999997E+02  0.45594000000E+02  0.51100000000E-03 0. -1.
         23    2    1    2    0    0  0.00000000000E+00 -0.71054273576E-14 -0.44408920985E-15  0.91188000000E+02  0.91188000000E+02 0.  0.
    9900012    2    3    3    0    0  0.65740022522E+01 -0.36126440142E+02  0.27281978085E+01  0.54367078689E+02  0.39999987486E+02 0.  0.
        -12    1    3    3    0    0 -0.65740022522E+01  0.36126440142E+02 -0.27281978085E+01  0.36820921311E+02  0.00000000000E+00 0.  1.
         11    1    4    4    0    0  0.13743775600E+02 -0.22160777166E+02  0.14768810083E+02  0.29968469495E+02  0.51100000000E-03 0. -1.
        -11    1    4    4    0    0  0.51765377466E+00 -0.91087312575E+01  0.22953953593E+00  0.91263157523E+01  0.51100000000E-03 0.  1.
        -12    1    4    4    0    0 -0.76874271227E+01 -0.48569317188E+01 -0.12270151811E+02  0.15272293441E+02  0.00000000000E+00 0.  1.
</event>
<event>
 8    1  0.2390921E-006  0.9118800E+02  0.7816164E-02  0.1184000E+00
        -11   -1    0    0    0    0  0.00000000000E+00  0.00000000000E+00  0.45593999997E+02  0.45594000000E+02  0.51100000000E-03 0. -1.
         11   -1    0    0    0    0 -0.00000000000E+00 -0.00000000000E+00 -0.45593999997E+02  0.45594000000E+02  0.51100000000E-03 0.  1.
         23    2    1    2    0    0  0.17763568394E-14  0.35527136788E-14  0.00000000000E+00  0.91188000000E+02  0.91188000000E+02 0.  0.
    9900012    2    3    3    0    0 -0.14636758242E+02 -0.30469324435E+02  0.14600236941E+02  0.54367063807E+02  0.39999953561E+02 0.  0.
        -12    1    3    3    0    0  0.14636758242E+02  0.30469324435E+02 -0.14600236941E+02  0.36820936193E+02  0.00000000000E+00 0.  1.
         11    1    4    4    0    0  0.80273882595E+01 -0.18300415058E+02  0.13437329002E+02  0.24081236773E+02  0.51100000000E-03 0. -1.
        -11    1    4    4    0    0 -0.21201294934E+01  0.27326471027E+01 -0.29863170646E+01  0.45695075368E+01  0.51100000000E-03 0.  1.
        -12    1    4    4    0    0 -0.20544017008E+02 -0.14901556480E+02  0.41492250038E+01  0.25716319497E+02  0.00000000000E+00 0.  1.
</event>
<event>
 8    1  0.2390921E-006  0.9118800E+02  0.7816164E-02  0.1184000E+00
        -11   -1    0    0    0    0  0.00000000000E+00  0.00000000000E+00  0.45593999997E+02  0.45594000000E+02  0.51100000000E-03 0.  1.
         11   -1    0    0    0    0 -0.00000000000E+00 -0.00000000000E+00 -0.45593999997E+02  0.45594000000E+02  0.51100000000E-03 0. -1.
         23    2    1    2    0    0  0.71054273576E-14  0.00000000000E+00  0.00000000000E+00  0.91188000000E+02  0.91188000000E+02 0.  0.
    9900012    2    3    3    0    0  0.21322698815E+02 -0.12380938878E+02  0.27346565635E+02  0.54367084962E+02  0.40000001787E+02 0.  0.
         12    1    3    3    0    0 -0.21322698815E+02  0.12380938878E+02 -0.27346565635E+02  0.36820915038E+02  0.00000000000E+00 0. -1.
         11    1    4    4    0    0  0.43548429129E+01  0.61015685825E+01 -0.25918759755E+01  0.79316843921E+01  0.51100000000E-03 0. -1.
        -11    1    4    4    0    0  0.17509288539E+02 -0.55034126700E+01  0.27737237323E+02  0.33259841712E+02  0.51100000000E-03 0.  1.
         12    1    4    4    0    0 -0.54143263710E+00 -0.12979094791E+02  0.22012042874E+01  0.13175558857E+02  0.00000000000E+00 0. -1.
</event>
<event>
 8    1  0.2390921E-006  0.9118800E+02  0.7816164E-02  0.1184000E+00
        -11   -1    0    0    0    0  0.00000000000E+00  0.00000000000E+00  0.45593999997E+02  0.45594000000E+02  0.51100000000E-03 0.  1.
         11   -1    0    0    0    0 -0.00000000000E+00 -0.00000000000E+00 -0.45593999997E+02  0.45594000000E+02  0.51100000000E-03 0. -1.
         23    2    1    2    0    0 -0.88817841970E-15  0.66613381478E-15  0.00000000000E+00  0.91188000000E+02  0.91188000000E+02 0.  0.
    9900012    2    3    3    0    0 -0.68427630159E+01 -0.15510585204E+01 -0.36146199188E+02  0.54367124074E+02  0.40000090952E+02 0.  0.
        -12    1    3    3    0    0  0.68427630159E+01  0.15510585204E+01  0.36146199188E+02  0.36820875926E+02  0.00000000000E+00 0.  1.
         11    1    4    4    0    0 -0.87324358151E+01  0.53941384387E+01 -0.17510695658E+02  0.20297207380E+02  0.51100000000E-03 0. -1.
        -11    1    4    4    0    0 -0.61167619161E+01  0.54298531810E+01 -0.17463722865E+02  0.19284182598E+02  0.51100000000E-03 0.  1.
        -12    1    4    4    0    0  0.80064347153E+01 -0.12375050140E+02 -0.11717806644E+01  0.14785734096E+02  0.00000000000E+00 0.  1.
</event>
<event>
 8    1  0.2390921E-006  0.9118800E+02  0.7816164E-02  0.1184000E+00
        -11   -1    0    0    0    0  0.00000000000E+00  0.00000000000E+00  0.45593999997E+02  0.45594000000E+02  0.51100000000E-03 0.  1.
         11   -1    0    0    0    0 -0.00000000000E+00 -0.00000000000E+00 -0.45593999997E+02  0.45594000000E+02  0.51100000000E-03 0. -1.
         23    2    1    2    0    0 -0.35527136788E-14  0.88817841970E-15  0.35527136788E-14  0.91188000000E+02  0.91188000000E+02 0.  0.
    9900012    2    3    3    0    0 -0.31915837582E+02  0.34763310807E+01  0.18029915170E+02  0.54367035763E+02  0.39999889628E+02 0.  0.
         12    1    3    3    0    0  0.31915837582E+02 -0.34763310807E+01 -0.18029915170E+02  0.36820964237E+02  0.00000000000E+00 0. -1.
         11    1    4    4    0    0 -0.91814818769E+00 -0.41077722043E+01  0.69710109932E+01  0.81432047196E+01  0.51100000000E-03 0. -1.
        -11    1    4    4    0    0 -0.31441198791E+02  0.89755653687E+01  0.19223547725E+02  0.37929599820E+02  0.51100000000E-03 0.  1.
        -12    1    4    4    0    0  0.44350939716E+00 -0.13914620838E+01 -0.81646435481E+01  0.82942312232E+01  0.00000000000E+00 0.  1.
</event>
<event>
 8    1  0.2390921E-006  0.9118800E+02  0.7816164E-02  0.1184000E+00
        -11   -1    0    0    0    0  0.00000000000E+00  0.00000000000E+00  0.45593999997E+02  0.45594000000E+02  0.51100000000E-03 0.  1.
         11   -1    0    0    0    0 -0.00000000000E+00 -0.00000000000E+00 -0.45593999997E+02  0.45594000000E+02  0.51100000000E-03 0. -1.
         23    2    1    2    0    0 -0.88817841970E-15  0.00000000000E+00  0.00000000000E+00  0.91188000000E+02  0.91188000000E+02 0.  0.
    9900012    2    3    3    0    0  0.40963371842E+01 -0.19493094044E+02 -0.30968041500E+02  0.54367078120E+02  0.39999986190E+02 0.  0.
        -12    1    3    3    0    0 -0.40963371842E+01  0.19493094044E+02  0.30968041500E+02  0.36820921880E+02  0.00000000000E+00 0.  1.
         11    1    4    4    0    0  0.13195967204E+02 -0.19527652877E+01 -0.23465754147E+02  0.26992377825E+02  0.51100000000E-03 0. -1.
        -11    1    4    4    0    0  0.34971660616E+00 -0.10869340723E+02  0.34865309093E+01  0.11420191220E+02  0.51100000000E-03 0.  1.
        -12    1    4    4    0    0 -0.94493466257E+01 -0.66709880334E+01 -0.10988818262E+02  0.15954509074E+02  0.00000000000E+00 0.  1.
</event>
<event>
 8    1  0.2390921E-006  0.9118800E+02  0.7816164E-02  0.1184000E+00
        -11   -1    0    0    0    0  0.00000000000E+00  0.00000000000E+00  0.45593999997E+02  0.45594000000E+02  0.51100000000E-03 0. -1.
         11   -1    0    0    0    0 -0.00000000000E+00 -0.00000000000E+00 -0.45593999997E+02  0.45594000000E+02  0.51100000000E-03 0.  1.
         23    2    1    2    0    0 -0.71054273576E-14 -0.17763568394E-14  0.00000000000E+00  0.91188000000E+02  0.91188000000E+02 0.  0.
    9900012    2    3    3    0    0  0.35029154949E+02  0.11126847860E+02  0.22203674564E+01  0.54367102789E+02  0.40000042429E+02 0.  0.
         12    1    3    3    0    0 -0.35029154949E+02 -0.11126847860E+02 -0.22203674564E+01  0.36820897211E+02  0.00000000000E+00 0. -1.
         11    1    4    4    0    0 -0.61176049380E-01  0.54945309074E+01  0.71895057856E+01  0.90489008230E+01  0.51100000000E-03 0. -1.
        -11    1    4    4    0    0  0.37531502515E+01  0.12124714174E+02 -0.39746322224E+01  0.13300095194E+02  0.51100000000E-03 0.  1.
        -12    1    4    4    0    0  0.31337180747E+02 -0.64923972217E+01 -0.99450610680E+00  0.32018106772E+02  0.00000000000E+00 0.  1.
</event>
<event>
 8    1  0.2390921E-006  0.9118800E+02  0.7816164E-02  0.1184000E+00
        -11   -1    0    0    0    0  0.00000000000E+00  0.00000000000E+00  0.45593999997E+02  0.45594000000E+02  0.51100000000E-03 0. -1.
         11   -1    0    0    0    0 -0.00000000000E+00 -0.00000000000E+00 -0.45593999997E+02  0.45594000000E+02  0.51100000000E-03 0.  1.
         23    2    1    2    0    0 -0.35527136788E-14 -0.35527136788E-14  0.35527136788E-14  0.91188000000E+02  0.91188000000E+02 0.  0.
    9900012    2    3    3    0    0 -0.21692977098E+02 -0.24619370833E+02  0.16705625444E+02  0.54367128242E+02  0.40000100452E+02 0.  0.
        -12    1    3    3    0    0  0.21692977098E+02  0.24619370833E+02 -0.16705625444E+02  0.36820871758E+02  0.00000000000E+00 0.  1.
         11    1    4    4    0    0 -0.63266787430E+01 -0.52681782784E+00  0.22378623914E+01  0.67314507564E+01  0.51100000000E-03 0. -1.
        -11    1    4    4    0    0 -0.11652176125E+02 -0.28733234591E+02  0.22016542784E+02  0.38027623314E+02  0.51100000000E-03 0.  1.
        -12    1    4    4    0    0 -0.37141222300E+01  0.46406815859E+01 -0.75487797314E+01  0.96080541711E+01  0.00000000000E+00 0.  1.
</event>
<event>
 8    1  0.2390921E-006  0.9118800E+02  0.7816164E-02  0.1184000E+00
        -11   -1    0    0    0    0  0.00000000000E+00  0.00000000000E+00  0.45593999997E+02  0.45594000000E+02  0.51100000000E-03 0. -1.
         11   -1    0    0    0    0 -0.00000000000E+00 -0.00000000000E+00 -0.45593999997E+02  0.45594000000E+02  0.51100000000E-03 0.  1.
         23    2    1    2    0    0  0.35527136788E-14  0.00000000000E+00  0.00000000000E+00  0.91188000000E+02  0.91188000000E+02 0.  0.
    9900012    2    3    3    0    0 -0.12574356265E+02 -0.87896322898E+01 -0.33472515058E+02  0.54367063896E+02  0.39999953765E+02 0.  0.
         12    1    3    3    0    0  0.12574356265E+02  0.87896322898E+01  0.33472515058E+02  0.36820936104E+02  0.00000000000E+00 0. -1.
         11    1    4    4    0    0  0.33480884048E+01 -0.93557109382E+01 -0.62876059281E+01  0.11758954532E+02  0.51100000000E-03 0. -1.
        -11    1    4    4    0    0 -0.22010212110E+01 -0.92909709143E+01  0.11515324101E+01  0.96173105417E+01  0.51100000000E-03 0.  1.
         12    1    4    4    0    0 -0.13721423459E+02  0.98570495627E+01 -0.28336441540E+02  0.32990798822E+02  0.00000000000E+00 0. -1.
</event>
<event>
 8    1  0.2390921E-006  0.9118800E+02  0.7816164E-02  0.1184000E+00
        -11   -1    0    0    0    0  0.00000000000E+00  0.00000000000E+00  0.45593999997E+02  0.45594000000E+02  0.51100000000E-03 0. -1.
         11   -1    0    0    0    0 -0.00000000000E+00 -0.00000000000E+00 -0.45593999997E+02  0.45594000000E+02  0.51100000000E-03 0.  1.
         23    2    1    2    0    0 -0.35527136788E-14  0.00000000000E+00 -0.35527136788E-14  0.91188000000E+02  0.91188000000E+02 0.  0.
    9900012    2    3    3    0    0 -0.21956199324E+02 -0.22277187099E+02 -0.19427626846E+02  0.54367076075E+02  0.39999981529E+02 0.  0.
         12    1    3    3    0    0  0.21956199324E+02  0.22277187099E+02  0.19427626846E+02  0.36820923925E+02  0.00000000000E+00 0. -1.
         11    1    4    4    0    0 -0.15662866534E+01  0.23019453670E+01 -0.13730935508E+01  0.31044472155E+01  0.51100000000E-03 0. -1.
        -11    1    4    4    0    0 -0.35639690572E+00  0.42082515462E+00 -0.19197781676E+02  0.19205700563E+02  0.51100000000E-03 0.  1.
        -12    1    4    4    0    0 -0.20033515765E+02 -0.24999957621E+02  0.11432483814E+01  0.32056928297E+02  0.00000000000E+00 0.  1.
</event>
<event>
 8    1  0.2390921E-006  0.9118800E+02  0.7816164E-02  0.1184000E+00
        -11   -1    0    0    0    0  0.00000000000E+00  0.00000000000E+00  0.45593999997E+02  0.45594000000E+02  0.51100000000E-03 0. -1.
         11   -1    0    0    0    0 -0.00000000000E+00 -0.00000000000E+00 -0.45593999997E+02  0.45594000000E+02  0.51100000000E-03 0.  1.
         23    2    1    2    0    0  0.00000000000E+00  0.00000000000E+00  0.00000000000E+00  0.91188000000E+02  0.91188000000E+02 0.  0.
    9900012    2    3    3    0    0  0.28446601594E+02  0.74837975891E+01  0.22148653806E+02  0.54367092434E+02  0.40000018822E+02 0.  0.
         12    1    3    3    0    0 -0.28446601594E+02 -0.74837975891E+01 -0.22148653806E+02  0.36820907566E+02  0.00000000000E+00 0. -1.
         11    1    4    4    0    0  0.18535216253E+02  0.39621211447E+00 -0.16059951937E+01  0.18608880848E+02  0.51100000000E-03 0. -1.
        -11    1    4    4    0    0  0.11693441146E+02 -0.31985563129E+01  0.29430893898E+01  0.12475139427E+02  0.51100000000E-03 0.  1.
         12    1    4    4    0    0 -0.17820558053E+01  0.10286141787E+02  0.20811559609E+02  0.23283072159E+02  0.00000000000E+00 0. -1.
</event>
<event>
 8    1  0.2390921E-006  0.9118800E+02  0.7816164E-02  0.1184000E+00
        -11   -1    0    0    0    0  0.00000000000E+00  0.00000000000E+00  0.45593999997E+02  0.45594000000E+02  0.51100000000E-03 0.  1.
         11   -1    0    0    0    0 -0.00000000000E+00 -0.00000000000E+00 -0.45593999997E+02  0.45594000000E+02  0.51100000000E-03 0. -1.
         23    2    1    2    0    0  0.00000000000E+00  0.35527136788E-14  0.00000000000E+00  0.91188000000E+02  0.91188000000E+02 0.  0.
    9900012    2    3    3    0    0  0.18047842344E+02  0.21626423910E+02  0.23713909191E+02  0.54367132092E+02  0.40000109230E+02 0.  0.
         12    1    3    3    0    0 -0.18047842344E+02 -0.21626423910E+02 -0.23713909191E+02  0.36820867908E+02  0.00000000000E+00 0. -1.
         11    1    4    4    0    0  0.10898540754E+02  0.21317663384E+02  0.91228929288E+01  0.25621243889E+02  0.51100000000E-03 0. -1.
        -11    1    4    4    0    0  0.20942538750E+01 -0.10104360984E+02  0.25780552437E+00  0.10322328910E+02  0.51100000000E-03 0.  1.
        -12    1    4    4    0    0  0.50550477149E+01  0.10413121509E+02  0.14333210738E+02  0.18423559293E+02  0.00000000000E+00 0.  1.
</event>
<event>
 8    1  0.2390921E-006  0.9118800E+02  0.7816164E-02  0.1184000E+00
        -11   -1    0    0    0    0  0.00000000000E+00  0.00000000000E+00  0.45593999997E+02  0.45594000000E+02  0.51100000000E-03 0. -1.
         11   -1    0    0    0    0 -0.00000000000E+00 -0.00000000000E+00 -0.45593999997E+02  0.45594000000E+02  0.51100000000E-03 0.  1.
         23    2    1    2    0    0  0.00000000000E+00  0.00000000000E+00  0.00000000000E+00  0.91188000000E+02  0.91188000000E+02 0.  0.
    9900012    2    3    3    0    0 -0.30139623591E+01  0.21883860015E+02  0.29458316985E+02  0.54367085591E+02  0.40000003223E+02 0.  0.
        -12    1    3    3    0    0  0.30139623591E+01 -0.21883860015E+02 -0.29458316985E+02  0.36820914409E+02  0.00000000000E+00 0.  1.
         11    1    4    4    0    0 -0.91630678283E-01  0.30802500560E+01  0.25343730769E+02  0.25530394163E+02  0.51100000000E-03 0. -1.
        -11    1    4    4    0    0 -0.11658705347E+02  0.63483941693E+01  0.10426864860E+01  0.13315957130E+02  0.51100000000E-03 0.  1.
        -12    1    4    4    0    0  0.87363736666E+01  0.12455215790E+02  0.30718997309E+01  0.15520734299E+02  0.00000000000E+00 0.  1.
</event>
<event>
 8    1  0.2390921E-006  0.9118800E+02  0.7816164E-02  0.1184000E+00
        -11   -1    0    0    0    0  0.00000000000E+00  0.00000000000E+00  0.45593999997E+02  0.45594000000E+02  0.51100000000E-03 0. -1.
         11   -1    0    0    0    0 -0.00000000000E+00 -0.00000000000E+00 -0.45593999997E+02  0.45594000000E+02  0.51100000000E-03 0.  1.
         23    2    1    2    0    0  0.35527136788E-14 -0.17763568394E-14  0.00000000000E+00  0.91188000000E+02  0.91188000000E+02 0.  0.
    9900012    2    3    3    0    0 -0.25263858046E+02  0.14942141636E+02 -0.22231741825E+02  0.54367075723E+02  0.39999980725E+02 0.  0.
         12    1    3    3    0    0  0.25263858046E+02 -0.14942141636E+02  0.22231741825E+02  0.36820924277E+02  0.00000000000E+00 0. -1.
         11    1    4    4    0    0 -0.19123281592E+01  0.33831980109E+01  0.27030290137E+01  0.47338561321E+01  0.51100000000E-03 0. -1.
        -11    1    4    4    0    0 -0.19714015256E+02 -0.85851366729E+01 -0.75882352270E+01  0.22801935956E+02  0.51100000000E-03 0.  1.
         12    1    4    4    0    0 -0.36375146305E+01  0.20144080298E+02 -0.17346535612E+02  0.26831283634E+02  0.00000000000E+00 0. -1.
</event>
<event>
 8    1  0.2390921E-006  0.9118800E+02  0.7816164E-02  0.1184000E+00
        -11   -1    0    0    0    0  0.00000000000E+00  0.00000000000E+00  0.45593999997E+02  0.45594000000E+02  0.51100000000E-03 0. -1.
         11   -1    0    0    0    0 -0.00000000000E+00 -0.00000000000E+00 -0.45593999997E+02  0.45594000000E+02  0.51100000000E-03 0.  1.
         23    2    1    2    0    0 -0.35527136788E-14  0.00000000000E+00 -0.35527136788E-14  0.91188000000E+02  0.91188000000E+02 0.  0.
    9900012    2    3    3    0    0  0.18342590660E+02 -0.30186397408E+02  0.10397604799E+02  0.54367090096E+02  0.40000013491E+02 0.  0.
        -12    1    3    3    0    0 -0.18342590660E+02  0.30186397408E+02 -0.10397604799E+02  0.36820909904E+02  0.00000000000E+00 0.  1.
         11    1    4    4    0    0 -0.81264039460E+00 -0.13363370141E+02 -0.49963677327E+01  0.14289987289E+02  0.51100000000E-03 0. -1.
        -11    1    4    4    0    0  0.68882679535E+01 -0.49577683156E+01 -0.76334933569E+01  0.11414811569E+02  0.51100000000E-03 0.  1.
         12    1    4    4    0    0  0.12266963101E+02 -0.11865258951E+02  0.23027465888E+02  0.28662291237E+02  0.00000000000E+00 0. -1.
</event>
<event>
 8    1  0.2390921E-006  0.9118800E+02  0.7816164E-02  0.1184000E+00
        -11   -1    0    0    0    0  0.00000000000E+00  0.00000000000E+00  0.45593999997E+02  0.45594000000E+02  0.51100000000E-03 0. -1.
         11   -1    0    0    0    0 -0.00000000000E+00 -0.00000000000E+00 -0.45593999997E+02  0.45594000000E+02  0.51100000000E-03 0.  1.
         23    2    1    2    0    0 -0.17763568394E-14  0.00000000000E+00 -0.88817841970E-15  0.91188000000E+02  0.91188000000E+02 0.  0.
    9900012    2    3    3    0    0  0.15036568638E+02  0.32760371856E+02  0.75126425274E+01  0.54367079882E+02  0.39999990207E+02 0.  0.
        -12    1    3    3    0    0 -0.15036568638E+02 -0.32760371856E+02 -0.75126425274E+01  0.36820920118E+02  0.00000000000E+00 0.  1.
         11    1    4    4    0    0 -0.70234420959E+01  0.11722281526E+02 -0.59751114244E+01  0.14914509038E+02  0.51100000000E-03 0. -1.
        -11    1    4    4    0    0  0.55787248649E+01  0.19764909802E+02  0.78769676919E+01  0.21995918960E+02  0.51100000000E-03 0.  1.
        -12    1    4    4    0    0  0.16481285869E+02  0.12731805286E+01  0.56107862599E+01  0.17456651885E+02  0.00000000000E+00 0.  1.
</event>
<event>
 8    1  0.2390921E-006  0.9118800E+02  0.7816164E-02  0.1184000E+00
        -11   -1    0    0    0    0  0.00000000000E+00  0.00000000000E+00  0.45593999997E+02  0.45594000000E+02  0.51100000000E-03 0.  1.
         11   -1    0    0    0    0 -0.00000000000E+00 -0.00000000000E+00 -0.45593999997E+02  0.45594000000E+02  0.51100000000E-03 0. -1.
         23    2    1    2    0    0  0.00000000000E+00 -0.44408920985E-15 -0.17763568394E-14  0.91188000000E+02  0.91188000000E+02 0.  0.
    9900012    2    3    3    0    0 -0.35638719859E+02 -0.24003309304E+01  0.89386802493E+01  0.54367082761E+02  0.39999996770E+02 0.  0.
         12    1    3    3    0    0  0.35638719859E+02  0.24003309304E+01 -0.89386802493E+01  0.36820917239E+02  0.00000000000E+00 0. -1.
         11    1    4    4    0    0 -0.16263311114E+01 -0.14917064253E+02  0.56514249855E+01  0.16034411852E+02  0.51100000000E-03 0. -1.
        -11    1    4    4    0    0 -0.19320901788E+02  0.10243597956E+02  0.70875829862E+01  0.22988309591E+02  0.51100000000E-03 0.  1.
         12    1    4    4    0    0 -0.14691486959E+02  0.22731353667E+01 -0.38003277224E+01  0.15344361318E+02  0.00000000000E+00 0. -1.
</event>
<event>
 8    1  0.2390921E-006  0.9118800E+02  0.7816164E-02  0.1184000E+00
        -11   -1    0    0    0    0  0.00000000000E+00  0.00000000000E+00  0.45593999997E+02  0.45594000000E+02  0.51100000000E-03 0. -1.
         11   -1    0    0    0    0 -0.00000000000E+00 -0.00000000000E+00 -0.45593999997E+02  0.45594000000E+02  0.51100000000E-03 0.  1.
         23    2    1    2    0    0  0.00000000000E+00  0.00000000000E+00  0.22204460493E-14  0.91188000000E+02  0.91188000000E+02 0.  0.
    9900012    2    3    3    0    0  0.36492204027E+02  0.32065898668E+01 -0.37170539471E+01  0.54367086603E+02  0.40000005530E+02 0.  0.
        -12    1    3    3    0    0 -0.36492204027E+02 -0.32065898668E+01  0.37170539471E+01  0.36820913397E+02  0.00000000000E+00 0.  1.
         11    1    4    4    0    0  0.28843063520E+02  0.58653006931E+01  0.57864401541E+01  0.29996782417E+02  0.51100000000E-03 0. -1.
        -11    1    4    4    0    0 -0.20036375086E+01  0.63518986275E+01 -0.89467934852E+01  0.11153756917E+02  0.51100000000E-03 0.  1.
         12    1    4    4    0    0  0.96527780151E+01 -0.90106094538E+01 -0.55670061595E+00  0.13216547269E+02  0.00000000000E+00 0. -1.
</event>
<event>
 8    1  0.2390921E-006  0.9118800E+02  0.7816164E-02  0.1184000E+00
        -11   -1    0    0    0    0  0.00000000000E+00  0.00000000000E+00  0.45593999997E+02  0.45594000000E+02  0.51100000000E-03 0. -1.
         11   -1    0    0    0    0 -0.00000000000E+00 -0.00000000000E+00 -0.45593999997E+02  0.45594000000E+02  0.51100000000E-03 0.  1.
         23    2    1    2    0    0 -0.37470027081E-15  0.17763568394E-14  0.00000000000E+00  0.91188000000E+02  0.91188000000E+02 0.  0.
    9900012    2    3    3    0    0 -0.90652800224E-01 -0.11253722742E+02  0.35058875667E+02  0.54367092128E+02  0.40000018124E+02 0.  0.
        -12    1    3    3    0    0  0.90652800224E-01  0.11253722742E+02 -0.35058875667E+02  0.36820907872E+02  0.00000000000E+00 0.  1.
         11    1    4    4    0    0 -0.95938158272E+01  0.71972020428E+01  0.38480771652E+01  0.12595583254E+02  0.51100000000E-03 0.  1.
        -11    1    4    4    0    0 -0.28841864532E+01 -0.38416539479E+01  0.17678152902E+02  0.18319222877E+02  0.51100000000E-03 0. -1.
        -12    1    4    4    0    0  0.12387349480E+02 -0.14609270837E+02  0.13532645600E+02  0.23452285997E+02  0.00000000000E+00 0.  1.
</event>
<event>
 8    1  0.2390921E-006  0.9118800E+02  0.7816164E-02  0.1184000E+00
        -11   -1    0    0    0    0  0.00000000000E+00  0.00000000000E+00  0.45593999997E+02  0.45594000000E+02  0.51100000000E-03 0. -1.
         11   -1    0    0    0    0 -0.00000000000E+00 -0.00000000000E+00 -0.45593999997E+02  0.45594000000E+02  0.51100000000E-03 0.  1.
         23    2    1    2    0    0  0.00000000000E+00  0.00000000000E+00  0.00000000000E+00  0.91188000000E+02  0.91188000000E+02 0.  0.
    9900012    2    3    3    0    0  0.21560467071E+02 -0.29503080372E+02  0.45270451628E+01  0.54367087061E+02  0.40000006573E+02 0.  0.
         12    1    3    3    0    0 -0.21560467071E+02  0.29503080372E+02 -0.45270451628E+01  0.36820912939E+02  0.00000000000E+00 0. -1.
         11    1    4    4    0    0  0.11225009858E+01 -0.17986396771E+01  0.45985462187E+01  0.50637674451E+01  0.51100000000E-03 0. -1.
        -11    1    4    4    0    0  0.15839812932E+02  0.45374042532E+01 -0.24062715852E+01  0.16651662208E+02  0.51100000000E-03 0.  1.
        -12    1    4    4    0    0  0.45981531529E+01 -0.32241844948E+02  0.23347705293E+01  0.32651657408E+02  0.00000000000E+00 0.  1.
</event>
<event>
 8    1  0.2390921E-006  0.9118800E+02  0.7816164E-02  0.1184000E+00
        -11   -1    0    0    0    0  0.00000000000E+00  0.00000000000E+00  0.45593999997E+02  0.45594000000E+02  0.51100000000E-03 0.  1.
         11   -1    0    0    0    0 -0.00000000000E+00 -0.00000000000E+00 -0.45593999997E+02  0.45594000000E+02  0.51100000000E-03 0. -1.
         23    2    1    2    0    0  0.00000000000E+00  0.00000000000E+00  0.35527136788E-14  0.91188000000E+02  0.91188000000E+02 0.  0.
    9900012    2    3    3    0    0 -0.15672767138E+02 -0.26406057807E+02  0.20319053769E+02  0.54367089301E+02  0.40000011680E+02 0.  0.
         12    1    3    3    0    0  0.15672767138E+02  0.26406057807E+02 -0.20319053769E+02  0.36820910699E+02  0.00000000000E+00 0. -1.
         11    1    4    4    0    0 -0.17028627519E+02  0.35895681784E+01  0.53557246451E+01  0.18208320670E+02  0.51100000000E-03 0. -1.
        -11    1    4    4    0    0  0.18561332492E+01 -0.98590136949E+01 -0.15001793312E+01  0.10143762614E+02  0.51100000000E-03 0.  1.
         12    1    4    4    0    0 -0.50027286880E+00 -0.20136612290E+02  0.16463508455E+02  0.26015006018E+02  0.00000000000E+00 0. -1.
</event>
<event>
 8    1  0.2390921E-006  0.9118800E+02  0.7816164E-02  0.1184000E+00
        -11   -1    0    0    0    0  0.00000000000E+00  0.00000000000E+00  0.45593999997E+02  0.45594000000E+02  0.51100000000E-03 0. -1.
         11   -1    0    0    0    0 -0.00000000000E+00 -0.00000000000E+00 -0.45593999997E+02  0.45594000000E+02  0.51100000000E-03 0.  1.
         23    2    1    2    0    0  0.00000000000E+00  0.00000000000E+00 -0.35527136788E-14  0.91188000000E+02  0.91188000000E+02 0.  0.
    9900012    2    3    3    0    0 -0.19250405197E+02 -0.27778608757E+02 -0.14613561007E+02  0.54367009111E+02  0.39999828871E+02 0.  0.
         12    1    3    3    0    0  0.19250405197E+02  0.27778608757E+02  0.14613561007E+02  0.36820990889E+02  0.00000000000E+00 0. -1.
         11    1    4    4    0    0 -0.22781733455E+01 -0.93097224268E+00 -0.20682954564E+00  0.24697291007E+01  0.51100000000E-03 0. -1.
        -11    1    4    4    0    0 -0.14186990279E+02 -0.19965596375E+02 -0.27512180849E+02  0.36834981025E+02  0.51100000000E-03 0.  1.
         12    1    4    4    0    0 -0.27852415726E+01 -0.68820401394E+01  0.13105449387E+02  0.15062298986E+02  0.00000000000E+00 0. -1.
</event>
<event>
 8    1  0.2390921E-006  0.9118800E+02  0.7816164E-02  0.1184000E+00
        -11   -1    0    0    0    0  0.00000000000E+00  0.00000000000E+00  0.45593999997E+02  0.45594000000E+02  0.51100000000E-03 0.  1.
         11   -1    0    0    0    0 -0.00000000000E+00 -0.00000000000E+00 -0.45593999997E+02  0.45594000000E+02  0.51100000000E-03 0. -1.
         23    2    1    2    0    0  0.00000000000E+00 -0.44408920985E-15  0.00000000000E+00  0.91188000000E+02  0.91188000000E+02 0.  0.
    9900012    2    3    3    0    0 -0.34252217803E+02 -0.27358130353E+01  0.13231760493E+02  0.54367101272E+02  0.40000038970E+02 0.  0.
         12    1    3    3    0    0  0.34252217803E+02  0.27358130353E+01 -0.13231760493E+02  0.36820898728E+02  0.00000000000E+00 0. -1.
         11    1    4    4    0    0 -0.80166863264E+01  0.55473208596E+01  0.12037188272E+02  0.15489800842E+02  0.51100000000E-03 0.  1.
        -11    1    4    4    0    0 -0.30611779106E+02 -0.39333819004E+01  0.55050147249E+01  0.31350561408E+02  0.51100000000E-03 0. -1.
         12    1    4    4    0    0  0.43762476298E+01 -0.43497519944E+01 -0.43104425034E+01  0.75267390220E+01  0.00000000000E+00 0. -1.
</event>
<event>
 8    1  0.2390921E-006  0.9118800E+02  0.7816164E-02  0.1184000E+00
        -11   -1    0    0    0    0  0.00000000000E+00  0.00000000000E+00  0.45593999997E+02  0.45594000000E+02  0.51100000000E-03 0.  1.
         11   -1    0    0    0    0 -0.00000000000E+00 -0.00000000000E+00 -0.45593999997E+02  0.45594000000E+02  0.51100000000E-03 0. -1.
         23    2    1    2    0    0 -0.17763568394E-14  0.00000000000E+00  0.00000000000E+00  0.91188000000E+02  0.91188000000E+02 0.  0.
    9900012    2    3    3    0    0  0.73576704047E+01 -0.32477624367E+02  0.15711419404E+02  0.54367080701E+02  0.39999992075E+02 0.  0.
         12    1    3    3    0    0 -0.73576704047E+01  0.32477624367E+02 -0.15711419404E+02  0.36820919299E+02  0.00000000000E+00 0. -1.
         11    1    4    4    0    0  0.19470430110E+02 -0.12614228075E+02 -0.53941017129E+00  0.23205761401E+02  0.51100000000E-03 0. -1.
        -11    1    4    4    0    0 -0.62798986241E+00 -0.13389954268E+02  0.82383495731E+01  0.15733901313E+02  0.51100000000E-03 0.  1.
        -12    1    4    4    0    0 -0.11484769843E+02 -0.64734420233E+01  0.80124800025E+01  0.15427417987E+02  0.00000000000E+00 0.  1.
</event>
<event>
 8    1  0.2390921E-006  0.9118800E+02  0.7816164E-02  0.1184000E+00
        -11   -1    0    0    0    0  0.00000000000E+00  0.00000000000E+00  0.45593999997E+02  0.45594000000E+02  0.51100000000E-03 0.  1.
         11   -1    0    0    0    0 -0.00000000000E+00 -0.00000000000E+00 -0.45593999997E+02  0.45594000000E+02  0.51100000000E-03 0. -1.
         23    2    1    2    0    0  0.00000000000E+00  0.44408920985E-15  0.35527136788E-14  0.91188000000E+02  0.91188000000E+02 0.  0.
    9900012    2    3    3    0    0 -0.22849392365E+02  0.34342625277E+01 -0.28668682364E+02  0.54367051628E+02  0.39999925796E+02 0.  0.
        -12    1    3    3    0    0  0.22849392365E+02 -0.34342625277E+01  0.28668682364E+02  0.36820948372E+02  0.00000000000E+00 0.  1.
         11    1    4    4    0    0 -0.75509282600E+01  0.28485671321E+00 -0.35462969184E+02  0.36259065687E+02  0.51100000000E-03 0. -1.
        -11    1    4    4    0    0 -0.94680506046E+01  0.11485659701E+00  0.13325284104E+01  0.95620503300E+01  0.51100000000E-03 0.  1.
         12    1    4    4    0    0 -0.58304135002E+01  0.30345492175E+01  0.54617584096E+01  0.85459356106E+01  0.00000000000E+00 0. -1.
</event>
<event>
 8    1  0.2390921E-006  0.9118800E+02  0.7816164E-02  0.1184000E+00
        -11   -1    0    0    0    0  0.00000000000E+00  0.00000000000E+00  0.45593999997E+02  0.45594000000E+02  0.51100000000E-03 0.  1.
         11   -1    0    0    0    0 -0.00000000000E+00 -0.00000000000E+00 -0.45593999997E+02  0.45594000000E+02  0.51100000000E-03 0. -1.
         23    2    1    2    0    0  0.00000000000E+00  0.00000000000E+00  0.00000000000E+00  0.91188000000E+02  0.91188000000E+02 0.  0.
    9900012    2    3    3    0    0 -0.13177326168E+02  0.26643586201E+02  0.21731580318E+02  0.54367025085E+02  0.39999865286E+02 0.  0.
         12    1    3    3    0    0  0.13177326168E+02 -0.26643586201E+02 -0.21731580318E+02  0.36820974915E+02  0.00000000000E+00 0. -1.
         11    1    4    4    0    0  0.28576463171E-01  0.93885327641E+01 -0.29555384418E+01  0.98427928871E+01  0.51100000000E-03 0. -1.
        -11    1    4    4    0    0 -0.65462439842E+01  0.14086210423E+02 -0.30445865356E+01  0.15828586223E+02  0.51100000000E-03 0.  1.
        -12    1    4    4    0    0 -0.66596586468E+01  0.31688430138E+01  0.27731705296E+02  0.28695645975E+02  0.00000000000E+00 0.  1.
</event>
<event>
 8    1  0.2390921E-006  0.9118800E+02  0.7816164E-02  0.1184000E+00
        -11   -1    0    0    0    0  0.00000000000E+00  0.00000000000E+00  0.45593999997E+02  0.45594000000E+02  0.51100000000E-03 0.  1.
         11   -1    0    0    0    0 -0.00000000000E+00 -0.00000000000E+00 -0.45593999997E+02  0.45594000000E+02  0.51100000000E-03 0. -1.
         23    2    1    2    0    0 -0.88817841970E-15  0.35527136788E-14  0.00000000000E+00  0.91188000000E+02  0.91188000000E+02 0.  0.
    9900012    2    3    3    0    0 -0.74076599985E+01  0.16832265311E+02  0.31899548978E+02  0.54367084650E+02  0.40000001077E+02 0.  0.
         12    1    3    3    0    0  0.74076599985E+01 -0.16832265311E+02 -0.31899548978E+02  0.36820915350E+02  0.00000000000E+00 0. -1.
         11    1    4    4    0    0 -0.53631420778E+00  0.43841823445E+00 -0.25517283609E+01  0.26440804387E+01  0.51100000000E-03 0. -1.
        -11    1    4    4    0    0 -0.11762708436E+02  0.25449366319E+02  0.22480865027E+02  0.35936344394E+02  0.51100000000E-03 0.  1.
         12    1    4    4    0    0  0.48913626450E+01 -0.90555192421E+01  0.11970412312E+02  0.15786659817E+02  0.00000000000E+00 0. -1.
</event>
<event>
 8    1  0.2390921E-006  0.9118800E+02  0.7816164E-02  0.1184000E+00
        -11   -1    0    0    0    0  0.00000000000E+00  0.00000000000E+00  0.45593999997E+02  0.45594000000E+02  0.51100000000E-03 0.  1.
         11   -1    0    0    0    0 -0.00000000000E+00 -0.00000000000E+00 -0.45593999997E+02  0.45594000000E+02  0.51100000000E-03 0. -1.
         23    2    1    2    0    0  0.17763568394E-14  0.17763568394E-14  0.00000000000E+00  0.91188000000E+02  0.91188000000E+02 0.  0.
    9900012    2    3    3    0    0  0.12415226001E+02 -0.14026225993E+02 -0.31700278266E+02  0.54367075318E+02  0.39999979802E+02 0.  0.
        -12    1    3    3    0    0 -0.12415226001E+02  0.14026225993E+02  0.31700278266E+02  0.36820924682E+02  0.00000000000E+00 0.  1.
         11    1    4    4    0    0 -0.94134921700E-01 -0.79424267743E+01 -0.19135696514E+01  0.81702358302E+01  0.51100000000E-03 0. -1.
        -11    1    4    4    0    0 -0.76882307425E+01 -0.11907405274E+02 -0.13860883933E+02  0.19824714272E+02  0.51100000000E-03 0.  1.
        -12    1    4    4    0    0  0.20197591666E+02  0.58236060551E+01 -0.15925824682E+02  0.26372125215E+02  0.00000000000E+00 0.  1.
</event>
<event>
 8    1  0.2390921E-006  0.9118800E+02  0.7816164E-02  0.1184000E+00
        -11   -1    0    0    0    0  0.00000000000E+00  0.00000000000E+00  0.45593999997E+02  0.45594000000E+02  0.51100000000E-03 0.  1.
         11   -1    0    0    0    0 -0.00000000000E+00 -0.00000000000E+00 -0.45593999997E+02  0.45594000000E+02  0.51100000000E-03 0. -1.
         23    2    1    2    0    0  0.88817841970E-15 -0.17763568394E-14  0.00000000000E+00  0.91188000000E+02  0.91188000000E+02 0.  0.
    9900012    2    3    3    0    0 -0.41757201216E+01  0.14212944247E+02 -0.33709644972E+02  0.54367019746E+02  0.39999853116E+02 0.  0.
        -12    1    3    3    0    0  0.41757201216E+01 -0.14212944247E+02  0.33709644972E+02  0.36820980254E+02  0.00000000000E+00 0.  1.
         11    1    4    4    0    0 -0.72935160699E+01 -0.70470544579E+01 -0.16917429312E+02  0.19724496647E+02  0.51100000000E-03 0. -1.
        -11    1    4    4    0    0 -0.62789137284E+01 -0.65355800051E+00 -0.49396840592E+01  0.80157578890E+01  0.51100000000E-03 0.  1.
         12    1    4    4    0    0  0.93967096767E+01  0.21913556705E+02 -0.11852531601E+02  0.26626765210E+02  0.00000000000E+00 0. -1.
</event>
<event>
 8    1  0.2390921E-006  0.9118800E+02  0.7816164E-02  0.1184000E+00
        -11   -1    0    0    0    0  0.00000000000E+00  0.00000000000E+00  0.45593999997E+02  0.45594000000E+02  0.51100000000E-03 0.  1.
         11   -1    0    0    0    0 -0.00000000000E+00 -0.00000000000E+00 -0.45593999997E+02  0.45594000000E+02  0.51100000000E-03 0. -1.
         23    2    1    2    0    0  0.00000000000E+00  0.00000000000E+00  0.00000000000E+00  0.91188000000E+02  0.91188000000E+02 0.  0.
    9900012    2    3    3    0    0 -0.22854094965E+02 -0.85874374022E+01 -0.27563135846E+02  0.54367079378E+02  0.39999989057E+02 0.  0.
        -12    1    3    3    0    0  0.22854094965E+02  0.85874374022E+01  0.27563135846E+02  0.36820920622E+02  0.00000000000E+00 0.  1.
         11    1    4    4    0    0  0.92885387820E+01 -0.39943793192E+01 -0.22606680449E+01  0.10360629282E+02  0.51100000000E-03 0. -1.
        -11    1    4    4    0    0 -0.27316570990E+02 -0.33857222289E+01 -0.12422159386E+02  0.30198811396E+02  0.51100000000E-03 0.  1.
         12    1    4    4    0    0 -0.48260627576E+01 -0.12073358540E+01 -0.12880308415E+02  0.13807638700E+02  0.00000000000E+00 0. -1.
</event>
<event>
 8    1  0.2390921E-006  0.9118800E+02  0.7816164E-02  0.1184000E+00
        -11   -1    0    0    0    0  0.00000000000E+00  0.00000000000E+00  0.45593999997E+02  0.45594000000E+02  0.51100000000E-03 0.  1.
         11   -1    0    0    0    0 -0.00000000000E+00 -0.00000000000E+00 -0.45593999997E+02  0.45594000000E+02  0.51100000000E-03 0. -1.
         23    2    1    2    0    0  0.35527136788E-14  0.00000000000E+00  0.00000000000E+00  0.91188000000E+02  0.91188000000E+02 0.  0.
    9900012    2    3    3    0    0  0.21636384636E+02 -0.71019060835E+01 -0.28934577309E+02  0.54367082382E+02  0.39999995907E+02 0.  0.
        -12    1    3    3    0    0 -0.21636384636E+02  0.71019060835E+01  0.28934577309E+02  0.36820917618E+02  0.00000000000E+00 0.  1.
         11    1    4    4    0    0 -0.27166966862E+01 -0.22247889457E+01 -0.64040146963E+01  0.73035286834E+01  0.51100000000E-03 0. -1.
        -11    1    4    4    0    0 -0.22928406208E+01 -0.23878685723E+01 -0.19899059146E+02  0.20172545442E+02  0.51100000000E-03 0.  1.
        -12    1    4    4    0    0  0.26645921943E+02 -0.24892485656E+01 -0.26315034670E+01  0.26891008257E+02  0.00000000000E+00 0.  1.
</event>
<event>
 8    1  0.2390921E-006  0.9118800E+02  0.7816164E-02  0.1184000E+00
        -11   -1    0    0    0    0  0.00000000000E+00  0.00000000000E+00  0.45593999997E+02  0.45594000000E+02  0.51100000000E-03 0.  1.
         11   -1    0    0    0    0 -0.00000000000E+00 -0.00000000000E+00 -0.45593999997E+02  0.45594000000E+02  0.51100000000E-03 0. -1.
         23    2    1    2    0    0  0.17763568394E-14  0.00000000000E+00  0.35527136788E-14  0.91188000000E+02  0.91188000000E+02 0.  0.
    9900012    2    3    3    0    0 -0.14517778012E+02  0.24397442693E+02 -0.23447377517E+02  0.54367073874E+02  0.39999976510E+02 0.  0.
        -12    1    3    3    0    0  0.14517778012E+02 -0.24397442693E+02  0.23447377517E+02  0.36820926126E+02  0.00000000000E+00 0.  1.
         11    1    4    4    0    0 -0.11229875346E+02  0.15540550158E+02 -0.82585526061E+01  0.20876362014E+02  0.51100000000E-03 0. -1.
        -11    1    4    4    0    0 -0.53506898324E+01  0.20578427197E-01  0.74090307699E+01  0.91391488862E+01  0.51100000000E-03 0.  1.
        -12    1    4    4    0    0  0.20627871668E+01  0.88363141075E+01 -0.22597855681E+02  0.24351562974E+02  0.00000000000E+00 0.  1.
</event>
<event>
 8    1  0.2390921E-006  0.9118800E+02  0.7816164E-02  0.1184000E+00
        -11   -1    0    0    0    0  0.00000000000E+00  0.00000000000E+00  0.45593999997E+02  0.45594000000E+02  0.51100000000E-03 0. -1.
         11   -1    0    0    0    0 -0.00000000000E+00 -0.00000000000E+00 -0.45593999997E+02  0.45594000000E+02  0.51100000000E-03 0.  1.
         23    2    1    2    0    0  0.71054273576E-14  0.00000000000E+00  0.17763568394E-14  0.91188000000E+02  0.91188000000E+02 0.  0.
    9900012    2    3    3    0    0  0.33794825249E+02 -0.10081203651E+02  0.10585802153E+02  0.54367080839E+02  0.39999992388E+02 0.  0.
        -12    1    3    3    0    0 -0.33794825249E+02  0.10081203651E+02 -0.10585802153E+02  0.36820919161E+02  0.00000000000E+00 0.  1.
         11    1    4    4    0    0  0.86966894462E+01 -0.17469548033E+02  0.10318926156E+02  0.22074821700E+02  0.51100000000E-03 0. -1.
        -11    1    4    4    0    0  0.23993639103E+02  0.43351621178E+01 -0.61103145830E+01  0.25136115304E+02  0.51100000000E-03 0.  1.
         12    1    4    4    0    0  0.11044966990E+01  0.30531822639E+01  0.63771905803E+01  0.71561438353E+01  0.00000000000E+00 0. -1.
</event>
<event>
 8    1  0.2390921E-006  0.9118800E+02  0.7816164E-02  0.1184000E+00
        -11   -1    0    0    0    0  0.00000000000E+00  0.00000000000E+00  0.45593999997E+02  0.45594000000E+02  0.51100000000E-03 0. -1.
         11   -1    0    0    0    0 -0.00000000000E+00 -0.00000000000E+00 -0.45593999997E+02  0.45594000000E+02  0.51100000000E-03 0.  1.
         23    2    1    2    0    0  0.00000000000E+00 -0.17763568394E-14  0.00000000000E+00  0.91188000000E+02  0.91188000000E+02 0.  0.
    9900012    2    3    3    0    0 -0.17389377280E+02  0.26447014855E+01 -0.32348036630E+02  0.54367077117E+02  0.39999983904E+02 0.  0.
         12    1    3    3    0    0  0.17389377280E+02 -0.26447014855E+01  0.32348036630E+02  0.36820922883E+02  0.00000000000E+00 0. -1.
         11    1    4    4    0    0 -0.15797824865E+02 -0.14981798473E+02 -0.11440820426E+02  0.24595079350E+02  0.51100000000E-03 0. -1.
        -11    1    4    4    0    0 -0.27433696701E+00  0.11712074075E+02 -0.49776201874E+01  0.12728890089E+02  0.51100000000E-03 0.  1.
         12    1    4    4    0    0 -0.13172154475E+01  0.59144258839E+01 -0.15929596017E+02  0.17043107679E+02  0.00000000000E+00 0. -1.
</event>
<event>
 8    1  0.2390921E-006  0.9118800E+02  0.7816164E-02  0.1184000E+00
        -11   -1    0    0    0    0  0.00000000000E+00  0.00000000000E+00  0.45593999997E+02  0.45594000000E+02  0.51100000000E-03 0. -1.
         11   -1    0    0    0    0 -0.00000000000E+00 -0.00000000000E+00 -0.45593999997E+02  0.45594000000E+02  0.51100000000E-03 0.  1.
         23    2    1    2    0    0 -0.35527136788E-14 -0.17763568394E-14  0.35527136788E-14  0.91188000000E+02  0.91188000000E+02 0.  0.
    9900012    2    3    3    0    0  0.23813067008E+02  0.13118542544E+02 -0.24831870733E+02  0.54367080363E+02  0.39999991304E+02 0.  0.
         12    1    3    3    0    0 -0.23813067008E+02 -0.13118542544E+02  0.24831870733E+02  0.36820919637E+02  0.00000000000E+00 0. -1.
         11    1    4    4    0    0  0.16420262942E+02  0.19899474412E+02 -0.19926381476E+02  0.32598693163E+02  0.51100000000E-03 0.  1.
        -11    1    4    4    0    0  0.37159520612E+01  0.49626708748E+01  0.32554639256E+01  0.70024601080E+01  0.51100000000E-03 0. -1.
         12    1    4    4    0    0  0.36768520048E+01 -0.11743602743E+02 -0.81609531826E+01  0.14765927092E+02  0.00000000000E+00 0. -1.
</event>
<event>
 8    1  0.2390921E-006  0.9118800E+02  0.7816164E-02  0.1184000E+00
        -11   -1    0    0    0    0  0.00000000000E+00  0.00000000000E+00  0.45593999997E+02  0.45594000000E+02  0.51100000000E-03 0.  1.
         11   -1    0    0    0    0 -0.00000000000E+00 -0.00000000000E+00 -0.45593999997E+02  0.45594000000E+02  0.51100000000E-03 0. -1.
         23    2    1    2    0    0  0.31086244690E-14  0.00000000000E+00  0.00000000000E+00  0.91188000000E+02  0.91188000000E+02 0.  0.
    9900012    2    3    3    0    0  0.19440350618E+01 -0.21040155610E+02  0.30154810627E+02  0.54367081701E+02  0.39999994354E+02 0.  0.
         12    1    3    3    0    0 -0.19440350618E+01  0.21040155610E+02 -0.30154810627E+02  0.36820918299E+02  0.00000000000E+00 0. -1.
         11    1    4    4    0    0 -0.10754555166E+02 -0.15195627137E+02  0.35409085373E+01  0.18950081119E+02  0.51100000000E-03 0. -1.
        -11    1    4    4    0    0  0.14115027365E+02 -0.69283988882E+01  0.98408054345E+01  0.18549343938E+02  0.51100000000E-03 0.  1.
         12    1    4    4    0    0 -0.14164371380E+01  0.10838704151E+01  0.16773096655E+02  0.16867656644E+02  0.00000000000E+00 0. -1.
</event>
<event>
 8    1  0.2390921E-006  0.9118800E+02  0.7816164E-02  0.1184000E+00
        -11   -1    0    0    0    0  0.00000000000E+00  0.00000000000E+00  0.45593999997E+02  0.45594000000E+02  0.51100000000E-03 0. -1.
         11   -1    0    0    0    0 -0.00000000000E+00 -0.00000000000E+00 -0.45593999997E+02  0.45594000000E+02  0.51100000000E-03 0.  1.
         23    2    1    2    0    0  0.00000000000E+00  0.00000000000E+00  0.00000000000E+00  0.91188000000E+02  0.91188000000E+02 0.  0.
    9900012    2    3    3    0    0 -0.84125729932E+01  0.19432190129E+02  0.30123069931E+02  0.54367071989E+02  0.39999972212E+02 0.  0.
        -12    1    3    3    0    0  0.84125729932E+01 -0.19432190129E+02 -0.30123069931E+02  0.36820928011E+02  0.00000000000E+00 0.  1.
         11    1    4    4    0    0 -0.12553467830E+02  0.69111665647E+01  0.80454412777E+01  0.16434199203E+02  0.51100000000E-03 0. -1.
        -11    1    4    4    0    0 -0.52067228815E+01  0.84307983385E+01  0.25349834369E+02  0.27217685915E+02  0.51100000000E-03 0.  1.
        -12    1    4    4    0    0  0.93476177184E+01  0.40902252260E+01 -0.32722057159E+01  0.10715186870E+02  0.00000000000E+00 0.  1.
</event>
<event>
 8    1  0.2390921E-006  0.9118800E+02  0.7816164E-02  0.1184000E+00
        -11   -1    0    0    0    0  0.00000000000E+00  0.00000000000E+00  0.45593999997E+02  0.45594000000E+02  0.51100000000E-03 0. -1.
         11   -1    0    0    0    0 -0.00000000000E+00 -0.00000000000E+00 -0.45593999997E+02  0.45594000000E+02  0.51100000000E-03 0.  1.
         23    2    1    2    0    0 -0.35527136788E-14 -0.88817841970E-15  0.00000000000E+00  0.91188000000E+02  0.91188000000E+02 0.  0.
    9900012    2    3    3    0    0 -0.16335834423E+02  0.61159207822E+01 -0.32427090990E+02  0.54367079270E+02  0.39999988812E+02 0.  0.
         12    1    3    3    0    0  0.16335834423E+02 -0.61159207822E+01  0.32427090990E+02  0.36820920730E+02  0.00000000000E+00 0. -1.
         11    1    4    4    0    0  0.55808653791E+01 -0.28140426913E+01 -0.86361127022E+01  0.10660550526E+02  0.51100000000E-03 0. -1.
        -11    1    4    4    0    0 -0.19200663850E+02 -0.16031655960E+00 -0.27482913030E+02  0.33526134620E+02  0.51100000000E-03 0.  1.
        -12    1    4    4    0    0 -0.27160359522E+01  0.90902800331E+01  0.36919347426E+01  0.10180394124E+02  0.00000000000E+00 0.  1.
</event>
<event>
 8    1  0.2390921E-006  0.9118800E+02  0.7816164E-02  0.1184000E+00
        -11   -1    0    0    0    0  0.00000000000E+00  0.00000000000E+00  0.45593999997E+02  0.45594000000E+02  0.51100000000E-03 0.  1.
         11   -1    0    0    0    0 -0.00000000000E+00 -0.00000000000E+00 -0.45593999997E+02  0.45594000000E+02  0.51100000000E-03 0. -1.
         23    2    1    2    0    0 -0.35527136788E-14  0.71054273576E-14  0.17763568394E-14  0.91188000000E+02  0.91188000000E+02 0.  0.
    9900012    2    3    3    0    0 -0.17266555435E+02  0.28470092236E+02  0.15719344607E+02  0.54367110774E+02  0.40000060632E+02 0.  0.
         12    1    3    3    0    0  0.17266555435E+02 -0.28470092236E+02 -0.15719344607E+02  0.36820889226E+02  0.00000000000E+00 0. -1.
         11    1    4    4    0    0  0.50785674950E+01 -0.54546948868E+01  0.90167471645E+01  0.11698173952E+02  0.51100000000E-03 0. -1.
        -11    1    4    4    0    0 -0.11005818671E+01 -0.80329765869E+00  0.65349659420E+00  0.15111669776E+01  0.51100000000E-03 0.  1.
        -12    1    4    4    0    0 -0.21244541063E+02  0.34728084782E+02  0.60491008478E+01  0.41157769845E+02  0.00000000000E+00 0.  1.
</event>
<event>
 8    1  0.2390921E-006  0.9118800E+02  0.7816164E-02  0.1184000E+00
        -11   -1    0    0    0    0  0.00000000000E+00  0.00000000000E+00  0.45593999997E+02  0.45594000000E+02  0.51100000000E-03 0.  1.
         11   -1    0    0    0    0 -0.00000000000E+00 -0.00000000000E+00 -0.45593999997E+02  0.45594000000E+02  0.51100000000E-03 0. -1.
         23    2    1    2    0    0  0.00000000000E+00  0.00000000000E+00  0.00000000000E+00  0.91188000000E+02  0.91188000000E+02 0.  0.
    9900012    2    3    3    0    0  0.27170974040E+02  0.78012295289E+01  0.23593634251E+02  0.54367074025E+02  0.39999976855E+02 0.  0.
         12    1    3    3    0    0 -0.27170974040E+02 -0.78012295289E+01 -0.23593634251E+02  0.36820925975E+02  0.00000000000E+00 0. -1.
         11    1    4    4    0    0  0.39746464876E+01 -0.58010653636E+01  0.17800867016E+01  0.72538874392E+01  0.51100000000E-03 0. -1.
        -11    1    4    4    0    0  0.14073686373E+02  0.24891322009E+01  0.28018755067E+02  0.31453379198E+02  0.51100000000E-03 0.  1.
        -12    1    4    4    0    0  0.91226411794E+01  0.11113162692E+02 -0.62052075169E+01  0.15659807388E+02  0.00000000000E+00 0.  1.
</event>
<event>
 8    1  0.2390921E-006  0.9118800E+02  0.7816164E-02  0.1184000E+00
        -11   -1    0    0    0    0  0.00000000000E+00  0.00000000000E+00  0.45593999997E+02  0.45594000000E+02  0.51100000000E-03 0. -1.
         11   -1    0    0    0    0 -0.00000000000E+00 -0.00000000000E+00 -0.45593999997E+02  0.45594000000E+02  0.51100000000E-03 0.  1.
         23    2    1    2    0    0  0.00000000000E+00  0.00000000000E+00  0.00000000000E+00  0.91188000000E+02  0.91188000000E+02 0.  0.
    9900012    2    3    3    0    0  0.34797088508E+01 -0.32291267445E+02  0.17347780429E+02  0.54367084575E+02  0.40000000906E+02 0.  0.
        -12    1    3    3    0    0 -0.34797088508E+01  0.32291267445E+02 -0.17347780429E+02  0.36820915425E+02  0.00000000000E+00 0.  1.
         11    1    4    4    0    0 -0.66138994207E+00 -0.39791612731E+01  0.48775271401E+01  0.63294101112E+01  0.51100000000E-03 0. -1.
        -11    1    4    4    0    0  0.14016153882E+02 -0.31214099890E+02  0.35187452060E+01  0.34397008150E+02  0.51100000000E-03 0.  1.
        -12    1    4    4    0    0 -0.98750550891E+01  0.29019937174E+01  0.89515080827E+01  0.13640666314E+02  0.00000000000E+00 0.  1.
</event>
<event>
 8    1  0.2390921E-006  0.9118800E+02  0.7816164E-02  0.1184000E+00
        -11   -1    0    0    0    0  0.00000000000E+00  0.00000000000E+00  0.45593999997E+02  0.45594000000E+02  0.51100000000E-03 0. -1.
         11   -1    0    0    0    0 -0.00000000000E+00 -0.00000000000E+00 -0.45593999997E+02  0.45594000000E+02  0.51100000000E-03 0.  1.
         23    2    1    2    0    0  0.00000000000E+00  0.17763568394E-14 -0.35527136788E-14  0.91188000000E+02  0.91188000000E+02 0.  0.
    9900012    2    3    3    0    0  0.22177960845E+02  0.12048641533E+02 -0.26809507823E+02  0.54367062753E+02  0.39999951157E+02 0.  0.
         12    1    3    3    0    0 -0.22177960845E+02 -0.12048641533E+02  0.26809507823E+02  0.36820937247E+02  0.00000000000E+00 0. -1.
         11    1    4    4    0    0 -0.71137394280E+00  0.94227979510E+01  0.53903656386E+01  0.10878934511E+02  0.51100000000E-03 0. -1.
        -11    1    4    4    0    0  0.17409361508E+02  0.97651763413E+01 -0.24809151505E+02  0.31842401539E+02  0.51100000000E-03 0.  1.
        -12    1    4    4    0    0  0.54799732803E+01 -0.71393327592E+01 -0.73907219570E+01  0.11645726703E+02  0.00000000000E+00 0.  1.
</event>
<event>
 8    1  0.2390921E-006  0.9118800E+02  0.7816164E-02  0.1184000E+00
        -11   -1    0    0    0    0  0.00000000000E+00  0.00000000000E+00  0.45593999997E+02  0.45594000000E+02  0.51100000000E-03 0. -1.
         11   -1    0    0    0    0 -0.00000000000E+00 -0.00000000000E+00 -0.45593999997E+02  0.45594000000E+02  0.51100000000E-03 0.  1.
         23    2    1    2    0    0 -0.17763568394E-14  0.71054273576E-14  0.00000000000E+00  0.91188000000E+02  0.91188000000E+02 0.  0.
    9900012    2    3    3    0    0 -0.10132914433E+02 -0.34846624446E+02 -0.62303520325E+01  0.54367075559E+02  0.39999980353E+02 0.  0.
        -12    1    3    3    0    0  0.10132914433E+02  0.34846624446E+02  0.62303520325E+01  0.36820924441E+02  0.00000000000E+00 0.  1.
         11    1    4    4    0    0 -0.98057209724E+01  0.28567964302E+00 -0.17319641354E+01  0.99616001061E+01  0.51100000000E-03 0. -1.
        -11    1    4    4    0    0  0.77646809809E+01 -0.33871601317E+02 -0.77332122257E+01  0.35600255871E+02  0.51100000000E-03 0.  1.
        -12    1    4    4    0    0 -0.80918744413E+01 -0.12607027727E+01  0.32348243286E+01  0.88052195823E+01  0.00000000000E+00 0.  1.
</event>
<event>
 8    1  0.2390921E-006  0.9118800E+02  0.7816164E-02  0.1184000E+00
        -11   -1    0    0    0    0  0.00000000000E+00  0.00000000000E+00  0.45593999997E+02  0.45594000000E+02  0.51100000000E-03 0.  1.
         11   -1    0    0    0    0 -0.00000000000E+00 -0.00000000000E+00 -0.45593999997E+02  0.45594000000E+02  0.51100000000E-03 0. -1.
         23    2    1    2    0    0 -0.88817841970E-15  0.71054273576E-14  0.00000000000E+00  0.91188000000E+02  0.91188000000E+02 0.  0.
    9900012    2    3    3    0    0  0.65706782703E+00  0.35184476750E+02  0.10835128141E+02  0.54367093654E+02  0.40000021603E+02 0.  0.
         12    1    3    3    0    0 -0.65706782703E+00 -0.35184476750E+02 -0.10835128141E+02  0.36820906346E+02  0.00000000000E+00 0. -1.
         11    1    4    4    0    0  0.48436104882E+00  0.75742729127E+01 -0.10370586726E+02  0.12851197807E+02  0.51100000000E-03 0. -1.
        -11    1    4    4    0    0  0.79583186542E+01  0.32819591067E+01  0.48044961522E+00  0.86218863060E+01  0.51100000000E-03 0.  1.
        -12    1    4    4    0    0 -0.77856118760E+01  0.24328244731E+02  0.20725265251E+02  0.32894009541E+02  0.00000000000E+00 0.  1.
</event>
<event>
 8    1  0.2390921E-006  0.9118800E+02  0.7816164E-02  0.1184000E+00
        -11   -1    0    0    0    0  0.00000000000E+00  0.00000000000E+00  0.45593999997E+02  0.45594000000E+02  0.51100000000E-03 0.  1.
         11   -1    0    0    0    0 -0.00000000000E+00 -0.00000000000E+00 -0.45593999997E+02  0.45594000000E+02  0.51100000000E-03 0. -1.
         23    2    1    2    0    0  0.88817841970E-15  0.00000000000E+00 -0.35527136788E-14  0.91188000000E+02  0.91188000000E+02 0.  0.
    9900012    2    3    3    0    0 -0.79814327395E+01  0.17095319145E+02 -0.31620036805E+02  0.54367082945E+02  0.39999997189E+02 0.  0.
        -12    1    3    3    0    0  0.79814327395E+01 -0.17095319145E+02  0.31620036805E+02  0.36820917055E+02  0.00000000000E+00 0.  1.
         11    1    4    4    0    0 -0.79506203373E+01  0.68690543349E+01  0.62127688147E+01  0.12206341295E+02  0.51100000000E-03 0.  1.
        -11    1    4    4    0    0  0.66845721294E+01  0.42836937854E+00 -0.14807989062E+02  0.16252493507E+02  0.51100000000E-03 0. -1.
         12    1    4    4    0    0 -0.67153845315E+01  0.97978954318E+01 -0.23024816558E+02  0.25908248143E+02  0.00000000000E+00 0. -1.
</event>
<event>
 8    1  0.2390921E-006  0.9118800E+02  0.7816164E-02  0.1184000E+00
        -11   -1    0    0    0    0  0.00000000000E+00  0.00000000000E+00  0.45593999997E+02  0.45594000000E+02  0.51100000000E-03 0. -1.
         11   -1    0    0    0    0 -0.00000000000E+00 -0.00000000000E+00 -0.45593999997E+02  0.45594000000E+02  0.51100000000E-03 0.  1.
         23    2    1    2    0    0  0.00000000000E+00  0.00000000000E+00  0.35527136788E-14  0.91188000000E+02  0.91188000000E+02 0.  0.
    9900012    2    3    3    0    0 -0.31806102353E+02 -0.85985261465E+01  0.16438306954E+02  0.54367072061E+02  0.39999972377E+02 0.  0.
        -12    1    3    3    0    0  0.31806102353E+02  0.85985261465E+01 -0.16438306954E+02  0.36820927939E+02  0.00000000000E+00 0.  1.
         11    1    4    4    0    0 -0.13762349390E+01 -0.14825921843E+02  0.93892105737E+00  0.14919234368E+02  0.51100000000E-03 0. -1.
        -11    1    4    4    0    0 -0.50665311067E+00  0.50507628436E+01  0.63611380416E+01  0.81382418324E+01  0.51100000000E-03 0.  1.
         12    1    4    4    0    0 -0.29923214303E+02  0.11766328529E+01  0.91382478553E+01  0.31309595861E+02  0.00000000000E+00 0. -1.
</event>
<event>
 8    1  0.2390921E-006  0.9118800E+02  0.7816164E-02  0.1184000E+00
        -11   -1    0    0    0    0  0.00000000000E+00  0.00000000000E+00  0.45593999997E+02  0.45594000000E+02  0.51100000000E-03 0.  1.
         11   -1    0    0    0    0 -0.00000000000E+00 -0.00000000000E+00 -0.45593999997E+02  0.45594000000E+02  0.51100000000E-03 0. -1.
         23    2    1    2    0    0 -0.17763568394E-14 -0.35527136788E-14  0.00000000000E+00  0.91188000000E+02  0.91188000000E+02 0.  0.
    9900012    2    3    3    0    0 -0.10876786640E+02 -0.31118592309E+02 -0.16404535317E+02  0.54367081301E+02  0.39999993441E+02 0.  0.
        -12    1    3    3    0    0  0.10876786640E+02  0.31118592309E+02  0.16404535317E+02  0.36820918699E+02  0.00000000000E+00 0.  1.
         11    1    4    4    0    0 -0.68851157003E+01 -0.58187189251E+01 -0.19398203367E+02  0.21390479243E+02  0.51100000000E-03 0. -1.
        -11    1    4    4    0    0 -0.85510943296E+00 -0.39490722323E+00 -0.61798139257E+01  0.62511810304E+01  0.51100000000E-03 0.  1.
         12    1    4    4    0    0 -0.31365615066E+01 -0.24904966160E+02  0.91734819750E+01  0.26725421027E+02  0.00000000000E+00 0. -1.
</event>
<event>
 8    1  0.2390921E-006  0.9118800E+02  0.7816164E-02  0.1184000E+00
        -11   -1    0    0    0    0  0.00000000000E+00  0.00000000000E+00  0.45593999997E+02  0.45594000000E+02  0.51100000000E-03 0.  1.
         11   -1    0    0    0    0 -0.00000000000E+00 -0.00000000000E+00 -0.45593999997E+02  0.45594000000E+02  0.51100000000E-03 0. -1.
         23    2    1    2    0    0  0.00000000000E+00  0.17763568394E-14  0.35527136788E-14  0.91188000000E+02  0.91188000000E+02 0.  0.
    9900012    2    3    3    0    0  0.18466645428E+02 -0.46913509802E+01 -0.31508011775E+02  0.54367074246E+02  0.39999977358E+02 0.  0.
        -12    1    3    3    0    0 -0.18466645428E+02  0.46913509802E+01  0.31508011775E+02  0.36820925754E+02  0.00000000000E+00 0.  1.
         11    1    4    4    0    0  0.38811637527E+00  0.13110142484E+01 -0.43347244940E+01  0.45452424996E+01  0.51100000000E-03 0. -1.
        -11    1    4    4    0    0  0.97804828583E+01  0.15193063556E+02 -0.69034424502E+01  0.19342816318E+02  0.51100000000E-03 0.  1.
        -12    1    4    4    0    0  0.82980461945E+01 -0.21195428785E+02 -0.20269844831E+02  0.30479015429E+02  0.00000000000E+00 0.  1.
</event>
<event>
 8    1  0.2390921E-006  0.9118800E+02  0.7816164E-02  0.1184000E+00
        -11   -1    0    0    0    0  0.00000000000E+00  0.00000000000E+00  0.45593999997E+02  0.45594000000E+02  0.51100000000E-03 0.  1.
         11   -1    0    0    0    0 -0.00000000000E+00 -0.00000000000E+00 -0.45593999997E+02  0.45594000000E+02  0.51100000000E-03 0. -1.
         23    2    1    2    0    0 -0.35527136788E-14  0.00000000000E+00  0.00000000000E+00  0.91188000000E+02  0.91188000000E+02 0.  0.
    9900012    2    3    3    0    0  0.21342928476E+02 -0.22444057540E+02 -0.19912889251E+02  0.54367089187E+02  0.40000011419E+02 0.  0.
        -12    1    3    3    0    0 -0.21342928476E+02  0.22444057540E+02  0.19912889251E+02  0.36820910813E+02  0.00000000000E+00 0.  1.
         11    1    4    4    0    0  0.20261175619E+02 -0.89854291801E+01 -0.21175218921E+02  0.30653598021E+02  0.51100000000E-03 0. -1.
        -11    1    4    4    0    0 -0.85410679703E+01 -0.94483960462E+01  0.31466048876E+01  0.13119571353E+02  0.51100000000E-03 0.  1.
         12    1    4    4    0    0  0.96228208277E+01 -0.40102323136E+01 -0.18842752175E+01  0.10593919812E+02  0.00000000000E+00 0. -1.
</event>
<event>
 8    1  0.2390921E-006  0.9118800E+02  0.7816164E-02  0.1184000E+00
        -11   -1    0    0    0    0  0.00000000000E+00  0.00000000000E+00  0.45593999997E+02  0.45594000000E+02  0.51100000000E-03 0. -1.
         11   -1    0    0    0    0 -0.00000000000E+00 -0.00000000000E+00 -0.45593999997E+02  0.45594000000E+02  0.51100000000E-03 0.  1.
         23    2    1    2    0    0  0.17763568394E-14  0.17763568394E-14  0.00000000000E+00  0.91188000000E+02  0.91188000000E+02 0.  0.
    9900012    2    3    3    0    0 -0.68892807034E+01  0.12008046776E+02  0.34119275032E+02  0.54367077894E+02  0.39999985676E+02 0.  0.
        -12    1    3    3    0    0  0.68892807034E+01 -0.12008046776E+02 -0.34119275032E+02  0.36820922106E+02  0.00000000000E+00 0.  1.
         11    1    4    4    0    0 -0.12434808090E+02 -0.66943753098E+01  0.24026969063E+02  0.27869954353E+02  0.51100000000E-03 0. -1.
        -11    1    4    4    0    0 -0.19243397129E+01 -0.17710844525E+01  0.40120330545E+00  0.26459001912E+01  0.51100000000E-03 0.  1.
        -12    1    4    4    0    0  0.74698671000E+01  0.20473506538E+02  0.96911026638E+01  0.23851223350E+02  0.00000000000E+00 0.  1.
</event>
<event>
 8    1  0.2390921E-006  0.9118800E+02  0.7816164E-02  0.1184000E+00
        -11   -1    0    0    0    0  0.00000000000E+00  0.00000000000E+00  0.45593999997E+02  0.45594000000E+02  0.51100000000E-03 0.  1.
         11   -1    0    0    0    0 -0.00000000000E+00 -0.00000000000E+00 -0.45593999997E+02  0.45594000000E+02  0.51100000000E-03 0. -1.
         23    2    1    2    0    0  0.00000000000E+00  0.00000000000E+00  0.00000000000E+00  0.91188000000E+02  0.91188000000E+02 0.  0.
    9900012    2    3    3    0    0 -0.22942432077E+02 -0.27644129293E+02 -0.80764771138E+01  0.54367047316E+02  0.39999915967E+02 0.  0.
        -12    1    3    3    0    0  0.22942432077E+02  0.27644129293E+02  0.80764771138E+01  0.36820952684E+02  0.00000000000E+00 0.  1.
         11    1    4    4    0    0 -0.39971264322E+01 -0.18501117101E+02 -0.20865309351E+02  0.28171430355E+02  0.51100000000E-03 0. -1.
        -11    1    4    4    0    0 -0.15882979076E+02 -0.10798692351E+02  0.11930461281E+02  0.22610101447E+02  0.51100000000E-03 0.  1.
        -12    1    4    4    0    0 -0.30623265688E+01  0.16556801589E+01  0.85837095611E+00  0.35855155140E+01  0.00000000000E+00 0.  1.
</event>
<event>
 8    1  0.2390921E-006  0.9118800E+02  0.7816164E-02  0.1184000E+00
        -11   -1    0    0    0    0  0.00000000000E+00  0.00000000000E+00  0.45593999997E+02  0.45594000000E+02  0.51100000000E-03 0.  1.
         11   -1    0    0    0    0 -0.00000000000E+00 -0.00000000000E+00 -0.45593999997E+02  0.45594000000E+02  0.51100000000E-03 0. -1.
         23    2    1    2    0    0 -0.17763568394E-14  0.00000000000E+00  0.00000000000E+00  0.91188000000E+02  0.91188000000E+02 0.  0.
    9900012    2    3    3    0    0  0.85030564052E+01  0.18318501880E+02 -0.30788152634E+02  0.54367084450E+02  0.40000000620E+02 0.  0.
        -12    1    3    3    0    0 -0.85030564052E+01 -0.18318501880E+02  0.30788152634E+02  0.36820915550E+02  0.00000000000E+00 0.  1.
         11    1    4    4    0    0  0.52054414992E+01  0.84447428499E+01 -0.36197127901E+01  0.10559953785E+02  0.51100000000E-03 0. -1.
        -11    1    4    4    0    0  0.17490061637E+02  0.43884786557E+01 -0.91409043259E+01  0.20216753774E+02  0.51100000000E-03 0.  1.
         12    1    4    4    0    0 -0.14192446731E+02  0.54852803744E+01 -0.18027535518E+02  0.23590376891E+02  0.00000000000E+00 0. -1.
</event>
<event>
 8    1  0.2390921E-006  0.9118800E+02  0.7816164E-02  0.1184000E+00
        -11   -1    0    0    0    0  0.00000000000E+00  0.00000000000E+00  0.45593999997E+02  0.45594000000E+02  0.51100000000E-03 0.  1.
         11   -1    0    0    0    0 -0.00000000000E+00 -0.00000000000E+00 -0.45593999997E+02  0.45594000000E+02  0.51100000000E-03 0. -1.
         23    2    1    2    0    0  0.00000000000E+00  0.22204460493E-15  0.00000000000E+00  0.91188000000E+02  0.91188000000E+02 0.  0.
    9900012    2    3    3    0    0  0.12391128449E+02  0.96340052238E+00  0.34660133970E+02  0.54366904258E+02  0.39999589836E+02 0.  0.
         12    1    3    3    0    0 -0.12391128449E+02 -0.96340052238E+00 -0.34660133970E+02  0.36821095742E+02  0.00000000000E+00 0. -1.
         11    1    4    4    0    0 -0.12386627964E+02 -0.21080058982E+01  0.98745957301E+01  0.15980609572E+02  0.51100000000E-03 0. -1.
        -11    1    4    4    0    0  0.12179635308E+02 -0.61190415680E+01  0.13042521745E+02  0.18865141390E+02  0.51100000000E-03 0.  1.
         12    1    4    4    0    0  0.12598121106E+02  0.91904479886E+01  0.11743016495E+02  0.19521153296E+02  0.00000000000E+00 0. -1.
</event>
<event>
 8    1  0.2390921E-006  0.9118800E+02  0.7816164E-02  0.1184000E+00
        -11   -1    0    0    0    0  0.00000000000E+00  0.00000000000E+00  0.45593999997E+02  0.45594000000E+02  0.51100000000E-03 0. -1.
         11   -1    0    0    0    0 -0.00000000000E+00 -0.00000000000E+00 -0.45593999997E+02  0.45594000000E+02  0.51100000000E-03 0.  1.
         23    2    1    2    0    0  0.17763568394E-14  0.00000000000E+00  0.00000000000E+00  0.91188000000E+02  0.91188000000E+02 0.  0.
    9900012    2    3    3    0    0  0.13337191181E+02  0.18158516726E+02 -0.29123303038E+02  0.54367093192E+02  0.40000020549E+02 0.  0.
         12    1    3    3    0    0 -0.13337191181E+02 -0.18158516726E+02  0.29123303038E+02  0.36820906808E+02  0.00000000000E+00 0. -1.
         11    1    4    4    0    0 -0.20003298583E+01 -0.95381785510E+00 -0.11312551403E+02  0.11527571624E+02  0.51100000000E-03 0. -1.
        -11    1    4    4    0    0  0.26082527945E+01 -0.52343401704E+01 -0.13911375223E+02  0.15090648114E+02  0.51100000000E-03 0.  1.
        -12    1    4    4    0    0  0.12729268245E+02  0.24346674752E+02 -0.38993764129E+01  0.27748873454E+02  0.00000000000E+00 0.  1.
</event>
<event>
 8    1  0.2390921E-006  0.9118800E+02  0.7816164E-02  0.1184000E+00
        -11   -1    0    0    0    0  0.00000000000E+00  0.00000000000E+00  0.45593999997E+02  0.45594000000E+02  0.51100000000E-03 0. -1.
         11   -1    0    0    0    0 -0.00000000000E+00 -0.00000000000E+00 -0.45593999997E+02  0.45594000000E+02  0.51100000000E-03 0.  1.
         23    2    1    2    0    0 -0.35527136788E-14  0.35527136788E-14 -0.35527136788E-14  0.91188000000E+02  0.91188000000E+02 0.  0.
    9900012    2    3    3    0    0 -0.19960251164E+02  0.97275485454E+01 -0.29372483013E+02  0.54367087660E+02  0.40000007938E+02 0.  0.
         12    1    3    3    0    0  0.19960251164E+02 -0.97275485454E+01  0.29372483013E+02  0.36820912340E+02  0.00000000000E+00 0. -1.
         11    1    4    4    0    0 -0.58236910743E+01 -0.27234499253E+01  0.24234262163E+01  0.68706296736E+01  0.51100000000E-03 0. -1.
        -11    1    4    4    0    0  0.56511781372E+01 -0.13839279914E+01 -0.19602334613E+02  0.20447557154E+02  0.51100000000E-03 0.  1.
         12    1    4    4    0    0 -0.19787738227E+02  0.13834926462E+02 -0.12193574617E+02  0.27048900833E+02  0.00000000000E+00 0. -1.
</event>
<event>
 8    1  0.2390921E-006  0.9118800E+02  0.7816164E-02  0.1184000E+00
        -11   -1    0    0    0    0  0.00000000000E+00  0.00000000000E+00  0.45593999997E+02  0.45594000000E+02  0.51100000000E-03 0. -1.
         11   -1    0    0    0    0 -0.00000000000E+00 -0.00000000000E+00 -0.45593999997E+02  0.45594000000E+02  0.51100000000E-03 0.  1.
         23    2    1    2    0    0  0.00000000000E+00  0.17763568394E-14  0.17763568394E-14  0.91188000000E+02  0.91188000000E+02 0.  0.
    9900012    2    3    3    0    0  0.33645883283E+02  0.88841432454E+01  0.12033228999E+02  0.54367189808E+02  0.40000240804E+02 0.  0.
        -12    1    3    3    0    0 -0.33645883283E+02 -0.88841432454E+01 -0.12033228999E+02  0.36820810192E+02  0.00000000000E+00 0.  1.
         11    1    4    4    0    0  0.17638799073E+02  0.68798106447E+01  0.13733299348E+02  0.23389368065E+02  0.51100000000E-03 0. -1.
        -11    1    4    4    0    0  0.19740754014E+02 -0.69249568705E+01  0.95455479676E+00  0.20941909460E+02  0.51100000000E-03 0.  1.
         12    1    4    4    0    0 -0.37336698051E+01  0.89292894711E+01 -0.26546251456E+01  0.10035912282E+02  0.00000000000E+00 0. -1.
</event>
<event>
 8    1  0.2390921E-006  0.9118800E+02  0.7816164E-02  0.1184000E+00
        -11   -1    0    0    0    0  0.00000000000E+00  0.00000000000E+00  0.45593999997E+02  0.45594000000E+02  0.51100000000E-03 0.  1.
         11   -1    0    0    0    0 -0.00000000000E+00 -0.00000000000E+00 -0.45593999997E+02  0.45594000000E+02  0.51100000000E-03 0. -1.
         23    2    1    2    0    0  0.35527136788E-14  0.35527136788E-14  0.17763568394E-14  0.91188000000E+02  0.91188000000E+02 0.  0.
    9900012    2    3    3    0    0 -0.27728981237E+02  0.20093016012E+02 -0.13533436826E+02  0.54367087393E+02  0.40000007330E+02 0.  0.
        -12    1    3    3    0    0  0.27728981237E+02 -0.20093016012E+02  0.13533436826E+02  0.36820912607E+02  0.00000000000E+00 0.  1.
         11    1    4    4    0    0 -0.33438446518E+02  0.22617129480E+02 -0.18043363699E+02  0.44217951391E+02  0.51100000000E-03 0. -1.
        -11    1    4    4    0    0  0.16335250883E+01 -0.42427396308E+01  0.31143417411E+01  0.55107502693E+01  0.51100000000E-03 0.  1.
        -12    1    4    4    0    0  0.40759401928E+01  0.17186261629E+01  0.13955851318E+01  0.46383857325E+01  0.00000000000E+00 0.  1.
</event>
<event>
 8    1  0.2390921E-006  0.9118800E+02  0.7816164E-02  0.1184000E+00
        -11   -1    0    0    0    0  0.00000000000E+00  0.00000000000E+00  0.45593999997E+02  0.45594000000E+02  0.51100000000E-03 0.  1.
         11   -1    0    0    0    0 -0.00000000000E+00 -0.00000000000E+00 -0.45593999997E+02  0.45594000000E+02  0.51100000000E-03 0. -1.
         23    2    1    2    0    0  0.00000000000E+00  0.35527136788E-14  0.00000000000E+00  0.91188000000E+02  0.91188000000E+02 0.  0.
    9900012    2    3    3    0    0  0.25358349358E+02 -0.17165545323E+02 -0.20446756521E+02  0.54367195003E+02  0.40000252647E+02 0.  0.
        -12    1    3    3    0    0 -0.25358349358E+02  0.17165545323E+02  0.20446756521E+02  0.36820804997E+02  0.00000000000E+00 0.  1.
         11    1    4    4    0    0  0.10310947439E+02 -0.15895308340E+01 -0.27080580812E+02  0.29020684050E+02  0.51100000000E-03 0. -1.
        -11    1    4    4    0    0  0.15271532239E+02 -0.13312352399E+02  0.22194163080E+01  0.20380486558E+02  0.51100000000E-03 0.  1.
        -12    1    4    4    0    0 -0.22413032028E+00 -0.22636620896E+01  0.44144079822E+01  0.49660243948E+01  0.00000000000E+00 0.  1.
</event>
<event>
 8    1  0.2390921E-006  0.9118800E+02  0.7816164E-02  0.1184000E+00
        -11   -1    0    0    0    0  0.00000000000E+00  0.00000000000E+00  0.45593999997E+02  0.45594000000E+02  0.51100000000E-03 0. -1.
         11   -1    0    0    0    0 -0.00000000000E+00 -0.00000000000E+00 -0.45593999997E+02  0.45594000000E+02  0.51100000000E-03 0.  1.
         23    2    1    2    0    0  0.00000000000E+00  0.17763568394E-14  0.00000000000E+00  0.91188000000E+02  0.91188000000E+02 0.  0.
    9900012    2    3    3    0    0 -0.45279284891E+01  0.74007978985E+01 -0.35784149490E+02  0.54367091528E+02  0.40000016757E+02 0.  0.
         12    1    3    3    0    0  0.45279284891E+01 -0.74007978985E+01  0.35784149490E+02  0.36820908472E+02  0.00000000000E+00 0. -1.
         11    1    4    4    0    0 -0.20412549736E+01 -0.10957426833E+02 -0.12045693750E+02  0.16411296806E+02  0.51100000000E-03 0. -1.
        -11    1    4    4    0    0 -0.94603874223E+01  0.77205792125E+01 -0.14546268273E+01  0.12297244123E+02  0.51100000000E-03 0.  1.
         12    1    4    4    0    0  0.69737139068E+01  0.10637645519E+02 -0.22283828913E+02  0.25658550600E+02  0.00000000000E+00 0. -1.
</event>
<event>
 8    1  0.2390921E-006  0.9118800E+02  0.7816164E-02  0.1184000E+00
        -11   -1    0    0    0    0  0.00000000000E+00  0.00000000000E+00  0.45593999997E+02  0.45594000000E+02  0.51100000000E-03 0.  1.
         11   -1    0    0    0    0 -0.00000000000E+00 -0.00000000000E+00 -0.45593999997E+02  0.45594000000E+02  0.51100000000E-03 0. -1.
         23    2    1    2    0    0  0.00000000000E+00 -0.17763568394E-14  0.35527136788E-14  0.91188000000E+02  0.91188000000E+02 0.  0.
    9900012    2    3    3    0    0 -0.29519174104E+02 -0.12511614787E+02  0.18106815974E+02  0.54367096574E+02  0.40000028259E+02 0.  0.
         12    1    3    3    0    0  0.29519174104E+02  0.12511614787E+02 -0.18106815974E+02  0.36820903426E+02  0.00000000000E+00 0. -1.
         11    1    4    4    0    0 -0.12570695370E+02 -0.61648651362E+01 -0.81006934020E+01  0.16175573501E+02  0.51100000000E-03 0. -1.
        -11    1    4    4    0    0 -0.18148344536E+02  0.29546216845E+01  0.16760845487E+02  0.24880075169E+02  0.51100000000E-03 0.  1.
         12    1    4    4    0    0  0.11998658020E+01 -0.93013713356E+01  0.94466638890E+01  0.13311447904E+02  0.00000000000E+00 0. -1.
</event>
<event>
 8    1  0.2390921E-006  0.9118800E+02  0.7816164E-02  0.1184000E+00
        -11   -1    0    0    0    0  0.00000000000E+00  0.00000000000E+00  0.45593999997E+02  0.45594000000E+02  0.51100000000E-03 0. -1.
         11   -1    0    0    0    0 -0.00000000000E+00 -0.00000000000E+00 -0.45593999997E+02  0.45594000000E+02  0.51100000000E-03 0.  1.
         23    2    1    2    0    0 -0.17763568394E-14 -0.35527136788E-14  0.35527136788E-14  0.91188000000E+02  0.91188000000E+02 0.  0.
    9900012    2    3    3    0    0 -0.12987205788E+02 -0.19421167379E+02  0.28459305144E+02  0.54367064300E+02  0.39999954685E+02 0.  0.
        -12    1    3    3    0    0  0.12987205788E+02  0.19421167379E+02 -0.28459305144E+02  0.36820935700E+02  0.00000000000E+00 0.  1.
         11    1    4    4    0    0 -0.61048002876E+01 -0.86205212289E+01  0.26890232700E+02  0.28890596874E+02  0.51100000000E-03 0. -1.
        -11    1    4    4    0    0  0.94079580007E+00  0.62781018507E+01 -0.12812071600E+01  0.64761988568E+01  0.51100000000E-03 0.  1.
        -12    1    4    4    0    0 -0.78232013003E+01 -0.17078748001E+02  0.28502796033E+01  0.19000268569E+02  0.00000000000E+00 0.  1.
</event>
<event>
 8    1  0.2390921E-006  0.9118800E+02  0.7816164E-02  0.1184000E+00
        -11   -1    0    0    0    0  0.00000000000E+00  0.00000000000E+00  0.45593999997E+02  0.45594000000E+02  0.51100000000E-03 0. -1.
         11   -1    0    0    0    0 -0.00000000000E+00 -0.00000000000E+00 -0.45593999997E+02  0.45594000000E+02  0.51100000000E-03 0.  1.
         23    2    1    2    0    0  0.35527136788E-14 -0.35527136788E-14  0.11102230246E-15  0.91188000000E+02  0.91188000000E+02 0.  0.
    9900012    2    3    3    0    0 -0.19512268728E+02  0.31220712483E+02  0.56397362321E+00  0.54367087666E+02  0.40000007952E+02 0.  0.
         12    1    3    3    0    0  0.19512268728E+02 -0.31220712483E+02 -0.56397362321E+00  0.36820912334E+02  0.00000000000E+00 0. -1.
         11    1    4    4    0    0 -0.22221197858E+02  0.17824633939E+02  0.77967488330E+01  0.29534530671E+02  0.51100000000E-03 0. -1.
        -11    1    4    4    0    0  0.89763245590E+01  0.10160355161E+02 -0.10413403288E+02  0.17095209501E+02  0.51100000000E-03 0.  1.
        -12    1    4    4    0    0 -0.62673954290E+01  0.32357233831E+01  0.31806280780E+01  0.77373474942E+01  0.00000000000E+00 0.  1.
</event>
<event>
 8    1  0.2390921E-006  0.9118800E+02  0.7816164E-02  0.1184000E+00
        -11   -1    0    0    0    0  0.00000000000E+00  0.00000000000E+00  0.45593999997E+02  0.45594000000E+02  0.51100000000E-03 0.  1.
         11   -1    0    0    0    0 -0.00000000000E+00 -0.00000000000E+00 -0.45593999997E+02  0.45594000000E+02  0.51100000000E-03 0. -1.
         23    2    1    2    0    0 -0.17763568394E-14  0.66613381478E-15  0.00000000000E+00  0.91188000000E+02  0.91188000000E+02 0.  0.
    9900012    2    3    3    0    0  0.12880994157E+02 -0.90971467242E+00  0.34482354470E+02  0.54367077129E+02  0.39999983932E+02 0.  0.
         12    1    3    3    0    0 -0.12880994157E+02  0.90971467242E+00 -0.34482354470E+02  0.36820922871E+02  0.00000000000E+00 0. -1.
         11    1    4    4    0    0  0.37301722813E+01  0.85286941802E+01 -0.21987531979E+00  0.93113455035E+01  0.51100000000E-03 0. -1.
        -11    1    4    4    0    0  0.16650103475E+02 -0.24656319209E+01  0.28455053570E+02  0.33060480341E+02  0.51100000000E-03 0.  1.
         12    1    4    4    0    0 -0.74992815997E+01 -0.69727769317E+01  0.62471762203E+01  0.11995251285E+02  0.00000000000E+00 0. -1.
</event>
<event>
 8    1  0.2390921E-006  0.9118800E+02  0.7816164E-02  0.1184000E+00
        -11   -1    0    0    0    0  0.00000000000E+00  0.00000000000E+00  0.45593999997E+02  0.45594000000E+02  0.51100000000E-03 0. -1.
         11   -1    0    0    0    0 -0.00000000000E+00 -0.00000000000E+00 -0.45593999997E+02  0.45594000000E+02  0.51100000000E-03 0.  1.
         23    2    1    2    0    0 -0.17763568394E-14  0.35527136788E-14  0.00000000000E+00  0.91188000000E+02  0.91188000000E+02 0.  0.
    9900012    2    3    3    0    0 -0.11962418119E+02  0.31688656869E+02  0.14439835743E+02  0.54367091840E+02  0.40000017467E+02 0.  0.
         12    1    3    3    0    0  0.11962418119E+02 -0.31688656869E+02 -0.14439835743E+02  0.36820908160E+02  0.00000000000E+00 0. -1.
         11    1    4    4    0    0  0.43421092618E+00 -0.11952603154E+01  0.13176292033E+02  0.13237517077E+02  0.51100000000E-03 0. -1.
        -11    1    4    4    0    0 -0.94394845008E+01  0.14151338837E+02  0.10546634739E+02  0.20014888535E+02  0.51100000000E-03 0.  1.
        -12    1    4    4    0    0 -0.29571445448E+01  0.18732578348E+02 -0.92830910291E+01  0.21114686228E+02  0.00000000000E+00 0.  1.
</event>
<event>
 8    1  0.2390921E-006  0.9118800E+02  0.7816164E-02  0.1184000E+00
        -11   -1    0    0    0    0  0.00000000000E+00  0.00000000000E+00  0.45593999997E+02  0.45594000000E+02  0.51100000000E-03 0. -1.
         11   -1    0    0    0    0 -0.00000000000E+00 -0.00000000000E+00 -0.45593999997E+02  0.45594000000E+02  0.51100000000E-03 0.  1.
         23    2    1    2    0    0  0.71054273576E-14 -0.17763568394E-14 -0.17763568394E-14  0.91188000000E+02  0.91188000000E+02 0.  0.
    9900012    2    3    3    0    0 -0.33764336895E+02  0.91887693736E+01  0.11459285124E+02  0.54367093654E+02  0.40000021603E+02 0.  0.
        -12    1    3    3    0    0  0.33764336895E+02 -0.91887693736E+01 -0.11459285124E+02  0.36820906346E+02  0.00000000000E+00 0.  1.
         11    1    4    4    0    0 -0.88860473125E+01  0.57942755510E+01  0.17861786655E+01  0.10757597338E+02  0.51100000000E-03 0. -1.
        -11    1    4    4    0    0 -0.32975604896E+02  0.52026760551E+01  0.11121439136E+02  0.35187281298E+02  0.51100000000E-03 0.  1.
        -12    1    4    4    0    0  0.80973153134E+01 -0.18081822324E+01 -0.14483326781E+01  0.84222150184E+01  0.00000000000E+00 0.  1.
</event>
<event>
 8    1  0.2390921E-006  0.9118800E+02  0.7816164E-02  0.1184000E+00
        -11   -1    0    0    0    0  0.00000000000E+00  0.00000000000E+00  0.45593999997E+02  0.45594000000E+02  0.51100000000E-03 0. -1.
         11   -1    0    0    0    0 -0.00000000000E+00 -0.00000000000E+00 -0.45593999997E+02  0.45594000000E+02  0.51100000000E-03 0.  1.
         23    2    1    2    0    0  0.00000000000E+00  0.17763568394E-14  0.71054273576E-14  0.91188000000E+02  0.91188000000E+02 0.  0.
    9900012    2    3    3    0    0  0.17013562163E+02 -0.10108116633E+02  0.31050707041E+02  0.54367058580E+02  0.39999941645E+02 0.  0.
        -12    1    3    3    0    0 -0.17013562163E+02  0.10108116633E+02 -0.31050707041E+02  0.36820941420E+02  0.00000000000E+00 0.  1.
         11    1    4    4    0    0 -0.87300740303E+00  0.54689593330E+01  0.15092412426E+02  0.16076460158E+02  0.51100000000E-03 0. -1.
        -11    1    4    4    0    0 -0.52028880922E+01 -0.65833630444E+00 -0.18219009870E+01  0.55518262452E+01  0.51100000000E-03 0.  1.
        -12    1    4    4    0    0  0.23089457658E+02 -0.14918739661E+02  0.17780195602E+02  0.32738772177E+02  0.00000000000E+00 0.  1.
</event>
<event>
 8    1  0.2390921E-006  0.9118800E+02  0.7816164E-02  0.1184000E+00
        -11   -1    0    0    0    0  0.00000000000E+00  0.00000000000E+00  0.45593999997E+02  0.45594000000E+02  0.51100000000E-03 0.  1.
         11   -1    0    0    0    0 -0.00000000000E+00 -0.00000000000E+00 -0.45593999997E+02  0.45594000000E+02  0.51100000000E-03 0. -1.
         23    2    1    2    0    0  0.00000000000E+00 -0.26645352591E-14  0.00000000000E+00  0.91188000000E+02  0.91188000000E+02 0.  0.
    9900012    2    3    3    0    0  0.19337949096E+02 -0.56592886068E+01  0.30818769623E+02  0.54367076819E+02  0.39999983225E+02 0.  0.
         12    1    3    3    0    0 -0.19337949096E+02  0.56592886068E+01 -0.30818769623E+02  0.36820923181E+02  0.00000000000E+00 0. -1.
         11    1    4    4    0    0  0.77302075525E+01  0.83120261469E+01  0.26137573505E+02  0.28495940702E+02  0.51100000000E-03 0.  1.
        -11    1    4    4    0    0  0.30515804904E+01 -0.13863209256E+02 -0.28426599929E+01  0.14476927521E+02  0.51100000000E-03 0. -1.
         12    1    4    4    0    0  0.85561610530E+01 -0.10810549791E+00  0.75238561112E+01  0.11394208597E+02  0.00000000000E+00 0. -1.
</event>
<event>
 8    1  0.2390921E-006  0.9118800E+02  0.7816164E-02  0.1184000E+00
        -11   -1    0    0    0    0  0.00000000000E+00  0.00000000000E+00  0.45593999997E+02  0.45594000000E+02  0.51100000000E-03 0. -1.
         11   -1    0    0    0    0 -0.00000000000E+00 -0.00000000000E+00 -0.45593999997E+02  0.45594000000E+02  0.51100000000E-03 0.  1.
         23    2    1    2    0    0  0.71054273576E-14  0.00000000000E+00  0.35527136788E-14  0.91188000000E+02  0.91188000000E+02 0.  0.
    9900012    2    3    3    0    0 -0.33647641482E+02  0.11281243517E+02 -0.98158057142E+01  0.54367078306E+02  0.39999986614E+02 0.  0.
        -12    1    3    3    0    0  0.33647641482E+02 -0.11281243517E+02  0.98158057142E+01  0.36820921694E+02  0.00000000000E+00 0.  1.
         11    1    4    4    0    0 -0.13125110143E+02  0.68873029156E+01  0.13143211295E+02  0.19810286751E+02  0.51100000000E-03 0. -1.
        -11    1    4    4    0    0 -0.26762464958E+01 -0.49009364718E+01 -0.36639865707E+01  0.66787926647E+01  0.51100000000E-03 0.  1.
        -12    1    4    4    0    0 -0.17846284843E+02  0.92948770734E+01 -0.19295030439E+02  0.27877998891E+02  0.00000000000E+00 0.  1.
</event>
<event>
 8    1  0.2390921E-006  0.9118800E+02  0.7816164E-02  0.1184000E+00
        -11   -1    0    0    0    0  0.00000000000E+00  0.00000000000E+00  0.45593999997E+02  0.45594000000E+02  0.51100000000E-03 0. -1.
         11   -1    0    0    0    0 -0.00000000000E+00 -0.00000000000E+00 -0.45593999997E+02  0.45594000000E+02  0.51100000000E-03 0.  1.
         23    2    1    2    0    0  0.00000000000E+00  0.00000000000E+00  0.17763568394E-14  0.91188000000E+02  0.91188000000E+02 0.  0.
    9900012    2    3    3    0    0  0.27516243157E+02 -0.22052242069E+02 -0.10598811562E+02  0.54367084419E+02  0.40000000549E+02 0.  0.
         12    1    3    3    0    0 -0.27516243157E+02  0.22052242069E+02  0.10598811562E+02  0.36820915581E+02  0.00000000000E+00 0. -1.
         11    1    4    4    0    0 -0.69825386080E+00 -0.17010112163E+01  0.20942014377E+01  0.27868759454E+01  0.51100000000E-03 0. -1.
        -11    1    4    4    0    0  0.12354055262E+02 -0.29125705468E+02 -0.10436862808E+02  0.33314523949E+02  0.51100000000E-03 0.  1.
        -12    1    4    4    0    0  0.15860441756E+02  0.87744746155E+01 -0.22561501922E+01  0.18265684525E+02  0.00000000000E+00 0.  1.
</event>
<event>
 8    1  0.2390921E-006  0.9118800E+02  0.7816164E-02  0.1184000E+00
        -11   -1    0    0    0    0  0.00000000000E+00  0.00000000000E+00  0.45593999997E+02  0.45594000000E+02  0.51100000000E-03 0.  1.
         11   -1    0    0    0    0 -0.00000000000E+00 -0.00000000000E+00 -0.45593999997E+02  0.45594000000E+02  0.51100000000E-03 0. -1.
         23    2    1    2    0    0  0.00000000000E+00 -0.35527136788E-14 -0.17763568394E-14  0.91188000000E+02  0.91188000000E+02 0.  0.
    9900012    2    3    3    0    0 -0.30381473943E+02 -0.17932721726E+02 -0.10543391162E+02  0.54367087944E+02  0.40000008586E+02 0.  0.
        -12    1    3    3    0    0  0.30381473943E+02  0.17932721726E+02  0.10543391162E+02  0.36820912056E+02  0.00000000000E+00 0.  1.
         11    1    4    4    0    0 -0.45389815347E+00 -0.90229341550E+01  0.10233196255E+01  0.90921145844E+01  0.51100000000E-03 0. -1.
        -11    1    4    4    0    0 -0.12981114378E+01 -0.14244758255E+02 -0.11663163117E+01  0.14351255173E+02  0.51100000000E-03 0.  1.
         12    1    4    4    0    0 -0.28629464351E+02  0.53349706836E+01 -0.10400394476E+02  0.30923718187E+02  0.00000000000E+00 0. -1.
</event>
<event>
 8    1  0.2390921E-006  0.9118800E+02  0.7816164E-02  0.1184000E+00
        -11   -1    0    0    0    0  0.00000000000E+00  0.00000000000E+00  0.45593999997E+02  0.45594000000E+02  0.51100000000E-03 0. -1.
         11   -1    0    0    0    0 -0.00000000000E+00 -0.00000000000E+00 -0.45593999997E+02  0.45594000000E+02  0.51100000000E-03 0.  1.
         23    2    1    2    0    0  0.00000000000E+00  0.00000000000E+00  0.00000000000E+00  0.91188000000E+02  0.91188000000E+02 0.  0.
    9900012    2    3    3    0    0 -0.15555817614E+02  0.74144614719E+01 -0.32539560835E+02  0.54367072256E+02  0.39999972822E+02 0.  0.
         12    1    3    3    0    0  0.15555817614E+02 -0.74144614719E+01  0.32539560835E+02  0.36820927744E+02  0.00000000000E+00 0. -1.
         11    1    4    4    0    0 -0.23034704854E+01  0.11998020751E+02 -0.86321020347E+01  0.14958999432E+02  0.51100000000E-03 0.  1.
        -11    1    4    4    0    0 -0.30581290756E+01  0.10730503418E+02 -0.15706075364E+02  0.19265945621E+02  0.51100000000E-03 0. -1.
         12    1    4    4    0    0 -0.10194218053E+02 -0.15314062697E+02 -0.82013834362E+01  0.20142127203E+02  0.00000000000E+00 0. -1.
</event>
<event>
 8    1  0.2390921E-006  0.9118800E+02  0.7816164E-02  0.1184000E+00
        -11   -1    0    0    0    0  0.00000000000E+00  0.00000000000E+00  0.45593999997E+02  0.45594000000E+02  0.51100000000E-03 0. -1.
         11   -1    0    0    0    0 -0.00000000000E+00 -0.00000000000E+00 -0.45593999997E+02  0.45594000000E+02  0.51100000000E-03 0.  1.
         23    2    1    2    0    0 -0.35527136788E-14  0.35527136788E-14  0.35527136788E-14  0.91188000000E+02  0.91188000000E+02 0.  0.
    9900012    2    3    3    0    0 -0.29225328385E+02 -0.10675266257E+02  0.19690084018E+02  0.54367074733E+02  0.39999978469E+02 0.  0.
        -12    1    3    3    0    0  0.29225328385E+02  0.10675266257E+02 -0.19690084018E+02  0.36820925267E+02  0.00000000000E+00 0.  1.
         11    1    4    4    0    0  0.28046552672E+01  0.35046708043E+01 -0.26464612002E+01  0.52108123896E+01  0.51100000000E-03 0. -1.
        -11    1    4    4    0    0 -0.14127827351E+02  0.72324470605E+01  0.85108536086E+01  0.18009398256E+02  0.51100000000E-03 0.  1.
         12    1    4    4    0    0 -0.17902156301E+02 -0.21412384121E+02  0.13825691610E+02  0.31146864088E+02  0.00000000000E+00 0. -1.
</event>
<event>
 8    1  0.2390921E-006  0.9118800E+02  0.7816164E-02  0.1184000E+00
        -11   -1    0    0    0    0  0.00000000000E+00  0.00000000000E+00  0.45593999997E+02  0.45594000000E+02  0.51100000000E-03 0.  1.
         11   -1    0    0    0    0 -0.00000000000E+00 -0.00000000000E+00 -0.45593999997E+02  0.45594000000E+02  0.51100000000E-03 0. -1.
         23    2    1    2    0    0  0.00000000000E+00  0.00000000000E+00  0.17763568394E-14  0.91188000000E+02  0.91188000000E+02 0.  0.
    9900012    2    3    3    0    0  0.33920583788E+02 -0.89677665062E+01 -0.11169362043E+02  0.54367061812E+02  0.39999949013E+02 0.  0.
        -12    1    3    3    0    0 -0.33920583788E+02  0.89677665062E+01  0.11169362043E+02  0.36820938188E+02  0.00000000000E+00 0.  1.
         11    1    4    4    0    0  0.10733907735E+02 -0.21380113068E+01  0.37194704322E+01  0.11559512453E+02  0.51100000000E-03 0. -1.
        -11    1    4    4    0    0 -0.27447619581E+01 -0.11224372679E+02 -0.11476568723E+02  0.16285941488E+02  0.51100000000E-03 0.  1.
         12    1    4    4    0    0  0.25931438011E+02  0.43946174793E+01 -0.34122637521E+01  0.26521607870E+02  0.00000000000E+00 0. -1.
</event>
<event>
 8    1  0.2390921E-006  0.9118800E+02  0.7816164E-02  0.1184000E+00
        -11   -1    0    0    0    0  0.00000000000E+00  0.00000000000E+00  0.45593999997E+02  0.45594000000E+02  0.51100000000E-03 0.  1.
         11   -1    0    0    0    0 -0.00000000000E+00 -0.00000000000E+00 -0.45593999997E+02  0.45594000000E+02  0.51100000000E-03 0. -1.
         23    2    1    2    0    0 -0.35527136788E-14  0.00000000000E+00  0.00000000000E+00  0.91188000000E+02  0.91188000000E+02 0.  0.
    9900012    2    3    3    0    0 -0.16087651346E+02 -0.18728706382E+02 -0.27316721100E+02  0.54367079042E+02  0.39999988292E+02 0.  0.
        -12    1    3    3    0    0  0.16087651346E+02  0.18728706382E+02  0.27316721100E+02  0.36820920958E+02  0.00000000000E+00 0.  1.
         11    1    4    4    0    0 -0.17815395965E+02 -0.37758235214E+01 -0.48819152182E+01  0.18854131460E+02  0.51100000000E-03 0. -1.
        -11    1    4    4    0    0  0.82345458045E+01 -0.27937552127E+01  0.54505990442E+00  0.87126289577E+01  0.51100000000E-03 0.  1.
         12    1    4    4    0    0 -0.65068011862E+01 -0.12159127648E+02 -0.22979865786E+02  0.26800318624E+02  0.00000000000E+00 0. -1.
</event>
<event>
 8    1  0.2390921E-006  0.9118800E+02  0.7816164E-02  0.1184000E+00
        -11   -1    0    0    0    0  0.00000000000E+00  0.00000000000E+00  0.45593999997E+02  0.45594000000E+02  0.51100000000E-03 0.  1.
         11   -1    0    0    0    0 -0.00000000000E+00 -0.00000000000E+00 -0.45593999997E+02  0.45594000000E+02  0.51100000000E-03 0. -1.
         23    2    1    2    0    0  0.00000000000E+00  0.35527136788E-14 -0.35527136788E-14  0.91188000000E+02  0.91188000000E+02 0.  0.
    9900012    2    3    3    0    0 -0.97560801394E+01 -0.29016368634E+02  0.20460933548E+02  0.54367074563E+02  0.39999978082E+02 0.  0.
         12    1    3    3    0    0  0.97560801394E+01  0.29016368634E+02 -0.20460933548E+02  0.36820925437E+02  0.00000000000E+00 0. -1.
         11    1    4    4    0    0  0.69105579859E+01 -0.27155355909E+02  0.14880767741E+02  0.31727061241E+02  0.51100000000E-03 0. -1.
        -11    1    4    4    0    0 -0.98173202404E+01 -0.21926556214E+01  0.10236041180E+02  0.14351447825E+02  0.51100000000E-03 0.  1.
         12    1    4    4    0    0 -0.68493178849E+01  0.33164289631E+00 -0.46558753734E+01  0.82885654966E+01  0.00000000000E+00 0. -1.
</event>
<event>
 8    1  0.2390921E-006  0.9118800E+02  0.7816164E-02  0.1184000E+00
        -11   -1    0    0    0    0  0.00000000000E+00  0.00000000000E+00  0.45593999997E+02  0.45594000000E+02  0.51100000000E-03 0.  1.
         11   -1    0    0    0    0 -0.00000000000E+00 -0.00000000000E+00 -0.45593999997E+02  0.45594000000E+02  0.51100000000E-03 0. -1.
         23    2    1    2    0    0  0.00000000000E+00  0.00000000000E+00  0.00000000000E+00  0.91188000000E+02  0.91188000000E+02 0.  0.
    9900012    2    3    3    0    0  0.61153026103E+01 -0.11975423577E+02  0.34277956099E+02  0.54367000961E+02  0.39999810291E+02 0.  0.
         12    1    3    3    0    0 -0.61153026103E+01  0.11975423577E+02 -0.34277956099E+02  0.36820999039E+02  0.00000000000E+00 0. -1.
         11    1    4    4    0    0 -0.14015503806E+02 -0.31326237915E+01  0.94998224667E+01  0.17219010015E+02  0.51100000000E-03 0. -1.
        -11    1    4    4    0    0 -0.27019884297E+01 -0.31312401675E+01  0.34589304945E+01  0.53916237710E+01  0.51100000000E-03 0.  1.
        -12    1    4    4    0    0  0.22832794845E+02 -0.57115596175E+01  0.21319203138E+02  0.31756367175E+02  0.00000000000E+00 0.  1.
</event>
<event>
 8    1  0.2390921E-006  0.9118800E+02  0.7816164E-02  0.1184000E+00
        -11   -1    0    0    0    0  0.00000000000E+00  0.00000000000E+00  0.45593999997E+02  0.45594000000E+02  0.51100000000E-03 0. -1.
         11   -1    0    0    0    0 -0.00000000000E+00 -0.00000000000E+00 -0.45593999997E+02  0.45594000000E+02  0.51100000000E-03 0.  1.
         23    2    1    2    0    0  0.00000000000E+00  0.00000000000E+00  0.00000000000E+00  0.91188000000E+02  0.91188000000E+02 0.  0.
    9900012    2    3    3    0    0  0.90175440382E+01  0.33241826723E+02 -0.13017092236E+02  0.54367084277E+02  0.40000000227E+02 0.  0.
         12    1    3    3    0    0 -0.90175440382E+01 -0.33241826723E+02  0.13017092236E+02  0.36820915723E+02  0.00000000000E+00 0. -1.
         11    1    4    4    0    0 -0.26681045803E+01  0.17069791065E+02  0.77589559713E+01  0.18939322772E+02  0.51100000000E-03 0. -1.
        -11    1    4    4    0    0 -0.56956047799E+01  0.67052397979E+01 -0.78313349249E+01  0.11778368373E+02  0.51100000000E-03 0.  1.
        -12    1    4    4    0    0  0.17381253398E+02  0.94667958607E+01 -0.12944713282E+02  0.23649393132E+02  0.00000000000E+00 0.  1.
</event>
<event>
 8    1  0.2390921E-006  0.9118800E+02  0.7816164E-02  0.1184000E+00
        -11   -1    0    0    0    0  0.00000000000E+00  0.00000000000E+00  0.45593999997E+02  0.45594000000E+02  0.51100000000E-03 0.  1.
         11   -1    0    0    0    0 -0.00000000000E+00 -0.00000000000E+00 -0.45593999997E+02  0.45594000000E+02  0.51100000000E-03 0. -1.
         23    2    1    2    0    0 -0.17763568394E-14 -0.88817841970E-15 -0.71054273576E-14  0.91188000000E+02  0.91188000000E+02 0.  0.
    9900012    2    3    3    0    0  0.13437288977E+02  0.79365336940E+01  0.33350141526E+02  0.54367065167E+02  0.39999956662E+02 0.  0.
         12    1    3    3    0    0 -0.13437288977E+02 -0.79365336940E+01 -0.33350141526E+02  0.36820934833E+02  0.00000000000E+00 0. -1.
         11    1    4    4    0    0  0.10929765964E+01 -0.76834293089E+01 -0.54441185359E+01  0.94798792545E+01  0.51100000000E-03 0. -1.
        -11    1    4    4    0    0 -0.20316851540E+00  0.76959209224E+01  0.14563008594E+02  0.16472695464E+02  0.51100000000E-03 0.  1.
         12    1    4    4    0    0  0.12547480896E+02  0.79240420806E+01  0.24231251468E+02  0.28414490449E+02  0.00000000000E+00 0. -1.
</event>
<event>
 8    1  0.2390921E-006  0.9118800E+02  0.7816164E-02  0.1184000E+00
        -11   -1    0    0    0    0  0.00000000000E+00  0.00000000000E+00  0.45593999997E+02  0.45594000000E+02  0.51100000000E-03 0.  1.
         11   -1    0    0    0    0 -0.00000000000E+00 -0.00000000000E+00 -0.45593999997E+02  0.45594000000E+02  0.51100000000E-03 0. -1.
         23    2    1    2    0    0  0.00000000000E+00 -0.35527136788E-14  0.35527136788E-14  0.91188000000E+02  0.91188000000E+02 0.  0.
    9900012    2    3    3    0    0 -0.61503785081E+01 -0.23603768405E+02  0.27582798942E+02  0.54367138574E+02  0.40000124006E+02 0.  0.
         12    1    3    3    0    0  0.61503785081E+01  0.23603768405E+02 -0.27582798942E+02  0.36820861426E+02  0.00000000000E+00 0. -1.
         11    1    4    4    0    0 -0.24846868304E+01 -0.21744707180E+02  0.10815234033E+01  0.21912910626E+02  0.51100000000E-03 0. -1.
        -11    1    4    4    0    0 -0.79945639443E+01  0.49065230393E+01  0.81651981425E+01  0.12436136135E+02  0.51100000000E-03 0.  1.
         12    1    4    4    0    0  0.43288722666E+01 -0.67655842644E+01  0.18336077396E+02  0.20018091813E+02  0.00000000000E+00 0. -1.
</event>
<event>
 8    1  0.2390921E-006  0.9118800E+02  0.7816164E-02  0.1184000E+00
        -11   -1    0    0    0    0  0.00000000000E+00  0.00000000000E+00  0.45593999997E+02  0.45594000000E+02  0.51100000000E-03 0. -1.
         11   -1    0    0    0    0 -0.00000000000E+00 -0.00000000000E+00 -0.45593999997E+02  0.45594000000E+02  0.51100000000E-03 0.  1.
         23    2    1    2    0    0  0.11102230246E-15  0.00000000000E+00  0.00000000000E+00  0.91188000000E+02  0.91188000000E+02 0.  0.
    9900012    2    3    3    0    0 -0.86181404620E+00  0.24267203430E+02 -0.27679191532E+02  0.54367115578E+02  0.40000071583E+02 0.  0.
         12    1    3    3    0    0  0.86181404620E+00 -0.24267203430E+02  0.27679191532E+02  0.36820884422E+02  0.00000000000E+00 0. -1.
         11    1    4    4    0    0 -0.33155079156E+01 -0.26594157002E+01  0.23234262679E+01  0.48439028157E+01  0.51100000000E-03 0. -1.
        -11    1    4    4    0    0  0.14111698350E+02  0.19852738721E+02 -0.12626896515E+02  0.27435556873E+02  0.51100000000E-03 0.  1.
        -12    1    4    4    0    0 -0.11658004481E+02  0.70738804083E+01 -0.17375721285E+02  0.22087655889E+02  0.00000000000E+00 0.  1.
</event>
<event>
 8    1  0.2390921E-006  0.9118800E+02  0.7816164E-02  0.1184000E+00
        -11   -1    0    0    0    0  0.00000000000E+00  0.00000000000E+00  0.45593999997E+02  0.45594000000E+02  0.51100000000E-03 0.  1.
         11   -1    0    0    0    0 -0.00000000000E+00 -0.00000000000E+00 -0.45593999997E+02  0.45594000000E+02  0.51100000000E-03 0. -1.
         23    2    1    2    0    0  0.00000000000E+00 -0.88817841970E-15  0.00000000000E+00  0.91188000000E+02  0.91188000000E+02 0.  0.
    9900012    2    3    3    0    0 -0.11148297658E+02  0.44365669389E+01 -0.34811069646E+02  0.54367105975E+02  0.40000049691E+02 0.  0.
        -12    1    3    3    0    0  0.11148297658E+02 -0.44365669389E+01  0.34811069646E+02  0.36820894025E+02  0.00000000000E+00 0.  1.
         11    1    4    4    0    0 -0.84851375586E+00 -0.11021390167E+02 -0.94781924001E+01  0.14561152023E+02  0.51100000000E-03 0. -1.
        -11    1    4    4    0    0 -0.18835734897E+01  0.63554084598E+00  0.47948985271E+01  0.51906467231E+01  0.51100000000E-03 0.  1.
        -12    1    4    4    0    0 -0.84162104127E+01  0.14822416260E+02 -0.30127775773E+02  0.34615307229E+02  0.00000000000E+00 0.  1.
</event>
<event>
 8    1  0.2390921E-006  0.9118800E+02  0.7816164E-02  0.1184000E+00
        -11   -1    0    0    0    0  0.00000000000E+00  0.00000000000E+00  0.45593999997E+02  0.45594000000E+02  0.51100000000E-03 0. -1.
         11   -1    0    0    0    0 -0.00000000000E+00 -0.00000000000E+00 -0.45593999997E+02  0.45594000000E+02  0.51100000000E-03 0.  1.
         23    2    1    2    0    0 -0.22204460493E-15  0.00000000000E+00  0.35527136788E-14  0.91188000000E+02  0.91188000000E+02 0.  0.
    9900012    2    3    3    0    0  0.10613495010E+01  0.22387461950E+02 -0.29213946251E+02  0.54367087860E+02  0.40000008394E+02 0.  0.
         12    1    3    3    0    0 -0.10613495010E+01 -0.22387461950E+02  0.29213946251E+02  0.36820912140E+02  0.00000000000E+00 0. -1.
         11    1    4    4    0    0 -0.50850984342E+01  0.19703139022E+02 -0.11748154073E+02  0.23496617582E+02  0.51100000000E-03 0. -1.
        -11    1    4    4    0    0 -0.68312030348E+01  0.26722826750E+01 -0.16258685241E+02  0.17836795553E+02  0.51100000000E-03 0.  1.
         12    1    4    4    0    0  0.12977650970E+02  0.12040253043E-01 -0.12071069368E+01  0.13033674724E+02  0.00000000000E+00 0. -1.
</event>
<event>
 8    1  0.2390921E-006  0.9118800E+02  0.7816164E-02  0.1184000E+00
        -11   -1    0    0    0    0  0.00000000000E+00  0.00000000000E+00  0.45593999997E+02  0.45594000000E+02  0.51100000000E-03 0. -1.
         11   -1    0    0    0    0 -0.00000000000E+00 -0.00000000000E+00 -0.45593999997E+02  0.45594000000E+02  0.51100000000E-03 0.  1.
         23    2    1    2    0    0  0.00000000000E+00  0.00000000000E+00  0.00000000000E+00  0.91188000000E+02  0.91188000000E+02 0.  0.
    9900012    2    3    3    0    0 -0.21067228157E+02 -0.12783802079E+02 -0.27359198989E+02  0.54367089269E+02  0.40000011606E+02 0.  0.
         12    1    3    3    0    0  0.21067228157E+02  0.12783802079E+02  0.27359198989E+02  0.36820910731E+02  0.00000000000E+00 0. -1.
         11    1    4    4    0    0  0.10231631056E+01 -0.80588935024E+00  0.30131307096E+00  0.13368284158E+01  0.51100000000E-03 0. -1.
        -11    1    4    4    0    0  0.60524130090E+01 -0.15462372284E+02 -0.13117058116E+02  0.21160668084E+02  0.51100000000E-03 0.  1.
        -12    1    4    4    0    0 -0.28142804271E+02  0.34844595556E+01 -0.14543453944E+02  0.31869592769E+02  0.00000000000E+00 0.  1.
</event>
<event>
 8    1  0.2390921E-006  0.9118800E+02  0.7816164E-02  0.1184000E+00
        -11   -1    0    0    0    0  0.00000000000E+00  0.00000000000E+00  0.45593999997E+02  0.45594000000E+02  0.51100000000E-03 0. -1.
         11   -1    0    0    0    0 -0.00000000000E+00 -0.00000000000E+00 -0.45593999997E+02  0.45594000000E+02  0.51100000000E-03 0.  1.
         23    2    1    2    0    0  0.88817841970E-15  0.00000000000E+00  0.00000000000E+00  0.91188000000E+02  0.91188000000E+02 0.  0.
    9900012    2    3    3    0    0  0.38973649678E+01 -0.33523713403E+02 -0.14722476823E+02  0.54367080161E+02  0.39999990842E+02 0.  0.
         12    1    3    3    0    0 -0.38973649678E+01  0.33523713403E+02  0.14722476823E+02  0.36820919839E+02  0.00000000000E+00 0. -1.
         11    1    4    4    0    0 -0.10128441171E+02 -0.22930590794E+02 -0.15487809531E+02  0.29466414085E+02  0.51100000000E-03 0. -1.
        -11    1    4    4    0    0  0.18943025179E+01 -0.94238555073E+01 -0.56270627145E+01  0.11138279477E+02  0.51100000000E-03 0.  1.
         12    1    4    4    0    0  0.12131503621E+02 -0.11692671018E+01  0.63923954216E+01  0.13762386599E+02  0.00000000000E+00 0. -1.
</event>
<event>
 8    1  0.2390921E-006  0.9118800E+02  0.7816164E-02  0.1184000E+00
        -11   -1    0    0    0    0  0.00000000000E+00  0.00000000000E+00  0.45593999997E+02  0.45594000000E+02  0.51100000000E-03 0. -1.
         11   -1    0    0    0    0 -0.00000000000E+00 -0.00000000000E+00 -0.45593999997E+02  0.45594000000E+02  0.51100000000E-03 0.  1.
         23    2    1    2    0    0  0.17763568394E-14  0.00000000000E+00  0.00000000000E+00  0.91188000000E+02  0.91188000000E+02 0.  0.
    9900012    2    3    3    0    0  0.12495667555E+02  0.25244682550E+02 -0.23713809137E+02  0.54367075942E+02  0.39999981225E+02 0.  0.
         12    1    3    3    0    0 -0.12495667555E+02 -0.25244682550E+02  0.23713809137E+02  0.36820924058E+02  0.00000000000E+00 0. -1.
         11    1    4    4    0    0  0.53061535756E+01  0.13192554378E+01  0.84885181895E+01  0.10097061057E+02  0.51100000000E-03 0. -1.
        -11    1    4    4    0    0  0.10516329599E+02  0.15191844576E+02 -0.12057396574E+02  0.22062777302E+02  0.51100000000E-03 0.  1.
         12    1    4    4    0    0 -0.33268156191E+01  0.87335825357E+01 -0.20144930752E+02  0.22207237583E+02  0.00000000000E+00 0. -1.
</event>
<event>
 8    1  0.2390921E-006  0.9118800E+02  0.7816164E-02  0.1184000E+00
        -11   -1    0    0    0    0  0.00000000000E+00  0.00000000000E+00  0.45593999997E+02  0.45594000000E+02  0.51100000000E-03 0. -1.
         11   -1    0    0    0    0 -0.00000000000E+00 -0.00000000000E+00 -0.45593999997E+02  0.45594000000E+02  0.51100000000E-03 0.  1.
         23    2    1    2    0    0 -0.35527136788E-14  0.00000000000E+00  0.17763568394E-14  0.91188000000E+02  0.91188000000E+02 0.  0.
    9900012    2    3    3    0    0 -0.24460810653E+02  0.25530458781E+02 -0.10277495144E+02  0.54367319808E+02  0.40000537163E+02 0.  0.
         12    1    3    3    0    0  0.24460810653E+02 -0.25530458781E+02  0.10277495144E+02  0.36820680192E+02  0.00000000000E+00 0. -1.
         11    1    4    4    0    0 -0.56064295623E+01  0.59758682361E+00  0.14835732337E+01  0.58301073961E+01  0.51100000000E-03 0. -1.
        -11    1    4    4    0    0 -0.28984477387E+02  0.14811301797E+02 -0.59805540866E+01  0.33094434846E+02  0.51100000000E-03 0.  1.
         12    1    4    4    0    0  0.10130096296E+02  0.10121570160E+02 -0.57805142912E+01  0.15442777566E+02  0.00000000000E+00 0. -1.
</event>
<event>
 8    1  0.2390921E-006  0.9118800E+02  0.7816164E-02  0.1184000E+00
        -11   -1    0    0    0    0  0.00000000000E+00  0.00000000000E+00  0.45593999997E+02  0.45594000000E+02  0.51100000000E-03 0. -1.
         11   -1    0    0    0    0 -0.00000000000E+00 -0.00000000000E+00 -0.45593999997E+02  0.45594000000E+02  0.51100000000E-03 0.  1.
         23    2    1    2    0    0  0.17763568394E-14  0.00000000000E+00  0.88817841970E-15  0.91188000000E+02  0.91188000000E+02 0.  0.
    9900012    2    3    3    0    0 -0.13939515617E+02  0.33503455963E+02 -0.62440399211E+01  0.54367086220E+02  0.40000004655E+02 0.  0.
        -12    1    3    3    0    0  0.13939515617E+02 -0.33503455963E+02  0.62440399211E+01  0.36820913780E+02  0.00000000000E+00 0.  1.
         11    1    4    4    0    0  0.66410351085E+01  0.75136806198E+01  0.36202198515E+01  0.10661366507E+02  0.51100000000E-03 0. -1.
        -11    1    4    4    0    0 -0.52493142303E+01 -0.53789710894E+01 -0.37917573402E+00  0.75254504428E+01  0.51100000000E-03 0.  1.
        -12    1    4    4    0    0 -0.15331236495E+02  0.31368746432E+02 -0.94850840386E+01  0.36180269270E+02  0.00000000000E+00 0.  1.
</event>
<event>
 8    1  0.2390921E-006  0.9118800E+02  0.7816164E-02  0.1184000E+00
        -11   -1    0    0    0    0  0.00000000000E+00  0.00000000000E+00  0.45593999997E+02  0.45594000000E+02  0.51100000000E-03 0.  1.
         11   -1    0    0    0    0 -0.00000000000E+00 -0.00000000000E+00 -0.45593999997E+02  0.45594000000E+02  0.51100000000E-03 0. -1.
         23    2    1    2    0    0  0.00000000000E+00  0.17763568394E-14  0.00000000000E+00  0.91188000000E+02  0.91188000000E+02 0.  0.
    9900012    2    3    3    0    0 -0.29340290312E+02 -0.72109179869E+01 -0.21045899443E+02  0.54367083972E+02  0.39999999530E+02 0.  0.
        -12    1    3    3    0    0  0.29340290312E+02  0.72109179869E+01  0.21045899443E+02  0.36820916028E+02  0.00000000000E+00 0.  1.
         11    1    4    4    0    0 -0.90608404865E+01 -0.17842105116E+02 -0.89834634399E+01  0.21934952950E+02  0.51100000000E-03 0. -1.
        -11    1    4    4    0    0 -0.16662112203E+02 -0.21536155369E+01 -0.61766810293E+01  0.17900151724E+02  0.51100000000E-03 0.  1.
        -12    1    4    4    0    0 -0.36173376228E+01  0.12784802666E+02 -0.58857549739E+01  0.14531979298E+02  0.00000000000E+00 0.  1.
</event>
<event>
 8    1  0.2390921E-006  0.9118800E+02  0.7816164E-02  0.1184000E+00
        -11   -1    0    0    0    0  0.00000000000E+00  0.00000000000E+00  0.45593999997E+02  0.45594000000E+02  0.51100000000E-03 0. -1.
         11   -1    0    0    0    0 -0.00000000000E+00 -0.00000000000E+00 -0.45593999997E+02  0.45594000000E+02  0.51100000000E-03 0.  1.
         23    2    1    2    0    0  0.00000000000E+00 -0.88817841970E-15 -0.35527136788E-14  0.91188000000E+02  0.91188000000E+02 0.  0.
    9900012    2    3    3    0    0  0.20012735510E+02 -0.48512320441E+01  0.30524365943E+02  0.54367069116E+02  0.39999965665E+02 0.  0.
        -12    1    3    3    0    0 -0.20012735510E+02  0.48512320441E+01 -0.30524365943E+02  0.36820930884E+02  0.00000000000E+00 0.  1.
         11    1    4    4    0    0  0.19397023993E+02 -0.25066091220E+01  0.15005550371E+02  0.24651453736E+02  0.51100000000E-03 0. -1.
        -11    1    4    4    0    0 -0.14371795793E+01  0.10932862281E+02  0.31854657400E+01  0.11477811422E+02  0.51100000000E-03 0.  1.
        -12    1    4    4    0    0  0.20528910962E+01 -0.13277485203E+02  0.12333349831E+02  0.18237803959E+02  0.00000000000E+00 0.  1.
</event>
<event>
 8    1  0.2390921E-006  0.9118800E+02  0.7816164E-02  0.1184000E+00
        -11   -1    0    0    0    0  0.00000000000E+00  0.00000000000E+00  0.45593999997E+02  0.45594000000E+02  0.51100000000E-03 0. -1.
         11   -1    0    0    0    0 -0.00000000000E+00 -0.00000000000E+00 -0.45593999997E+02  0.45594000000E+02  0.51100000000E-03 0.  1.
         23    2    1    2    0    0  0.00000000000E+00 -0.17763568394E-14 -0.71054273576E-14  0.91188000000E+02  0.91188000000E+02 0.  0.
    9900012    2    3    3    0    0  0.11528229184E+02  0.11964602133E+02  0.32859209420E+02  0.54367089962E+02  0.40000013187E+02 0.  0.
        -12    1    3    3    0    0 -0.11528229184E+02 -0.11964602133E+02 -0.32859209420E+02  0.36820910038E+02  0.00000000000E+00 0.  1.
         11    1    4    4    0    0 -0.23580686601E+01  0.55793330840E+01 -0.33900893645E+01  0.69413364440E+01  0.51100000000E-03 0. -1.
        -11    1    4    4    0    0 -0.58816101531E+01  0.19012187380E+01  0.34025310796E+00  0.61906173457E+01  0.51100000000E-03 0.  1.
         12    1    4    4    0    0  0.19767907997E+02  0.44840503112E+01  0.35909045676E+02  0.41235136172E+02  0.00000000000E+00 0. -1.
</event>
<event>
 8    1  0.2390921E-006  0.9118800E+02  0.7816164E-02  0.1184000E+00
        -11   -1    0    0    0    0  0.00000000000E+00  0.00000000000E+00  0.45593999997E+02  0.45594000000E+02  0.51100000000E-03 0.  1.
         11   -1    0    0    0    0 -0.00000000000E+00 -0.00000000000E+00 -0.45593999997E+02  0.45594000000E+02  0.51100000000E-03 0. -1.
         23    2    1    2    0    0  0.00000000000E+00 -0.17763568394E-14  0.00000000000E+00  0.91188000000E+02  0.91188000000E+02 0.  0.
    9900012    2    3    3    0    0 -0.21951241791E+02  0.15191521652E+02 -0.25360241448E+02  0.54367065838E+02  0.39999958190E+02 0.  0.
        -12    1    3    3    0    0  0.21951241791E+02 -0.15191521652E+02  0.25360241448E+02  0.36820934162E+02  0.00000000000E+00 0.  1.
         11    1    4    4    0    0  0.12956641360E+01  0.13532936467E+02 -0.20895136330E+02  0.24928414259E+02  0.51100000000E-03 0. -1.
        -11    1    4    4    0    0  0.22627381036E+00 -0.83971264862E+00 -0.57332730501E+01  0.57988565509E+01  0.51100000000E-03 0.  1.
        -12    1    4    4    0    0 -0.23473179737E+02  0.24982978339E+01  0.12681679316E+01  0.23639795028E+02  0.00000000000E+00 0.  1.
</event>
<event>
 8    1  0.2390921E-006  0.9118800E+02  0.7816164E-02  0.1184000E+00
        -11   -1    0    0    0    0  0.00000000000E+00  0.00000000000E+00  0.45593999997E+02  0.45594000000E+02  0.51100000000E-03 0.  1.
         11   -1    0    0    0    0 -0.00000000000E+00 -0.00000000000E+00 -0.45593999997E+02  0.45594000000E+02  0.51100000000E-03 0. -1.
         23    2    1    2    0    0  0.00000000000E+00  0.00000000000E+00  0.00000000000E+00  0.91188000000E+02  0.91188000000E+02 0.  0.
    9900012    2    3    3    0    0  0.33838952283E+02 -0.12425225227E+02 -0.75046982365E+01  0.54367062897E+02  0.39999951486E+02 0.  0.
        -12    1    3    3    0    0 -0.33838952283E+02  0.12425225227E+02  0.75046982365E+01  0.36820937103E+02  0.00000000000E+00 0.  1.
         11    1    4    4    0    0  0.19991402067E+02 -0.74730648936E+01 -0.12223473887E+02  0.24595043599E+02  0.51100000000E-03 0. -1.
        -11    1    4    4    0    0  0.91056042247E+01 -0.44662141305E+01 -0.10034909744E+02  0.14267393272E+02  0.51100000000E-03 0.  1.
        -12    1    4    4    0    0  0.47419459911E+01 -0.48594620248E+00  0.14753685394E+02  0.15504626026E+02  0.00000000000E+00 0.  1.
</event>
<event>
 8    1  0.2390921E-006  0.9118800E+02  0.7816164E-02  0.1184000E+00
        -11   -1    0    0    0    0  0.00000000000E+00  0.00000000000E+00  0.45593999997E+02  0.45594000000E+02  0.51100000000E-03 0.  1.
         11   -1    0    0    0    0 -0.00000000000E+00 -0.00000000000E+00 -0.45593999997E+02  0.45594000000E+02  0.51100000000E-03 0. -1.
         23    2    1    2    0    0  0.71054273576E-14 -0.88817841970E-15  0.66613381478E-15  0.91188000000E+02  0.91188000000E+02 0.  0.
    9900012    2    3    3    0    0  0.36520131358E+02 -0.45850660008E+01  0.10181706325E+01  0.54367088875E+02  0.40000010709E+02 0.  0.
        -12    1    3    3    0    0 -0.36520131358E+02  0.45850660008E+01 -0.10181706325E+01  0.36820911125E+02  0.00000000000E+00 0.  1.
         11    1    4    4    0    0  0.31757374619E+02 -0.10043882314E+02  0.10246471665E+02  0.34848250981E+02  0.51100000000E-03 0.  1.
        -11    1    4    4    0    0  0.18986855580E+00  0.58409558110E+01  0.29198654210E+01  0.65328729662E+01  0.51100000000E-03 0. -1.
        -12    1    4    4    0    0  0.45728881833E+01 -0.38213949752E+00 -0.12148166453E+02  0.12985964928E+02  0.00000000000E+00 0.  1.
</event>
<event>
 8    1  0.2390921E-006  0.9118800E+02  0.7816164E-02  0.1184000E+00
        -11   -1    0    0    0    0  0.00000000000E+00  0.00000000000E+00  0.45593999997E+02  0.45594000000E+02  0.51100000000E-03 0.  1.
         11   -1    0    0    0    0 -0.00000000000E+00 -0.00000000000E+00 -0.45593999997E+02  0.45594000000E+02  0.51100000000E-03 0. -1.
         23    2    1    2    0    0  0.00000000000E+00  0.88817841970E-15  0.71054273576E-14  0.91188000000E+02  0.91188000000E+02 0.  0.
    9900012    2    3    3    0    0  0.22464216236E+02  0.24748090229E+01 -0.29069128723E+02  0.54367082908E+02  0.39999997105E+02 0.  0.
        -12    1    3    3    0    0 -0.22464216236E+02 -0.24748090229E+01  0.29069128723E+02  0.36820917092E+02  0.00000000000E+00 0.  1.
         11    1    4    4    0    0  0.10832148509E+02 -0.31253180694E+01  0.42159830842E+01  0.12036509792E+02  0.51100000000E-03 0. -1.
        -11    1    4    4    0    0  0.10602704667E+02 -0.58285881646E+01 -0.78386323385E+01  0.14416446977E+02  0.51100000000E-03 0.  1.
         12    1    4    4    0    0  0.10293630598E+01  0.11428715257E+02 -0.25446479469E+02  0.27914126138E+02  0.00000000000E+00 0. -1.
</event>
<event>
 8    1  0.2390921E-006  0.9118800E+02  0.7816164E-02  0.1184000E+00
        -11   -1    0    0    0    0  0.00000000000E+00  0.00000000000E+00  0.45593999997E+02  0.45594000000E+02  0.51100000000E-03 0.  1.
         11   -1    0    0    0    0 -0.00000000000E+00 -0.00000000000E+00 -0.45593999997E+02  0.45594000000E+02  0.51100000000E-03 0. -1.
         23    2    1    2    0    0  0.00000000000E+00  0.00000000000E+00  0.00000000000E+00  0.91188000000E+02  0.91188000000E+02 0.  0.
    9900012    2    3    3    0    0  0.11838290328E+02  0.18977576775E+02  0.29248722464E+02  0.54367064326E+02  0.39999954744E+02 0.  0.
         12    1    3    3    0    0 -0.11838290328E+02 -0.18977576775E+02 -0.29248722464E+02  0.36820935674E+02  0.00000000000E+00 0. -1.
         11    1    4    4    0    0 -0.91924838721E+01  0.71606578577E+01  0.73768284655E+01  0.13791097823E+02  0.51100000000E-03 0. -1.
        -11    1    4    4    0    0  0.18291331414E+02  0.17468702313E+02  0.23009511624E+02  0.34193069339E+02  0.51100000000E-03 0.  1.
        -12    1    4    4    0    0  0.27394427867E+01 -0.56517833963E+01 -0.11376176261E+01  0.63828971638E+01  0.00000000000E+00 0.  1.
</event>
<event>
 8    1  0.2390921E-006  0.9118800E+02  0.7816164E-02  0.1184000E+00
        -11   -1    0    0    0    0  0.00000000000E+00  0.00000000000E+00  0.45593999997E+02  0.45594000000E+02  0.51100000000E-03 0.  1.
         11   -1    0    0    0    0 -0.00000000000E+00 -0.00000000000E+00 -0.45593999997E+02  0.45594000000E+02  0.51100000000E-03 0. -1.
         23    2    1    2    0    0  0.35527136788E-14  0.00000000000E+00  0.00000000000E+00  0.91188000000E+02  0.91188000000E+02 0.  0.
    9900012    2    3    3    0    0  0.23425589801E+02  0.15110509059E+02  0.24056045593E+02  0.54367094646E+02  0.40000023864E+02 0.  0.
         12    1    3    3    0    0 -0.23425589801E+02 -0.15110509059E+02 -0.24056045593E+02  0.36820905354E+02  0.00000000000E+00 0. -1.
         11    1    4    4    0    0  0.41434563096E+01  0.17841527712E+02 -0.24498456046E+01  0.18479450345E+02  0.51100000000E-03 0. -1.
        -11    1    4    4    0    0  0.18470678884E+02  0.25729852825E+01  0.18651789498E+02  0.26375660815E+02  0.51100000000E-03 0.  1.
         12    1    4    4    0    0  0.81145460744E+00 -0.53040039360E+01  0.78541016995E+01  0.95119834861E+01  0.00000000000E+00 0. -1.
</event>
<event>
 8    1  0.2390921E-006  0.9118800E+02  0.7816164E-02  0.1184000E+00
        -11   -1    0    0    0    0  0.00000000000E+00  0.00000000000E+00  0.45593999997E+02  0.45594000000E+02  0.51100000000E-03 0.  1.
         11   -1    0    0    0    0 -0.00000000000E+00 -0.00000000000E+00 -0.45593999997E+02  0.45594000000E+02  0.51100000000E-03 0. -1.
         23    2    1    2    0    0  0.00000000000E+00 -0.13322676296E-14  0.00000000000E+00  0.91188000000E+02  0.91188000000E+02 0.  0.
    9900012    2    3    3    0    0  0.35843174687E+02 -0.11269740844E+01 -0.83532525868E+01  0.54367081067E+02  0.39999992910E+02 0.  0.
         12    1    3    3    0    0 -0.35843174687E+02  0.11269740844E+01  0.83532525868E+01  0.36820918933E+02  0.00000000000E+00 0. -1.
         11    1    4    4    0    0 -0.42376115798E+01 -0.65039360393E+01 -0.21461551035E+01  0.80538511219E+01  0.51100000000E-03 0. -1.
        -11    1    4    4    0    0  0.63049298327E+01 -0.60187128354E+01 -0.61483307847E+01  0.10666724712E+02  0.51100000000E-03 0.  1.
         12    1    4    4    0    0  0.33775856434E+02  0.11395674790E+02 -0.58766698618E-01  0.35646505233E+02  0.00000000000E+00 0. -1.
</event>
<event>
 8    1  0.2390921E-006  0.9118800E+02  0.7816164E-02  0.1184000E+00
        -11   -1    0    0    0    0  0.00000000000E+00  0.00000000000E+00  0.45593999997E+02  0.45594000000E+02  0.51100000000E-03 0. -1.
         11   -1    0    0    0    0 -0.00000000000E+00 -0.00000000000E+00 -0.45593999997E+02  0.45594000000E+02  0.51100000000E-03 0.  1.
         23    2    1    2    0    0  0.00000000000E+00  0.00000000000E+00  0.88817841970E-15  0.91188000000E+02  0.91188000000E+02 0.  0.
    9900012    2    3    3    0    0 -0.19875259473E+02  0.30430972188E+02 -0.58914549046E+01  0.54367092239E+02  0.40000018377E+02 0.  0.
         12    1    3    3    0    0  0.19875259473E+02 -0.30430972188E+02  0.58914549046E+01  0.36820907761E+02  0.00000000000E+00 0. -1.
         11    1    4    4    0    0 -0.76797546880E+01 -0.34424025277E+01  0.54069608711E+01  0.10003199156E+02  0.51100000000E-03 0. -1.
        -11    1    4    4    0    0 -0.36938236644E+01  0.81643176134E+01 -0.14553064560E+02  0.17090702259E+02  0.51100000000E-03 0.  1.
        -12    1    4    4    0    0 -0.85016811209E+01  0.25709057103E+02  0.32546487847E+01  0.27273190824E+02  0.00000000000E+00 0.  1.
</event>
<event>
 8    1  0.2390921E-006  0.9118800E+02  0.7816164E-02  0.1184000E+00
        -11   -1    0    0    0    0  0.00000000000E+00  0.00000000000E+00  0.45593999997E+02  0.45594000000E+02  0.51100000000E-03 0. -1.
         11   -1    0    0    0    0 -0.00000000000E+00 -0.00000000000E+00 -0.45593999997E+02  0.45594000000E+02  0.51100000000E-03 0.  1.
         23    2    1    2    0    0 -0.35527136788E-14 -0.24424906542E-14  0.00000000000E+00  0.91188000000E+02  0.91188000000E+02 0.  0.
    9900012    2    3    3    0    0  0.27128718510E+02  0.15348373095E+01  0.24848700766E+02  0.54367068136E+02  0.39999963429E+02 0.  0.
        -12    1    3    3    0    0 -0.27128718510E+02 -0.15348373095E+01 -0.24848700766E+02  0.36820931864E+02  0.00000000000E+00 0.  1.
         11    1    4    4    0    0  0.10045001177E+02 -0.17677835304E+02  0.16757172750E+02  0.26347879394E+02  0.51100000000E-03 0. -1.
        -11    1    4    4    0    0  0.92253098037E+01  0.81616246658E+01  0.17790365916E+00  0.12318689384E+02  0.51100000000E-03 0.  1.
         12    1    4    4    0    0  0.78584075293E+01  0.11051047948E+02  0.79136243568E+01  0.15700499358E+02  0.00000000000E+00 0. -1.
</event>
<event>
 8    1  0.2390921E-006  0.9118800E+02  0.7816164E-02  0.1184000E+00
        -11   -1    0    0    0    0  0.00000000000E+00  0.00000000000E+00  0.45593999997E+02  0.45594000000E+02  0.51100000000E-03 0.  1.
         11   -1    0    0    0    0 -0.00000000000E+00 -0.00000000000E+00 -0.45593999997E+02  0.45594000000E+02  0.51100000000E-03 0. -1.
         23    2    1    2    0    0  0.35527136788E-14 -0.35527136788E-14 -0.17763568394E-14  0.91188000000E+02  0.91188000000E+02 0.  0.
    9900012    2    3    3    0    0 -0.24825277739E+02  0.23854155236E+02 -0.13056234626E+02  0.54367076608E+02  0.39999982744E+02 0.  0.
         12    1    3    3    0    0  0.24825277739E+02 -0.23854155236E+02  0.13056234626E+02  0.36820923392E+02  0.00000000000E+00 0. -1.
         11    1    4    4    0    0  0.22807932377E+01 -0.61230933013E+01 -0.79503074480E+01  0.10290854102E+02  0.51100000000E-03 0. -1.
        -11    1    4    4    0    0 -0.58080018616E+00 -0.29378552820E+00 -0.37489753059E+01  0.38050564908E+01  0.51100000000E-03 0.  1.
        -12    1    4    4    0    0 -0.26525270790E+02  0.30271034065E+02 -0.13569518717E+01  0.40271166016E+02  0.00000000000E+00 0.  1.
</event>
<event>
 8    1  0.2390921E-006  0.9118800E+02  0.7816164E-02  0.1184000E+00
        -11   -1    0    0    0    0  0.00000000000E+00  0.00000000000E+00  0.45593999997E+02  0.45594000000E+02  0.51100000000E-03 0.  1.
         11   -1    0    0    0    0 -0.00000000000E+00 -0.00000000000E+00 -0.45593999997E+02  0.45594000000E+02  0.51100000000E-03 0. -1.
         23    2    1    2    0    0  0.88817841970E-15 -0.35527136788E-14  0.35527136788E-14  0.91188000000E+02  0.91188000000E+02 0.  0.
    9900012    2    3    3    0    0 -0.39430982016E+01 -0.31058452805E+02  0.19380518387E+02  0.54367081937E+02  0.39999994891E+02 0.  0.
         12    1    3    3    0    0  0.39430982016E+01  0.31058452805E+02 -0.19380518387E+02  0.36820918063E+02  0.00000000000E+00 0. -1.
         11    1    4    4    0    0  0.13090362608E+02 -0.26226900278E+02  0.31542409239E+01  0.29481470918E+02  0.51100000000E-03 0. -1.
        -11    1    4    4    0    0 -0.57723364552E+01  0.79058773640E+00  0.78127309777E+01  0.97459562236E+01  0.51100000000E-03 0.  1.
         12    1    4    4    0    0 -0.11261124355E+02 -0.56221402637E+01  0.84135464851E+01  0.15139654796E+02  0.00000000000E+00 0. -1.
</event>
<event>
 8    1  0.2390921E-006  0.9118800E+02  0.7816164E-02  0.1184000E+00
        -11   -1    0    0    0    0  0.00000000000E+00  0.00000000000E+00  0.45593999997E+02  0.45594000000E+02  0.51100000000E-03 0. -1.
         11   -1    0    0    0    0 -0.00000000000E+00 -0.00000000000E+00 -0.45593999997E+02  0.45594000000E+02  0.51100000000E-03 0.  1.
         23    2    1    2    0    0  0.00000000000E+00  0.17763568394E-14  0.00000000000E+00  0.91188000000E+02  0.91188000000E+02 0.  0.
    9900012    2    3    3    0    0 -0.32905971929E+01  0.96477161587E+01 -0.35381841140E+02  0.54367066560E+02  0.39999959837E+02 0.  0.
         12    1    3    3    0    0  0.32905971929E+01 -0.96477161587E+01  0.35381841140E+02  0.36820933440E+02  0.00000000000E+00 0. -1.
         11    1    4    4    0    0 -0.94067692310E+01 -0.89203354905E+01 -0.42035542251E+01  0.13628263316E+02  0.51100000000E-03 0. -1.
        -11    1    4    4    0    0 -0.46002561595E+01  0.85895588540E+01 -0.55266943670E+01  0.11202108236E+02  0.51100000000E-03 0.  1.
         12    1    4    4    0    0  0.10716428198E+02  0.99784927952E+01 -0.25651592547E+02  0.29536695008E+02  0.00000000000E+00 0. -1.
</event>
<event>
 8    1  0.2390921E-006  0.9118800E+02  0.7816164E-02  0.1184000E+00
        -11   -1    0    0    0    0  0.00000000000E+00  0.00000000000E+00  0.45593999997E+02  0.45594000000E+02  0.51100000000E-03 0. -1.
         11   -1    0    0    0    0 -0.00000000000E+00 -0.00000000000E+00 -0.45593999997E+02  0.45594000000E+02  0.51100000000E-03 0.  1.
         23    2    1    2    0    0  0.00000000000E+00 -0.35527136788E-14 -0.13877787808E-14  0.91188000000E+02  0.91188000000E+02 0.  0.
    9900012    2    3    3    0    0  0.19853487471E+02 -0.31006993016E+02  0.43101840821E+00  0.54367077177E+02  0.39999984040E+02 0.  0.
         12    1    3    3    0    0 -0.19853487471E+02  0.31006993016E+02 -0.43101840821E+00  0.36820922823E+02  0.00000000000E+00 0. -1.
         11    1    4    4    0    0 -0.50223735383E+01 -0.16501121065E+02  0.93419260152E+01  0.19615881685E+02  0.51100000000E-03 0. -1.
        -11    1    4    4    0    0  0.14181392168E+02 -0.49278589923E+01 -0.12961462138E+02  0.19834192171E+02  0.51100000000E-03 0.  1.
        -12    1    4    4    0    0  0.10694468841E+02 -0.95780129592E+01  0.40505545309E+01  0.14917003320E+02  0.00000000000E+00 0.  1.
</event>
<event>
 8    1  0.2390921E-006  0.9118800E+02  0.7816164E-02  0.1184000E+00
        -11   -1    0    0    0    0  0.00000000000E+00  0.00000000000E+00  0.45593999997E+02  0.45594000000E+02  0.51100000000E-03 0. -1.
         11   -1    0    0    0    0 -0.00000000000E+00 -0.00000000000E+00 -0.45593999997E+02  0.45594000000E+02  0.51100000000E-03 0.  1.
         23    2    1    2    0    0 -0.35527136788E-14  0.35527136788E-14  0.71054273576E-14  0.91188000000E+02  0.91188000000E+02 0.  0.
    9900012    2    3    3    0    0  0.20583641741E+02 -0.11610420843E+02 -0.28236361442E+02  0.54367078136E+02  0.39999986226E+02 0.  0.
         12    1    3    3    0    0 -0.20583641741E+02  0.11610420843E+02  0.28236361442E+02  0.36820921864E+02  0.00000000000E+00 0. -1.
         11    1    4    4    0    0  0.24408514411E+01  0.58824991468E+01  0.10214559376E+01  0.64501879401E+01  0.51100000000E-03 0. -1.
        -11    1    4    4    0    0  0.81448072849E+01 -0.19036243131E+02 -0.31365380620E+02  0.37583288040E+02  0.51100000000E-03 0.  1.
         12    1    4    4    0    0  0.99979830151E+01  0.15433231416E+01  0.21075632402E+01  0.10333602155E+02  0.00000000000E+00 0. -1.
</event>
<event>
 8    1  0.2390921E-006  0.9118800E+02  0.7816164E-02  0.1184000E+00
        -11   -1    0    0    0    0  0.00000000000E+00  0.00000000000E+00  0.45593999997E+02  0.45594000000E+02  0.51100000000E-03 0. -1.
         11   -1    0    0    0    0 -0.00000000000E+00 -0.00000000000E+00 -0.45593999997E+02  0.45594000000E+02  0.51100000000E-03 0.  1.
         23    2    1    2    0    0  0.35527136788E-14  0.00000000000E+00  0.17763568394E-14  0.91188000000E+02  0.91188000000E+02 0.  0.
    9900012    2    3    3    0    0 -0.25834942184E+02 -0.23536884139E+02  0.11591019498E+02  0.54367070006E+02  0.39999967692E+02 0.  0.
        -12    1    3    3    0    0  0.25834942184E+02  0.23536884139E+02 -0.11591019498E+02  0.36820929994E+02  0.00000000000E+00 0.  1.
         11    1    4    4    0    0 -0.27279879840E+01  0.15415939714E+01  0.12587621622E+02  0.12971763519E+02  0.51100000000E-03 0. -1.
        -11    1    4    4    0    0  0.44449855080E+01 -0.30896158362E+01 -0.28075170518E+01  0.60980139750E+01  0.51100000000E-03 0.  1.
         12    1    4    4    0    0 -0.27551939708E+02 -0.21988862274E+02  0.18109149271E+01  0.35297292512E+02  0.00000000000E+00 0. -1.
</event>
<event>
 8    1  0.2390921E-006  0.9118800E+02  0.7816164E-02  0.1184000E+00
        -11   -1    0    0    0    0  0.00000000000E+00  0.00000000000E+00  0.45593999997E+02  0.45594000000E+02  0.51100000000E-03 0.  1.
         11   -1    0    0    0    0 -0.00000000000E+00 -0.00000000000E+00 -0.45593999997E+02  0.45594000000E+02  0.51100000000E-03 0. -1.
         23    2    1    2    0    0  0.00000000000E+00  0.00000000000E+00  0.17763568394E-14  0.91188000000E+02  0.91188000000E+02 0.  0.
    9900012    2    3    3    0    0  0.13134190629E+02 -0.30600532980E+02 -0.15712402922E+02  0.54367093062E+02  0.40000020253E+02 0.  0.
        -12    1    3    3    0    0 -0.13134190629E+02  0.30600532980E+02  0.15712402922E+02  0.36820906938E+02  0.00000000000E+00 0.  1.
         11    1    4    4    0    0  0.18437507679E+02 -0.99607986381E+01 -0.11432987945E+02  0.23872000597E+02  0.51100000000E-03 0. -1.
        -11    1    4    4    0    0  0.39404568691E+01  0.29072789129E+01 -0.68069507374E+00  0.49439677445E+01  0.51100000000E-03 0.  1.
         12    1    4    4    0    0 -0.92437739188E+01 -0.23547013255E+02 -0.35987199034E+01  0.25551124720E+02  0.00000000000E+00 0. -1.
</event>
<event>
 8    1  0.2390921E-006  0.9118800E+02  0.7816164E-02  0.1184000E+00
        -11   -1    0    0    0    0  0.00000000000E+00  0.00000000000E+00  0.45593999997E+02  0.45594000000E+02  0.51100000000E-03 0.  1.
         11   -1    0    0    0    0 -0.00000000000E+00 -0.00000000000E+00 -0.45593999997E+02  0.45594000000E+02  0.51100000000E-03 0. -1.
         23    2    1    2    0    0  0.00000000000E+00  0.00000000000E+00 -0.17763568394E-14  0.91188000000E+02  0.91188000000E+02 0.  0.
    9900012    2    3    3    0    0  0.80037979114E+01  0.33081041234E+02 -0.14048606102E+02  0.54367090131E+02  0.40000013573E+02 0.  0.
        -12    1    3    3    0    0 -0.80037979114E+01 -0.33081041234E+02  0.14048606102E+02  0.36820909869E+02  0.00000000000E+00 0.  1.
         11    1    4    4    0    0  0.38072481330E+01  0.29625177449E+02 -0.49623340048E+01  0.30278227099E+02  0.51100000000E-03 0. -1.
        -11    1    4    4    0    0 -0.13674611611E+01  0.30865520768E+01  0.66150839491E+01  0.74267145943E+01  0.51100000000E-03 0.  1.
         12    1    4    4    0    0  0.55640109395E+01  0.36931170789E+00 -0.15701356046E+02  0.16662148438E+02  0.00000000000E+00 0. -1.
</event>
<event>
 8    1  0.2390921E-006  0.9118800E+02  0.7816164E-02  0.1184000E+00
        -11   -1    0    0    0    0  0.00000000000E+00  0.00000000000E+00  0.45593999997E+02  0.45594000000E+02  0.51100000000E-03 0. -1.
         11   -1    0    0    0    0 -0.00000000000E+00 -0.00000000000E+00 -0.45593999997E+02  0.45594000000E+02  0.51100000000E-03 0.  1.
         23    2    1    2    0    0  0.00000000000E+00  0.00000000000E+00  0.00000000000E+00  0.91188000000E+02  0.91188000000E+02 0.  0.
    9900012    2    3    3    0    0 -0.23512425249E+02  0.23468420765E+02 -0.15880264215E+02  0.54367031710E+02  0.39999880389E+02 0.  0.
         12    1    3    3    0    0  0.23512425249E+02 -0.23468420765E+02  0.15880264215E+02  0.36820968290E+02  0.00000000000E+00 0. -1.
         11    1    4    4    0    0  0.45160634698E+01  0.67175899792E+01 -0.30934107276E+01  0.86654506278E+01  0.51100000000E-03 0. -1.
        -11    1    4    4    0    0  0.28514876810E+01 -0.28755581098E+01 -0.77807300221E+01  0.87715207561E+01  0.51100000000E-03 0.  1.
         12    1    4    4    0    0 -0.30879976400E+02  0.19626388895E+02 -0.50061234652E+01  0.36930060326E+02  0.00000000000E+00 0. -1.
</event>
<event>
 8    1  0.2390921E-006  0.9118800E+02  0.7816164E-02  0.1184000E+00
        -11   -1    0    0    0    0  0.00000000000E+00  0.00000000000E+00  0.45593999997E+02  0.45594000000E+02  0.51100000000E-03 0.  1.
         11   -1    0    0    0    0 -0.00000000000E+00 -0.00000000000E+00 -0.45593999997E+02  0.45594000000E+02  0.51100000000E-03 0. -1.
         23    2    1    2    0    0  0.88817841970E-15  0.00000000000E+00  0.00000000000E+00  0.91188000000E+02  0.91188000000E+02 0.  0.
    9900012    2    3    3    0    0  0.49560390157E+01  0.74432711687E+01 -0.35718519577E+02  0.54367119386E+02  0.40000080263E+02 0.  0.
        -12    1    3    3    0    0 -0.49560390157E+01 -0.74432711687E+01  0.35718519577E+02  0.36820880614E+02  0.00000000000E+00 0.  1.
         11    1    4    4    0    0 -0.16568490357E+02  0.59796905795E+01 -0.11365824966E+02  0.20963147416E+02  0.51100000000E-03 0. -1.
        -11    1    4    4    0    0  0.76346778087E+01 -0.31048229139E+01 -0.88846128950E+01  0.12118769621E+02  0.51100000000E-03 0.  1.
         12    1    4    4    0    0  0.13889851564E+02  0.45684035031E+01 -0.15468081717E+02  0.21285202349E+02  0.00000000000E+00 0. -1.
</event>
<event>
 8    1  0.2390921E-006  0.9118800E+02  0.7816164E-02  0.1184000E+00
        -11   -1    0    0    0    0  0.00000000000E+00  0.00000000000E+00  0.45593999997E+02  0.45594000000E+02  0.51100000000E-03 0.  1.
         11   -1    0    0    0    0 -0.00000000000E+00 -0.00000000000E+00 -0.45593999997E+02  0.45594000000E+02  0.51100000000E-03 0. -1.
         23    2    1    2    0    0 -0.88817841970E-15  0.35527136788E-14  0.35527136788E-14  0.91188000000E+02  0.91188000000E+02 0.  0.
    9900012    2    3    3    0    0 -0.62438052259E+01 -0.21045235963E+02  0.29561646052E+02  0.54367109493E+02  0.40000057710E+02 0.  0.
         12    1    3    3    0    0  0.62438052259E+01  0.21045235963E+02 -0.29561646052E+02  0.36820890507E+02  0.00000000000E+00 0. -1.
         11    1    4    4    0    0 -0.66769144042E+01 -0.40388349764E-01 -0.27519113751E+01  0.72218995878E+01  0.51100000000E-03 0. -1.
        -11    1    4    4    0    0 -0.41647704413E+01 -0.92522211416E+01 -0.22126698477E+01  0.10384835916E+02  0.51100000000E-03 0.  1.
        -12    1    4    4    0    0  0.45978796195E+01 -0.11752626472E+02  0.34526227275E+02  0.36760373989E+02  0.00000000000E+00 0.  1.
</event>
<event>
 8    1  0.2390921E-006  0.9118800E+02  0.7816164E-02  0.1184000E+00
        -11   -1    0    0    0    0  0.00000000000E+00  0.00000000000E+00  0.45593999997E+02  0.45594000000E+02  0.51100000000E-03 0.  1.
         11   -1    0    0    0    0 -0.00000000000E+00 -0.00000000000E+00 -0.45593999997E+02  0.45594000000E+02  0.51100000000E-03 0. -1.
         23    2    1    2    0    0  0.00000000000E+00 -0.35527136788E-14 -0.35527136788E-14  0.91188000000E+02  0.91188000000E+02 0.  0.
    9900012    2    3    3    0    0  0.93690854469E+01  0.18394653567E+02  0.30489940138E+02  0.54367088936E+02  0.40000010848E+02 0.  0.
         12    1    3    3    0    0 -0.93690854469E+01 -0.18394653567E+02 -0.30489940138E+02  0.36820911064E+02  0.00000000000E+00 0. -1.
         11    1    4    4    0    0 -0.51814282085E+01  0.86243279571E+01  0.24420258043E+02  0.26411649591E+02  0.51100000000E-03 0. -1.
        -11    1    4    4    0    0  0.14513654394E+01 -0.25078216527E+01  0.92755780437E+01  0.97176118150E+01  0.51100000000E-03 0.  1.
        -12    1    4    4    0    0  0.13099148216E+02  0.12278147262E+02 -0.32058959490E+01  0.18237827530E+02  0.00000000000E+00 0.  1.
</event>
<event>
 8    1  0.2390921E-006  0.9118800E+02  0.7816164E-02  0.1184000E+00
        -11   -1    0    0    0    0  0.00000000000E+00  0.00000000000E+00  0.45593999997E+02  0.45594000000E+02  0.51100000000E-03 0. -1.
         11   -1    0    0    0    0 -0.00000000000E+00 -0.00000000000E+00 -0.45593999997E+02  0.45594000000E+02  0.51100000000E-03 0.  1.
         23    2    1    2    0    0  0.35527136788E-14  0.35527136788E-14 -0.17763568394E-14  0.91188000000E+02  0.91188000000E+02 0.  0.
    9900012    2    3    3    0    0 -0.18362789115E+02 -0.31339765495E+02 -0.60338540775E+01  0.54367077681E+02  0.39999985190E+02 0.  0.
        -12    1    3    3    0    0  0.18362789115E+02  0.31339765495E+02  0.60338540775E+01  0.36820922319E+02  0.00000000000E+00 0.  1.
         11    1    4    4    0    0 -0.14083679540E+02 -0.16954225244E+02  0.91358139599E+01  0.23859146674E+02  0.51100000000E-03 0. -1.
        -11    1    4    4    0    0  0.58259233564E+01 -0.61517129095E+01 -0.15280923604E+02  0.17472595146E+02  0.51100000000E-03 0.  1.
        -12    1    4    4    0    0 -0.10105032931E+02 -0.82338273412E+01  0.11125556706E+00  0.13035335861E+02  0.00000000000E+00 0.  1.
</event>
<event>
 8    1  0.2390921E-006  0.9118800E+02  0.7816164E-02  0.1184000E+00
        -11   -1    0    0    0    0  0.00000000000E+00  0.00000000000E+00  0.45593999997E+02  0.45594000000E+02  0.51100000000E-03 0.  1.
         11   -1    0    0    0    0 -0.00000000000E+00 -0.00000000000E+00 -0.45593999997E+02  0.45594000000E+02  0.51100000000E-03 0. -1.
         23    2    1    2    0    0  0.00000000000E+00 -0.17763568394E-14 -0.71054273576E-14  0.91188000000E+02  0.91188000000E+02 0.  0.
    9900012    2    3    3    0    0  0.72757257281E+01 -0.15665368597E+02 -0.32518314493E+02  0.54367072043E+02  0.39999972337E+02 0.  0.
        -12    1    3    3    0    0 -0.72757257281E+01  0.15665368597E+02  0.32518314493E+02  0.36820927957E+02  0.00000000000E+00 0.  1.
         11    1    4    4    0    0  0.13695258574E+02 -0.11065096826E+01 -0.17933866859E+02  0.22592212195E+02  0.51100000000E-03 0. -1.
        -11    1    4    4    0    0 -0.13190318877E+02 -0.45046780099E+01 -0.13821613589E+02  0.19629407493E+02  0.51100000000E-03 0.  1.
        -12    1    4    4    0    0  0.67707860306E+01 -0.10054180904E+02 -0.76283404474E+00  0.12145452355E+02  0.00000000000E+00 0.  1.
</event>
<event>
 8    1  0.2390921E-006  0.9118800E+02  0.7816164E-02  0.1184000E+00
        -11   -1    0    0    0    0  0.00000000000E+00  0.00000000000E+00  0.45593999997E+02  0.45594000000E+02  0.51100000000E-03 0.  1.
         11   -1    0    0    0    0 -0.00000000000E+00 -0.00000000000E+00 -0.45593999997E+02  0.45594000000E+02  0.51100000000E-03 0. -1.
         23    2    1    2    0    0  0.00000000000E+00  0.00000000000E+00  0.35527136788E-14  0.91188000000E+02  0.91188000000E+02 0.  0.
    9900012    2    3    3    0    0  0.18858664699E+02 -0.30532771654E+02  0.82384750467E+01  0.54367192700E+02  0.40000247398E+02 0.  0.
        -12    1    3    3    0    0 -0.18858664699E+02  0.30532771654E+02 -0.82384750467E+01  0.36820807300E+02  0.00000000000E+00 0.  1.
         11    1    4    4    0    0  0.20730008994E+01  0.12751117499E+01 -0.38949676451E+01  0.45928222174E+01  0.51100000000E-03 0. -1.
        -11    1    4    4    0    0  0.14203946322E+02 -0.32547709778E+02  0.20488295340E+02  0.40998484717E+02  0.51100000000E-03 0.  1.
        -12    1    4    4    0    0  0.25817174773E+01  0.73982637385E+00 -0.83548526482E+01  0.87758857655E+01  0.00000000000E+00 0.  1.
</event>
<event>
 8    1  0.2390921E-006  0.9118800E+02  0.7816164E-02  0.1184000E+00
        -11   -1    0    0    0    0  0.00000000000E+00  0.00000000000E+00  0.45593999997E+02  0.45594000000E+02  0.51100000000E-03 0. -1.
         11   -1    0    0    0    0 -0.00000000000E+00 -0.00000000000E+00 -0.45593999997E+02  0.45594000000E+02  0.51100000000E-03 0.  1.
         23    2    1    2    0    0  0.22204460493E-15  0.00000000000E+00  0.35527136788E-14  0.91188000000E+02  0.91188000000E+02 0.  0.
    9900012    2    3    3    0    0  0.17935758866E+01 -0.26481863049E+02  0.25520052654E+02  0.54367094627E+02  0.40000023822E+02 0.  0.
        -12    1    3    3    0    0 -0.17935758866E+01  0.26481863049E+02 -0.25520052654E+02  0.36820905373E+02  0.00000000000E+00 0.  1.
         11    1    4    4    0    0 -0.73080059087E+01 -0.14671262582E+02  0.12152277737E+02  0.20404184634E+02  0.51100000000E-03 0. -1.
        -11    1    4    4    0    0  0.12639534671E+02 -0.19090752923E+02  0.80118322684E+01  0.24257043109E+02  0.51100000000E-03 0.  1.
        -12    1    4    4    0    0 -0.35379528754E+01  0.72801524553E+01  0.53559426484E+01  0.97058668842E+01  0.00000000000E+00 0.  1.
</event>
<event>
 8    1  0.2390921E-006  0.9118800E+02  0.7816164E-02  0.1184000E+00
        -11   -1    0    0    0    0  0.00000000000E+00  0.00000000000E+00  0.45593999997E+02  0.45594000000E+02  0.51100000000E-03 0. -1.
         11   -1    0    0    0    0 -0.00000000000E+00 -0.00000000000E+00 -0.45593999997E+02  0.45594000000E+02  0.51100000000E-03 0.  1.
         23    2    1    2    0    0  0.88817841970E-15  0.17763568394E-14  0.00000000000E+00  0.91188000000E+02  0.91188000000E+02 0.  0.
    9900012    2    3    3    0    0  0.62381826196E+01  0.14803405396E+02  0.33131930209E+02  0.54367074793E+02  0.39999978606E+02 0.  0.
        -12    1    3    3    0    0 -0.62381826196E+01 -0.14803405396E+02 -0.33131930209E+02  0.36820925207E+02  0.00000000000E+00 0.  1.
         11    1    4    4    0    0 -0.40949950148E+01 -0.17215318271E+01  0.12450106025E+02  0.13218842472E+02  0.51100000000E-03 0. -1.
        -11    1    4    4    0    0 -0.57492941284E+01  0.10111245138E+02  0.20802634183E+02  0.23833615975E+02  0.51100000000E-03 0.  1.
        -12    1    4    4    0    0  0.16082471763E+02  0.64136920843E+01 -0.12080999878E+00  0.17314616346E+02  0.00000000000E+00 0.  1.
</event>
<event>
 8    1  0.2390921E-006  0.9118800E+02  0.7816164E-02  0.1184000E+00
        -11   -1    0    0    0    0  0.00000000000E+00  0.00000000000E+00  0.45593999997E+02  0.45594000000E+02  0.51100000000E-03 0.  1.
         11   -1    0    0    0    0 -0.00000000000E+00 -0.00000000000E+00 -0.45593999997E+02  0.45594000000E+02  0.51100000000E-03 0. -1.
         23    2    1    2    0    0  0.35527136788E-14  0.88817841970E-15  0.00000000000E+00  0.91188000000E+02  0.91188000000E+02 0.  0.
    9900012    2    3    3    0    0  0.26295817999E+02  0.76825912518E+01 -0.24602580050E+02  0.54367092927E+02  0.40000019946E+02 0.  0.
        -12    1    3    3    0    0 -0.26295817999E+02 -0.76825912518E+01  0.24602580050E+02  0.36820907073E+02  0.00000000000E+00 0.  1.
         11    1    4    4    0    0 -0.40774055480E+01 -0.55708781776E+01 -0.84725300883E+01  0.10929029510E+02  0.51100000000E-03 0. -1.
        -11    1    4    4    0    0  0.68202592901E+00  0.37472138252E+01  0.46203793538E+01  0.59878774581E+01  0.51100000000E-03 0.  1.
        -12    1    4    4    0    0  0.29691197618E+02  0.95062556043E+01 -0.20750429315E+02  0.37450185959E+02  0.00000000000E+00 0.  1.
</event>
<event>
 8    1  0.2390921E-006  0.9118800E+02  0.7816164E-02  0.1184000E+00
        -11   -1    0    0    0    0  0.00000000000E+00  0.00000000000E+00  0.45593999997E+02  0.45594000000E+02  0.51100000000E-03 0. -1.
         11   -1    0    0    0    0 -0.00000000000E+00 -0.00000000000E+00 -0.45593999997E+02  0.45594000000E+02  0.51100000000E-03 0.  1.
         23    2    1    2    0    0  0.35527136788E-14  0.00000000000E+00  0.35527136788E-14  0.91188000000E+02  0.91188000000E+02 0.  0.
    9900012    2    3    3    0    0 -0.22394618624E+02 -0.19020808052E+02 -0.22191641942E+02  0.54367094873E+02  0.40000024383E+02 0.  0.
         12    1    3    3    0    0  0.22394618624E+02  0.19020808052E+02  0.22191641942E+02  0.36820905127E+02  0.00000000000E+00 0. -1.
         11    1    4    4    0    0 -0.85783522687E+01 -0.64060934387E+01  0.21984498810E+00  0.10708617692E+02  0.51100000000E-03 0. -1.
        -11    1    4    4    0    0 -0.19036817548E+02 -0.12862193886E+02 -0.27858237232E+02  0.36109802490E+02  0.51100000000E-03 0.  1.
         12    1    4    4    0    0  0.52205511932E+01  0.24747927230E+00  0.54467503020E+01  0.75486746919E+01  0.00000000000E+00 0. -1.
</event>
<event>
 8    1  0.2390921E-006  0.9118800E+02  0.7816164E-02  0.1184000E+00
        -11   -1    0    0    0    0  0.00000000000E+00  0.00000000000E+00  0.45593999997E+02  0.45594000000E+02  0.51100000000E-03 0.  1.
         11   -1    0    0    0    0 -0.00000000000E+00 -0.00000000000E+00 -0.45593999997E+02  0.45594000000E+02  0.51100000000E-03 0. -1.
         23    2    1    2    0    0  0.00000000000E+00  0.00000000000E+00 -0.17763568394E-14  0.91188000000E+02  0.91188000000E+02 0.  0.
    9900012    2    3    3    0    0  0.33657859380E+02 -0.13559278536E+02  0.62509850929E+01  0.54367077319E+02  0.39999984364E+02 0.  0.
        -12    1    3    3    0    0 -0.33657859380E+02  0.13559278536E+02 -0.62509850929E+01  0.36820922681E+02  0.00000000000E+00 0.  1.
         11    1    4    4    0    0  0.42167787863E+01 -0.57272432093E+01 -0.40777371261E+01  0.81981997074E+01  0.51100000000E-03 0. -1.
        -11    1    4    4    0    0  0.27423947254E+01 -0.11694809714E+02 -0.71932860755E+01  0.14001166662E+02  0.51100000000E-03 0.  1.
        -12    1    4    4    0    0  0.26698685868E+02  0.38627743867E+01  0.17522008295E+02  0.32167710949E+02  0.00000000000E+00 0.  1.
</event>
<event>
 8    1  0.2390921E-006  0.9118800E+02  0.7816164E-02  0.1184000E+00
        -11   -1    0    0    0    0  0.00000000000E+00  0.00000000000E+00  0.45593999997E+02  0.45594000000E+02  0.51100000000E-03 0. -1.
         11   -1    0    0    0    0 -0.00000000000E+00 -0.00000000000E+00 -0.45593999997E+02  0.45594000000E+02  0.51100000000E-03 0.  1.
         23    2    1    2    0    0  0.00000000000E+00  0.00000000000E+00  0.00000000000E+00  0.91188000000E+02  0.91188000000E+02 0.  0.
    9900012    2    3    3    0    0 -0.17387587998E+02 -0.18750786292E+02 -0.26492672660E+02  0.54367056128E+02  0.39999936055E+02 0.  0.
         12    1    3    3    0    0  0.17387587998E+02  0.18750786292E+02  0.26492672660E+02  0.36820943872E+02  0.00000000000E+00 0. -1.
         11    1    4    4    0    0 -0.39939665691E+01  0.72717699541E+00  0.19261936027E+01  0.44934148923E+01  0.51100000000E-03 0. -1.
        -11    1    4    4    0    0 -0.23254350282E+02 -0.84021895568E+01 -0.11184944426E+02  0.27137880876E+02  0.51100000000E-03 0.  1.
        -12    1    4    4    0    0  0.98607288531E+01 -0.11075773731E+02 -0.17233921836E+02  0.22735760359E+02  0.00000000000E+00 0.  1.
</event>
<event>
 8    1  0.2390921E-006  0.9118800E+02  0.7816164E-02  0.1184000E+00
        -11   -1    0    0    0    0  0.00000000000E+00  0.00000000000E+00  0.45593999997E+02  0.45594000000E+02  0.51100000000E-03 0.  1.
         11   -1    0    0    0    0 -0.00000000000E+00 -0.00000000000E+00 -0.45593999997E+02  0.45594000000E+02  0.51100000000E-03 0. -1.
         23    2    1    2    0    0 -0.17763568394E-14  0.00000000000E+00  0.00000000000E+00  0.91188000000E+02  0.91188000000E+02 0.  0.
    9900012    2    3    3    0    0  0.13839134950E+02  0.68223268761E+01  0.33432228601E+02  0.54367085978E+02  0.40000004105E+02 0.  0.
         12    1    3    3    0    0 -0.13839134950E+02 -0.68223268761E+01 -0.33432228601E+02  0.36820914022E+02  0.00000000000E+00 0. -1.
         11    1    4    4    0    0 -0.30207669132E+01  0.12458689899E+01 -0.64105576337E+01  0.71953090080E+01  0.51100000000E-03 0. -1.
        -11    1    4    4    0    0  0.15565101485E+02  0.36349347933E+01  0.14072429727E+02  0.21295971776E+02  0.51100000000E-03 0.  1.
         12    1    4    4    0    0  0.12948003777E+01  0.19415230929E+01  0.25770356507E+02  0.25875805194E+02  0.00000000000E+00 0. -1.
</event>
<event>
 8    1  0.2390921E-006  0.9118800E+02  0.7816164E-02  0.1184000E+00
        -11   -1    0    0    0    0  0.00000000000E+00  0.00000000000E+00  0.45593999997E+02  0.45594000000E+02  0.51100000000E-03 0. -1.
         11   -1    0    0    0    0 -0.00000000000E+00 -0.00000000000E+00 -0.45593999997E+02  0.45594000000E+02  0.51100000000E-03 0.  1.
         23    2    1    2    0    0  0.00000000000E+00 -0.35527136788E-14  0.00000000000E+00  0.91188000000E+02  0.91188000000E+02 0.  0.
    9900012    2    3    3    0    0 -0.26289694946E+01  0.30377617369E+02  0.20641422121E+02  0.54367089843E+02  0.40000012914E+02 0.  0.
        -12    1    3    3    0    0  0.26289694946E+01 -0.30377617369E+02 -0.20641422121E+02  0.36820910157E+02  0.00000000000E+00 0.  1.
         11    1    4    4    0    0 -0.81181314113E+01  0.19022316569E+02  0.19644733989E+02  0.28524869132E+02  0.51100000000E-03 0. -1.
        -11    1    4    4    0    0 -0.28122792992E+01  0.88008771399E+01  0.98047199100E+01  0.13472078016E+02  0.51100000000E-03 0.  1.
        -12    1    4    4    0    0  0.83014412160E+01  0.25544236601E+01 -0.88080317771E+01  0.12370142695E+02  0.00000000000E+00 0.  1.
</event>
<event>
 8    1  0.2390921E-006  0.9118800E+02  0.7816164E-02  0.1184000E+00
        -11   -1    0    0    0    0  0.00000000000E+00  0.00000000000E+00  0.45593999997E+02  0.45594000000E+02  0.51100000000E-03 0.  1.
         11   -1    0    0    0    0 -0.00000000000E+00 -0.00000000000E+00 -0.45593999997E+02  0.45594000000E+02  0.51100000000E-03 0. -1.
         23    2    1    2    0    0 -0.35527136788E-14  0.00000000000E+00 -0.17763568394E-14  0.91188000000E+02  0.91188000000E+02 0.  0.
    9900012    2    3    3    0    0  0.70111483299E+01 -0.32486577852E+02 -0.15850725833E+02  0.54367089489E+02  0.40000012109E+02 0.  0.
        -12    1    3    3    0    0 -0.70111483299E+01  0.32486577852E+02  0.15850725833E+02  0.36820910511E+02  0.00000000000E+00 0.  1.
         11    1    4    4    0    0  0.16874808750E+02 -0.11443518597E+02 -0.28653447350E+01  0.20589402345E+02  0.51100000000E-03 0. -1.
        -11    1    4    4    0    0 -0.85883529851E+01 -0.61554638651E+01  0.38699571607E+01  0.11252826804E+02  0.51100000000E-03 0.  1.
         12    1    4    4    0    0 -0.12753074349E+01 -0.14887595390E+02 -0.16855338258E+02  0.22524860340E+02  0.00000000000E+00 0. -1.
</event>
<event>
 8    1  0.2390921E-006  0.9118800E+02  0.7816164E-02  0.1184000E+00
        -11   -1    0    0    0    0  0.00000000000E+00  0.00000000000E+00  0.45593999997E+02  0.45594000000E+02  0.51100000000E-03 0.  1.
         11   -1    0    0    0    0 -0.00000000000E+00 -0.00000000000E+00 -0.45593999997E+02  0.45594000000E+02  0.51100000000E-03 0. -1.
         23    2    1    2    0    0  0.35527136788E-14 -0.35527136788E-14  0.35527136788E-14  0.91188000000E+02  0.91188000000E+02 0.  0.
    9900012    2    3    3    0    0  0.86577036342E+01 -0.27763323041E+02  0.22583656795E+02  0.54367088920E+02  0.40000010811E+02 0.  0.
         12    1    3    3    0    0 -0.86577036342E+01  0.27763323041E+02 -0.22583656795E+02  0.36820911080E+02  0.00000000000E+00 0. -1.
         11    1    4    4    0    0 -0.87792315614E+01 -0.83709604991E+01  0.15004791258E+02  0.19294860649E+02  0.51100000000E-03 0.  1.
        -11    1    4    4    0    0 -0.52538818368E+01 -0.31674859472E+01  0.29076719330E+01  0.67890203941E+01  0.51100000000E-03 0. -1.
        -12    1    4    4    0    0  0.22690817032E+02 -0.16224876595E+02  0.46711936039E+01  0.28283207877E+02  0.00000000000E+00 0.  1.
</event>
<event>
 8    1  0.2390921E-006  0.9118800E+02  0.7816164E-02  0.1184000E+00
        -11   -1    0    0    0    0  0.00000000000E+00  0.00000000000E+00  0.45593999997E+02  0.45594000000E+02  0.51100000000E-03 0. -1.
         11   -1    0    0    0    0 -0.00000000000E+00 -0.00000000000E+00 -0.45593999997E+02  0.45594000000E+02  0.51100000000E-03 0.  1.
         23    2    1    2    0    0  0.00000000000E+00  0.00000000000E+00  0.00000000000E+00  0.91188000000E+02  0.91188000000E+02 0.  0.
    9900012    2    3    3    0    0 -0.11434964746E+02  0.11620754163E+02 -0.33014885252E+02  0.54367041373E+02  0.39999902417E+02 0.  0.
         12    1    3    3    0    0  0.11434964746E+02 -0.11620754163E+02  0.33014885252E+02  0.36820958627E+02  0.00000000000E+00 0. -1.
         11    1    4    4    0    0 -0.91176851028E+01 -0.69200729961E+01 -0.12509098235E+01  0.11514528542E+02  0.51100000000E-03 0. -1.
        -11    1    4    4    0    0  0.76889991028E+01  0.13410529069E+02 -0.25920458181E+02  0.30180012420E+02  0.51100000000E-03 0.  1.
        -12    1    4    4    0    0 -0.10006278745E+02  0.51302980900E+01 -0.58435172470E+01  0.12672500410E+02  0.00000000000E+00 0.  1.
</event>
<event>
 8    1  0.2390921E-006  0.9118800E+02  0.7816164E-02  0.1184000E+00
        -11   -1    0    0    0    0  0.00000000000E+00  0.00000000000E+00  0.45593999997E+02  0.45594000000E+02  0.51100000000E-03 0. -1.
         11   -1    0    0    0    0 -0.00000000000E+00 -0.00000000000E+00 -0.45593999997E+02  0.45594000000E+02  0.51100000000E-03 0.  1.
         23    2    1    2    0    0  0.17763568394E-14  0.17763568394E-14  0.00000000000E+00  0.91188000000E+02  0.91188000000E+02 0.  0.
    9900012    2    3    3    0    0 -0.15370120086E+02  0.15903482136E+02  0.29438150758E+02  0.54367271387E+02  0.40000426779E+02 0.  0.
        -12    1    3    3    0    0  0.15370120086E+02 -0.15903482136E+02 -0.29438150758E+02  0.36820728613E+02  0.00000000000E+00 0.  1.
         11    1    4    4    0    0 -0.57425253085E+01  0.15584673623E+02  0.25885235782E+02  0.30755553655E+02  0.51100000000E-03 0. -1.
        -11    1    4    4    0    0 -0.23480516518E+01  0.85220522310E+01 -0.45820362163E+01  0.99565946455E+01  0.51100000000E-03 0.  1.
         12    1    4    4    0    0 -0.72795431255E+01 -0.82032437179E+01  0.81349511929E+01  0.13655123087E+02  0.00000000000E+00 0. -1.
</event>
<event>
 8    1  0.2390921E-006  0.9118800E+02  0.7816164E-02  0.1184000E+00
        -11   -1    0    0    0    0  0.00000000000E+00  0.00000000000E+00  0.45593999997E+02  0.45594000000E+02  0.51100000000E-03 0.  1.
         11   -1    0    0    0    0 -0.00000000000E+00 -0.00000000000E+00 -0.45593999997E+02  0.45594000000E+02  0.51100000000E-03 0. -1.
         23    2    1    2    0    0 -0.71054273576E-14  0.17763568394E-14 -0.17763568394E-14  0.91188000000E+02  0.91188000000E+02 0.  0.
    9900012    2    3    3    0    0 -0.32545536717E+02  0.15061700198E+02 -0.83494822784E+01  0.54367073513E+02  0.39999975687E+02 0.  0.
        -12    1    3    3    0    0  0.32545536717E+02 -0.15061700198E+02  0.83494822784E+01  0.36820926487E+02  0.00000000000E+00 0.  1.
         11    1    4    4    0    0 -0.12083761231E+02  0.18082611496E+02 -0.11661294180E+02  0.24677599280E+02  0.51100000000E-03 0. -1.
        -11    1    4    4    0    0 -0.48170486702E+01 -0.17543106886E+00  0.11012754122E+02  0.12021459461E+02  0.51100000000E-03 0.  1.
         12    1    4    4    0    0 -0.15644726816E+02 -0.28454802298E+01 -0.77009422201E+01  0.17668014772E+02  0.00000000000E+00 0. -1.
</event>
<event>
 8    1  0.2390921E-006  0.9118800E+02  0.7816164E-02  0.1184000E+00
        -11   -1    0    0    0    0  0.00000000000E+00  0.00000000000E+00  0.45593999997E+02  0.45594000000E+02  0.51100000000E-03 0. -1.
         11   -1    0    0    0    0 -0.00000000000E+00 -0.00000000000E+00 -0.45593999997E+02  0.45594000000E+02  0.51100000000E-03 0.  1.
         23    2    1    2    0    0  0.00000000000E+00  0.00000000000E+00 -0.71054273576E-14  0.91188000000E+02  0.91188000000E+02 0.  0.
    9900012    2    3    3    0    0  0.18017476037E+02  0.23390565251E+02  0.22000740840E+02  0.54367074116E+02  0.39999977062E+02 0.  0.
        -12    1    3    3    0    0 -0.18017476037E+02 -0.23390565251E+02 -0.22000740840E+02  0.36820925884E+02  0.00000000000E+00 0.  1.
         11    1    4    4    0    0  0.31976365188E+01 -0.52719300013E+01  0.88359168411E+01  0.10774578968E+02  0.51100000000E-03 0. -1.
        -11    1    4    4    0    0 -0.71632137678E+01  0.96985378793E+01  0.94802514061E+00  0.12094297020E+02  0.51100000000E-03 0.  1.
        -12    1    4    4    0    0  0.21983053286E+02  0.18963957373E+02  0.12216798858E+02  0.31498198128E+02  0.00000000000E+00 0.  1.
</event>
<event>
 8    1  0.2390921E-006  0.9118800E+02  0.7816164E-02  0.1184000E+00
        -11   -1    0    0    0    0  0.00000000000E+00  0.00000000000E+00  0.45593999997E+02  0.45594000000E+02  0.51100000000E-03 0. -1.
         11   -1    0    0    0    0 -0.00000000000E+00 -0.00000000000E+00 -0.45593999997E+02  0.45594000000E+02  0.51100000000E-03 0.  1.
         23    2    1    2    0    0  0.00000000000E+00 -0.17763568394E-14  0.35527136788E-14  0.91188000000E+02  0.91188000000E+02 0.  0.
    9900012    2    3    3    0    0 -0.17428771287E+02 -0.13946669404E+02 -0.29283264055E+02  0.54367065604E+02  0.39999957658E+02 0.  0.
         12    1    3    3    0    0  0.17428771287E+02  0.13946669404E+02  0.29283264055E+02  0.36820934396E+02  0.00000000000E+00 0. -1.
         11    1    4    4    0    0  0.56646122363E+01 -0.67100673944E+01 -0.67092284663E+01  0.11051089679E+02  0.51100000000E-03 0. -1.
        -11    1    4    4    0    0 -0.62335162037E+01  0.33738709414E+01 -0.22293571781E+02  0.23393227063E+02  0.51100000000E-03 0.  1.
        -12    1    4    4    0    0 -0.16859867319E+02 -0.10610472951E+02 -0.28046380764E+00  0.19922748862E+02  0.00000000000E+00 0.  1.
</event>
<event>
 8    1  0.2390921E-006  0.9118800E+02  0.7816164E-02  0.1184000E+00
        -11   -1    0    0    0    0  0.00000000000E+00  0.00000000000E+00  0.45593999997E+02  0.45594000000E+02  0.51100000000E-03 0. -1.
         11   -1    0    0    0    0 -0.00000000000E+00 -0.00000000000E+00 -0.45593999997E+02  0.45594000000E+02  0.51100000000E-03 0.  1.
         23    2    1    2    0    0  0.00000000000E+00  0.00000000000E+00  0.00000000000E+00  0.91188000000E+02  0.91188000000E+02 0.  0.
    9900012    2    3    3    0    0  0.22099007732E+02 -0.16576824235E+02 -0.24343871519E+02  0.54367064040E+02  0.39999954091E+02 0.  0.
         12    1    3    3    0    0 -0.22099007732E+02  0.16576824235E+02  0.24343871519E+02  0.36820935960E+02  0.00000000000E+00 0. -1.
         11    1    4    4    0    0  0.41632841795E+01  0.14807222778E+01  0.36724810722E+01  0.57456584575E+01  0.51100000000E-03 0. -1.
        -11    1    4    4    0    0  0.11755803629E+02 -0.18386441091E+01  0.37049924961E+01  0.12462202886E+02  0.51100000000E-03 0.  1.
        -12    1    4    4    0    0  0.61799199233E+01 -0.16218902404E+02 -0.31721345088E+02  0.36159202696E+02  0.00000000000E+00 0.  1.
</event>
<event>
 8    1  0.2390921E-006  0.9118800E+02  0.7816164E-02  0.1184000E+00
        -11   -1    0    0    0    0  0.00000000000E+00  0.00000000000E+00  0.45593999997E+02  0.45594000000E+02  0.51100000000E-03 0. -1.
         11   -1    0    0    0    0 -0.00000000000E+00 -0.00000000000E+00 -0.45593999997E+02  0.45594000000E+02  0.51100000000E-03 0.  1.
         23    2    1    2    0    0 -0.71054273576E-14  0.00000000000E+00 -0.88817841970E-15  0.91188000000E+02  0.91188000000E+02 0.  0.
    9900012    2    3    3    0    0  0.27680952508E+02  0.23200189035E+02  0.71620922777E+01  0.54367089245E+02  0.40000011553E+02 0.  0.
         12    1    3    3    0    0 -0.27680952508E+02 -0.23200189035E+02 -0.71620922777E+01  0.36820910755E+02  0.00000000000E+00 0. -1.
         11    1    4    4    0    0  0.10407928441E+02  0.13229992676E+02  0.89873207857E+01  0.19082180583E+02  0.51100000000E-03 0. -1.
        -11    1    4    4    0    0 -0.82528373138E+01  0.29461276785E+01 -0.48746120933E+00  0.87764805427E+01  0.51100000000E-03 0.  1.
        -12    1    4    4    0    0  0.25525861380E+02  0.70240686813E+01 -0.13377672986E+01  0.26508428120E+02  0.00000000000E+00 0.  1.
</event>
<event>
 8    1  0.2390921E-006  0.9118800E+02  0.7816164E-02  0.1184000E+00
        -11   -1    0    0    0    0  0.00000000000E+00  0.00000000000E+00  0.45593999997E+02  0.45594000000E+02  0.51100000000E-03 0. -1.
         11   -1    0    0    0    0 -0.00000000000E+00 -0.00000000000E+00 -0.45593999997E+02  0.45594000000E+02  0.51100000000E-03 0.  1.
         23    2    1    2    0    0 -0.35527136788E-14  0.00000000000E+00  0.00000000000E+00  0.91188000000E+02  0.91188000000E+02 0.  0.
    9900012    2    3    3    0    0  0.28169113645E+02 -0.10447802353E+02  0.21286710493E+02  0.54367087720E+02  0.40000008074E+02 0.  0.
        -12    1    3    3    0    0 -0.28169113645E+02  0.10447802353E+02 -0.21286710493E+02  0.36820912280E+02  0.00000000000E+00 0.  1.
         11    1    4    4    0    0  0.13359528309E+01 -0.14277178241E+02  0.75010644359E+00  0.14359152079E+02  0.51100000000E-03 0. -1.
        -11    1    4    4    0    0  0.23034630401E+02  0.48070611999E+01  0.50952520520E+01  0.24076204618E+02  0.51100000000E-03 0.  1.
         12    1    4    4    0    0  0.37985304136E+01 -0.97768531184E+00  0.15441351997E+02  0.15931731022E+02  0.00000000000E+00 0. -1.
</event>
<event>
 8    1  0.2390921E-006  0.9118800E+02  0.7816164E-02  0.1184000E+00
        -11   -1    0    0    0    0  0.00000000000E+00  0.00000000000E+00  0.45593999997E+02  0.45594000000E+02  0.51100000000E-03 0.  1.
         11   -1    0    0    0    0 -0.00000000000E+00 -0.00000000000E+00 -0.45593999997E+02  0.45594000000E+02  0.51100000000E-03 0. -1.
         23    2    1    2    0    0 -0.17763568394E-14  0.00000000000E+00  0.00000000000E+00  0.91188000000E+02  0.91188000000E+02 0.  0.
    9900012    2    3    3    0    0 -0.67801927911E+01 -0.11780867950E+01 -0.36172062611E+02  0.54367122548E+02  0.40000087472E+02 0.  0.
        -12    1    3    3    0    0  0.67801927911E+01  0.11780867950E+01  0.36172062611E+02  0.36820877452E+02  0.00000000000E+00 0.  1.
         11    1    4    4    0    0  0.14080017615E+02 -0.33170036423E+01 -0.18452224382E+02  0.23446406848E+02  0.51100000000E-03 0. -1.
        -11    1    4    4    0    0  0.37540156618E-01  0.24713363489E+01  0.11830115215E+01  0.27401512976E+01  0.51100000000E-03 0.  1.
        -12    1    4    4    0    0 -0.20897750563E+02 -0.33241950155E+00 -0.18902849751E+02  0.28180564402E+02  0.00000000000E+00 0.  1.
</event>
<event>
 8    1  0.2390921E-006  0.9118800E+02  0.7816164E-02  0.1184000E+00
        -11   -1    0    0    0    0  0.00000000000E+00  0.00000000000E+00  0.45593999997E+02  0.45594000000E+02  0.51100000000E-03 0. -1.
         11   -1    0    0    0    0 -0.00000000000E+00 -0.00000000000E+00 -0.45593999997E+02  0.45594000000E+02  0.51100000000E-03 0.  1.
         23    2    1    2    0    0  0.00000000000E+00  0.00000000000E+00 -0.17763568394E-14  0.91188000000E+02  0.91188000000E+02 0.  0.
    9900012    2    3    3    0    0  0.26761559138E+02  0.23820001523E+02 -0.84981025896E+01  0.54366929026E+02  0.39999646299E+02 0.  0.
        -12    1    3    3    0    0 -0.26761559138E+02 -0.23820001523E+02  0.84981025896E+01  0.36821070974E+02  0.00000000000E+00 0.  1.
         11    1    4    4    0    0  0.10631906376E+02  0.74093424611E+01 -0.18629696394E+01  0.13092228421E+02  0.51100000000E-03 0. -1.
        -11    1    4    4    0    0  0.90166978432E+01  0.10272546599E+02  0.13403013479E+02  0.19143323228E+02  0.51100000000E-03 0.  1.
        -12    1    4    4    0    0  0.71129549189E+01  0.61381124624E+01 -0.20038146429E+02  0.22131377377E+02  0.00000000000E+00 0.  1.
</event>
<event>
 8    1  0.2390921E-006  0.9118800E+02  0.7816164E-02  0.1184000E+00
        -11   -1    0    0    0    0  0.00000000000E+00  0.00000000000E+00  0.45593999997E+02  0.45594000000E+02  0.51100000000E-03 0.  1.
         11   -1    0    0    0    0 -0.00000000000E+00 -0.00000000000E+00 -0.45593999997E+02  0.45594000000E+02  0.51100000000E-03 0. -1.
         23    2    1    2    0    0 -0.71054273576E-14  0.00000000000E+00  0.00000000000E+00  0.91188000000E+02  0.91188000000E+02 0.  0.
    9900012    2    3    3    0    0  0.24450944465E+02 -0.13571211002E+02  0.23953172719E+02  0.54367069314E+02  0.39999966114E+02 0.  0.
         12    1    3    3    0    0 -0.24450944465E+02  0.13571211002E+02 -0.23953172719E+02  0.36820930686E+02  0.00000000000E+00 0. -1.
         11    1    4    4    0    0  0.10479978725E+01 -0.81290681286E+00 -0.82788162946E+00  0.15634913753E+01  0.51100000000E-03 0. -1.
        -11    1    4    4    0    0 -0.59734710190E+01 -0.57161329110E+01 -0.55796355986E+01  0.99744105162E+01  0.51100000000E-03 0.  1.
        -12    1    4    4    0    0  0.29376417611E+02 -0.70421712779E+01  0.30360689947E+02  0.42829167422E+02  0.00000000000E+00 0.  1.
</event>
<event>
 8    1  0.2390921E-006  0.9118800E+02  0.7816164E-02  0.1184000E+00
        -11   -1    0    0    0    0  0.00000000000E+00  0.00000000000E+00  0.45593999997E+02  0.45594000000E+02  0.51100000000E-03 0.  1.
         11   -1    0    0    0    0 -0.00000000000E+00 -0.00000000000E+00 -0.45593999997E+02  0.45594000000E+02  0.51100000000E-03 0. -1.
         23    2    1    2    0    0  0.00000000000E+00  0.00000000000E+00  0.00000000000E+00  0.91188000000E+02  0.91188000000E+02 0.  0.
    9900012    2    3    3    0    0 -0.12272630701E+02 -0.81364655414E+01 -0.33748291903E+02  0.54367262064E+02  0.40000405525E+02 0.  0.
        -12    1    3    3    0    0  0.12272630701E+02  0.81364655414E+01  0.33748291903E+02  0.36820737936E+02  0.00000000000E+00 0.  1.
         11    1    4    4    0    0 -0.44169107137E+01 -0.18105153320E+02 -0.30501168216E+02  0.35743907730E+02  0.51100000000E-03 0. -1.
        -11    1    4    4    0    0  0.40479871792E+00  0.34115959336E+01  0.44099586575E+01  0.55902222172E+01  0.51100000000E-03 0.  1.
        -12    1    4    4    0    0 -0.82605187049E+01  0.65570918452E+01 -0.76570823438E+01  0.13033132116E+02  0.00000000000E+00 0.  1.
</event>
<event>
 8    1  0.2390921E-006  0.9118800E+02  0.7816164E-02  0.1184000E+00
        -11   -1    0    0    0    0  0.00000000000E+00  0.00000000000E+00  0.45593999997E+02  0.45594000000E+02  0.51100000000E-03 0.  1.
         11   -1    0    0    0    0 -0.00000000000E+00 -0.00000000000E+00 -0.45593999997E+02  0.45594000000E+02  0.51100000000E-03 0. -1.
         23    2    1    2    0    0  0.00000000000E+00  0.35527136788E-14 -0.44408920985E-15  0.91188000000E+02  0.91188000000E+02 0.  0.
    9900012    2    3    3    0    0 -0.21501571866E+02 -0.29678875582E+02  0.35532402559E+01  0.54367098805E+02  0.40000033345E+02 0.  0.
         12    1    3    3    0    0  0.21501571866E+02  0.29678875582E+02 -0.35532402559E+01  0.36820901195E+02  0.00000000000E+00 0. -1.
         11    1    4    4    0    0  0.10875730226E+02 -0.92568985599E+01  0.58689076714E+01  0.15440717484E+02  0.51100000000E-03 0. -1.
        -11    1    4    4    0    0 -0.20193373569E+02 -0.12656340458E+02 -0.46769708884E+01  0.24286402509E+02  0.51100000000E-03 0.  1.
         12    1    4    4    0    0 -0.12183928524E+02 -0.77656365636E+01  0.23613034729E+01  0.14639978811E+02  0.00000000000E+00 0. -1.
</event>
<event>
 8    1  0.2390921E-006  0.9118800E+02  0.7816164E-02  0.1184000E+00
        -11   -1    0    0    0    0  0.00000000000E+00  0.00000000000E+00  0.45593999997E+02  0.45594000000E+02  0.51100000000E-03 0. -1.
         11   -1    0    0    0    0 -0.00000000000E+00 -0.00000000000E+00 -0.45593999997E+02  0.45594000000E+02  0.51100000000E-03 0.  1.
         23    2    1    2    0    0  0.00000000000E+00  0.00000000000E+00 -0.17763568394E-14  0.91188000000E+02  0.91188000000E+02 0.  0.
    9900012    2    3    3    0    0 -0.33635260549E+02 -0.11976182745E+02  0.90010824188E+01  0.54367093030E+02  0.40000020182E+02 0.  0.
        -12    1    3    3    0    0  0.33635260549E+02  0.11976182745E+02 -0.90010824188E+01  0.36820906970E+02  0.00000000000E+00 0.  1.
         11    1    4    4    0    0 -0.12816333008E+01 -0.18521599585E+01  0.21463938519E+01  0.31112838601E+01  0.51100000000E-03 0. -1.
        -11    1    4    4    0    0 -0.19183142944E+02 -0.20106231366E+02 -0.81231995885E+01  0.28952372697E+02  0.51100000000E-03 0.  1.
        -12    1    4    4    0    0 -0.13170484304E+02  0.99822085795E+01  0.14977888155E+02  0.22303436474E+02  0.00000000000E+00 0.  1.
</event>
<event>
 8    1  0.2390921E-006  0.9118800E+02  0.7816164E-02  0.1184000E+00
        -11   -1    0    0    0    0  0.00000000000E+00  0.00000000000E+00  0.45593999997E+02  0.45594000000E+02  0.51100000000E-03 0. -1.
         11   -1    0    0    0    0 -0.00000000000E+00 -0.00000000000E+00 -0.45593999997E+02  0.45594000000E+02  0.51100000000E-03 0.  1.
         23    2    1    2    0    0  0.00000000000E+00  0.00000000000E+00  0.00000000000E+00  0.91188000000E+02  0.91188000000E+02 0.  0.
    9900012    2    3    3    0    0  0.24328394774E+02  0.11660199262E+02  0.25058910087E+02  0.54367081844E+02  0.39999994679E+02 0.  0.
        -12    1    3    3    0    0 -0.24328394774E+02 -0.11660199262E+02 -0.25058910087E+02  0.36820918156E+02  0.00000000000E+00 0.  1.
         11    1    4    4    0    0  0.14541398828E+02  0.11074980637E+02  0.20594917461E+02  0.27536486731E+02  0.51100000000E-03 0. -1.
        -11    1    4    4    0    0  0.65610067216E+01  0.12223501232E+02  0.49870391514E+01  0.14742162370E+02  0.51100000000E-03 0.  1.
         12    1    4    4    0    0  0.32259892251E+01 -0.11638282607E+02 -0.52304652542E+00  0.12088432744E+02  0.00000000000E+00 0. -1.
</event>
<event>
 8    1  0.2390921E-006  0.9118800E+02  0.7816164E-02  0.1184000E+00
        -11   -1    0    0    0    0  0.00000000000E+00  0.00000000000E+00  0.45593999997E+02  0.45594000000E+02  0.51100000000E-03 0.  1.
         11   -1    0    0    0    0 -0.00000000000E+00 -0.00000000000E+00 -0.45593999997E+02  0.45594000000E+02  0.51100000000E-03 0. -1.
         23    2    1    2    0    0  0.22204460493E-15  0.10658141036E-13  0.00000000000E+00  0.91188000000E+02  0.91188000000E+02 0.  0.
    9900012    2    3    3    0    0 -0.19324938321E+01  0.30600435614E+02 -0.20387681413E+02  0.54367099066E+02  0.40000033941E+02 0.  0.
        -12    1    3    3    0    0  0.19324938321E+01 -0.30600435614E+02  0.20387681413E+02  0.36820900934E+02  0.00000000000E+00 0.  1.
         11    1    4    4    0    0  0.10624746821E+02  0.19328073632E+02 -0.32031923360E+01  0.22287218686E+02  0.51100000000E-03 0. -1.
        -11    1    4    4    0    0 -0.52920077573E+01 -0.56463182944E+01 -0.14785495516E+01  0.78786017429E+01  0.51100000000E-03 0.  1.
        -12    1    4    4    0    0 -0.72652328957E+01  0.16918680276E+02 -0.15705939526E+02  0.24201278638E+02  0.00000000000E+00 0.  1.
</event>
<event>
 8    1  0.2390921E-006  0.9118800E+02  0.7816164E-02  0.1184000E+00
        -11   -1    0    0    0    0  0.00000000000E+00  0.00000000000E+00  0.45593999997E+02  0.45594000000E+02  0.51100000000E-03 0.  1.
         11   -1    0    0    0    0 -0.00000000000E+00 -0.00000000000E+00 -0.45593999997E+02  0.45594000000E+02  0.51100000000E-03 0. -1.
         23    2    1    2    0    0  0.00000000000E+00 -0.44408920985E-15 -0.88817841970E-15  0.91188000000E+02  0.91188000000E+02 0.  0.
    9900012    2    3    3    0    0 -0.36752072733E+02  0.15216698071E+01  0.16579606469E+01  0.54367093402E+02  0.40000021028E+02 0.  0.
        -12    1    3    3    0    0  0.36752072733E+02 -0.15216698071E+01 -0.16579606469E+01  0.36820906598E+02  0.00000000000E+00 0.  1.
         11    1    4    4    0    0 -0.14968634584E+02  0.93985043278E+01 -0.14243276880E+02  0.22699401786E+02  0.51100000000E-03 0. -1.
        -11    1    4    4    0    0 -0.92979315071E+01 -0.10982524146E+02  0.68511576563E+01  0.15937557166E+02  0.51100000000E-03 0.  1.
        -12    1    4    4    0    0 -0.12485506642E+02  0.31056896250E+01  0.90500798701E+01  0.15730134450E+02  0.00000000000E+00 0.  1.
</event>
<event>
 8    1  0.2390921E-006  0.9118800E+02  0.7816164E-02  0.1184000E+00
        -11   -1    0    0    0    0  0.00000000000E+00  0.00000000000E+00  0.45593999997E+02  0.45594000000E+02  0.51100000000E-03 0.  1.
         11   -1    0    0    0    0 -0.00000000000E+00 -0.00000000000E+00 -0.45593999997E+02  0.45594000000E+02  0.51100000000E-03 0. -1.
         23    2    1    2    0    0  0.17763568394E-14 -0.88817841970E-15  0.71054273576E-14  0.91188000000E+02  0.91188000000E+02 0.  0.
    9900012    2    3    3    0    0 -0.56528618918E+01  0.40486917188E+01 -0.36158445772E+02  0.54367082672E+02  0.39999996567E+02 0.  0.
        -12    1    3    3    0    0  0.56528618918E+01 -0.40486917188E+01  0.36158445772E+02  0.36820917328E+02  0.00000000000E+00 0.  1.
         11    1    4    4    0    0  0.76710310749E+00 -0.58524332417E+01 -0.26372154813E+02  0.27024617884E+02  0.51100000000E-03 0. -1.
        -11    1    4    4    0    0  0.42000821996E+01 -0.42144112631E+01  0.18011410132E+01  0.62165956912E+01  0.51100000000E-03 0.  1.
         12    1    4    4    0    0 -0.10620047199E+02  0.14115536224E+02 -0.11587431973E+02  0.21125869097E+02  0.00000000000E+00 0. -1.
</event>
<event>
 8    1  0.2390921E-006  0.9118800E+02  0.7816164E-02  0.1184000E+00
        -11   -1    0    0    0    0  0.00000000000E+00  0.00000000000E+00  0.45593999997E+02  0.45594000000E+02  0.51100000000E-03 0. -1.
         11   -1    0    0    0    0 -0.00000000000E+00 -0.00000000000E+00 -0.45593999997E+02  0.45594000000E+02  0.51100000000E-03 0.  1.
         23    2    1    2    0    0  0.35527136788E-14 -0.88817841970E-15  0.10658141036E-13  0.91188000000E+02  0.91188000000E+02 0.  0.
    9900012    2    3    3    0    0  0.24208288148E+02  0.72265601565E+01  0.26786469767E+02  0.54367090868E+02  0.40000015251E+02 0.  0.
        -12    1    3    3    0    0 -0.24208288148E+02 -0.72265601565E+01 -0.26786469767E+02  0.36820909132E+02  0.00000000000E+00 0.  1.
         11    1    4    4    0    0  0.25356430174E+02  0.96583215398E+01  0.23540412613E+02  0.35921897951E+02  0.51100000000E-03 0. -1.
        -11    1    4    4    0    0 -0.18517286718E+01  0.46508064015E+01 -0.53221400282E+01  0.73064405834E+01  0.51100000000E-03 0.  1.
        -12    1    4    4    0    0  0.70358664547E+00 -0.70825677847E+01  0.85681971817E+01  0.11138752333E+02  0.00000000000E+00 0.  1.
</event>
<event>
 8    1  0.2390921E-006  0.9118800E+02  0.7816164E-02  0.1184000E+00
        -11   -1    0    0    0    0  0.00000000000E+00  0.00000000000E+00  0.45593999997E+02  0.45594000000E+02  0.51100000000E-03 0. -1.
         11   -1    0    0    0    0 -0.00000000000E+00 -0.00000000000E+00 -0.45593999997E+02  0.45594000000E+02  0.51100000000E-03 0.  1.
         23    2    1    2    0    0  0.00000000000E+00  0.00000000000E+00  0.00000000000E+00  0.91188000000E+02  0.91188000000E+02 0.  0.
    9900012    2    3    3    0    0 -0.67961568182E+01  0.35592923374E+02 -0.65371943979E+01  0.54367097616E+02  0.40000030635E+02 0.  0.
         12    1    3    3    0    0  0.67961568182E+01 -0.35592923374E+02  0.65371943979E+01  0.36820902384E+02  0.00000000000E+00 0. -1.
         11    1    4    4    0    0 -0.44115154032E+01  0.19073386173E+02 -0.78961174359E+01  0.21109339143E+02  0.51100000000E-03 0. -1.
        -11    1    4    4    0    0 -0.86103092709E+01  0.19784049719E+02  0.85432927383E+01  0.23206333189E+02  0.51100000000E-03 0.  1.
         12    1    4    4    0    0  0.62256678559E+01 -0.32645125179E+01 -0.71843697004E+01  0.10051425283E+02  0.00000000000E+00 0. -1.
</event>
<event>
 8    1  0.2390921E-006  0.9118800E+02  0.7816164E-02  0.1184000E+00
        -11   -1    0    0    0    0  0.00000000000E+00  0.00000000000E+00  0.45593999997E+02  0.45594000000E+02  0.51100000000E-03 0. -1.
         11   -1    0    0    0    0 -0.00000000000E+00 -0.00000000000E+00 -0.45593999997E+02  0.45594000000E+02  0.51100000000E-03 0.  1.
         23    2    1    2    0    0 -0.88817841970E-15  0.00000000000E+00  0.88817841970E-15  0.91188000000E+02  0.91188000000E+02 0.  0.
    9900012    2    3    3    0    0  0.60871156638E+01 -0.35670363459E+02 -0.68082684402E+01  0.54367077611E+02  0.39999985031E+02 0.  0.
         12    1    3    3    0    0 -0.60871156638E+01  0.35670363459E+02  0.68082684402E+01  0.36820922389E+02  0.00000000000E+00 0. -1.
         11    1    4    4    0    0  0.10258255970E+02 -0.79593628945E+01 -0.36225535569E+01  0.13479843017E+02  0.51100000000E-03 0. -1.
        -11    1    4    4    0    0 -0.57651650917E+00 -0.71875989501E+01 -0.15208642660E+02  0.16831421859E+02  0.51100000000E-03 0.  1.
         12    1    4    4    0    0 -0.35946237967E+01 -0.20523401614E+02  0.12022927777E+02  0.24055812736E+02  0.00000000000E+00 0. -1.
</event>
<event>
 8    1  0.2390921E-006  0.9118800E+02  0.7816164E-02  0.1184000E+00
        -11   -1    0    0    0    0  0.00000000000E+00  0.00000000000E+00  0.45593999997E+02  0.45594000000E+02  0.51100000000E-03 0.  1.
         11   -1    0    0    0    0 -0.00000000000E+00 -0.00000000000E+00 -0.45593999997E+02  0.45594000000E+02  0.51100000000E-03 0. -1.
         23    2    1    2    0    0  0.00000000000E+00  0.17763568394E-14 -0.35527136788E-14  0.91188000000E+02  0.91188000000E+02 0.  0.
    9900012    2    3    3    0    0  0.22249001205E+02  0.15141930908E+02  0.25129341190E+02  0.54367083188E+02  0.39999997744E+02 0.  0.
         12    1    3    3    0    0 -0.22249001205E+02 -0.15141930908E+02 -0.25129341190E+02  0.36820916812E+02  0.00000000000E+00 0. -1.
         11    1    4    4    0    0  0.31483491433E+01 -0.11161278104E+01  0.14273866859E+02  0.14659506096E+02  0.51100000000E-03 0. -1.
        -11    1    4    4    0    0  0.35315787416E+01  0.10672423994E+02  0.18372546347E+02  0.21538875130E+02  0.51100000000E-03 0.  1.
         12    1    4    4    0    0  0.15569073320E+02  0.55856347237E+01 -0.75170720156E+01  0.18168701962E+02  0.00000000000E+00 0. -1.
</event>
<event>
 8    1  0.2390921E-006  0.9118800E+02  0.7816164E-02  0.1184000E+00
        -11   -1    0    0    0    0  0.00000000000E+00  0.00000000000E+00  0.45593999997E+02  0.45594000000E+02  0.51100000000E-03 0. -1.
         11   -1    0    0    0    0 -0.00000000000E+00 -0.00000000000E+00 -0.45593999997E+02  0.45594000000E+02  0.51100000000E-03 0.  1.
         23    2    1    2    0    0  0.00000000000E+00  0.88817841970E-15  0.71054273576E-14  0.91188000000E+02  0.91188000000E+02 0.  0.
    9900012    2    3    3    0    0  0.17953532073E+02 -0.30746260688E+01  0.31999961694E+02  0.54367079482E+02  0.39999989294E+02 0.  0.
        -12    1    3    3    0    0 -0.17953532073E+02  0.30746260688E+01 -0.31999961694E+02  0.36820920518E+02  0.00000000000E+00 0.  1.
         11    1    4    4    0    0  0.20664947326E+02 -0.11353925185E+02  0.14313685496E+02  0.27583206083E+02  0.51100000000E-03 0. -1.
        -11    1    4    4    0    0 -0.13778567082E+01  0.13601284236E+02  0.85426672301E+01  0.16120502029E+02  0.51100000000E-03 0.  1.
         12    1    4    4    0    0 -0.13335585442E+01 -0.53219851200E+01  0.91436089679E+01  0.10663371370E+02  0.00000000000E+00 0. -1.
</event>
<event>
 8    1  0.2390921E-006  0.9118800E+02  0.7816164E-02  0.1184000E+00
        -11   -1    0    0    0    0  0.00000000000E+00  0.00000000000E+00  0.45593999997E+02  0.45594000000E+02  0.51100000000E-03 0.  1.
         11   -1    0    0    0    0 -0.00000000000E+00 -0.00000000000E+00 -0.45593999997E+02  0.45594000000E+02  0.51100000000E-03 0. -1.
         23    2    1    2    0    0  0.00000000000E+00 -0.35527136788E-14  0.00000000000E+00  0.91188000000E+02  0.91188000000E+02 0.  0.
    9900012    2    3    3    0    0  0.93054105017E+01  0.29895247177E+02 -0.19376896510E+02  0.54367074064E+02  0.39999976945E+02 0.  0.
        -12    1    3    3    0    0 -0.93054105017E+01 -0.29895247177E+02  0.19376896510E+02  0.36820925936E+02  0.00000000000E+00 0.  1.
         11    1    4    4    0    0  0.76449625761E+00  0.10943143883E+02  0.78533572695E+01  0.13491185020E+02  0.51100000000E-03 0. -1.
        -11    1    4    4    0    0  0.33013037962E+01 -0.19941588156E+01 -0.16155823309E+02  0.16609813461E+02  0.51100000000E-03 0.  1.
         12    1    4    4    0    0  0.52396104479E+01  0.20946262110E+02 -0.11074430470E+02  0.24266075584E+02  0.00000000000E+00 0. -1.
</event>
<event>
 8    1  0.2390921E-006  0.9118800E+02  0.7816164E-02  0.1184000E+00
        -11   -1    0    0    0    0  0.00000000000E+00  0.00000000000E+00  0.45593999997E+02  0.45594000000E+02  0.51100000000E-03 0. -1.
         11   -1    0    0    0    0 -0.00000000000E+00 -0.00000000000E+00 -0.45593999997E+02  0.45594000000E+02  0.51100000000E-03 0.  1.
         23    2    1    2    0    0  0.00000000000E+00  0.00000000000E+00  0.00000000000E+00  0.91188000000E+02  0.91188000000E+02 0.  0.
    9900012    2    3    3    0    0  0.19965013109E+02  0.22638002164E+02  0.21088041667E+02  0.54366995237E+02  0.39999797241E+02 0.  0.
        -12    1    3    3    0    0 -0.19965013109E+02 -0.22638002164E+02 -0.21088041667E+02  0.36821004763E+02  0.00000000000E+00 0.  1.
         11    1    4    4    0    0  0.78830115289E+01 -0.20196712904E+01  0.14343715667E+02  0.16491304445E+02  0.51100000000E-03 0. -1.
        -11    1    4    4    0    0  0.55657450688E+01 -0.45731931223E+01  0.12573849330E+00  0.72046806962E+01  0.51100000000E-03 0.  1.
        -12    1    4    4    0    0  0.65162565113E+01  0.29230866576E+02  0.66185875064E+01  0.30671010096E+02  0.00000000000E+00 0.  1.
</event>
<event>
 8    1  0.2390921E-006  0.9118800E+02  0.7816164E-02  0.1184000E+00
        -11   -1    0    0    0    0  0.00000000000E+00  0.00000000000E+00  0.45593999997E+02  0.45594000000E+02  0.51100000000E-03 0.  1.
         11   -1    0    0    0    0 -0.00000000000E+00 -0.00000000000E+00 -0.45593999997E+02  0.45594000000E+02  0.51100000000E-03 0. -1.
         23    2    1    2    0    0  0.00000000000E+00  0.00000000000E+00  0.17763568394E-14  0.91188000000E+02  0.91188000000E+02 0.  0.
    9900012    2    3    3    0    0  0.27459162085E+02 -0.22395995544E+02  0.10009739835E+02  0.54367067226E+02  0.39999961354E+02 0.  0.
         12    1    3    3    0    0 -0.27459162085E+02  0.22395995544E+02 -0.10009739835E+02  0.36820932774E+02  0.00000000000E+00 0. -1.
         11    1    4    4    0    0 -0.26855981000E+01  0.23077967844E+01  0.17131722650E+01  0.39336144478E+01  0.51100000000E-03 0. -1.
        -11    1    4    4    0    0  0.23067376946E+02 -0.27643828758E+02 -0.37045784136E+01  0.36194047150E+02  0.51100000000E-03 0.  1.
         12    1    4    4    0    0  0.70773832393E+01  0.29400364301E+01  0.12001145984E+02  0.14239405628E+02  0.00000000000E+00 0. -1.
</event>
<event>
 8    1  0.2390921E-006  0.9118800E+02  0.7816164E-02  0.1184000E+00
        -11   -1    0    0    0    0  0.00000000000E+00  0.00000000000E+00  0.45593999997E+02  0.45594000000E+02  0.51100000000E-03 0.  1.
         11   -1    0    0    0    0 -0.00000000000E+00 -0.00000000000E+00 -0.45593999997E+02  0.45594000000E+02  0.51100000000E-03 0. -1.
         23    2    1    2    0    0  0.71054273576E-14  0.00000000000E+00 -0.17763568394E-14  0.91188000000E+02  0.91188000000E+02 0.  0.
    9900012    2    3    3    0    0  0.30282513322E+02  0.18922481759E+02 -0.89828559641E+01  0.54367046315E+02  0.39999913684E+02 0.  0.
        -12    1    3    3    0    0 -0.30282513322E+02 -0.18922481759E+02  0.89828559641E+01  0.36820953685E+02  0.00000000000E+00 0.  1.
         11    1    4    4    0    0 -0.20762160226E+01  0.58208245735E+01 -0.93754012140E+01  0.11229016870E+02  0.51100000000E-03 0. -1.
        -11    1    4    4    0    0  0.11747646010E+02  0.13438459249E+02 -0.95589674905E+01  0.20247795769E+02  0.51100000000E-03 0.  1.
        -12    1    4    4    0    0  0.20611083335E+02 -0.33680206420E+00  0.99515127404E+01  0.22890233675E+02  0.00000000000E+00 0.  1.
</event>
<event>
 8    1  0.2390921E-006  0.9118800E+02  0.7816164E-02  0.1184000E+00
        -11   -1    0    0    0    0  0.00000000000E+00  0.00000000000E+00  0.45593999997E+02  0.45594000000E+02  0.51100000000E-03 0.  1.
         11   -1    0    0    0    0 -0.00000000000E+00 -0.00000000000E+00 -0.45593999997E+02  0.45594000000E+02  0.51100000000E-03 0. -1.
         23    2    1    2    0    0  0.17763568394E-14  0.35527136788E-14  0.00000000000E+00  0.91188000000E+02  0.91188000000E+02 0.  0.
    9900012    2    3    3    0    0 -0.96444212280E+01 -0.31369156733E+02  0.16695569092E+02  0.54367070051E+02  0.39999967795E+02 0.  0.
         12    1    3    3    0    0  0.96444212280E+01  0.31369156733E+02 -0.16695569092E+02  0.36820929949E+02  0.00000000000E+00 0. -1.
         11    1    4    4    0    0  0.51729236139E+01 -0.11947815789E+02 -0.72479992567E+01  0.14901105138E+02  0.51100000000E-03 0. -1.
        -11    1    4    4    0    0 -0.11206305729E+02 -0.43520126332E+01  0.20228167138E+02  0.23530831861E+02  0.51100000000E-03 0.  1.
        -12    1    4    4    0    0 -0.36110391129E+01 -0.15069328312E+02  0.37154012109E+01  0.15935133052E+02  0.00000000000E+00 0.  1.
</event>
<event>
 8    1  0.2390921E-006  0.9118800E+02  0.7816164E-02  0.1184000E+00
        -11   -1    0    0    0    0  0.00000000000E+00  0.00000000000E+00  0.45593999997E+02  0.45594000000E+02  0.51100000000E-03 0.  1.
         11   -1    0    0    0    0 -0.00000000000E+00 -0.00000000000E+00 -0.45593999997E+02  0.45594000000E+02  0.51100000000E-03 0. -1.
         23    2    1    2    0    0  0.00000000000E+00  0.44408920985E-15 -0.17763568394E-14  0.91188000000E+02  0.91188000000E+02 0.  0.
    9900012    2    3    3    0    0 -0.34265569472E+02  0.13063440493E+01  0.13414270800E+02  0.54367103119E+02  0.40000043180E+02 0.  0.
         12    1    3    3    0    0  0.34265569472E+02 -0.13063440493E+01 -0.13414270800E+02  0.36820896881E+02  0.00000000000E+00 0. -1.
         11    1    4    4    0    0 -0.24256263613E+01  0.59267689904E+01 -0.68631654543E+01  0.93868681798E+01  0.51100000000E-03 0. -1.
        -11    1    4    4    0    0 -0.13179691134E+02  0.18179117591E+01 -0.38084452892E+01  0.13838833670E+02  0.51100000000E-03 0.  1.
         12    1    4    4    0    0 -0.18660251976E+02 -0.64383367002E+01  0.24085881543E+02  0.31141401269E+02  0.00000000000E+00 0. -1.
</event>
<event>
 8    1  0.2390921E-006  0.9118800E+02  0.7816164E-02  0.1184000E+00
        -11   -1    0    0    0    0  0.00000000000E+00  0.00000000000E+00  0.45593999997E+02  0.45594000000E+02  0.51100000000E-03 0. -1.
         11   -1    0    0    0    0 -0.00000000000E+00 -0.00000000000E+00 -0.45593999997E+02  0.45594000000E+02  0.51100000000E-03 0.  1.
         23    2    1    2    0    0  0.00000000000E+00  0.17763568394E-14  0.22204460493E-15  0.91188000000E+02  0.91188000000E+02 0.  0.
    9900012    2    3    3    0    0  0.36087444632E+02 -0.72737920929E+01  0.75369519558E+00  0.54367085183E+02  0.40000002292E+02 0.  0.
         12    1    3    3    0    0 -0.36087444632E+02  0.72737920929E+01 -0.75369519558E+00  0.36820914817E+02  0.00000000000E+00 0. -1.
         11    1    4    4    0    0  0.14495935039E+02  0.71148194287E+01  0.23197772468E+01  0.16313618694E+02  0.51100000000E-03 0. -1.
        -11    1    4    4    0    0 -0.54564829923E+01  0.18469601665E+01  0.24351139032E+01  0.62541385086E+01  0.51100000000E-03 0.  1.
        -12    1    4    4    0    0  0.27047992585E+02 -0.16235571688E+02 -0.40011959544E+01  0.31799327980E+02  0.00000000000E+00 0.  1.
</event>
<event>
 8    1  0.2390921E-006  0.9118800E+02  0.7816164E-02  0.1184000E+00
        -11   -1    0    0    0    0  0.00000000000E+00  0.00000000000E+00  0.45593999997E+02  0.45594000000E+02  0.51100000000E-03 0.  1.
         11   -1    0    0    0    0 -0.00000000000E+00 -0.00000000000E+00 -0.45593999997E+02  0.45594000000E+02  0.51100000000E-03 0. -1.
         23    2    1    2    0    0  0.00000000000E+00  0.00000000000E+00  0.00000000000E+00  0.91188000000E+02  0.91188000000E+02 0.  0.
    9900012    2    3    3    0    0 -0.19590293453E+02 -0.18605357615E+02  0.25016820307E+02  0.54367078938E+02  0.39999988056E+02 0.  0.
         12    1    3    3    0    0  0.19590293453E+02  0.18605357615E+02 -0.25016820307E+02  0.36820921062E+02  0.00000000000E+00 0. -1.
         11    1    4    4    0    0  0.59786910570E+00 -0.17105866224E+02  0.60831587468E+01  0.18165156959E+02  0.51100000000E-03 0. -1.
        -11    1    4    4    0    0 -0.96725872688E+01 -0.11871287407E+02  0.13655237489E+02  0.20517112865E+02  0.51100000000E-03 0.  1.
         12    1    4    4    0    0 -0.10515575290E+02  0.10371796016E+02  0.52784240707E+01  0.15684809115E+02  0.00000000000E+00 0. -1.
</event>
<event>
 8    1  0.2390921E-006  0.9118800E+02  0.7816164E-02  0.1184000E+00
        -11   -1    0    0    0    0  0.00000000000E+00  0.00000000000E+00  0.45593999997E+02  0.45594000000E+02  0.51100000000E-03 0. -1.
         11   -1    0    0    0    0 -0.00000000000E+00 -0.00000000000E+00 -0.45593999997E+02  0.45594000000E+02  0.51100000000E-03 0.  1.
         23    2    1    2    0    0  0.00000000000E+00  0.44408920985E-15  0.00000000000E+00  0.91188000000E+02  0.91188000000E+02 0.  0.
    9900012    2    3    3    0    0 -0.26666818724E+02 -0.14897109615E+01  0.25346414199E+02  0.54367093271E+02  0.40000020729E+02 0.  0.
         12    1    3    3    0    0  0.26666818724E+02  0.14897109615E+01 -0.25346414199E+02  0.36820906729E+02  0.00000000000E+00 0. -1.
         11    1    4    4    0    0 -0.68889945145E+01 -0.55043342266E+01  0.20971414253E+02  0.22749860587E+02  0.51100000000E-03 0. -1.
        -11    1    4    4    0    0 -0.22344025179E+02  0.58704748432E+01  0.99907213942E+01  0.25170070527E+02  0.51100000000E-03 0.  1.
        -12    1    4    4    0    0  0.25662009692E+01 -0.18558515781E+01 -0.56157214480E+01  0.64471621568E+01  0.00000000000E+00 0.  1.
</event>
<event>
 8    1  0.2390921E-006  0.9118800E+02  0.7816164E-02  0.1184000E+00
        -11   -1    0    0    0    0  0.00000000000E+00  0.00000000000E+00  0.45593999997E+02  0.45594000000E+02  0.51100000000E-03 0.  1.
         11   -1    0    0    0    0 -0.00000000000E+00 -0.00000000000E+00 -0.45593999997E+02  0.45594000000E+02  0.51100000000E-03 0. -1.
         23    2    1    2    0    0  0.88817841970E-15  0.35527136788E-14  0.00000000000E+00  0.91188000000E+02  0.91188000000E+02 0.  0.
    9900012    2    3    3    0    0 -0.25666781075E+01  0.30152210013E+02  0.20977008436E+02  0.54367102562E+02  0.40000041911E+02 0.  0.
         12    1    3    3    0    0  0.25666781075E+01 -0.30152210013E+02 -0.20977008436E+02  0.36820897438E+02  0.00000000000E+00 0. -1.
         11    1    4    4    0    0 -0.46685652508E+00  0.11721446254E+01  0.49876612595E+01  0.51447685214E+01  0.51100000000E-03 0. -1.
        -11    1    4    4    0    0 -0.11474027049E+02  0.33922948671E+02  0.13940259054E+02  0.38428512410E+02  0.51100000000E-03 0.  1.
         12    1    4    4    0    0  0.93742054664E+01 -0.49428832834E+01  0.20490881224E+01  0.10793821632E+02  0.00000000000E+00 0. -1.
</event>
<event>
 8    1  0.2390921E-006  0.9118800E+02  0.7816164E-02  0.1184000E+00
        -11   -1    0    0    0    0  0.00000000000E+00  0.00000000000E+00  0.45593999997E+02  0.45594000000E+02  0.51100000000E-03 0.  1.
         11   -1    0    0    0    0 -0.00000000000E+00 -0.00000000000E+00 -0.45593999997E+02  0.45594000000E+02  0.51100000000E-03 0. -1.
         23    2    1    2    0    0  0.10658141036E-13 -0.35527136788E-14  0.35527136788E-14  0.91188000000E+02  0.91188000000E+02 0.  0.
    9900012    2    3    3    0    0 -0.29583336272E+02  0.10576486118E+02 -0.19202905428E+02  0.54366981268E+02  0.39999765396E+02 0.  0.
         12    1    3    3    0    0  0.29583336272E+02 -0.10576486118E+02  0.19202905428E+02  0.36821018732E+02  0.00000000000E+00 0. -1.
         11    1    4    4    0    0 -0.14554475787E+02  0.34914101944E+01 -0.18187010940E+02  0.23553982206E+02  0.51100000000E-03 0. -1.
        -11    1    4    4    0    0  0.37156696280E+01 -0.61503372070E+01  0.24807893782E+01  0.76017869442E+01  0.51100000000E-03 0.  1.
        -12    1    4    4    0    0 -0.18744530113E+02  0.13235413130E+02 -0.34966838658E+01  0.23211212117E+02  0.00000000000E+00 0.  1.
</event>
<event>
 8    1  0.2390921E-006  0.9118800E+02  0.7816164E-02  0.1184000E+00
        -11   -1    0    0    0    0  0.00000000000E+00  0.00000000000E+00  0.45593999997E+02  0.45594000000E+02  0.51100000000E-03 0.  1.
         11   -1    0    0    0    0 -0.00000000000E+00 -0.00000000000E+00 -0.45593999997E+02  0.45594000000E+02  0.51100000000E-03 0. -1.
         23    2    1    2    0    0 -0.17763568394E-14 -0.35527136788E-14  0.00000000000E+00  0.91188000000E+02  0.91188000000E+02 0.  0.
    9900012    2    3    3    0    0 -0.13926135783E+02 -0.28549113654E+02 -0.18622275743E+02  0.54367105088E+02  0.40000047669E+02 0.  0.
        -12    1    3    3    0    0  0.13926135783E+02  0.28549113654E+02  0.18622275743E+02  0.36820894912E+02  0.00000000000E+00 0.  1.
         11    1    4    4    0    0  0.14909993229E+01 -0.48846738857E+01 -0.55656205038E+01  0.75537573302E+01  0.51100000000E-03 0. -1.
        -11    1    4    4    0    0  0.51161155787E+01 -0.22898770760E+02 -0.11706369661E+02  0.26221507048E+02  0.51100000000E-03 0.  1.
        -12    1    4    4    0    0 -0.20533250684E+02 -0.76566900821E+00 -0.13502855778E+01  0.20591840710E+02  0.00000000000E+00 0.  1.
</event>
<event>
 8    1  0.2390921E-006  0.9118800E+02  0.7816164E-02  0.1184000E+00
        -11   -1    0    0    0    0  0.00000000000E+00  0.00000000000E+00  0.45593999997E+02  0.45594000000E+02  0.51100000000E-03 0. -1.
         11   -1    0    0    0    0 -0.00000000000E+00 -0.00000000000E+00 -0.45593999997E+02  0.45594000000E+02  0.51100000000E-03 0.  1.
         23    2    1    2    0    0  0.00000000000E+00  0.00000000000E+00  0.17763568394E-14  0.91188000000E+02  0.91188000000E+02 0.  0.
    9900012    2    3    3    0    0  0.26050767235E+02 -0.24467203520E+02  0.88592848375E+01  0.54367170984E+02  0.40000197891E+02 0.  0.
         12    1    3    3    0    0 -0.26050767235E+02  0.24467203520E+02 -0.88592848375E+01  0.36820829016E+02  0.00000000000E+00 0. -1.
         11    1    4    4    0    0  0.29387603650E+02 -0.20312287982E+02  0.50230583804E+01  0.36075634535E+02  0.51100000000E-03 0. -1.
        -11    1    4    4    0    0  0.56059055653E+00 -0.62399574081E+01 -0.52586030709E+01  0.81795010083E+01  0.51100000000E-03 0.  1.
         12    1    4    4    0    0 -0.38974269712E+01  0.20850418706E+01  0.90948295280E+01  0.10112035440E+02  0.00000000000E+00 0. -1.
</event>
<event>
 8    1  0.2390921E-006  0.9118800E+02  0.7816164E-02  0.1184000E+00
        -11   -1    0    0    0    0  0.00000000000E+00  0.00000000000E+00  0.45593999997E+02  0.45594000000E+02  0.51100000000E-03 0.  1.
         11   -1    0    0    0    0 -0.00000000000E+00 -0.00000000000E+00 -0.45593999997E+02  0.45594000000E+02  0.51100000000E-03 0. -1.
         23    2    1    2    0    0 -0.35527136788E-14  0.00000000000E+00  0.00000000000E+00  0.91188000000E+02  0.91188000000E+02 0.  0.
    9900012    2    3    3    0    0  0.24590835661E+02 -0.22235855565E+02 -0.16019862812E+02  0.54367102730E+02  0.40000042294E+02 0.  0.
        -12    1    3    3    0    0 -0.24590835661E+02  0.22235855565E+02  0.16019862812E+02  0.36820897270E+02  0.00000000000E+00 0.  1.
         11    1    4    4    0    0  0.15173836829E+02 -0.86586177469E+01 -0.77989231454E+01  0.19132176768E+02  0.51100000000E-03 0. -1.
        -11    1    4    4    0    0 -0.31704795243E+01  0.33769058281E+00 -0.14961448990E+02  0.15297415843E+02  0.51100000000E-03 0.  1.
        -12    1    4    4    0    0  0.12587478357E+02 -0.13914928401E+02  0.67405093234E+01  0.19937510119E+02  0.00000000000E+00 0.  1.
</event>
<event>
 8    1  0.2390921E-006  0.9118800E+02  0.7816164E-02  0.1184000E+00
        -11   -1    0    0    0    0  0.00000000000E+00  0.00000000000E+00  0.45593999997E+02  0.45594000000E+02  0.51100000000E-03 0. -1.
         11   -1    0    0    0    0 -0.00000000000E+00 -0.00000000000E+00 -0.45593999997E+02  0.45594000000E+02  0.51100000000E-03 0.  1.
         23    2    1    2    0    0  0.00000000000E+00  0.11657341759E-14  0.35527136788E-14  0.91188000000E+02  0.91188000000E+02 0.  0.
    9900012    2    3    3    0    0  0.32080543205E+02  0.26227880973E+00 -0.18070685348E+02  0.54367085950E+02  0.40000004041E+02 0.  0.
         12    1    3    3    0    0 -0.32080543205E+02 -0.26227880973E+00  0.18070685348E+02  0.36820914050E+02  0.00000000000E+00 0. -1.
         11    1    4    4    0    0  0.39081672807E+01 -0.58861684214E+01  0.47749365656E+01  0.85276473688E+01  0.51100000000E-03 0. -1.
        -11    1    4    4    0    0  0.25876544517E+02 -0.45373312045E+01 -0.22987984318E+02  0.34908886460E+02  0.51100000000E-03 0.  1.
        -12    1    4    4    0    0  0.22958314073E+01  0.10685778436E+02  0.14236240490E+00  0.10930552122E+02  0.00000000000E+00 0.  1.
</event>
<event>
 8    1  0.2390921E-006  0.9118800E+02  0.7816164E-02  0.1184000E+00
        -11   -1    0    0    0    0  0.00000000000E+00  0.00000000000E+00  0.45593999997E+02  0.45594000000E+02  0.51100000000E-03 0. -1.
         11   -1    0    0    0    0 -0.00000000000E+00 -0.00000000000E+00 -0.45593999997E+02  0.45594000000E+02  0.51100000000E-03 0.  1.
         23    2    1    2    0    0  0.00000000000E+00  0.00000000000E+00 -0.53290705182E-14  0.91188000000E+02  0.91188000000E+02 0.  0.
    9900012    2    3    3    0    0  0.89679445682E+01  0.35599372152E+02  0.28355186132E+01  0.54367088914E+02  0.40000010798E+02 0.  0.
         12    1    3    3    0    0 -0.89679445682E+01 -0.35599372152E+02 -0.28355186132E+01  0.36820911086E+02  0.00000000000E+00 0. -1.
         11    1    4    4    0    0  0.49444551003E+01 -0.23362426846E+01  0.90165339281E+01  0.10545309406E+02  0.51100000000E-03 0. -1.
        -11    1    4    4    0    0  0.50063377796E+01  0.19579806352E+02 -0.13207295415E+02  0.24142594873E+02  0.51100000000E-03 0.  1.
        -12    1    4    4    0    0 -0.98284831167E+00  0.18355808484E+02  0.70262800999E+01  0.19679184636E+02  0.00000000000E+00 0.  1.
</event>
<event>
 8    1  0.2390921E-006  0.9118800E+02  0.7816164E-02  0.1184000E+00
        -11   -1    0    0    0    0  0.00000000000E+00  0.00000000000E+00  0.45593999997E+02  0.45594000000E+02  0.51100000000E-03 0.  1.
         11   -1    0    0    0    0 -0.00000000000E+00 -0.00000000000E+00 -0.45593999997E+02  0.45594000000E+02  0.51100000000E-03 0. -1.
         23    2    1    2    0    0 -0.88817841970E-15  0.00000000000E+00  0.00000000000E+00  0.91188000000E+02  0.91188000000E+02 0.  0.
    9900012    2    3    3    0    0 -0.42828206793E+01 -0.32314562072E+02  0.17123131075E+02  0.54367148669E+02  0.40000147021E+02 0.  0.
         12    1    3    3    0    0  0.42828206793E+01  0.32314562072E+02 -0.17123131075E+02  0.36820851331E+02  0.00000000000E+00 0. -1.
         11    1    4    4    0    0 -0.11863328454E+02 -0.25510298339E+01  0.72332734815E+01  0.14126802920E+02  0.51100000000E-03 0. -1.
        -11    1    4    4    0    0 -0.66921644735E+01 -0.19810498589E+02  0.91490349449E+01  0.22824236250E+02  0.51100000000E-03 0.  1.
         12    1    4    4    0    0  0.14272672248E+02 -0.99530336490E+01  0.74082264905E+00  0.17416109500E+02  0.00000000000E+00 0. -1.
</event>
<event>
 8    1  0.2390921E-006  0.9118800E+02  0.7816164E-02  0.1184000E+00
        -11   -1    0    0    0    0  0.00000000000E+00  0.00000000000E+00  0.45593999997E+02  0.45594000000E+02  0.51100000000E-03 0.  1.
         11   -1    0    0    0    0 -0.00000000000E+00 -0.00000000000E+00 -0.45593999997E+02  0.45594000000E+02  0.51100000000E-03 0. -1.
         23    2    1    2    0    0  0.35527136788E-14  0.17763568394E-14  0.00000000000E+00  0.91188000000E+02  0.91188000000E+02 0.  0.
    9900012    2    3    3    0    0  0.23256167196E+02 -0.69823850613E+01 -0.27679902370E+02  0.54367081910E+02  0.39999994830E+02 0.  0.
        -12    1    3    3    0    0 -0.23256167196E+02  0.69823850613E+01  0.27679902370E+02  0.36820918090E+02  0.00000000000E+00 0.  1.
         11    1    4    4    0    0  0.81468336974E+01 -0.11460841732E+02 -0.19850015002E+02  0.24325807044E+02  0.51100000000E-03 0. -1.
        -11    1    4    4    0    0  0.20048986986E+02  0.52995888380E+01 -0.11610798698E+02  0.23766744995E+02  0.51100000000E-03 0.  1.
        -12    1    4    4    0    0 -0.49396534876E+01 -0.82113216711E+00  0.37809113297E+01  0.62745298706E+01  0.00000000000E+00 0.  1.
</event>
<event>
 8    1  0.2390921E-006  0.9118800E+02  0.7816164E-02  0.1184000E+00
        -11   -1    0    0    0    0  0.00000000000E+00  0.00000000000E+00  0.45593999997E+02  0.45594000000E+02  0.51100000000E-03 0. -1.
         11   -1    0    0    0    0 -0.00000000000E+00 -0.00000000000E+00 -0.45593999997E+02  0.45594000000E+02  0.51100000000E-03 0.  1.
         23    2    1    2    0    0  0.00000000000E+00  0.00000000000E+00  0.71054273576E-14  0.91188000000E+02  0.91188000000E+02 0.  0.
    9900012    2    3    3    0    0 -0.66534361017E+01  0.14071086657E+02 -0.33369402984E+02  0.54367071886E+02  0.39999971979E+02 0.  0.
         12    1    3    3    0    0  0.66534361017E+01 -0.14071086657E+02  0.33369402984E+02  0.36820928114E+02  0.00000000000E+00 0. -1.
         11    1    4    4    0    0 -0.74678298061E+01  0.52740067414E+01  0.31598142857E+01  0.96730582394E+01  0.51100000000E-03 0. -1.
        -11    1    4    4    0    0  0.82318839956E+01  0.14183612450E+02 -0.25928562328E+02  0.30679457637E+02  0.51100000000E-03 0.  1.
         12    1    4    4    0    0 -0.74174902912E+01 -0.53865325341E+01 -0.10600654941E+02  0.14014556009E+02  0.00000000000E+00 0. -1.
</event>
<event>
 8    1  0.2390921E-006  0.9118800E+02  0.7816164E-02  0.1184000E+00
        -11   -1    0    0    0    0  0.00000000000E+00  0.00000000000E+00  0.45593999997E+02  0.45594000000E+02  0.51100000000E-03 0.  1.
         11   -1    0    0    0    0 -0.00000000000E+00 -0.00000000000E+00 -0.45593999997E+02  0.45594000000E+02  0.51100000000E-03 0. -1.
         23    2    1    2    0    0  0.66613381478E-15 -0.35527136788E-14 -0.35527136788E-14  0.91188000000E+02  0.91188000000E+02 0.  0.
    9900012    2    3    3    0    0  0.18483871917E+01 -0.21368261341E+02 -0.29929236467E+02  0.54367104799E+02  0.40000047010E+02 0.  0.
        -12    1    3    3    0    0 -0.18483871917E+01  0.21368261341E+02  0.29929236467E+02  0.36820895201E+02  0.00000000000E+00 0.  1.
         11    1    4    4    0    0 -0.29204030046E+01  0.68252166114E+01 -0.42706947924E+00  0.74360422338E+01  0.51100000000E-03 0. -1.
        -11    1    4    4    0    0  0.77962087629E+01 -0.11326908011E+02 -0.11448005851E+01  0.13798198607E+02  0.51100000000E-03 0.  1.
         12    1    4    4    0    0 -0.30274185666E+01 -0.16866569942E+02 -0.28357366402E+02  0.33132863958E+02  0.00000000000E+00 0. -1.
</event>
<event>
 8    1  0.2390921E-006  0.9118800E+02  0.7816164E-02  0.1184000E+00
        -11   -1    0    0    0    0  0.00000000000E+00  0.00000000000E+00  0.45593999997E+02  0.45594000000E+02  0.51100000000E-03 0. -1.
         11   -1    0    0    0    0 -0.00000000000E+00 -0.00000000000E+00 -0.45593999997E+02  0.45594000000E+02  0.51100000000E-03 0.  1.
         23    2    1    2    0    0 -0.43021142204E-15  0.00000000000E+00 -0.17763568394E-14  0.91188000000E+02  0.91188000000E+02 0.  0.
    9900012    2    3    3    0    0  0.85518176852E-01 -0.35020864466E+02  0.11371522346E+02  0.54367084996E+02  0.40000001864E+02 0.  0.
         12    1    3    3    0    0 -0.85518176852E-01  0.35020864466E+02 -0.11371522346E+02  0.36820915004E+02  0.00000000000E+00 0. -1.
         11    1    4    4    0    0  0.17712292079E+02 -0.95321644728E+01 -0.19349806890E+01  0.20207216552E+02  0.51100000000E-03 0. -1.
        -11    1    4    4    0    0 -0.50505186938E+01 -0.10556777811E+02  0.70367652953E+01  0.13655378534E+02  0.51100000000E-03 0.  1.
         12    1    4    4    0    0 -0.12576255209E+02 -0.14931922183E+02  0.62697377396E+01  0.20504489910E+02  0.00000000000E+00 0. -1.
</event>
<event>
 8    1  0.2390921E-006  0.9118800E+02  0.7816164E-02  0.1184000E+00
        -11   -1    0    0    0    0  0.00000000000E+00  0.00000000000E+00  0.45593999997E+02  0.45594000000E+02  0.51100000000E-03 0.  1.
         11   -1    0    0    0    0 -0.00000000000E+00 -0.00000000000E+00 -0.45593999997E+02  0.45594000000E+02  0.51100000000E-03 0. -1.
         23    2    1    2    0    0 -0.88817841970E-15  0.88817841970E-15  0.00000000000E+00  0.91188000000E+02  0.91188000000E+02 0.  0.
    9900012    2    3    3    0    0  0.61870492647E+01 -0.22625247294E+01  0.36226800545E+02  0.54367086452E+02  0.40000005185E+02 0.  0.
         12    1    3    3    0    0 -0.61870492647E+01  0.22625247294E+01 -0.36226800545E+02  0.36820913548E+02  0.00000000000E+00 0. -1.
         11    1    4    4    0    0 -0.49178927125E+01  0.10177333501E+02  0.38948461564E+01  0.11955484631E+02  0.51100000000E-03 0. -1.
        -11    1    4    4    0    0 -0.12935582861E+01 -0.99480154964E+01  0.26785353058E+02  0.28602297881E+02  0.51100000000E-03 0.  1.
         12    1    4    4    0    0  0.12398500263E+02 -0.24918427337E+01  0.55466013307E+01  0.13809303940E+02  0.00000000000E+00 0. -1.
</event>
<event>
 8    1  0.2390921E-006  0.9118800E+02  0.7816164E-02  0.1184000E+00
        -11   -1    0    0    0    0  0.00000000000E+00  0.00000000000E+00  0.45593999997E+02  0.45594000000E+02  0.51100000000E-03 0.  1.
         11   -1    0    0    0    0 -0.00000000000E+00 -0.00000000000E+00 -0.45593999997E+02  0.45594000000E+02  0.51100000000E-03 0. -1.
         23    2    1    2    0    0 -0.35527136788E-14  0.35527136788E-14  0.00000000000E+00  0.91188000000E+02  0.91188000000E+02 0.  0.
    9900012    2    3    3    0    0  0.21633064170E+02 -0.21491516503E+02  0.20637433704E+02  0.54367103530E+02  0.40000044116E+02 0.  0.
         12    1    3    3    0    0 -0.21633064170E+02  0.21491516503E+02 -0.20637433704E+02  0.36820896470E+02  0.00000000000E+00 0. -1.
         11    1    4    4    0    0 -0.24195651355E+01 -0.16251952175E+02  0.53255744234E+01  0.17272579082E+02  0.51100000000E-03 0. -1.
        -11    1    4    4    0    0  0.17168857444E+02 -0.13039891835E+02  0.15721799574E+02  0.26683017579E+02  0.51100000000E-03 0.  1.
         12    1    4    4    0    0  0.68837718611E+01  0.78003275061E+01 -0.40994029356E+00  0.10411506869E+02  0.00000000000E+00 0. -1.
</event>
<event>
 8    1  0.2390921E-006  0.9118800E+02  0.7816164E-02  0.1184000E+00
        -11   -1    0    0    0    0  0.00000000000E+00  0.00000000000E+00  0.45593999997E+02  0.45594000000E+02  0.51100000000E-03 0. -1.
         11   -1    0    0    0    0 -0.00000000000E+00 -0.00000000000E+00 -0.45593999997E+02  0.45594000000E+02  0.51100000000E-03 0.  1.
         23    2    1    2    0    0  0.00000000000E+00  0.17763568394E-14  0.00000000000E+00  0.91188000000E+02  0.91188000000E+02 0.  0.
    9900012    2    3    3    0    0 -0.10753169688E+02 -0.15707195025E+02 -0.31518804306E+02  0.54367059507E+02  0.39999943759E+02 0.  0.
         12    1    3    3    0    0  0.10753169688E+02  0.15707195025E+02  0.31518804306E+02  0.36820940493E+02  0.00000000000E+00 0. -1.
         11    1    4    4    0    0 -0.29698447831E+01 -0.10494066025E+02  0.99477422338E+00  0.10951482813E+02  0.51100000000E-03 0. -1.
        -11    1    4    4    0    0 -0.17064902964E+01  0.79855043480E+01 -0.26430623058E+02  0.27663301038E+02  0.51100000000E-03 0.  1.
        -12    1    4    4    0    0 -0.60768346086E+01 -0.13198633348E+02 -0.60829554710E+01  0.15752275657E+02  0.00000000000E+00 0.  1.
</event>
<event>
 8    1  0.2390921E-006  0.9118800E+02  0.7816164E-02  0.1184000E+00
        -11   -1    0    0    0    0  0.00000000000E+00  0.00000000000E+00  0.45593999997E+02  0.45594000000E+02  0.51100000000E-03 0. -1.
         11   -1    0    0    0    0 -0.00000000000E+00 -0.00000000000E+00 -0.45593999997E+02  0.45594000000E+02  0.51100000000E-03 0.  1.
         23    2    1    2    0    0  0.13322676296E-14  0.00000000000E+00  0.00000000000E+00  0.91188000000E+02  0.91188000000E+02 0.  0.
    9900012    2    3    3    0    0 -0.28624889127E+01  0.36702400019E+02  0.72114818714E+00  0.54367081154E+02  0.39999993107E+02 0.  0.
         12    1    3    3    0    0  0.28624889127E+01 -0.36702400019E+02 -0.72114818714E+00  0.36820918846E+02  0.00000000000E+00 0. -1.
         11    1    4    4    0    0 -0.10412914151E+02 -0.30083900896E+01 -0.88166572229E+00  0.10874581681E+02  0.51100000000E-03 0. -1.
        -11    1    4    4    0    0 -0.24165432087E+01  0.27899799418E+02  0.74166672839E+00  0.28014077861E+02  0.51100000000E-03 0.  1.
        -12    1    4    4    0    0  0.99669684466E+01  0.11810990691E+02  0.86114718104E+00  0.15478421612E+02  0.00000000000E+00 0.  1.
</event>
<event>
 8    1  0.2390921E-006  0.9118800E+02  0.7816164E-02  0.1184000E+00
        -11   -1    0    0    0    0  0.00000000000E+00  0.00000000000E+00  0.45593999997E+02  0.45594000000E+02  0.51100000000E-03 0.  1.
         11   -1    0    0    0    0 -0.00000000000E+00 -0.00000000000E+00 -0.45593999997E+02  0.45594000000E+02  0.51100000000E-03 0. -1.
         23    2    1    2    0    0  0.00000000000E+00  0.00000000000E+00  0.17763568394E-14  0.91188000000E+02  0.91188000000E+02 0.  0.
    9900012    2    3    3    0    0  0.33877306412E+02 -0.10681759184E+02 -0.96957752013E+01  0.54367083040E+02  0.39999997407E+02 0.  0.
        -12    1    3    3    0    0 -0.33877306412E+02  0.10681759184E+02  0.96957752013E+01  0.36820916960E+02  0.00000000000E+00 0.  1.
         11    1    4    4    0    0  0.17770413228E+02  0.63105387742E+01 -0.14369035989E+02  0.23708219702E+02  0.51100000000E-03 0. -1.
        -11    1    4    4    0    0  0.38728002155E+01  0.21703300409E+01 -0.43343641302E+01  0.62044844000E+01  0.51100000000E-03 0.  1.
        -12    1    4    4    0    0  0.12234092968E+02 -0.19162628000E+02  0.90076249176E+01  0.24454378938E+02  0.00000000000E+00 0.  1.
</event>
<event>
 8    1  0.2390921E-006  0.9118800E+02  0.7816164E-02  0.1184000E+00
        -11   -1    0    0    0    0  0.00000000000E+00  0.00000000000E+00  0.45593999997E+02  0.45594000000E+02  0.51100000000E-03 0.  1.
         11   -1    0    0    0    0 -0.00000000000E+00 -0.00000000000E+00 -0.45593999997E+02  0.45594000000E+02  0.51100000000E-03 0. -1.
         23    2    1    2    0    0  0.00000000000E+00  0.00000000000E+00  0.35527136788E-14  0.91188000000E+02  0.91188000000E+02 0.  0.
    9900012    2    3    3    0    0  0.21832647375E+02 -0.98371051788E+01  0.27970620709E+02  0.54366963179E+02  0.39999724159E+02 0.  0.
         12    1    3    3    0    0 -0.21832647375E+02  0.98371051788E+01 -0.27970620709E+02  0.36821036821E+02  0.00000000000E+00 0. -1.
         11    1    4    4    0    0  0.27903069969E+01 -0.17218788937E+01  0.17214639263E+02  0.17524111540E+02  0.51100000000E-03 0. -1.
        -11    1    4    4    0    0  0.86594867599E+01  0.28249377981E+01  0.17952580086E+02  0.20131123081E+02  0.51100000000E-03 0.  1.
         12    1    4    4    0    0  0.10382853618E+02 -0.10940164083E+02 -0.71965986394E+01  0.16711728558E+02  0.00000000000E+00 0. -1.
</event>
<event>
 8    1  0.2390921E-006  0.9118800E+02  0.7816164E-02  0.1184000E+00
        -11   -1    0    0    0    0  0.00000000000E+00  0.00000000000E+00  0.45593999997E+02  0.45594000000E+02  0.51100000000E-03 0.  1.
         11   -1    0    0    0    0 -0.00000000000E+00 -0.00000000000E+00 -0.45593999997E+02  0.45594000000E+02  0.51100000000E-03 0. -1.
         23    2    1    2    0    0  0.35527136788E-14  0.17763568394E-14  0.00000000000E+00  0.91188000000E+02  0.91188000000E+02 0.  0.
    9900012    2    3    3    0    0 -0.28768640167E+02  0.14129429087E+02  0.18124657482E+02  0.54367100606E+02  0.40000037451E+02 0.  0.
         12    1    3    3    0    0  0.28768640167E+02 -0.14129429087E+02 -0.18124657482E+02  0.36820899394E+02  0.00000000000E+00 0. -1.
         11    1    4    4    0    0 -0.46008141062E+01 -0.51837689921E+01 -0.41475680415E+01  0.80772069630E+01  0.51100000000E-03 0. -1.
        -11    1    4    4    0    0  0.11110710059E+01  0.87042907415E+01 -0.27263293135E+01  0.91886902157E+01  0.51100000000E-03 0.  1.
         12    1    4    4    0    0 -0.25278897066E+02  0.10608907338E+02  0.24998554837E+02  0.37101203427E+02  0.00000000000E+00 0. -1.
</event>
<event>
 8    1  0.2390921E-006  0.9118800E+02  0.7816164E-02  0.1184000E+00
        -11   -1    0    0    0    0  0.00000000000E+00  0.00000000000E+00  0.45593999997E+02  0.45594000000E+02  0.51100000000E-03 0. -1.
         11   -1    0    0    0    0 -0.00000000000E+00 -0.00000000000E+00 -0.45593999997E+02  0.45594000000E+02  0.51100000000E-03 0.  1.
         23    2    1    2    0    0 -0.71054273576E-14  0.00000000000E+00 -0.88817841970E-15  0.91188000000E+02  0.91188000000E+02 0.  0.
    9900012    2    3    3    0    0 -0.34947845711E+02  0.94206260433E+01 -0.67586656496E+01  0.54367086428E+02  0.40000005130E+02 0.  0.
         12    1    3    3    0    0  0.34947845711E+02 -0.94206260433E+01  0.67586656496E+01  0.36820913572E+02  0.00000000000E+00 0. -1.
         11    1    4    4    0    0 -0.25733570757E+00 -0.84611441614E+01  0.20110304993E+01  0.87006566486E+01  0.51100000000E-03 0. -1.
        -11    1    4    4    0    0 -0.33325283868E+02  0.74727639407E+01 -0.83556447932E+01  0.35160112997E+02  0.51100000000E-03 0.  1.
         12    1    4    4    0    0 -0.13652261360E+01  0.10409006264E+02 -0.41405135572E+00  0.10506316782E+02  0.00000000000E+00 0. -1.
</event>
<event>
 8    1  0.2390921E-006  0.9118800E+02  0.7816164E-02  0.1184000E+00
        -11   -1    0    0    0    0  0.00000000000E+00  0.00000000000E+00  0.45593999997E+02  0.45594000000E+02  0.51100000000E-03 0.  1.
         11   -1    0    0    0    0 -0.00000000000E+00 -0.00000000000E+00 -0.45593999997E+02  0.45594000000E+02  0.51100000000E-03 0. -1.
         23    2    1    2    0    0  0.00000000000E+00  0.10658141036E-13  0.88817841970E-15  0.91188000000E+02  0.91188000000E+02 0.  0.
    9900012    2    3    3    0    0  0.25190153051E+02 -0.25848028528E+02  0.72884048984E+01  0.54367010938E+02  0.39999833035E+02 0.  0.
        -12    1    3    3    0    0 -0.25190153051E+02  0.25848028528E+02 -0.72884048984E+01  0.36820989062E+02  0.00000000000E+00 0.  1.
         11    1    4    4    0    0  0.81740559153E+01 -0.92571168849E+01  0.23058136702E+01  0.12562889002E+02  0.51100000000E-03 0. -1.
        -11    1    4    4    0    0  0.18986987674E+01  0.79253679421E+01  0.96446183865E+01  0.12626764356E+02  0.51100000000E-03 0.  1.
        -12    1    4    4    0    0  0.15117398368E+02 -0.24516279585E+02 -0.46620271583E+01  0.29177357580E+02  0.00000000000E+00 0.  1.
</event>
<event>
 8    1  0.2390921E-006  0.9118800E+02  0.7816164E-02  0.1184000E+00
        -11   -1    0    0    0    0  0.00000000000E+00  0.00000000000E+00  0.45593999997E+02  0.45594000000E+02  0.51100000000E-03 0. -1.
         11   -1    0    0    0    0 -0.00000000000E+00 -0.00000000000E+00 -0.45593999997E+02  0.45594000000E+02  0.51100000000E-03 0.  1.
         23    2    1    2    0    0 -0.17763568394E-14  0.00000000000E+00  0.35527136788E-14  0.91188000000E+02  0.91188000000E+02 0.  0.
    9900012    2    3    3    0    0 -0.11972423494E+02 -0.27441783790E+02  0.21433345887E+02  0.54367099172E+02  0.40000034182E+02 0.  0.
        -12    1    3    3    0    0  0.11972423494E+02  0.27441783790E+02 -0.21433345887E+02  0.36820900828E+02  0.00000000000E+00 0.  1.
         11    1    4    4    0    0  0.48706220259E+01 -0.22989434799E+02  0.20425078276E+02  0.31135524632E+02  0.51100000000E-03 0. -1.
        -11    1    4    4    0    0 -0.69569502660E+01  0.27486948931E+01  0.64195868170E+01  0.98572600545E+01  0.51100000000E-03 0.  1.
        -12    1    4    4    0    0 -0.98860952541E+01 -0.72010438840E+01 -0.54113192060E+01  0.13374314485E+02  0.00000000000E+00 0.  1.
</event>
<event>
 8    1  0.2390921E-006  0.9118800E+02  0.7816164E-02  0.1184000E+00
        -11   -1    0    0    0    0  0.00000000000E+00  0.00000000000E+00  0.45593999997E+02  0.45594000000E+02  0.51100000000E-03 0.  1.
         11   -1    0    0    0    0 -0.00000000000E+00 -0.00000000000E+00 -0.45593999997E+02  0.45594000000E+02  0.51100000000E-03 0. -1.
         23    2    1    2    0    0 -0.29143354396E-15  0.00000000000E+00  0.00000000000E+00  0.91188000000E+02  0.91188000000E+02 0.  0.
    9900012    2    3    3    0    0  0.82481795310E-01 -0.11123225861E+02 -0.35100528588E+02  0.54367081164E+02  0.39999993128E+02 0.  0.
        -12    1    3    3    0    0 -0.82481795310E-01  0.11123225861E+02  0.35100528588E+02  0.36820918836E+02  0.00000000000E+00 0.  1.
         11    1    4    4    0    0 -0.76209667882E+01 -0.22237063134E+01 -0.21273245956E+02  0.22706276629E+02  0.51100000000E-03 0. -1.
        -11    1    4    4    0    0  0.14612723172E+01  0.89356329315E+01 -0.74257565151E+01  0.11709940766E+02  0.51100000000E-03 0.  1.
        -12    1    4    4    0    0  0.62421762662E+01 -0.17835152479E+02 -0.64015261166E+01  0.19950863768E+02  0.00000000000E+00 0.  1.
</event>
<event>
 8    1  0.2390921E-006  0.9118800E+02  0.7816164E-02  0.1184000E+00
        -11   -1    0    0    0    0  0.00000000000E+00  0.00000000000E+00  0.45593999997E+02  0.45594000000E+02  0.51100000000E-03 0. -1.
         11   -1    0    0    0    0 -0.00000000000E+00 -0.00000000000E+00 -0.45593999997E+02  0.45594000000E+02  0.51100000000E-03 0.  1.
         23    2    1    2    0    0  0.00000000000E+00  0.00000000000E+00 -0.17763568394E-14  0.91188000000E+02  0.91188000000E+02 0.  0.
    9900012    2    3    3    0    0 -0.87991970555E+01  0.32063523383E+02  0.15820372256E+02  0.54367087750E+02  0.40000008145E+02 0.  0.
        -12    1    3    3    0    0  0.87991970555E+01 -0.32063523383E+02 -0.15820372256E+02  0.36820912250E+02  0.00000000000E+00 0.  1.
         11    1    4    4    0    0 -0.85103066355E+01 -0.80484578722E+00 -0.21969737360E+01  0.88260857479E+01  0.51100000000E-03 0. -1.
        -11    1    4    4    0    0 -0.11313026567E+02  0.65302756600E+01  0.35690484122E+01  0.13541313715E+02  0.51100000000E-03 0.  1.
         12    1    4    4    0    0  0.11024136147E+02  0.26338093510E+02  0.14448297580E+02  0.31999688288E+02  0.00000000000E+00 0. -1.
</event>
<event>
 8    1  0.2390921E-006  0.9118800E+02  0.7816164E-02  0.1184000E+00
        -11   -1    0    0    0    0  0.00000000000E+00  0.00000000000E+00  0.45593999997E+02  0.45594000000E+02  0.51100000000E-03 0.  1.
         11   -1    0    0    0    0 -0.00000000000E+00 -0.00000000000E+00 -0.45593999997E+02  0.45594000000E+02  0.51100000000E-03 0. -1.
         23    2    1    2    0    0  0.35527136788E-14  0.00000000000E+00  0.00000000000E+00  0.91188000000E+02  0.91188000000E+02 0.  0.
    9900012    2    3    3    0    0  0.16105473585E+02 -0.31774392289E+02  0.93156615544E+01  0.54367084274E+02  0.40000000219E+02 0.  0.
        -12    1    3    3    0    0 -0.16105473585E+02  0.31774392289E+02 -0.93156615544E+01  0.36820915726E+02  0.00000000000E+00 0.  1.
         11    1    4    4    0    0 -0.34478510174E+01 -0.11944726803E+02 -0.16518278465E+01  0.12541639069E+02  0.51100000000E-03 0. -1.
        -11    1    4    4    0    0 -0.58113220903E+01  0.27133866696E+01  0.13465963798E+01  0.65534154246E+01  0.51100000000E-03 0.  1.
        -12    1    4    4    0    0  0.25364646692E+02 -0.22543052155E+02  0.96208930212E+01  0.35272029780E+02  0.00000000000E+00 0.  1.
</event>
<event>
 8    1  0.2390921E-006  0.9118800E+02  0.7816164E-02  0.1184000E+00
        -11   -1    0    0    0    0  0.00000000000E+00  0.00000000000E+00  0.45593999997E+02  0.45594000000E+02  0.51100000000E-03 0. -1.
         11   -1    0    0    0    0 -0.00000000000E+00 -0.00000000000E+00 -0.45593999997E+02  0.45594000000E+02  0.51100000000E-03 0.  1.
         23    2    1    2    0    0  0.00000000000E+00 -0.17763568394E-14  0.00000000000E+00  0.91188000000E+02  0.91188000000E+02 0.  0.
    9900012    2    3    3    0    0 -0.32834995586E+02  0.14552824022E+02  0.81153173757E+01  0.54367082056E+02  0.39999995162E+02 0.  0.
        -12    1    3    3    0    0  0.32834995586E+02 -0.14552824022E+02 -0.81153173757E+01  0.36820917944E+02  0.00000000000E+00 0.  1.
         11    1    4    4    0    0 -0.19039266504E+02 -0.21218184089E-01  0.11959862649E+02  0.22484048436E+02  0.51100000000E-03 0.  1.
        -11    1    4    4    0    0 -0.12106783127E+02  0.68622618920E+01  0.91666633590E+01  0.16664109738E+02  0.51100000000E-03 0. -1.
        -12    1    4    4    0    0 -0.16889459552E+01  0.77117803142E+01 -0.13011208632E+02  0.15218923882E+02  0.00000000000E+00 0.  1.
</event>
<event>
 8    1  0.2390921E-006  0.9118800E+02  0.7816164E-02  0.1184000E+00
        -11   -1    0    0    0    0  0.00000000000E+00  0.00000000000E+00  0.45593999997E+02  0.45594000000E+02  0.51100000000E-03 0.  1.
         11   -1    0    0    0    0 -0.00000000000E+00 -0.00000000000E+00 -0.45593999997E+02  0.45594000000E+02  0.51100000000E-03 0. -1.
         23    2    1    2    0    0  0.00000000000E+00  0.00000000000E+00 -0.13322676296E-14  0.91188000000E+02  0.91188000000E+02 0.  0.
    9900012    2    3    3    0    0 -0.34371787423E+02  0.13036125043E+02  0.21022236768E+01  0.54367086497E+02  0.40000005287E+02 0.  0.
        -12    1    3    3    0    0  0.34371787423E+02 -0.13036125043E+02 -0.21022236768E+01  0.36820913503E+02  0.00000000000E+00 0.  1.
         11    1    4    4    0    0 -0.21344190700E+02  0.11477543390E+02 -0.12074590240E+02  0.27075897190E+02  0.51100000000E-03 0. -1.
        -11    1    4    4    0    0 -0.11327430427E+02 -0.77071781015E+01  0.66302929606E+01  0.15220777226E+02  0.51100000000E-03 0.  1.
        -12    1    4    4    0    0 -0.17001662961E+01  0.92657597546E+01  0.75465209560E+01  0.12070412081E+02  0.00000000000E+00 0.  1.
</event>
<event>
 8    1  0.2390921E-006  0.9118800E+02  0.7816164E-02  0.1184000E+00
        -11   -1    0    0    0    0  0.00000000000E+00  0.00000000000E+00  0.45593999997E+02  0.45594000000E+02  0.51100000000E-03 0. -1.
         11   -1    0    0    0    0 -0.00000000000E+00 -0.00000000000E+00 -0.45593999997E+02  0.45594000000E+02  0.51100000000E-03 0.  1.
         23    2    1    2    0    0  0.35527136788E-14  0.35527136788E-14  0.00000000000E+00  0.91188000000E+02  0.91188000000E+02 0.  0.
    9900012    2    3    3    0    0  0.26302068971E+02  0.23549595326E+02  0.10459323393E+02  0.54367085862E+02  0.40000003839E+02 0.  0.
        -12    1    3    3    0    0 -0.26302068971E+02 -0.23549595326E+02 -0.10459323393E+02  0.36820914138E+02  0.00000000000E+00 0.  1.
         11    1    4    4    0    0  0.61497726013E+01  0.15270953651E+02  0.10989007472E+02  0.19793433607E+02  0.51100000000E-03 0.  1.
        -11    1    4    4    0    0  0.71352571017E+01  0.29198444666E+01  0.12958023776E+02  0.15078055778E+02  0.51100000000E-03 0. -1.
        -12    1    4    4    0    0  0.13017039267E+02  0.53587972084E+01 -0.13487707855E+02  0.19495596477E+02  0.00000000000E+00 0.  1.
</event>
<event>
 8    1  0.2390921E-006  0.9118800E+02  0.7816164E-02  0.1184000E+00
        -11   -1    0    0    0    0  0.00000000000E+00  0.00000000000E+00  0.45593999997E+02  0.45594000000E+02  0.51100000000E-03 0. -1.
         11   -1    0    0    0    0 -0.00000000000E+00 -0.00000000000E+00 -0.45593999997E+02  0.45594000000E+02  0.51100000000E-03 0.  1.
         23    2    1    2    0    0  0.35527136788E-14 -0.35527136788E-14  0.88817841970E-15  0.91188000000E+02  0.91188000000E+02 0.  0.
    9900012    2    3    3    0    0 -0.26968092446E+02  0.24405957349E+02 -0.57314766536E+01  0.54367101193E+02  0.40000038790E+02 0.  0.
         12    1    3    3    0    0  0.26968092446E+02 -0.24405957349E+02  0.57314766536E+01  0.36820898807E+02  0.00000000000E+00 0. -1.
         11    1    4    4    0    0 -0.16936640247E+02 -0.13715463653E+01 -0.29484897820E+01  0.17245999958E+02  0.51100000000E-03 0. -1.
        -11    1    4    4    0    0 -0.41053895413E+01  0.14476822797E+02  0.10771265430E+02  0.18505479750E+02  0.51100000000E-03 0.  1.
        -12    1    4    4    0    0 -0.59260626582E+01  0.11300680917E+02 -0.13554252301E+02  0.18615621485E+02  0.00000000000E+00 0.  1.
</event>
<event>
 8    1  0.2390921E-006  0.9118800E+02  0.7816164E-02  0.1184000E+00
        -11   -1    0    0    0    0  0.00000000000E+00  0.00000000000E+00  0.45593999997E+02  0.45594000000E+02  0.51100000000E-03 0.  1.
         11   -1    0    0    0    0 -0.00000000000E+00 -0.00000000000E+00 -0.45593999997E+02  0.45594000000E+02  0.51100000000E-03 0. -1.
         23    2    1    2    0    0  0.17763568394E-14 -0.17763568394E-14  0.00000000000E+00  0.91188000000E+02  0.91188000000E+02 0.  0.
    9900012    2    3    3    0    0 -0.35495725307E+01  0.97384725045E+01 -0.35331903538E+02  0.54367072262E+02  0.39999972836E+02 0.  0.
        -12    1    3    3    0    0  0.35495725307E+01 -0.97384725045E+01  0.35331903538E+02  0.36820927738E+02  0.00000000000E+00 0.  1.
         11    1    4    4    0    0 -0.10084492871E+02 -0.28640215112E+01 -0.18902037710E+02  0.21614500816E+02  0.51100000000E-03 0. -1.
        -11    1    4    4    0    0  0.12701793710E+02 -0.14368479778E+01 -0.54676269457E+01  0.13903058665E+02  0.51100000000E-03 0.  1.
         12    1    4    4    0    0 -0.61668733695E+01  0.14039341993E+02 -0.10962238882E+02  0.18849512781E+02  0.00000000000E+00 0. -1.
</event>
<event>
 8    1  0.2390921E-006  0.9118800E+02  0.7816164E-02  0.1184000E+00
        -11   -1    0    0    0    0  0.00000000000E+00  0.00000000000E+00  0.45593999997E+02  0.45594000000E+02  0.51100000000E-03 0.  1.
         11   -1    0    0    0    0 -0.00000000000E+00 -0.00000000000E+00 -0.45593999997E+02  0.45594000000E+02  0.51100000000E-03 0. -1.
         23    2    1    2    0    0  0.00000000000E+00  0.00000000000E+00  0.00000000000E+00  0.91188000000E+02  0.91188000000E+02 0.  0.
    9900012    2    3    3    0    0  0.34537446994E+02 -0.84824622488E+01 -0.95389735320E+01  0.54367089817E+02  0.40000012856E+02 0.  0.
        -12    1    3    3    0    0 -0.34537446994E+02  0.84824622488E+01  0.95389735320E+01  0.36820910183E+02  0.00000000000E+00 0.  1.
         11    1    4    4    0    0  0.31415002232E+02 -0.20455387124E+00 -0.32561700518E+01  0.31583965096E+02  0.51100000000E-03 0. -1.
        -11    1    4    4    0    0 -0.66301767563E+01  0.11037234305E+00 -0.73208064591E+01  0.98775317436E+01  0.51100000000E-03 0.  1.
         12    1    4    4    0    0  0.97526215183E+01 -0.83882807206E+01  0.10380029789E+01  0.12905592978E+02  0.00000000000E+00 0. -1.
</event>
<event>
 8    1  0.2390921E-006  0.9118800E+02  0.7816164E-02  0.1184000E+00
        -11   -1    0    0    0    0  0.00000000000E+00  0.00000000000E+00  0.45593999997E+02  0.45594000000E+02  0.51100000000E-03 0.  1.
         11   -1    0    0    0    0 -0.00000000000E+00 -0.00000000000E+00 -0.45593999997E+02  0.45594000000E+02  0.51100000000E-03 0. -1.
         23    2    1    2    0    0  0.35527136788E-14  0.00000000000E+00  0.00000000000E+00  0.91188000000E+02  0.91188000000E+02 0.  0.
    9900012    2    3    3    0    0  0.16959370860E+02 -0.10182367551E+02 -0.31056136413E+02  0.54367021226E+02  0.39999856489E+02 0.  0.
        -12    1    3    3    0    0 -0.16959370860E+02  0.10182367551E+02  0.31056136413E+02  0.36820978774E+02  0.00000000000E+00 0.  1.
         11    1    4    4    0    0  0.27643152327E+02 -0.11480200758E+02 -0.30647054099E+02  0.42839010320E+02  0.51100000000E-03 0. -1.
        -11    1    4    4    0    0 -0.18015022200E+01 -0.71941820887E+00  0.11964303276E+01  0.22791267183E+01  0.51100000000E-03 0.  1.
         12    1    4    4    0    0 -0.88822792463E+01  0.20172514152E+01 -0.16055126422E+01  0.92488841881E+01  0.00000000000E+00 0. -1.
</event>
<event>
 8    1  0.2390921E-006  0.9118800E+02  0.7816164E-02  0.1184000E+00
        -11   -1    0    0    0    0  0.00000000000E+00  0.00000000000E+00  0.45593999997E+02  0.45594000000E+02  0.51100000000E-03 0.  1.
         11   -1    0    0    0    0 -0.00000000000E+00 -0.00000000000E+00 -0.45593999997E+02  0.45594000000E+02  0.51100000000E-03 0. -1.
         23    2    1    2    0    0  0.35527136788E-14  0.35527136788E-14 -0.26645352591E-14  0.91188000000E+02  0.91188000000E+02 0.  0.
    9900012    2    3    3    0    0 -0.25878448960E+02 -0.25432986042E+02  0.62647314733E+01  0.54367112449E+02  0.40000064450E+02 0.  0.
        -12    1    3    3    0    0  0.25878448960E+02  0.25432986042E+02 -0.62647314733E+01  0.36820887551E+02  0.00000000000E+00 0.  1.
         11    1    4    4    0    0 -0.16642596201E+02  0.20054732875E+01 -0.10588086247E+02  0.19826888360E+02  0.51100000000E-03 0. -1.
        -11    1    4    4    0    0 -0.35056809342E+01 -0.99849905856E+01  0.10991207314E+02  0.15257669360E+02  0.51100000000E-03 0.  1.
         12    1    4    4    0    0 -0.57301718245E+01 -0.17453468744E+02  0.58616104060E+01  0.19282554729E+02  0.00000000000E+00 0. -1.
</event>
<event>
 8    1  0.2390921E-006  0.9118800E+02  0.7816164E-02  0.1184000E+00
        -11   -1    0    0    0    0  0.00000000000E+00  0.00000000000E+00  0.45593999997E+02  0.45594000000E+02  0.51100000000E-03 0. -1.
         11   -1    0    0    0    0 -0.00000000000E+00 -0.00000000000E+00 -0.45593999997E+02  0.45594000000E+02  0.51100000000E-03 0.  1.
         23    2    1    2    0    0  0.17763568394E-14 -0.35527136788E-14  0.00000000000E+00  0.91188000000E+02  0.91188000000E+02 0.  0.
    9900012    2    3    3    0    0 -0.13934410540E+02 -0.25797676875E+02  0.22273082846E+02  0.54367107171E+02  0.40000052418E+02 0.  0.
         12    1    3    3    0    0  0.13934410540E+02  0.25797676875E+02 -0.22273082846E+02  0.36820892829E+02  0.00000000000E+00 0. -1.
         11    1    4    4    0    0 -0.16034785836E+02 -0.10686496177E+02  0.19777770154E+02  0.27612963438E+02  0.51100000000E-03 0. -1.
        -11    1    4    4    0    0  0.16964685759E+01 -0.19250221579E+02  0.70646393904E+01  0.20575669283E+02  0.51100000000E-03 0.  1.
         12    1    4    4    0    0  0.40390671953E+00  0.41390408804E+01 -0.45693266987E+01  0.61784744498E+01  0.00000000000E+00 0. -1.
</event>
<event>
 8    1  0.2390921E-006  0.9118800E+02  0.7816164E-02  0.1184000E+00
        -11   -1    0    0    0    0  0.00000000000E+00  0.00000000000E+00  0.45593999997E+02  0.45594000000E+02  0.51100000000E-03 0. -1.
         11   -1    0    0    0    0 -0.00000000000E+00 -0.00000000000E+00 -0.45593999997E+02  0.45594000000E+02  0.51100000000E-03 0.  1.
         23    2    1    2    0    0  0.71054273576E-14  0.17763568394E-14 -0.33306690739E-15  0.91188000000E+02  0.91188000000E+02 0.  0.
    9900012    2    3    3    0    0 -0.36188256198E+02  0.67955862707E+01  0.99954999825E-01  0.54367083792E+02  0.39999999120E+02 0.  0.
        -12    1    3    3    0    0  0.36188256198E+02 -0.67955862707E+01 -0.99954999825E-01  0.36820916208E+02  0.00000000000E+00 0.  1.
         11    1    4    4    0    0 -0.48838307166E+01  0.87494539624E+01 -0.20014245257E+01  0.10218143055E+02  0.51100000000E-03 0. -1.
        -11    1    4    4    0    0 -0.13922722809E+02  0.13290394731E+02 -0.51393850486E+01  0.19922100327E+02  0.51100000000E-03 0.  1.
         12    1    4    4    0    0 -0.17381702673E+02 -0.15244262422E+02  0.72407645742E+01  0.24226840409E+02  0.00000000000E+00 0. -1.
</event>
<event>
 8    1  0.2390921E-006  0.9118800E+02  0.7816164E-02  0.1184000E+00
        -11   -1    0    0    0    0  0.00000000000E+00  0.00000000000E+00  0.45593999997E+02  0.45594000000E+02  0.51100000000E-03 0. -1.
         11   -1    0    0    0    0 -0.00000000000E+00 -0.00000000000E+00 -0.45593999997E+02  0.45594000000E+02  0.51100000000E-03 0.  1.
         23    2    1    2    0    0 -0.35527136788E-14 -0.61062266354E-15  0.00000000000E+00  0.91188000000E+02  0.91188000000E+02 0.  0.
    9900012    2    3    3    0    0 -0.10741179805E+02 -0.37168100092E+00 -0.35217449097E+02  0.54367084595E+02  0.40000000950E+02 0.  0.
         12    1    3    3    0    0  0.10741179805E+02  0.37168100092E+00  0.35217449097E+02  0.36820915405E+02  0.00000000000E+00 0. -1.
         11    1    4    4    0    0 -0.13924085993E+02  0.10188290480E+02 -0.31783939118E+01  0.17543763044E+02  0.51100000000E-03 0. -1.
        -11    1    4    4    0    0 -0.53363706228E+01 -0.26778181352E+01 -0.15569641654E+02  0.16675170251E+02  0.51100000000E-03 0.  1.
        -12    1    4    4    0    0  0.85192768103E+01 -0.78821533454E+01 -0.16469413531E+02  0.20148151300E+02  0.00000000000E+00 0.  1.
</event>
<event>
 8    1  0.2390921E-006  0.9118800E+02  0.7816164E-02  0.1184000E+00
        -11   -1    0    0    0    0  0.00000000000E+00  0.00000000000E+00  0.45593999997E+02  0.45594000000E+02  0.51100000000E-03 0. -1.
         11   -1    0    0    0    0 -0.00000000000E+00 -0.00000000000E+00 -0.45593999997E+02  0.45594000000E+02  0.51100000000E-03 0.  1.
         23    2    1    2    0    0  0.00000000000E+00 -0.17763568394E-14  0.00000000000E+00  0.91188000000E+02  0.91188000000E+02 0.  0.
    9900012    2    3    3    0    0 -0.32883722423E+02 -0.14344694464E+02 -0.82867566692E+01  0.54367084805E+02  0.40000001431E+02 0.  0.
         12    1    3    3    0    0  0.32883722423E+02  0.14344694464E+02  0.82867566692E+01  0.36820915195E+02  0.00000000000E+00 0. -1.
         11    1    4    4    0    0  0.34026197521E+01 -0.30828489701E+01 -0.96741455966E+00  0.46922990251E+01  0.51100000000E-03 0. -1.
        -11    1    4    4    0    0 -0.19828815104E+01 -0.13727101934E+02  0.20724274016E+01  0.14023555262E+02  0.51100000000E-03 0.  1.
         12    1    4    4    0    0 -0.34303460665E+02  0.24652564404E+01 -0.93917695111E+01  0.35651230518E+02  0.00000000000E+00 0. -1.
</event>
<event>
 8    1  0.2390921E-006  0.9118800E+02  0.7816164E-02  0.1184000E+00
        -11   -1    0    0    0    0  0.00000000000E+00  0.00000000000E+00  0.45593999997E+02  0.45594000000E+02  0.51100000000E-03 0.  1.
         11   -1    0    0    0    0 -0.00000000000E+00 -0.00000000000E+00 -0.45593999997E+02  0.45594000000E+02  0.51100000000E-03 0. -1.
         23    2    1    2    0    0  0.00000000000E+00  0.00000000000E+00 -0.17763568394E-14  0.91188000000E+02  0.91188000000E+02 0.  0.
    9900012    2    3    3    0    0  0.21910703976E+02  0.28042975218E+02  0.94494728806E+01  0.54367082771E+02  0.39999996794E+02 0.  0.
         12    1    3    3    0    0 -0.21910703976E+02 -0.28042975218E+02 -0.94494728806E+01  0.36820917229E+02  0.00000000000E+00 0. -1.
         11    1    4    4    0    0  0.97962006540E+01  0.58587563795E+01  0.18033603567E+02  0.21342479506E+02  0.51100000000E-03 0. -1.
        -11    1    4    4    0    0  0.89818585780E+01  0.29008333056E+01  0.34844415538E+01  0.10061309586E+02  0.51100000000E-03 0.  1.
        -12    1    4    4    0    0  0.31326447445E+01  0.19283385533E+02 -0.12068572240E+02  0.22963293680E+02  0.00000000000E+00 0.  1.
</event>
<event>
 8    1  0.2390921E-006  0.9118800E+02  0.7816164E-02  0.1184000E+00
        -11   -1    0    0    0    0  0.00000000000E+00  0.00000000000E+00  0.45593999997E+02  0.45594000000E+02  0.51100000000E-03 0. -1.
         11   -1    0    0    0    0 -0.00000000000E+00 -0.00000000000E+00 -0.45593999997E+02  0.45594000000E+02  0.51100000000E-03 0.  1.
         23    2    1    2    0    0 -0.17763568394E-14  0.00000000000E+00 -0.55511151231E-15  0.91188000000E+02  0.91188000000E+02 0.  0.
    9900012    2    3    3    0    0  0.13351697434E+02  0.34304968504E+02  0.82507912906E+00  0.54367089583E+02  0.40000012322E+02 0.  0.
         12    1    3    3    0    0 -0.13351697434E+02 -0.34304968504E+02 -0.82507912906E+00  0.36820910417E+02  0.00000000000E+00 0. -1.
         11    1    4    4    0    0 -0.32525048516E+00  0.12711727674E+02  0.31649405115E+01  0.13103841308E+02  0.51100000000E-03 0. -1.
        -11    1    4    4    0    0  0.67859854318E+01 -0.31454177793E+01 -0.11736846560E+02  0.13917500448E+02  0.51100000000E-03 0.  1.
        -12    1    4    4    0    0  0.68909624871E+01  0.24738658609E+02  0.93969851773E+01  0.27345747827E+02  0.00000000000E+00 0.  1.
</event>
<event>
 8    1  0.2390921E-006  0.9118800E+02  0.7816164E-02  0.1184000E+00
        -11   -1    0    0    0    0  0.00000000000E+00  0.00000000000E+00  0.45593999997E+02  0.45594000000E+02  0.51100000000E-03 0.  1.
         11   -1    0    0    0    0 -0.00000000000E+00 -0.00000000000E+00 -0.45593999997E+02  0.45594000000E+02  0.51100000000E-03 0. -1.
         23    2    1    2    0    0  0.00000000000E+00  0.11934897515E-14  0.00000000000E+00  0.91188000000E+02  0.91188000000E+02 0.  0.
    9900012    2    3    3    0    0 -0.97365517816E+01 -0.20674207067E+00  0.35509667392E+02  0.54367086633E+02  0.40000005597E+02 0.  0.
         12    1    3    3    0    0  0.97365517816E+01  0.20674207067E+00 -0.35509667392E+02  0.36820913367E+02  0.00000000000E+00 0. -1.
         11    1    4    4    0    0 -0.71364096161E+01 -0.12719399993E+02  0.26767567501E+01  0.14828233386E+02  0.51100000000E-03 0. -1.
        -11    1    4    4    0    0 -0.46369687182E+00 -0.34940036202E+01  0.15306610143E+02  0.15707176398E+02  0.51100000000E-03 0.  1.
         12    1    4    4    0    0 -0.21364452936E+01  0.16006661542E+02  0.17526300500E+02  0.23831676849E+02  0.00000000000E+00 0. -1.
</event>
<event>
 8    1  0.2390921E-006  0.9118800E+02  0.7816164E-02  0.1184000E+00
        -11   -1    0    0    0    0  0.00000000000E+00  0.00000000000E+00  0.45593999997E+02  0.45594000000E+02  0.51100000000E-03 0.  1.
         11   -1    0    0    0    0 -0.00000000000E+00 -0.00000000000E+00 -0.45593999997E+02  0.45594000000E+02  0.51100000000E-03 0. -1.
         23    2    1    2    0    0 -0.88817841970E-15  0.00000000000E+00  0.00000000000E+00  0.91188000000E+02  0.91188000000E+02 0.  0.
    9900012    2    3    3    0    0 -0.62923613911E+01  0.30417314320E+02 -0.19773006350E+02  0.54367101011E+02  0.40000038374E+02 0.  0.
        -12    1    3    3    0    0  0.62923613911E+01 -0.30417314320E+02  0.19773006350E+02  0.36820898989E+02  0.00000000000E+00 0.  1.
         11    1    4    4    0    0 -0.57088781959E+01 -0.23783529138E+01  0.19711149006E+01  0.64910050879E+01  0.51100000000E-03 0. -1.
        -11    1    4    4    0    0  0.62823037164E+01 -0.24126722875E+01 -0.25883232207E+01  0.72102527631E+01  0.51100000000E-03 0.  1.
        -12    1    4    4    0    0 -0.68657869116E+01  0.35208339521E+02 -0.19155798030E+02  0.40665843160E+02  0.00000000000E+00 0.  1.
</event>
<event>
 8    1  0.2390921E-006  0.9118800E+02  0.7816164E-02  0.1184000E+00
        -11   -1    0    0    0    0  0.00000000000E+00  0.00000000000E+00  0.45593999997E+02  0.45594000000E+02  0.51100000000E-03 0.  1.
         11   -1    0    0    0    0 -0.00000000000E+00 -0.00000000000E+00 -0.45593999997E+02  0.45594000000E+02  0.51100000000E-03 0. -1.
         23    2    1    2    0    0  0.00000000000E+00  0.17763568394E-14  0.00000000000E+00  0.91188000000E+02  0.91188000000E+02 0.  0.
    9900012    2    3    3    0    0 -0.33966261940E+02 -0.85698153915E+01  0.11341553743E+02  0.54367088451E+02  0.40000009741E+02 0.  0.
         12    1    3    3    0    0  0.33966261940E+02  0.85698153915E+01 -0.11341553743E+02  0.36820911549E+02  0.00000000000E+00 0. -1.
         11    1    4    4    0    0  0.51476259011E+01 -0.22125716676E+01  0.31426741992E+01  0.64241674313E+01  0.51100000000E-03 0. -1.
        -11    1    4    4    0    0 -0.16471109359E+02 -0.13697368851E+02  0.10813756977E+02  0.23996930995E+02  0.51100000000E-03 0.  1.
        -12    1    4    4    0    0 -0.22642778482E+02  0.73401251268E+01 -0.26148774332E+01  0.23945990024E+02  0.00000000000E+00 0.  1.
</event>
<event>
 8    1  0.2390921E-006  0.9118800E+02  0.7816164E-02  0.1184000E+00
        -11   -1    0    0    0    0  0.00000000000E+00  0.00000000000E+00  0.45593999997E+02  0.45594000000E+02  0.51100000000E-03 0.  1.
         11   -1    0    0    0    0 -0.00000000000E+00 -0.00000000000E+00 -0.45593999997E+02  0.45594000000E+02  0.51100000000E-03 0. -1.
         23    2    1    2    0    0  0.00000000000E+00  0.00000000000E+00  0.00000000000E+00  0.91188000000E+02  0.91188000000E+02 0.  0.
    9900012    2    3    3    0    0 -0.17410772522E+02 -0.23448650131E+02  0.22423352803E+02  0.54367069217E+02  0.39999965894E+02 0.  0.
         12    1    3    3    0    0  0.17410772522E+02  0.23448650131E+02 -0.22423352803E+02  0.36820930783E+02  0.00000000000E+00 0. -1.
         11    1    4    4    0    0  0.21892657225E+01 -0.17325877944E+02 -0.45769220966E+00  0.17469642623E+02  0.51100000000E-03 0. -1.
        -11    1    4    4    0    0 -0.86358864888E+01  0.36555887909E+01 -0.38009980894E+00  0.93854323811E+01  0.51100000000E-03 0.  1.
        -12    1    4    4    0    0 -0.10964151756E+02 -0.97783609775E+01  0.23261144822E+02  0.27511994213E+02  0.00000000000E+00 0.  1.
</event>
<event>
 8    1  0.2390921E-006  0.9118800E+02  0.7816164E-02  0.1184000E+00
        -11   -1    0    0    0    0  0.00000000000E+00  0.00000000000E+00  0.45593999997E+02  0.45594000000E+02  0.51100000000E-03 0.  1.
         11   -1    0    0    0    0 -0.00000000000E+00 -0.00000000000E+00 -0.45593999997E+02  0.45594000000E+02  0.51100000000E-03 0. -1.
         23    2    1    2    0    0  0.00000000000E+00  0.00000000000E+00  0.00000000000E+00  0.91188000000E+02  0.91188000000E+02 0.  0.
    9900012    2    3    3    0    0 -0.11742421167E+02 -0.28414701805E+02 -0.20260741564E+02  0.54367117579E+02  0.40000076146E+02 0.  0.
        -12    1    3    3    0    0  0.11742421167E+02  0.28414701805E+02  0.20260741564E+02  0.36820882421E+02  0.00000000000E+00 0.  1.
         11    1    4    4    0    0 -0.17838687847E+02 -0.25822681371E+02 -0.59253060248E+01  0.31939613477E+02  0.51100000000E-03 0. -1.
        -11    1    4    4    0    0  0.66310951549E+01 -0.58720997662E+01 -0.12723451487E+01  0.89482870459E+01  0.51100000000E-03 0.  1.
         12    1    4    4    0    0 -0.53482847516E+00  0.32800793325E+01 -0.13063090390E+02  0.13479217057E+02  0.00000000000E+00 0. -1.
</event>
<event>
 8    1  0.2390921E-006  0.9118800E+02  0.7816164E-02  0.1184000E+00
        -11   -1    0    0    0    0  0.00000000000E+00  0.00000000000E+00  0.45593999997E+02  0.45594000000E+02  0.51100000000E-03 0.  1.
         11   -1    0    0    0    0 -0.00000000000E+00 -0.00000000000E+00 -0.45593999997E+02  0.45594000000E+02  0.51100000000E-03 0. -1.
         23    2    1    2    0    0  0.35527136788E-14  0.00000000000E+00  0.00000000000E+00  0.91188000000E+02  0.91188000000E+02 0.  0.
    9900012    2    3    3    0    0  0.89299467994E+01 -0.95990768775E+01 -0.34407768046E+02  0.54367072137E+02  0.39999972551E+02 0.  0.
        -12    1    3    3    0    0 -0.89299467994E+01  0.95990768775E+01  0.34407768046E+02  0.36820927863E+02  0.00000000000E+00 0.  1.
         11    1    4    4    0    0 -0.77071936802E+01 -0.12447994347E+02 -0.10554915560E+02  0.18048812715E+02  0.51100000000E-03 0. -1.
        -11    1    4    4    0    0  0.13677489163E+02 -0.81085624968E+01 -0.12111597241E+02  0.19987828385E+02  0.51100000000E-03 0.  1.
         12    1    4    4    0    0  0.29596513166E+01  0.10957479966E+02 -0.11741255246E+02  0.16330431037E+02  0.00000000000E+00 0. -1.
</event>
<event>
 8    1  0.2390921E-006  0.9118800E+02  0.7816164E-02  0.1184000E+00
        -11   -1    0    0    0    0  0.00000000000E+00  0.00000000000E+00  0.45593999997E+02  0.45594000000E+02  0.51100000000E-03 0. -1.
         11   -1    0    0    0    0 -0.00000000000E+00 -0.00000000000E+00 -0.45593999997E+02  0.45594000000E+02  0.51100000000E-03 0.  1.
         23    2    1    2    0    0  0.00000000000E+00  0.00000000000E+00  0.00000000000E+00  0.91188000000E+02  0.91188000000E+02 0.  0.
    9900012    2    3    3    0    0  0.24786072609E+01 -0.26516712443E+02  0.25426589254E+02  0.54366933016E+02  0.39999655395E+02 0.  0.
        -12    1    3    3    0    0 -0.24786072609E+01  0.26516712443E+02 -0.25426589254E+02  0.36821066984E+02  0.00000000000E+00 0.  1.
         11    1    4    4    0    0  0.36232720578E+01 -0.27886954925E+02  0.23050858197E+02  0.36361413879E+02  0.51100000000E-03 0. -1.
        -11    1    4    4    0    0 -0.43162714141E+01 -0.63481263061E+01  0.51130084775E+01  0.92234355026E+01  0.51100000000E-03 0.  1.
         12    1    4    4    0    0  0.31716066172E+01  0.77183687880E+01 -0.27372774206E+01  0.87820836342E+01  0.00000000000E+00 0. -1.
</event>
<event>
 8    1  0.2390921E-006  0.9118800E+02  0.7816164E-02  0.1184000E+00
        -11   -1    0    0    0    0  0.00000000000E+00  0.00000000000E+00  0.45593999997E+02  0.45594000000E+02  0.51100000000E-03 0.  1.
         11   -1    0    0    0    0 -0.00000000000E+00 -0.00000000000E+00 -0.45593999997E+02  0.45594000000E+02  0.51100000000E-03 0. -1.
         23    2    1    2    0    0  0.00000000000E+00 -0.35527136788E-14 -0.35527136788E-14  0.91188000000E+02  0.91188000000E+02 0.  0.
    9900012    2    3    3    0    0 -0.56407090475E+01  0.30383000796E+02  0.20020878609E+02  0.54367083170E+02  0.39999997702E+02 0.  0.
         12    1    3    3    0    0  0.56407090475E+01 -0.30383000796E+02 -0.20020878609E+02  0.36820916830E+02  0.00000000000E+00 0. -1.
         11    1    4    4    0    0 -0.14876663563E+02  0.81891452790E+01 -0.40974085664E+01  0.17469000440E+02  0.51100000000E-03 0. -1.
        -11    1    4    4    0    0  0.10396766930E+02  0.66997261629E+01  0.10025124462E+02  0.15921124772E+02  0.51100000000E-03 0.  1.
         12    1    4    4    0    0 -0.11608124151E+01  0.15494129354E+02  0.14093162713E+02  0.20976957958E+02  0.00000000000E+00 0. -1.
</event>
<event>
 8    1  0.2390921E-006  0.9118800E+02  0.7816164E-02  0.1184000E+00
        -11   -1    0    0    0    0  0.00000000000E+00  0.00000000000E+00  0.45593999997E+02  0.45594000000E+02  0.51100000000E-03 0. -1.
         11   -1    0    0    0    0 -0.00000000000E+00 -0.00000000000E+00 -0.45593999997E+02  0.45594000000E+02  0.51100000000E-03 0.  1.
         23    2    1    2    0    0 -0.14432899320E-14  0.00000000000E+00  0.00000000000E+00  0.91188000000E+02  0.91188000000E+02 0.  0.
    9900012    2    3    3    0    0  0.90000285605E+00  0.28882912212E+02 -0.22819879174E+02  0.54367088706E+02  0.40000010323E+02 0.  0.
         12    1    3    3    0    0 -0.90000285605E+00 -0.28882912212E+02  0.22819879174E+02  0.36820911294E+02  0.00000000000E+00 0. -1.
         11    1    4    4    0    0 -0.15943477095E+02  0.10998405329E+02 -0.76527231504E+01  0.20826030672E+02  0.51100000000E-03 0. -1.
        -11    1    4    4    0    0  0.16138955479E+01  0.38845072714E+01 -0.11869924391E+02  0.12593218846E+02  0.51100000000E-03 0.  1.
         12    1    4    4    0    0  0.15229584403E+02  0.13999999612E+02 -0.32972316318E+01  0.20947839188E+02  0.00000000000E+00 0. -1.
</event>
<event>
 8    1  0.2390921E-006  0.9118800E+02  0.7816164E-02  0.1184000E+00
        -11   -1    0    0    0    0  0.00000000000E+00  0.00000000000E+00  0.45593999997E+02  0.45594000000E+02  0.51100000000E-03 0. -1.
         11   -1    0    0    0    0 -0.00000000000E+00 -0.00000000000E+00 -0.45593999997E+02  0.45594000000E+02  0.51100000000E-03 0.  1.
         23    2    1    2    0    0  0.17763568394E-14 -0.35527136788E-14 -0.35527136788E-14  0.91188000000E+02  0.91188000000E+02 0.  0.
    9900012    2    3    3    0    0  0.12924275193E+02 -0.22423317626E+02 -0.26190397701E+02  0.54367095688E+02  0.40000026239E+02 0.  0.
         12    1    3    3    0    0 -0.12924275193E+02  0.22423317626E+02  0.26190397701E+02  0.36820904312E+02  0.00000000000E+00 0. -1.
         11    1    4    4    0    0 -0.59738074689E+01 -0.11217584362E+02 -0.18985259120E+02  0.22846457903E+02  0.51100000000E-03 0. -1.
        -11    1    4    4    0    0  0.15496426718E+02 -0.45678472080E+01 -0.14040024778E+02  0.21403896027E+02  0.51100000000E-03 0.  1.
        -12    1    4    4    0    0  0.34016559445E+01 -0.66378860560E+01  0.68348861968E+01  0.10116741757E+02  0.00000000000E+00 0.  1.
</event>
<event>
 8    1  0.2390921E-006  0.9118800E+02  0.7816164E-02  0.1184000E+00
        -11   -1    0    0    0    0  0.00000000000E+00  0.00000000000E+00  0.45593999997E+02  0.45594000000E+02  0.51100000000E-03 0.  1.
         11   -1    0    0    0    0 -0.00000000000E+00 -0.00000000000E+00 -0.45593999997E+02  0.45594000000E+02  0.51100000000E-03 0. -1.
         23    2    1    2    0    0  0.00000000000E+00  0.11102230246E-15  0.00000000000E+00  0.91188000000E+02  0.91188000000E+02 0.  0.
    9900012    2    3    3    0    0 -0.35829200547E+02  0.82907407389E+00  0.84476027934E+01  0.54367068879E+02  0.39999965124E+02 0.  0.
         12    1    3    3    0    0  0.35829200547E+02 -0.82907407389E+00 -0.84476027934E+01  0.36820931121E+02  0.00000000000E+00 0. -1.
         11    1    4    4    0    0 -0.18422514070E+02 -0.21499233674E+01  0.39278223307E+01  0.18958876118E+02  0.51100000000E-03 0. -1.
        -11    1    4    4    0    0 -0.57278826291E+01 -0.10641582924E+02 -0.71149330004E+01  0.14024057844E+02  0.51100000000E-03 0.  1.
         12    1    4    4    0    0 -0.11678803848E+02  0.13620580365E+02  0.11634713463E+02  0.21384134918E+02  0.00000000000E+00 0. -1.
</event>
<event>
 8    1  0.2390921E-006  0.9118800E+02  0.7816164E-02  0.1184000E+00
        -11   -1    0    0    0    0  0.00000000000E+00  0.00000000000E+00  0.45593999997E+02  0.45594000000E+02  0.51100000000E-03 0.  1.
         11   -1    0    0    0    0 -0.00000000000E+00 -0.00000000000E+00 -0.45593999997E+02  0.45594000000E+02  0.51100000000E-03 0. -1.
         23    2    1    2    0    0  0.35527136788E-14  0.00000000000E+00  0.88817841970E-15  0.91188000000E+02  0.91188000000E+02 0.  0.
    9900012    2    3    3    0    0 -0.15918420360E+02 -0.32796316081E+02  0.51754467566E+01  0.54367086046E+02  0.40000004260E+02 0.  0.
         12    1    3    3    0    0  0.15918420360E+02  0.32796316081E+02 -0.51754467566E+01  0.36820913954E+02  0.00000000000E+00 0. -1.
         11    1    4    4    0    0  0.29484448438E+00  0.82565839756E+00 -0.44067563464E+01  0.44931221681E+01  0.51100000000E-03 0. -1.
        -11    1    4    4    0    0 -0.18083635118E+02 -0.35900104783E+02  0.36731363429E+00  0.40199133101E+02  0.51100000000E-03 0.  1.
        -12    1    4    4    0    0  0.18703702734E+01  0.22781303044E+01  0.92148894687E+01  0.96748307770E+01  0.00000000000E+00 0.  1.
</event>
<event>
 8    1  0.2390921E-006  0.9118800E+02  0.7816164E-02  0.1184000E+00
        -11   -1    0    0    0    0  0.00000000000E+00  0.00000000000E+00  0.45593999997E+02  0.45594000000E+02  0.51100000000E-03 0. -1.
         11   -1    0    0    0    0 -0.00000000000E+00 -0.00000000000E+00 -0.45593999997E+02  0.45594000000E+02  0.51100000000E-03 0.  1.
         23    2    1    2    0    0  0.00000000000E+00 -0.22204460493E-15  0.71054273576E-14  0.91188000000E+02  0.91188000000E+02 0.  0.
    9900012    2    3    3    0    0 -0.68247741283E+01  0.12335371224E+01 -0.36161871619E+02  0.54367080474E+02  0.39999991557E+02 0.  0.
         12    1    3    3    0    0  0.68247741283E+01 -0.12335371224E+01  0.36161871619E+02  0.36820919526E+02  0.00000000000E+00 0. -1.
         11    1    4    4    0    0 -0.57861730234E+01  0.94652923424E+00  0.52256465172E+01  0.78538587734E+01  0.51100000000E-03 0. -1.
        -11    1    4    4    0    0  0.70269473096E+01  0.75801541048E+01 -0.19264813983E+02  0.21862520047E+02  0.51100000000E-03 0.  1.
         12    1    4    4    0    0 -0.80655484145E+01 -0.72931462167E+01 -0.22122704153E+02  0.24650701653E+02  0.00000000000E+00 0. -1.
</event>
<event>
 8    1  0.2390921E-006  0.9118800E+02  0.7816164E-02  0.1184000E+00
        -11   -1    0    0    0    0  0.00000000000E+00  0.00000000000E+00  0.45593999997E+02  0.45594000000E+02  0.51100000000E-03 0.  1.
         11   -1    0    0    0    0 -0.00000000000E+00 -0.00000000000E+00 -0.45593999997E+02  0.45594000000E+02  0.51100000000E-03 0. -1.
         23    2    1    2    0    0  0.88817841970E-15  0.11102230246E-14 -0.71054273576E-14  0.91188000000E+02  0.91188000000E+02 0.  0.
    9900012    2    3    3    0    0 -0.50612996939E+01 -0.16201711918E+01  0.36435464198E+02  0.54367017387E+02  0.39999847736E+02 0.  0.
         12    1    3    3    0    0  0.50612996939E+01  0.16201711918E+01 -0.36435464198E+02  0.36820982613E+02  0.00000000000E+00 0. -1.
         11    1    4    4    0    0  0.98804452600E+00 -0.15095628948E+02  0.23805529380E+01  0.15314087563E+02  0.51100000000E-03 0. -1.
        -11    1    4    4    0    0 -0.78120543106E+01  0.37841667068E+01  0.11233700204E+02  0.14196623921E+02  0.51100000000E-03 0.  1.
         12    1    4    4    0    0  0.17627100907E+01  0.96912910496E+01  0.22821211056E+02  0.24856305903E+02  0.00000000000E+00 0. -1.
</event>
<event>
 8    1  0.2390921E-006  0.9118800E+02  0.7816164E-02  0.1184000E+00
        -11   -1    0    0    0    0  0.00000000000E+00  0.00000000000E+00  0.45593999997E+02  0.45594000000E+02  0.51100000000E-03 0. -1.
         11   -1    0    0    0    0 -0.00000000000E+00 -0.00000000000E+00 -0.45593999997E+02  0.45594000000E+02  0.51100000000E-03 0.  1.
         23    2    1    2    0    0  0.17763568394E-14  0.00000000000E+00  0.00000000000E+00  0.91188000000E+02  0.91188000000E+02 0.  0.
    9900012    2    3    3    0    0  0.14365992254E+02 -0.28868267288E+02 -0.17777009395E+02  0.54367073169E+02  0.39999974903E+02 0.  0.
         12    1    3    3    0    0 -0.14365992254E+02  0.28868267288E+02  0.17777009395E+02  0.36820926831E+02  0.00000000000E+00 0. -1.
         11    1    4    4    0    0 -0.22888136549E+00  0.30542188558E+01 -0.20537306572E+01  0.36876075404E+01  0.51100000000E-03 0. -1.
        -11    1    4    4    0    0 -0.22536583306E+01  0.38927086902E+01 -0.96355527781E+01  0.10633721570E+02  0.51100000000E-03 0.  1.
         12    1    4    4    0    0  0.16848531950E+02 -0.35815194834E+02 -0.60877259598E+01  0.40045744059E+02  0.00000000000E+00 0. -1.
</event>
<event>
 8    1  0.2390921E-006  0.9118800E+02  0.7816164E-02  0.1184000E+00
        -11   -1    0    0    0    0  0.00000000000E+00  0.00000000000E+00  0.45593999997E+02  0.45594000000E+02  0.51100000000E-03 0.  1.
         11   -1    0    0    0    0 -0.00000000000E+00 -0.00000000000E+00 -0.45593999997E+02  0.45594000000E+02  0.51100000000E-03 0. -1.
         23    2    1    2    0    0  0.00000000000E+00 -0.35527136788E-14  0.35527136788E-14  0.91188000000E+02  0.91188000000E+02 0.  0.
    9900012    2    3    3    0    0  0.71208746379E+01  0.25973559010E+02 -0.25108706578E+02  0.54367085166E+02  0.40000002252E+02 0.  0.
        -12    1    3    3    0    0 -0.71208746379E+01 -0.25973559010E+02  0.25108706578E+02  0.36820914834E+02  0.00000000000E+00 0.  1.
         11    1    4    4    0    0  0.17859510366E+01  0.12881041511E+02 -0.29428691168E+02  0.32173882508E+02  0.51100000000E-03 0. -1.
        -11    1    4    4    0    0  0.28655438131E+01  0.60692917944E+00  0.83452736766E+01  0.88443935559E+01  0.51100000000E-03 0.  1.
         12    1    4    4    0    0  0.24693797882E+01  0.12485588319E+02 -0.40252890868E+01  0.13348809102E+02  0.00000000000E+00 0. -1.
</event>
<event>
 8    1  0.2390921E-006  0.9118800E+02  0.7816164E-02  0.1184000E+00
        -11   -1    0    0    0    0  0.00000000000E+00  0.00000000000E+00  0.45593999997E+02  0.45594000000E+02  0.51100000000E-03 0. -1.
         11   -1    0    0    0    0 -0.00000000000E+00 -0.00000000000E+00 -0.45593999997E+02  0.45594000000E+02  0.51100000000E-03 0.  1.
         23    2    1    2    0    0  0.17763568394E-14  0.00000000000E+00  0.00000000000E+00  0.91188000000E+02  0.91188000000E+02 0.  0.
    9900012    2    3    3    0    0 -0.97077896287E+01 -0.34269586248E+02  0.93345243350E+01  0.54367094719E+02  0.40000024032E+02 0.  0.
        -12    1    3    3    0    0  0.97077896287E+01  0.34269586248E+02 -0.93345243350E+01  0.36820905281E+02  0.00000000000E+00 0.  1.
         11    1    4    4    0    0 -0.18441561340E+02 -0.19052979109E+02  0.20478154072E+02  0.33503163911E+02  0.51100000000E-03 0. -1.
        -11    1    4    4    0    0  0.57315122671E+01 -0.10359796650E+02 -0.84812181711E+01  0.14563882773E+02  0.51100000000E-03 0.  1.
         12    1    4    4    0    0  0.30022594444E+01 -0.48568104894E+01 -0.26624115660E+01  0.63000480354E+01  0.00000000000E+00 0. -1.
</event>
<event>
 8    1  0.2390921E-006  0.9118800E+02  0.7816164E-02  0.1184000E+00
        -11   -1    0    0    0    0  0.00000000000E+00  0.00000000000E+00  0.45593999997E+02  0.45594000000E+02  0.51100000000E-03 0. -1.
         11   -1    0    0    0    0 -0.00000000000E+00 -0.00000000000E+00 -0.45593999997E+02  0.45594000000E+02  0.51100000000E-03 0.  1.
         23    2    1    2    0    0  0.00000000000E+00  0.71054273576E-14 -0.17763568394E-14  0.91188000000E+02  0.91188000000E+02 0.  0.
    9900012    2    3    3    0    0  0.11170432855E+02  0.34600952450E+02 -0.58116612525E+01  0.54367083565E+02  0.39999998603E+02 0.  0.
        -12    1    3    3    0    0 -0.11170432855E+02 -0.34600952450E+02  0.58116612525E+01  0.36820916435E+02  0.00000000000E+00 0.  1.
         11    1    4    4    0    0  0.52889363691E+01  0.15218638458E+02 -0.49111026178E+01  0.16843358739E+02  0.51100000000E-03 0. -1.
        -11    1    4    4    0    0 -0.13087481976E+02  0.85030597904E+01  0.46156125779E+00  0.15614008112E+02  0.51100000000E-03 0.  1.
         12    1    4    4    0    0  0.18968978462E+02  0.10879254201E+02 -0.13621198925E+01  0.21909716714E+02  0.00000000000E+00 0. -1.
</event>
<event>
 8    1  0.2390921E-006  0.9118800E+02  0.7816164E-02  0.1184000E+00
        -11   -1    0    0    0    0  0.00000000000E+00  0.00000000000E+00  0.45593999997E+02  0.45594000000E+02  0.51100000000E-03 0. -1.
         11   -1    0    0    0    0 -0.00000000000E+00 -0.00000000000E+00 -0.45593999997E+02  0.45594000000E+02  0.51100000000E-03 0.  1.
         23    2    1    2    0    0 -0.22204460493E-15  0.00000000000E+00 -0.35527136788E-14  0.91188000000E+02  0.91188000000E+02 0.  0.
    9900012    2    3    3    0    0 -0.13914202918E+01  0.22886066686E+02  0.28810953226E+02  0.54367093920E+02  0.40000022208E+02 0.  0.
        -12    1    3    3    0    0  0.13914202918E+01 -0.22886066686E+02 -0.28810953226E+02  0.36820906080E+02  0.00000000000E+00 0.  1.
         11    1    4    4    0    0 -0.88171892350E+01  0.19559866717E+02  0.17960936680E+02  0.27980823053E+02  0.51100000000E-03 0. -1.
        -11    1    4    4    0    0 -0.85505672374E+00  0.77571503281E+01  0.14373348583E+02  0.16355355482E+02  0.51100000000E-03 0.  1.
        -12    1    4    4    0    0  0.82808256669E+01 -0.44309503599E+01 -0.35233320362E+01  0.10030915385E+02  0.00000000000E+00 0.  1.
</event>
<event>
 8    1  0.2390921E-006  0.9118800E+02  0.7816164E-02  0.1184000E+00
        -11   -1    0    0    0    0  0.00000000000E+00  0.00000000000E+00  0.45593999997E+02  0.45594000000E+02  0.51100000000E-03 0.  1.
         11   -1    0    0    0    0 -0.00000000000E+00 -0.00000000000E+00 -0.45593999997E+02  0.45594000000E+02  0.51100000000E-03 0. -1.
         23    2    1    2    0    0 -0.44408920985E-15  0.00000000000E+00  0.00000000000E+00  0.91188000000E+02  0.91188000000E+02 0.  0.
    9900012    2    3    3    0    0 -0.38729694452E+01  0.29522544963E+02  0.21660996900E+02  0.54367090993E+02  0.40000015537E+02 0.  0.
         12    1    3    3    0    0  0.38729694452E+01 -0.29522544963E+02 -0.21660996900E+02  0.36820909007E+02  0.00000000000E+00 0. -1.
         11    1    4    4    0    0 -0.97365596305E+01  0.48443508028E+01  0.21445080610E+02  0.24044953957E+02  0.51100000000E-03 0.  1.
        -11    1    4    4    0    0  0.68209230558E+01  0.26365022975E+02 -0.20850551974E+01  0.27312760447E+02  0.51100000000E-03 0. -1.
         12    1    4    4    0    0 -0.95733287045E+00 -0.16868288147E+01  0.23009714870E+01  0.30093765898E+01  0.00000000000E+00 0. -1.
</event>
<event>
 8    1  0.2390921E-006  0.9118800E+02  0.7816164E-02  0.1184000E+00
        -11   -1    0    0    0    0  0.00000000000E+00  0.00000000000E+00  0.45593999997E+02  0.45594000000E+02  0.51100000000E-03 0. -1.
         11   -1    0    0    0    0 -0.00000000000E+00 -0.00000000000E+00 -0.45593999997E+02  0.45594000000E+02  0.51100000000E-03 0.  1.
         23    2    1    2    0    0  0.00000000000E+00  0.00000000000E+00  0.00000000000E+00  0.91188000000E+02  0.91188000000E+02 0.  0.
    9900012    2    3    3    0    0 -0.24296714055E+02 -0.17396312082E+02 -0.21513193927E+02  0.54367088810E+02  0.40000010560E+02 0.  0.
         12    1    3    3    0    0  0.24296714055E+02  0.17396312082E+02  0.21513193927E+02  0.36820911190E+02  0.00000000000E+00 0. -1.
         11    1    4    4    0    0 -0.38082783587E+01 -0.14848924199E+02 -0.66416372371E+01  0.16706432276E+02  0.51100000000E-03 0. -1.
        -11    1    4    4    0    0 -0.79705456235E+01 -0.12260652573E+02 -0.16122832454E+02  0.21766922742E+02  0.51100000000E-03 0.  1.
         12    1    4    4    0    0 -0.12517890073E+02  0.97132646902E+01  0.12512757638E+01  0.15893733792E+02  0.00000000000E+00 0. -1.
</event>
<event>
 8    1  0.2390921E-006  0.9118800E+02  0.7816164E-02  0.1184000E+00
        -11   -1    0    0    0    0  0.00000000000E+00  0.00000000000E+00  0.45593999997E+02  0.45594000000E+02  0.51100000000E-03 0.  1.
         11   -1    0    0    0    0 -0.00000000000E+00 -0.00000000000E+00 -0.45593999997E+02  0.45594000000E+02  0.51100000000E-03 0. -1.
         23    2    1    2    0    0 -0.35527136788E-14  0.35527136788E-14  0.88817841970E-15  0.91188000000E+02  0.91188000000E+02 0.  0.
    9900012    2    3    3    0    0 -0.28217937775E+02  0.22742853713E+02  0.65031606849E+01  0.54367075158E+02  0.39999979439E+02 0.  0.
         12    1    3    3    0    0  0.28217937775E+02 -0.22742853713E+02 -0.65031606849E+01  0.36820924842E+02  0.00000000000E+00 0. -1.
         11    1    4    4    0    0  0.43541440214E+01  0.78163909305E+01 -0.51094909803E+01  0.10303467168E+02  0.51100000000E-03 0. -1.
        -11    1    4    4    0    0 -0.33052042413E+02  0.12416923737E+02  0.34094410662E+01  0.35471704096E+02  0.51100000000E-03 0.  1.
        -12    1    4    4    0    0  0.47996061680E+00  0.25095390450E+01  0.82032105990E+01  0.85919038952E+01  0.00000000000E+00 0.  1.
</event>
<event>
 8    1  0.2390921E-006  0.9118800E+02  0.7816164E-02  0.1184000E+00
        -11   -1    0    0    0    0  0.00000000000E+00  0.00000000000E+00  0.45593999997E+02  0.45594000000E+02  0.51100000000E-03 0. -1.
         11   -1    0    0    0    0 -0.00000000000E+00 -0.00000000000E+00 -0.45593999997E+02  0.45594000000E+02  0.51100000000E-03 0.  1.
         23    2    1    2    0    0 -0.88817841970E-15  0.00000000000E+00  0.00000000000E+00  0.91188000000E+02  0.91188000000E+02 0.  0.
    9900012    2    3    3    0    0  0.48662833494E+01 -0.35017614224E+02 -0.10289138727E+02  0.54367076663E+02  0.39999982870E+02 0.  0.
         12    1    3    3    0    0 -0.48662833494E+01  0.35017614224E+02  0.10289138727E+02  0.36820923337E+02  0.00000000000E+00 0. -1.
         11    1    4    4    0    0 -0.18157595072E+01  0.64186572996E+01  0.36049566841E+00  0.66802770531E+01  0.51100000000E-03 0. -1.
        -11    1    4    4    0    0 -0.62905797640E+01 -0.99973827433E+01 -0.63367815927E+01  0.13404247711E+02  0.51100000000E-03 0.  1.
         12    1    4    4    0    0  0.12972622621E+02 -0.31438888781E+02 -0.43128528028E+01  0.34282551899E+02  0.00000000000E+00 0. -1.
</event>
<event>
 8    1  0.2390921E-006  0.9118800E+02  0.7816164E-02  0.1184000E+00
        -11   -1    0    0    0    0  0.00000000000E+00  0.00000000000E+00  0.45593999997E+02  0.45594000000E+02  0.51100000000E-03 0.  1.
         11   -1    0    0    0    0 -0.00000000000E+00 -0.00000000000E+00 -0.45593999997E+02  0.45594000000E+02  0.51100000000E-03 0. -1.
         23    2    1    2    0    0 -0.14210854715E-13 -0.88817841970E-15  0.00000000000E+00  0.91188000000E+02  0.91188000000E+02 0.  0.
    9900012    2    3    3    0    0 -0.35144388650E+02 -0.48290361264E+01  0.98656611089E+01  0.54367096798E+02  0.40000028771E+02 0.  0.
         12    1    3    3    0    0  0.35144388650E+02  0.48290361264E+01 -0.98656611089E+01  0.36820903202E+02  0.00000000000E+00 0. -1.
         11    1    4    4    0    0 -0.12422067832E+01  0.51990659288E+01  0.10664596439E+02  0.11929248999E+02  0.51100000000E-03 0. -1.
        -11    1    4    4    0    0  0.35110182901E+01 -0.21823428417E+01  0.64282289648E+00  0.41836695914E+01  0.51100000000E-03 0.  1.
         12    1    4    4    0    0 -0.37413200156E+02 -0.78457592135E+01 -0.14417582262E+01  0.38254178208E+02  0.00000000000E+00 0. -1.
</event>
<event>
 8    1  0.2390921E-006  0.9118800E+02  0.7816164E-02  0.1184000E+00
        -11   -1    0    0    0    0  0.00000000000E+00  0.00000000000E+00  0.45593999997E+02  0.45594000000E+02  0.51100000000E-03 0.  1.
         11   -1    0    0    0    0 -0.00000000000E+00 -0.00000000000E+00 -0.45593999997E+02  0.45594000000E+02  0.51100000000E-03 0. -1.
         23    2    1    2    0    0  0.00000000000E+00  0.00000000000E+00  0.17763568394E-14  0.91188000000E+02  0.91188000000E+02 0.  0.
    9900012    2    3    3    0    0  0.59547330215E+01  0.35431382615E+02 -0.80584199848E+01  0.54367084042E+02  0.39999999689E+02 0.  0.
        -12    1    3    3    0    0 -0.59547330215E+01 -0.35431382615E+02  0.80584199848E+01  0.36820915958E+02  0.00000000000E+00 0.  1.
         11    1    4    4    0    0  0.53124381508E+01  0.10020085606E+02 -0.39286879476E+01  0.12002445747E+02  0.51100000000E-03 0. -1.
        -11    1    4    4    0    0  0.48230382045E+01  0.31649742049E+02  0.28114885880E+01  0.32138331282E+02  0.51100000000E-03 0.  1.
        -12    1    4    4    0    0 -0.41807433337E+01 -0.62384450399E+01 -0.69412206253E+01  0.10226307012E+02  0.00000000000E+00 0.  1.
</event>
<event>
 8    1  0.2390921E-006  0.9118800E+02  0.7816164E-02  0.1184000E+00
        -11   -1    0    0    0    0  0.00000000000E+00  0.00000000000E+00  0.45593999997E+02  0.45594000000E+02  0.51100000000E-03 0. -1.
         11   -1    0    0    0    0 -0.00000000000E+00 -0.00000000000E+00 -0.45593999997E+02  0.45594000000E+02  0.51100000000E-03 0.  1.
         23    2    1    2    0    0  0.00000000000E+00 -0.10547118734E-14  0.22204460493E-15  0.91188000000E+02  0.91188000000E+02 0.  0.
    9900012    2    3    3    0    0  0.36782944865E+02 -0.12044278207E+00 -0.16674870336E+01  0.54367081321E+02  0.39999993487E+02 0.  0.
         12    1    3    3    0    0 -0.36782944865E+02  0.12044278207E+00  0.16674870336E+01  0.36820918679E+02  0.00000000000E+00 0. -1.
         11    1    4    4    0    0  0.33243191647E+00 -0.76156251608E+01 -0.35160109543E+01  0.83946763404E+01  0.51100000000E-03 0. -1.
        -11    1    4    4    0    0  0.20709914296E+02  0.65377418162E+01 -0.12150725133E+02  0.24885392095E+02  0.51100000000E-03 0.  1.
        -12    1    4    4    0    0  0.15740598652E+02  0.95744056250E+00  0.13999249054E+02  0.21087012885E+02  0.00000000000E+00 0.  1.
</event>
<event>
 8    1  0.2390921E-006  0.9118800E+02  0.7816164E-02  0.1184000E+00
        -11   -1    0    0    0    0  0.00000000000E+00  0.00000000000E+00  0.45593999997E+02  0.45594000000E+02  0.51100000000E-03 0.  1.
         11   -1    0    0    0    0 -0.00000000000E+00 -0.00000000000E+00 -0.45593999997E+02  0.45594000000E+02  0.51100000000E-03 0. -1.
         23    2    1    2    0    0  0.00000000000E+00  0.00000000000E+00 -0.35527136788E-14  0.91188000000E+02  0.91188000000E+02 0.  0.
    9900012    2    3    3    0    0  0.19084886646E+02  0.27159833019E+02 -0.15933971415E+02  0.54367070178E+02  0.39999968085E+02 0.  0.
        -12    1    3    3    0    0 -0.19084886646E+02 -0.27159833019E+02  0.15933971415E+02  0.36820929822E+02  0.00000000000E+00 0.  1.
         11    1    4    4    0    0  0.14188872547E+02  0.17517301684E+02 -0.23038590969E+02  0.32232850270E+02  0.51100000000E-03 0. -1.
        -11    1    4    4    0    0  0.10735253121E+02  0.94919091870E+01  0.21810591744E+01  0.14494792822E+02  0.51100000000E-03 0.  1.
        -12    1    4    4    0    0 -0.58392390214E+01  0.15062214726E+00  0.49235603799E+01  0.76394270855E+01  0.00000000000E+00 0.  1.
</event>
<event>
 8    1  0.2390921E-006  0.9118800E+02  0.7816164E-02  0.1184000E+00
        -11   -1    0    0    0    0  0.00000000000E+00  0.00000000000E+00  0.45593999997E+02  0.45594000000E+02  0.51100000000E-03 0.  1.
         11   -1    0    0    0    0 -0.00000000000E+00 -0.00000000000E+00 -0.45593999997E+02  0.45594000000E+02  0.51100000000E-03 0. -1.
         23    2    1    2    0    0 -0.35527136788E-14  0.35527136788E-14  0.00000000000E+00  0.91188000000E+02  0.91188000000E+02 0.  0.
    9900012    2    3    3    0    0 -0.26573955954E+02  0.21602849218E+02 -0.13524793525E+02  0.54367105534E+02  0.40000048686E+02 0.  0.
        -12    1    3    3    0    0  0.26573955954E+02 -0.21602849218E+02  0.13524793525E+02  0.36820894466E+02  0.00000000000E+00 0.  1.
         11    1    4    4    0    0 -0.66226097251E+01  0.18523189222E+02 -0.10806597067E+02  0.22444376555E+02  0.51100000000E-03 0.  1.
        -11    1    4    4    0    0 -0.22944700245E+02 -0.40099295492E+01 -0.51442491643E+01  0.23853764986E+02  0.51100000000E-03 0. -1.
         12    1    4    4    0    0  0.29933540157E+01  0.70895895450E+01  0.24260527058E+01  0.80689639924E+01  0.00000000000E+00 0. -1.
</event>
<event>
 8    1  0.2390921E-006  0.9118800E+02  0.7816164E-02  0.1184000E+00
        -11   -1    0    0    0    0  0.00000000000E+00  0.00000000000E+00  0.45593999997E+02  0.45594000000E+02  0.51100000000E-03 0. -1.
         11   -1    0    0    0    0 -0.00000000000E+00 -0.00000000000E+00 -0.45593999997E+02  0.45594000000E+02  0.51100000000E-03 0.  1.
         23    2    1    2    0    0  0.17763568394E-14 -0.35527136788E-14  0.00000000000E+00  0.91188000000E+02  0.91188000000E+02 0.  0.
    9900012    2    3    3    0    0 -0.69648262413E+01 -0.14049591139E+02  0.33314855127E+02  0.54367090345E+02  0.40000014059E+02 0.  0.
        -12    1    3    3    0    0  0.69648262413E+01  0.14049591139E+02 -0.33314855127E+02  0.36820909655E+02  0.00000000000E+00 0.  1.
         11    1    4    4    0    0  0.92848521791E+01 -0.16658834899E+02  0.30290425034E+02  0.35794344654E+02  0.51100000000E-03 0. -1.
        -11    1    4    4    0    0 -0.14154205578E+02  0.78605465898E+00 -0.37734607507E+00  0.14181036908E+02  0.51100000000E-03 0.  1.
         12    1    4    4    0    0 -0.20954728424E+01  0.18231891020E+01  0.34017761674E+01  0.43917087823E+01  0.00000000000E+00 0. -1.
</event>
<event>
 8    1  0.2390921E-006  0.9118800E+02  0.7816164E-02  0.1184000E+00
        -11   -1    0    0    0    0  0.00000000000E+00  0.00000000000E+00  0.45593999997E+02  0.45594000000E+02  0.51100000000E-03 0.  1.
         11   -1    0    0    0    0 -0.00000000000E+00 -0.00000000000E+00 -0.45593999997E+02  0.45594000000E+02  0.51100000000E-03 0. -1.
         23    2    1    2    0    0  0.00000000000E+00  0.00000000000E+00 -0.17763568394E-14  0.91188000000E+02  0.91188000000E+02 0.  0.
    9900012    2    3    3    0    0 -0.16836189610E+02  0.30043962711E+02 -0.13026508719E+02  0.54366988263E+02  0.39999781342E+02 0.  0.
        -12    1    3    3    0    0  0.16836189610E+02 -0.30043962711E+02  0.13026508719E+02  0.36821011737E+02  0.00000000000E+00 0.  1.
         11    1    4    4    0    0 -0.42948189623E+01 -0.43632782517E+01  0.37252389078E+01  0.71666639521E+01  0.51100000000E-03 0. -1.
        -11    1    4    4    0    0 -0.11888816687E+02  0.13277341520E+02  0.32286011422E+01  0.18112305918E+02  0.51100000000E-03 0.  1.
         12    1    4    4    0    0 -0.65255396066E+00  0.21129899442E+02 -0.19980348769E+02  0.29088018393E+02  0.00000000000E+00 0. -1.
</event>
<event>
 8    1  0.2390921E-006  0.9118800E+02  0.7816164E-02  0.1184000E+00
        -11   -1    0    0    0    0  0.00000000000E+00  0.00000000000E+00  0.45593999997E+02  0.45594000000E+02  0.51100000000E-03 0.  1.
         11   -1    0    0    0    0 -0.00000000000E+00 -0.00000000000E+00 -0.45593999997E+02  0.45594000000E+02  0.51100000000E-03 0. -1.
         23    2    1    2    0    0  0.35527136788E-14  0.22204460493E-15 -0.71054273576E-14  0.91188000000E+02  0.91188000000E+02 0.  0.
    9900012    2    3    3    0    0 -0.23744369649E+02 -0.23274487074E+00  0.28141240303E+02  0.54367100147E+02  0.40000036405E+02 0.  0.
         12    1    3    3    0    0  0.23744369649E+02  0.23274487074E+00 -0.28141240303E+02  0.36820899853E+02  0.00000000000E+00 0. -1.
         11    1    4    4    0    0 -0.55553917877E+01  0.49679223518E+01 -0.12383376772E+01  0.75548733194E+01  0.51100000000E-03 0. -1.
        -11    1    4    4    0    0 -0.86583315017E+01  0.38367887499E+00 -0.54735310489E+01  0.10250534439E+02  0.51100000000E-03 0.  1.
        -12    1    4    4    0    0 -0.95306463596E+01 -0.55843460976E+01  0.34853109029E+02  0.36561692389E+02  0.00000000000E+00 0.  1.
</event>
<event>
 8    1  0.2390921E-006  0.9118800E+02  0.7816164E-02  0.1184000E+00
        -11   -1    0    0    0    0  0.00000000000E+00  0.00000000000E+00  0.45593999997E+02  0.45594000000E+02  0.51100000000E-03 0. -1.
         11   -1    0    0    0    0 -0.00000000000E+00 -0.00000000000E+00 -0.45593999997E+02  0.45594000000E+02  0.51100000000E-03 0.  1.
         23    2    1    2    0    0  0.00000000000E+00  0.00000000000E+00  0.88817841970E-15  0.91188000000E+02  0.91188000000E+02 0.  0.
    9900012    2    3    3    0    0  0.21967864851E+02  0.28533257808E+02 -0.76841047394E+01  0.54367090820E+02  0.40000015141E+02 0.  0.
         12    1    3    3    0    0 -0.21967864851E+02 -0.28533257808E+02  0.76841047394E+01  0.36820909180E+02  0.00000000000E+00 0. -1.
         11    1    4    4    0    0  0.10714692699E+02  0.22295187164E+02 -0.18418908531E+02  0.30840496138E+02  0.51100000000E-03 0. -1.
        -11    1    4    4    0    0  0.39830330210E+01 -0.36400188176E+01 -0.20849918237E+01  0.57845898908E+01  0.51100000000E-03 0.  1.
         12    1    4    4    0    0  0.72701391305E+01  0.98780894616E+01  0.12819795615E+02  0.17742004791E+02  0.00000000000E+00 0. -1.
</event>
<event>
 8    1  0.2390921E-006  0.9118800E+02  0.7816164E-02  0.1184000E+00
        -11   -1    0    0    0    0  0.00000000000E+00  0.00000000000E+00  0.45593999997E+02  0.45594000000E+02  0.51100000000E-03 0. -1.
         11   -1    0    0    0    0 -0.00000000000E+00 -0.00000000000E+00 -0.45593999997E+02  0.45594000000E+02  0.51100000000E-03 0.  1.
         23    2    1    2    0    0 -0.88817841970E-15  0.00000000000E+00  0.13322676296E-14  0.91188000000E+02  0.91188000000E+02 0.  0.
    9900012    2    3    3    0    0 -0.64727162496E+01  0.36153930957E+02  0.26031406234E+01  0.54367093976E+02  0.40000022338E+02 0.  0.
         12    1    3    3    0    0  0.64727162496E+01 -0.36153930957E+02 -0.26031406234E+01  0.36820906024E+02  0.00000000000E+00 0. -1.
         11    1    4    4    0    0 -0.18421057436E+01  0.55393283099E+01  0.15253512142E+02  0.16332395557E+02  0.51100000000E-03 0. -1.
        -11    1    4    4    0    0 -0.52603965995E+01  0.26970328331E+01  0.23198591326E+01  0.63503940935E+01  0.51100000000E-03 0.  1.
        -12    1    4    4    0    0  0.62978609350E+00  0.27917569814E+02 -0.14970230651E+02  0.31684304326E+02  0.00000000000E+00 0.  1.
</event>
<event>
 8    1  0.2390921E-006  0.9118800E+02  0.7816164E-02  0.1184000E+00
        -11   -1    0    0    0    0  0.00000000000E+00  0.00000000000E+00  0.45593999997E+02  0.45594000000E+02  0.51100000000E-03 0. -1.
         11   -1    0    0    0    0 -0.00000000000E+00 -0.00000000000E+00 -0.45593999997E+02  0.45594000000E+02  0.51100000000E-03 0.  1.
         23    2    1    2    0    0  0.35527136788E-14  0.00000000000E+00  0.00000000000E+00  0.91188000000E+02  0.91188000000E+02 0.  0.
    9900012    2    3    3    0    0 -0.16693040161E+02 -0.22915223505E+02 -0.23495001406E+02  0.54367080007E+02  0.39999990492E+02 0.  0.
         12    1    3    3    0    0  0.16693040161E+02  0.22915223505E+02  0.23495001406E+02  0.36820919993E+02  0.00000000000E+00 0. -1.
         11    1    4    4    0    0 -0.87935698040E+01  0.14546280217E+01  0.37475276378E+01  0.96688559942E+01  0.51100000000E-03 0. -1.
        -11    1    4    4    0    0 -0.15744474409E+02 -0.21169901205E+02 -0.16913195161E+02  0.31338624128E+02  0.51100000000E-03 0.  1.
        -12    1    4    4    0    0  0.78450040512E+01 -0.31999503212E+01 -0.10329333882E+02  0.13359599884E+02  0.00000000000E+00 0.  1.
</event>
<event>
 8    1  0.2390921E-006  0.9118800E+02  0.7816164E-02  0.1184000E+00
        -11   -1    0    0    0    0  0.00000000000E+00  0.00000000000E+00  0.45593999997E+02  0.45594000000E+02  0.51100000000E-03 0.  1.
         11   -1    0    0    0    0 -0.00000000000E+00 -0.00000000000E+00 -0.45593999997E+02  0.45594000000E+02  0.51100000000E-03 0. -1.
         23    2    1    2    0    0  0.00000000000E+00  0.00000000000E+00  0.11102230246E-15  0.91188000000E+02  0.91188000000E+02 0.  0.
    9900012    2    3    3    0    0 -0.35768162311E+02 -0.87292097981E+01  0.46785756370E+00  0.54367089779E+02  0.40000012770E+02 0.  0.
         12    1    3    3    0    0  0.35768162311E+02  0.87292097981E+01 -0.46785756370E+00  0.36820910221E+02  0.00000000000E+00 0. -1.
         11    1    4    4    0    0 -0.18927881383E+02 -0.92117639257E+01  0.33948603136E+01  0.21322438066E+02  0.51100000000E-03 0. -1.
        -11    1    4    4    0    0  0.65036630799E+01 -0.45054750597E+01  0.29788438278E+01  0.84540197410E+01  0.51100000000E-03 0.  1.
        -12    1    4    4    0    0 -0.23343944007E+02  0.49880291873E+01 -0.59058465777E+01  0.24590631972E+02  0.00000000000E+00 0.  1.
</event>
<event>
 8    1  0.2390921E-006  0.9118800E+02  0.7816164E-02  0.1184000E+00
        -11   -1    0    0    0    0  0.00000000000E+00  0.00000000000E+00  0.45593999997E+02  0.45594000000E+02  0.51100000000E-03 0.  1.
         11   -1    0    0    0    0 -0.00000000000E+00 -0.00000000000E+00 -0.45593999997E+02  0.45594000000E+02  0.51100000000E-03 0. -1.
         23    2    1    2    0    0  0.00000000000E+00  0.35527136788E-14  0.00000000000E+00  0.91188000000E+02  0.91188000000E+02 0.  0.
    9900012    2    3    3    0    0 -0.15082573820E+02 -0.30807291609E+02 -0.13386788878E+02  0.54367090645E+02  0.40000014743E+02 0.  0.
        -12    1    3    3    0    0  0.15082573820E+02  0.30807291609E+02  0.13386788878E+02  0.36820909355E+02  0.00000000000E+00 0.  1.
         11    1    4    4    0    0 -0.81264850310E+01 -0.53468923887E+01 -0.23618358293E+01  0.10010358931E+02  0.51100000000E-03 0. -1.
        -11    1    4    4    0    0 -0.95255657918E+01 -0.33192451386E+02 -0.10886965333E+02  0.36207751202E+02  0.51100000000E-03 0.  1.
        -12    1    4    4    0    0  0.25694770032E+01  0.77320521665E+01 -0.13798771557E+00  0.81489805120E+01  0.00000000000E+00 0.  1.
</event>
<event>
 8    1  0.2390921E-006  0.9118800E+02  0.7816164E-02  0.1184000E+00
        -11   -1    0    0    0    0  0.00000000000E+00  0.00000000000E+00  0.45593999997E+02  0.45594000000E+02  0.51100000000E-03 0. -1.
         11   -1    0    0    0    0 -0.00000000000E+00 -0.00000000000E+00 -0.45593999997E+02  0.45594000000E+02  0.51100000000E-03 0.  1.
         23    2    1    2    0    0  0.88817841970E-15  0.00000000000E+00 -0.17763568394E-14  0.91188000000E+02  0.91188000000E+02 0.  0.
    9900012    2    3    3    0    0  0.69216362040E+01  0.34437238902E+02 -0.11043004015E+02  0.54367076484E+02  0.39999982460E+02 0.  0.
         12    1    3    3    0    0 -0.69216362040E+01 -0.34437238902E+02  0.11043004015E+02  0.36820923516E+02  0.00000000000E+00 0. -1.
         11    1    4    4    0    0 -0.10373150759E+01  0.13481941417E+02  0.10971735626E+02  0.17413148763E+02  0.51100000000E-03 0. -1.
        -11    1    4    4    0    0  0.90916176537E+01  0.12627367643E+02 -0.23729678726E+02  0.28376144521E+02  0.51100000000E-03 0.  1.
        -12    1    4    4    0    0 -0.11326663738E+01  0.83279298413E+01  0.17149390856E+01  0.85777831999E+01  0.00000000000E+00 0.  1.
</event>
<event>
 8    1  0.2390921E-006  0.9118800E+02  0.7816164E-02  0.1184000E+00
        -11   -1    0    0    0    0  0.00000000000E+00  0.00000000000E+00  0.45593999997E+02  0.45594000000E+02  0.51100000000E-03 0. -1.
         11   -1    0    0    0    0 -0.00000000000E+00 -0.00000000000E+00 -0.45593999997E+02  0.45594000000E+02  0.51100000000E-03 0.  1.
         23    2    1    2    0    0 -0.35527136788E-14  0.00000000000E+00  0.17763568394E-14  0.91188000000E+02  0.91188000000E+02 0.  0.
    9900012    2    3    3    0    0  0.26338309965E+02  0.23757228248E+02 -0.98823651346E+01  0.54367168851E+02  0.40000193028E+02 0.  0.
        -12    1    3    3    0    0 -0.26338309965E+02 -0.23757228248E+02  0.98823651346E+01  0.36820831149E+02  0.00000000000E+00 0.  1.
         11    1    4    4    0    0 -0.24929376584E+00  0.14078762048E+02  0.93499966110E+01  0.16902547887E+02  0.51100000000E-03 0. -1.
        -11    1    4    4    0    0  0.25692219904E+02  0.46425558396E+01 -0.19098378332E+02  0.32347975880E+02  0.51100000000E-03 0.  1.
        -12    1    4    4    0    0  0.89538382681E+00  0.50359103609E+01 -0.13398341353E+00  0.51166450840E+01  0.00000000000E+00 0.  1.
</event>
<event>
 8    1  0.2390921E-006  0.9118800E+02  0.7816164E-02  0.1184000E+00
        -11   -1    0    0    0    0  0.00000000000E+00  0.00000000000E+00  0.45593999997E+02  0.45594000000E+02  0.51100000000E-03 0.  1.
         11   -1    0    0    0    0 -0.00000000000E+00 -0.00000000000E+00 -0.45593999997E+02  0.45594000000E+02  0.51100000000E-03 0. -1.
         23    2    1    2    0    0 -0.35527136788E-14 -0.35527136788E-14  0.00000000000E+00  0.91188000000E+02  0.91188000000E+02 0.  0.
    9900012    2    3    3    0    0  0.25230140112E+02  0.26477849784E+02  0.42595835634E+01  0.54367074544E+02  0.39999978039E+02 0.  0.
         12    1    3    3    0    0 -0.25230140112E+02 -0.26477849784E+02 -0.42595835634E+01  0.36820925456E+02  0.00000000000E+00 0. -1.
         11    1    4    4    0    0 -0.25490281874E+01  0.22891617145E+01 -0.63982819798E+01  0.72578108690E+01  0.51100000000E-03 0. -1.
        -11    1    4    4    0    0  0.21887846266E+02  0.43626511540E+01 -0.27102200756E+01  0.22482344904E+02  0.51100000000E-03 0.  1.
        -12    1    4    4    0    0  0.58913220338E+01  0.19826036916E+02  0.13368085619E+02  0.24626918772E+02  0.00000000000E+00 0.  1.
</event>
<event>
 8    1  0.2390921E-006  0.9118800E+02  0.7816164E-02  0.1184000E+00
        -11   -1    0    0    0    0  0.00000000000E+00  0.00000000000E+00  0.45593999997E+02  0.45594000000E+02  0.51100000000E-03 0.  1.
         11   -1    0    0    0    0 -0.00000000000E+00 -0.00000000000E+00 -0.45593999997E+02  0.45594000000E+02  0.51100000000E-03 0. -1.
         23    2    1    2    0    0  0.35527136788E-14  0.00000000000E+00 -0.35527136788E-14  0.91188000000E+02  0.91188000000E+02 0.  0.
    9900012    2    3    3    0    0  0.29240687345E+02 -0.14579369630E+02 -0.16976566216E+02  0.54367087250E+02  0.40000007005E+02 0.  0.
        -12    1    3    3    0    0 -0.29240687345E+02  0.14579369630E+02  0.16976566216E+02  0.36820912750E+02  0.00000000000E+00 0.  1.
         11    1    4    4    0    0  0.17270769342E+02 -0.89548963615E+01 -0.16442857889E+02  0.25472283336E+02  0.51100000000E-03 0. -1.
        -11    1    4    4    0    0  0.13044022034E+02  0.75541305406E+01 -0.31923204854E+01  0.15407865180E+02  0.51100000000E-03 0.  1.
        -12    1    4    4    0    0 -0.10741040315E+01 -0.13178603809E+02  0.26586121588E+01  0.13486938735E+02  0.00000000000E+00 0.  1.
</event>
<event>
 8    1  0.2390921E-006  0.9118800E+02  0.7816164E-02  0.1184000E+00
        -11   -1    0    0    0    0  0.00000000000E+00  0.00000000000E+00  0.45593999997E+02  0.45594000000E+02  0.51100000000E-03 0.  1.
         11   -1    0    0    0    0 -0.00000000000E+00 -0.00000000000E+00 -0.45593999997E+02  0.45594000000E+02  0.51100000000E-03 0. -1.
         23    2    1    2    0    0 -0.35527136788E-14  0.35527136788E-14  0.00000000000E+00  0.91188000000E+02  0.91188000000E+02 0.  0.
    9900012    2    3    3    0    0  0.24577822719E+02 -0.24840964875E+02 -0.11603279270E+02  0.54367095675E+02  0.40000026209E+02 0.  0.
         12    1    3    3    0    0 -0.24577822719E+02  0.24840964875E+02  0.11603279270E+02  0.36820904325E+02  0.00000000000E+00 0. -1.
         11    1    4    4    0    0  0.80618126770E+01  0.52735466311E+01 -0.25524762417E+01  0.99658543505E+01  0.51100000000E-03 0. -1.
        -11    1    4    4    0    0  0.16548468319E+02 -0.87428996799E+01  0.42981022247E+01  0.19203223206E+02  0.51100000000E-03 0.  1.
        -12    1    4    4    0    0 -0.32458277388E-01 -0.21371611826E+02 -0.13348905253E+02  0.25198018118E+02  0.00000000000E+00 0.  1.
</event>
<event>
 8    1  0.2390921E-006  0.9118800E+02  0.7816164E-02  0.1184000E+00
        -11   -1    0    0    0    0  0.00000000000E+00  0.00000000000E+00  0.45593999997E+02  0.45594000000E+02  0.51100000000E-03 0. -1.
         11   -1    0    0    0    0 -0.00000000000E+00 -0.00000000000E+00 -0.45593999997E+02  0.45594000000E+02  0.51100000000E-03 0.  1.
         23    2    1    2    0    0  0.71054273576E-14 -0.17763568394E-14 -0.88817841970E-15  0.91188000000E+02  0.91188000000E+02 0.  0.
    9900012    2    3    3    0    0  0.35217131295E+02 -0.10228417538E+02 -0.33034667424E+01  0.54367085365E+02  0.40000002708E+02 0.  0.
        -12    1    3    3    0    0 -0.35217131295E+02  0.10228417538E+02  0.33034667424E+01  0.36820914635E+02  0.00000000000E+00 0.  1.
         11    1    4    4    0    0  0.80214524585E+01  0.75342808777E+01  0.44098476620E+01  0.11855625017E+02  0.51100000000E-03 0.  1.
        -11    1    4    4    0    0  0.14502516327E+02  0.47333078315E+01  0.90351333192E+00  0.15282130723E+02  0.51100000000E-03 0. -1.
        -12    1    4    4    0    0  0.12693162510E+02 -0.22496006247E+02 -0.86168277363E+01  0.27229329625E+02  0.00000000000E+00 0.  1.
</event>
<event>
 8    1  0.2390921E-006  0.9118800E+02  0.7816164E-02  0.1184000E+00
        -11   -1    0    0    0    0  0.00000000000E+00  0.00000000000E+00  0.45593999997E+02  0.45594000000E+02  0.51100000000E-03 0.  1.
         11   -1    0    0    0    0 -0.00000000000E+00 -0.00000000000E+00 -0.45593999997E+02  0.45594000000E+02  0.51100000000E-03 0. -1.
         23    2    1    2    0    0 -0.71054273576E-14 -0.17763568394E-14 -0.26645352591E-14  0.91188000000E+02  0.91188000000E+02 0.  0.
    9900012    2    3    3    0    0 -0.35817667411E+02 -0.58751905687E+01 -0.61930910318E+01  0.54367115444E+02  0.40000071277E+02 0.  0.
         12    1    3    3    0    0  0.35817667411E+02  0.58751905687E+01  0.61930910318E+01  0.36820884556E+02  0.00000000000E+00 0. -1.
         11    1    4    4    0    0 -0.80064034176E+01 -0.99755126958E+01 -0.14736936228E+02  0.19513857612E+02  0.51100000000E-03 0. -1.
        -11    1    4    4    0    0 -0.26726322759E+02  0.84740674889E+01  0.37724140388E+01  0.28290232519E+02  0.51100000000E-03 0.  1.
        -12    1    4    4    0    0 -0.10849412343E+01 -0.43737453617E+01  0.47714311577E+01  0.65630253133E+01  0.00000000000E+00 0.  1.
</event>
<event>
 8    1  0.2390921E-006  0.9118800E+02  0.7816164E-02  0.1184000E+00
        -11   -1    0    0    0    0  0.00000000000E+00  0.00000000000E+00  0.45593999997E+02  0.45594000000E+02  0.51100000000E-03 0.  1.
         11   -1    0    0    0    0 -0.00000000000E+00 -0.00000000000E+00 -0.45593999997E+02  0.45594000000E+02  0.51100000000E-03 0. -1.
         23    2    1    2    0    0  0.35527136788E-14  0.17763568394E-14  0.35527136788E-14  0.91188000000E+02  0.91188000000E+02 0.  0.
    9900012    2    3    3    0    0  0.29358700592E+02  0.48944478139E+01  0.21676743287E+02  0.54367216203E+02  0.40000300978E+02 0.  0.
         12    1    3    3    0    0 -0.29358700592E+02 -0.48944478139E+01 -0.21676743287E+02  0.36820783797E+02  0.00000000000E+00 0. -1.
         11    1    4    4    0    0  0.20406804337E+01  0.11734695877E+01 -0.58043244295E+00  0.24245225484E+01  0.51100000000E-03 0. -1.
        -11    1    4    4    0    0  0.19543758677E+02 -0.12896217500E+02  0.23980355121E+02  0.33516091076E+02  0.51100000000E-03 0.  1.
        -12    1    4    4    0    0  0.77742614815E+01  0.16617195726E+02 -0.17231793908E+01  0.18426602579E+02  0.00000000000E+00 0.  1.
</event>
<event>
 8    1  0.2390921E-006  0.9118800E+02  0.7816164E-02  0.1184000E+00
        -11   -1    0    0    0    0  0.00000000000E+00  0.00000000000E+00  0.45593999997E+02  0.45594000000E+02  0.51100000000E-03 0. -1.
         11   -1    0    0    0    0 -0.00000000000E+00 -0.00000000000E+00 -0.45593999997E+02  0.45594000000E+02  0.51100000000E-03 0.  1.
         23    2    1    2    0    0  0.00000000000E+00  0.00000000000E+00 -0.35527136788E-14  0.91188000000E+02  0.91188000000E+02 0.  0.
    9900012    2    3    3    0    0 -0.18673649602E+02 -0.11366769402E+02 -0.29628889617E+02  0.54367085616E+02  0.40000003280E+02 0.  0.
         12    1    3    3    0    0  0.18673649602E+02  0.11366769402E+02  0.29628889617E+02  0.36820914384E+02  0.00000000000E+00 0. -1.
         11    1    4    4    0    0 -0.50926575709E+01  0.92005496664E+01 -0.15703480283E+02  0.18899327198E+02  0.51100000000E-03 0. -1.
        -11    1    4    4    0    0  0.52490802270E+01 -0.60590306110E+01 -0.71707517476E+01  0.10755667160E+02  0.51100000000E-03 0.  1.
        -12    1    4    4    0    0 -0.18830072258E+02 -0.14508288457E+02 -0.67546575867E+01  0.24712091258E+02  0.00000000000E+00 0.  1.
</event>
<event>
 8    1  0.2390921E-006  0.9118800E+02  0.7816164E-02  0.1184000E+00
        -11   -1    0    0    0    0  0.00000000000E+00  0.00000000000E+00  0.45593999997E+02  0.45594000000E+02  0.51100000000E-03 0.  1.
         11   -1    0    0    0    0 -0.00000000000E+00 -0.00000000000E+00 -0.45593999997E+02  0.45594000000E+02  0.51100000000E-03 0. -1.
         23    2    1    2    0    0  0.00000000000E+00  0.00000000000E+00  0.00000000000E+00  0.91188000000E+02  0.91188000000E+02 0.  0.
    9900012    2    3    3    0    0 -0.12435845523E+02  0.20365757065E+02 -0.28042207712E+02  0.54367085725E+02  0.40000003528E+02 0.  0.
        -12    1    3    3    0    0  0.12435845523E+02 -0.20365757065E+02  0.28042207712E+02  0.36820914275E+02  0.00000000000E+00 0.  1.
         11    1    4    4    0    0 -0.13109734710E+01 -0.57621439955E+01  0.10734501221E+01  0.60061010891E+01  0.51100000000E-03 0. -1.
        -11    1    4    4    0    0 -0.53336625144E-01  0.96627949583E+01  0.34219432907E+01  0.10250958362E+02  0.51100000000E-03 0.  1.
         12    1    4    4    0    0 -0.11071535427E+02  0.16465106102E+02 -0.32537601124E+02  0.38110026274E+02  0.00000000000E+00 0. -1.
</event>
<event>
 8    1  0.2390921E-006  0.9118800E+02  0.7816164E-02  0.1184000E+00
        -11   -1    0    0    0    0  0.00000000000E+00  0.00000000000E+00  0.45593999997E+02  0.45594000000E+02  0.51100000000E-03 0.  1.
         11   -1    0    0    0    0 -0.00000000000E+00 -0.00000000000E+00 -0.45593999997E+02  0.45594000000E+02  0.51100000000E-03 0. -1.
         23    2    1    2    0    0  0.35527136788E-14  0.00000000000E+00 -0.26645352591E-14  0.91188000000E+02  0.91188000000E+02 0.  0.
    9900012    2    3    3    0    0  0.16357718227E+02 -0.32654408578E+02  0.46791446917E+01  0.54367085560E+02  0.40000003151E+02 0.  0.
         12    1    3    3    0    0 -0.16357718227E+02  0.32654408578E+02 -0.46791446917E+01  0.36820914440E+02  0.00000000000E+00 0. -1.
         11    1    4    4    0    0 -0.25803491431E+01 -0.28598263360E+01 -0.45448709612E+01  0.59575717106E+01  0.51100000000E-03 0. -1.
        -11    1    4    4    0    0  0.16014716845E+02 -0.24000080405E+02 -0.80515816406E+01  0.29955015978E+02  0.51100000000E-03 0.  1.
        -12    1    4    4    0    0  0.29233505250E+01 -0.57945018368E+01  0.17275597294E+02  0.18454497871E+02  0.00000000000E+00 0.  1.
</event>
<event>
 8    1  0.2390921E-006  0.9118800E+02  0.7816164E-02  0.1184000E+00
        -11   -1    0    0    0    0  0.00000000000E+00  0.00000000000E+00  0.45593999997E+02  0.45594000000E+02  0.51100000000E-03 0.  1.
         11   -1    0    0    0    0 -0.00000000000E+00 -0.00000000000E+00 -0.45593999997E+02  0.45594000000E+02  0.51100000000E-03 0. -1.
         23    2    1    2    0    0  0.44408920985E-15  0.35527136788E-14 -0.35527136788E-14  0.91188000000E+02  0.91188000000E+02 0.  0.
    9900012    2    3    3    0    0  0.27188218379E+01  0.23132573109E+02  0.28517882935E+02  0.54367114922E+02  0.40000070087E+02 0.  0.
         12    1    3    3    0    0 -0.27188218379E+01 -0.23132573109E+02 -0.28517882935E+02  0.36820885078E+02  0.00000000000E+00 0. -1.
         11    1    4    4    0    0  0.82611083785E+01  0.87545448799E+01  0.31783067350E+02  0.33986046227E+02  0.51100000000E-03 0.  1.
        -11    1    4    4    0    0  0.16343828083E+01  0.12595351366E+02 -0.25233959717E+01  0.12949193438E+02  0.51100000000E-03 0. -1.
        -12    1    4    4    0    0 -0.71766693490E+01  0.17826768628E+01 -0.74178844298E+00  0.74318752570E+01  0.00000000000E+00 0.  1.
</event>
<event>
 8    1  0.2390921E-006  0.9118800E+02  0.7816164E-02  0.1184000E+00
        -11   -1    0    0    0    0  0.00000000000E+00  0.00000000000E+00  0.45593999997E+02  0.45594000000E+02  0.51100000000E-03 0. -1.
         11   -1    0    0    0    0 -0.00000000000E+00 -0.00000000000E+00 -0.45593999997E+02  0.45594000000E+02  0.51100000000E-03 0.  1.
         23    2    1    2    0    0  0.00000000000E+00  0.00000000000E+00  0.35527136788E-14  0.91188000000E+02  0.91188000000E+02 0.  0.
    9900012    2    3    3    0    0  0.26411539859E+02 -0.15797506101E+02 -0.20215072915E+02  0.54367084616E+02  0.40000001000E+02 0.  0.
         12    1    3    3    0    0 -0.26411539859E+02  0.15797506101E+02  0.20215072915E+02  0.36820915384E+02  0.00000000000E+00 0. -1.
         11    1    4    4    0    0  0.10330794104E+02 -0.48592146302E+01  0.55026273443E+01  0.12673443952E+02  0.51100000000E-03 0. -1.
        -11    1    4    4    0    0  0.38710945657E+01  0.87963463972E+01 -0.76144551894E+01  0.12261362533E+02  0.51100000000E-03 0.  1.
         12    1    4    4    0    0  0.12209651189E+02 -0.19734637868E+02 -0.18103245070E+02  0.29432278131E+02  0.00000000000E+00 0. -1.
</event>
<event>
 8    1  0.2390921E-006  0.9118800E+02  0.7816164E-02  0.1184000E+00
        -11   -1    0    0    0    0  0.00000000000E+00  0.00000000000E+00  0.45593999997E+02  0.45594000000E+02  0.51100000000E-03 0. -1.
         11   -1    0    0    0    0 -0.00000000000E+00 -0.00000000000E+00 -0.45593999997E+02  0.45594000000E+02  0.51100000000E-03 0.  1.
         23    2    1    2    0    0  0.17763568394E-14  0.00000000000E+00  0.71054273576E-14  0.91188000000E+02  0.91188000000E+02 0.  0.
    9900012    2    3    3    0    0  0.10427132924E+02  0.10293243463E+02  0.33780210401E+02  0.54367101359E+02  0.40000039167E+02 0.  0.
        -12    1    3    3    0    0 -0.10427132924E+02 -0.10293243463E+02 -0.33780210401E+02  0.36820898641E+02  0.00000000000E+00 0.  1.
         11    1    4    4    0    0  0.15811043127E+02 -0.61550184688E+01  0.22087117765E+02  0.27851644629E+02  0.51100000000E-03 0. -1.
        -11    1    4    4    0    0  0.86465759714E+00  0.98937568642E+01  0.14005274847E+02  0.17169210274E+02  0.51100000000E-03 0.  1.
        -12    1    4    4    0    0 -0.62485677995E+01  0.65545050672E+01 -0.23121822109E+01  0.93462464550E+01  0.00000000000E+00 0.  1.
</event>
<event>
 8    1  0.2390921E-006  0.9118800E+02  0.7816164E-02  0.1184000E+00
        -11   -1    0    0    0    0  0.00000000000E+00  0.00000000000E+00  0.45593999997E+02  0.45594000000E+02  0.51100000000E-03 0. -1.
         11   -1    0    0    0    0 -0.00000000000E+00 -0.00000000000E+00 -0.45593999997E+02  0.45594000000E+02  0.51100000000E-03 0.  1.
         23    2    1    2    0    0 -0.13322676296E-14  0.00000000000E+00  0.00000000000E+00  0.91188000000E+02  0.91188000000E+02 0.  0.
    9900012    2    3    3    0    0 -0.36133722207E+01  0.34790957138E+02  0.11502638669E+02  0.54367111177E+02  0.40000061550E+02 0.  0.
        -12    1    3    3    0    0  0.36133722207E+01 -0.34790957138E+02 -0.11502638669E+02  0.36820888823E+02  0.00000000000E+00 0.  1.
         11    1    4    4    0    0 -0.60555515053E+01 -0.55197637413E+01  0.29941053448E+01  0.87236553617E+01  0.51100000000E-03 0. -1.
        -11    1    4    4    0    0 -0.54540791470E+01  0.21938617226E+02  0.11599871024E+02  0.25408795980E+02  0.51100000000E-03 0.  1.
        -12    1    4    4    0    0  0.78962584317E+01  0.18372103653E+02 -0.30913377001E+01  0.20234659835E+02  0.00000000000E+00 0.  1.
</event>
<event>
 8    1  0.2390921E-006  0.9118800E+02  0.7816164E-02  0.1184000E+00
        -11   -1    0    0    0    0  0.00000000000E+00  0.00000000000E+00  0.45593999997E+02  0.45594000000E+02  0.51100000000E-03 0.  1.
         11   -1    0    0    0    0 -0.00000000000E+00 -0.00000000000E+00 -0.45593999997E+02  0.45594000000E+02  0.51100000000E-03 0. -1.
         23    2    1    2    0    0  0.00000000000E+00 -0.88817841970E-15  0.71054273576E-14  0.91188000000E+02  0.91188000000E+02 0.  0.
    9900012    2    3    3    0    0  0.40594263724E+01 -0.37305156414E+01 -0.36405849440E+02  0.54367060809E+02  0.39999946727E+02 0.  0.
        -12    1    3    3    0    0 -0.40594263724E+01  0.37305156414E+01  0.36405849440E+02  0.36820939191E+02  0.00000000000E+00 0.  1.
         11    1    4    4    0    0 -0.22899269600E+01  0.10556783713E+01 -0.84065352562E+01  0.87765629708E+01  0.51100000000E-03 0. -1.
        -11    1    4    4    0    0  0.57250348614E+01  0.47813974187E+01  0.64319163834E+01  0.98492301255E+01  0.51100000000E-03 0.  1.
        -12    1    4    4    0    0  0.62431847096E+00 -0.95675914314E+01 -0.34431230567E+02  0.35741267713E+02  0.00000000000E+00 0.  1.
</event>
<event>
 8    1  0.2390921E-006  0.9118800E+02  0.7816164E-02  0.1184000E+00
        -11   -1    0    0    0    0  0.00000000000E+00  0.00000000000E+00  0.45593999997E+02  0.45594000000E+02  0.51100000000E-03 0.  1.
         11   -1    0    0    0    0 -0.00000000000E+00 -0.00000000000E+00 -0.45593999997E+02  0.45594000000E+02  0.51100000000E-03 0. -1.
         23    2    1    2    0    0 -0.17763568394E-14  0.00000000000E+00 -0.35527136788E-14  0.91188000000E+02  0.91188000000E+02 0.  0.
    9900012    2    3    3    0    0  0.15479682793E+02  0.25944177104E+02 -0.21048949545E+02  0.54367093141E+02  0.40000020434E+02 0.  0.
        -12    1    3    3    0    0 -0.15479682793E+02 -0.25944177104E+02  0.21048949545E+02  0.36820906859E+02  0.00000000000E+00 0.  1.
         11    1    4    4    0    0  0.18548312061E+02  0.13879609537E+02 -0.81594681958E+01  0.24561359138E+02  0.51100000000E-03 0. -1.
        -11    1    4    4    0    0  0.94999109266E+01  0.68068106013E+01 -0.11003733896E+02  0.16051888926E+02  0.51100000000E-03 0.  1.
        -12    1    4    4    0    0 -0.12568540195E+02  0.52577569658E+01 -0.18857474530E+01  0.13753845077E+02  0.00000000000E+00 0.  1.
</event>
<event>
 8    1  0.2390921E-006  0.9118800E+02  0.7816164E-02  0.1184000E+00
        -11   -1    0    0    0    0  0.00000000000E+00  0.00000000000E+00  0.45593999997E+02  0.45594000000E+02  0.51100000000E-03 0.  1.
         11   -1    0    0    0    0 -0.00000000000E+00 -0.00000000000E+00 -0.45593999997E+02  0.45594000000E+02  0.51100000000E-03 0. -1.
         23    2    1    2    0    0  0.00000000000E+00  0.35527136788E-14 -0.88817841970E-15  0.91188000000E+02  0.91188000000E+02 0.  0.
    9900012    2    3    3    0    0  0.23019879924E+02 -0.27813782523E+02 -0.72288612834E+01  0.54367111833E+02  0.40000063046E+02 0.  0.
        -12    1    3    3    0    0 -0.23019879924E+02  0.27813782523E+02  0.72288612834E+01  0.36820888167E+02  0.00000000000E+00 0.  1.
         11    1    4    4    0    0  0.14087217189E+02 -0.34547090830E+01 -0.58925521777E+01  0.15655889448E+02  0.51100000000E-03 0. -1.
        -11    1    4    4    0    0 -0.34894903072E+01  0.43902580469E+01  0.40705330716E+01  0.69296571395E+01  0.51100000000E-03 0.  1.
         12    1    4    4    0    0  0.12422153042E+02 -0.28749331487E+02 -0.54068421773E+01  0.31781565246E+02  0.00000000000E+00 0. -1.
</event>
<event>
 8    1  0.2390921E-006  0.9118800E+02  0.7816164E-02  0.1184000E+00
        -11   -1    0    0    0    0  0.00000000000E+00  0.00000000000E+00  0.45593999997E+02  0.45594000000E+02  0.51100000000E-03 0.  1.
         11   -1    0    0    0    0 -0.00000000000E+00 -0.00000000000E+00 -0.45593999997E+02  0.45594000000E+02  0.51100000000E-03 0. -1.
         23    2    1    2    0    0  0.53290705182E-14 -0.17763568394E-14  0.00000000000E+00  0.91188000000E+02  0.91188000000E+02 0.  0.
    9900012    2    3    3    0    0  0.14291402796E+02 -0.10605038900E+02  0.32234545248E+02  0.54367123431E+02  0.40000089486E+02 0.  0.
         12    1    3    3    0    0 -0.14291402796E+02  0.10605038900E+02 -0.32234545248E+02  0.36820876569E+02  0.00000000000E+00 0. -1.
         11    1    4    4    0    0  0.19084727749E+01 -0.39357452996E+01 -0.41577296973E+01  0.60348219438E+01  0.51100000000E-03 0. -1.
        -11    1    4    4    0    0 -0.89116740425E+01  0.13902062185E+01  0.96081774258E+01  0.13178303429E+02  0.51100000000E-03 0.  1.
        -12    1    4    4    0    0  0.21294604063E+02 -0.80594998186E+01  0.26784097520E+02  0.35153998058E+02  0.00000000000E+00 0.  1.
</event>
<event>
 8    1  0.2390921E-006  0.9118800E+02  0.7816164E-02  0.1184000E+00
        -11   -1    0    0    0    0  0.00000000000E+00  0.00000000000E+00  0.45593999997E+02  0.45594000000E+02  0.51100000000E-03 0. -1.
         11   -1    0    0    0    0 -0.00000000000E+00 -0.00000000000E+00 -0.45593999997E+02  0.45594000000E+02  0.51100000000E-03 0.  1.
         23    2    1    2    0    0  0.17763568394E-14  0.00000000000E+00  0.00000000000E+00  0.91188000000E+02  0.91188000000E+02 0.  0.
    9900012    2    3    3    0    0  0.14484742617E+02  0.33017840220E+02  0.74687515565E+01  0.54367247817E+02  0.40000373047E+02 0.  0.
        -12    1    3    3    0    0 -0.14484742617E+02 -0.33017840220E+02 -0.74687515565E+01  0.36820752183E+02  0.00000000000E+00 0.  1.
         11    1    4    4    0    0  0.46422327671E+00  0.18967916147E+02  0.82387049622E+01  0.20685105896E+02  0.51100000000E-03 0. -1.
        -11    1    4    4    0    0  0.16380366231E+02  0.18392064401E+02 -0.71183059872E+01  0.25636979370E+02  0.51100000000E-03 0.  1.
         12    1    4    4    0    0 -0.23598468908E+01 -0.43421403285E+01  0.63483525816E+01  0.80451625515E+01  0.00000000000E+00 0. -1.
</event>
<event>
 8    1  0.2390921E-006  0.9118800E+02  0.7816164E-02  0.1184000E+00
        -11   -1    0    0    0    0  0.00000000000E+00  0.00000000000E+00  0.45593999997E+02  0.45594000000E+02  0.51100000000E-03 0. -1.
         11   -1    0    0    0    0 -0.00000000000E+00 -0.00000000000E+00 -0.45593999997E+02  0.45594000000E+02  0.51100000000E-03 0.  1.
         23    2    1    2    0    0  0.00000000000E+00 -0.17763568394E-14  0.00000000000E+00  0.91188000000E+02  0.91188000000E+02 0.  0.
    9900012    2    3    3    0    0  0.33124273226E+02 -0.11580305874E+02  0.11156126142E+02  0.54367080520E+02  0.39999991660E+02 0.  0.
        -12    1    3    3    0    0 -0.33124273226E+02  0.11580305874E+02 -0.11156126142E+02  0.36820919480E+02  0.00000000000E+00 0.  1.
         11    1    4    4    0    0  0.69448668867E+01 -0.10522244832E+02  0.97443353262E+00  0.12645091274E+02  0.51100000000E-03 0. -1.
        -11    1    4    4    0    0  0.30992383376E+02  0.14191058098E-01  0.15344293810E+02  0.34582876998E+02  0.51100000000E-03 0.  1.
        -12    1    4    4    0    0 -0.48129770365E+01 -0.10722521007E+01 -0.51626012003E+01  0.71391122469E+01  0.00000000000E+00 0.  1.
</event>
<event>
 8    1  0.2390921E-006  0.9118800E+02  0.7816164E-02  0.1184000E+00
        -11   -1    0    0    0    0  0.00000000000E+00  0.00000000000E+00  0.45593999997E+02  0.45594000000E+02  0.51100000000E-03 0.  1.
         11   -1    0    0    0    0 -0.00000000000E+00 -0.00000000000E+00 -0.45593999997E+02  0.45594000000E+02  0.51100000000E-03 0. -1.
         23    2    1    2    0    0 -0.71054273576E-14  0.44408920985E-15  0.00000000000E+00  0.91188000000E+02  0.91188000000E+02 0.  0.
    9900012    2    3    3    0    0 -0.25508388624E+02  0.34878196577E+01  0.26323715286E+02  0.54367071677E+02  0.39999971502E+02 0.  0.
         12    1    3    3    0    0  0.25508388624E+02 -0.34878196577E+01 -0.26323715286E+02  0.36820928323E+02  0.00000000000E+00 0. -1.
         11    1    4    4    0    0  0.10189376411E+02 -0.23259720503E+01  0.67881625252E+01  0.12462451138E+02  0.51100000000E-03 0. -1.
        -11    1    4    4    0    0 -0.12023341150E+02  0.52791842850E+01  0.93853313804E+01  0.16140475969E+02  0.51100000000E-03 0.  1.
         12    1    4    4    0    0 -0.23674423885E+02  0.53460742302E+00  0.10150221380E+02  0.25764144571E+02  0.00000000000E+00 0. -1.
</event>
<event>
 8    1  0.2390921E-006  0.9118800E+02  0.7816164E-02  0.1184000E+00
        -11   -1    0    0    0    0  0.00000000000E+00  0.00000000000E+00  0.45593999997E+02  0.45594000000E+02  0.51100000000E-03 0.  1.
         11   -1    0    0    0    0 -0.00000000000E+00 -0.00000000000E+00 -0.45593999997E+02  0.45594000000E+02  0.51100000000E-03 0. -1.
         23    2    1    2    0    0  0.00000000000E+00 -0.44408920985E-15  0.00000000000E+00  0.91188000000E+02  0.91188000000E+02 0.  0.
    9900012    2    3    3    0    0 -0.25502800323E+02 -0.29953724669E+01  0.26389679955E+02  0.54367078112E+02  0.39999986173E+02 0.  0.
         12    1    3    3    0    0  0.25502800323E+02  0.29953724669E+01 -0.26389679955E+02  0.36820921888E+02  0.00000000000E+00 0. -1.
         11    1    4    4    0    0 -0.78865309407E+00  0.39633503225E+01 -0.73728448821E+01  0.84076727695E+01  0.51100000000E-03 0. -1.
        -11    1    4    4    0    0 -0.13667879742E+02 -0.41521656107E+01  0.31146271365E+02  0.34265750191E+02  0.51100000000E-03 0.  1.
        -12    1    4    4    0    0 -0.11046267487E+02 -0.28065571786E+01  0.26162534716E+01  0.11693655152E+02  0.00000000000E+00 0.  1.
</event>
<event>
 8    1  0.2390921E-006  0.9118800E+02  0.7816164E-02  0.1184000E+00
        -11   -1    0    0    0    0  0.00000000000E+00  0.00000000000E+00  0.45593999997E+02  0.45594000000E+02  0.51100000000E-03 0. -1.
         11   -1    0    0    0    0 -0.00000000000E+00 -0.00000000000E+00 -0.45593999997E+02  0.45594000000E+02  0.51100000000E-03 0.  1.
         23    2    1    2    0    0  0.35527136788E-14  0.35527136788E-14  0.00000000000E+00  0.91188000000E+02  0.91188000000E+02 0.  0.
    9900012    2    3    3    0    0  0.21227501900E+02  0.19881977878E+02  0.22580511664E+02  0.54367090339E+02  0.40000014045E+02 0.  0.
        -12    1    3    3    0    0 -0.21227501900E+02 -0.19881977878E+02 -0.22580511664E+02  0.36820909661E+02  0.00000000000E+00 0.  1.
         11    1    4    4    0    0 -0.61232275747E+01  0.12124809839E+02 -0.18830317153E+01  0.13713159310E+02  0.51100000000E-03 0. -1.
        -11    1    4    4    0    0 -0.18724182520E+00  0.44822261772E+01  0.17796753576E+01  0.48262465379E+01  0.51100000000E-03 0.  1.
         12    1    4    4    0    0  0.27537971300E+02  0.32749418619E+01  0.22683868022E+02  0.35827684491E+02  0.00000000000E+00 0. -1.
</event>
<event>
 8    1  0.2390921E-006  0.9118800E+02  0.7816164E-02  0.1184000E+00
        -11   -1    0    0    0    0  0.00000000000E+00  0.00000000000E+00  0.45593999997E+02  0.45594000000E+02  0.51100000000E-03 0. -1.
         11   -1    0    0    0    0 -0.00000000000E+00 -0.00000000000E+00 -0.45593999997E+02  0.45594000000E+02  0.51100000000E-03 0.  1.
         23    2    1    2    0    0  0.17763568394E-14  0.00000000000E+00  0.00000000000E+00  0.91188000000E+02  0.91188000000E+02 0.  0.
    9900012    2    3    3    0    0  0.13422888602E+02 -0.31246015438E+02  0.14116710347E+02  0.54367232352E+02  0.40000337792E+02 0.  0.
        -12    1    3    3    0    0 -0.13422888602E+02  0.31246015438E+02 -0.14116710347E+02  0.36820767648E+02  0.00000000000E+00 0.  1.
         11    1    4    4    0    0  0.22897967214E+01 -0.42267575085E+01  0.90386195272E+01  0.10237445545E+02  0.51100000000E-03 0. -1.
        -11    1    4    4    0    0  0.90025081161E+01 -0.94243996037E+01  0.17980600382E+02  0.22207351275E+02  0.51100000000E-03 0.  1.
        -12    1    4    4    0    0  0.21305837647E+01 -0.17594858326E+02 -0.12902509563E+02  0.21922435533E+02  0.00000000000E+00 0.  1.
</event>
<event>
 8    1  0.2390921E-006  0.9118800E+02  0.7816164E-02  0.1184000E+00
        -11   -1    0    0    0    0  0.00000000000E+00  0.00000000000E+00  0.45593999997E+02  0.45594000000E+02  0.51100000000E-03 0.  1.
         11   -1    0    0    0    0 -0.00000000000E+00 -0.00000000000E+00 -0.45593999997E+02  0.45594000000E+02  0.51100000000E-03 0. -1.
         23    2    1    2    0    0  0.00000000000E+00  0.35527136788E-14  0.00000000000E+00  0.91188000000E+02  0.91188000000E+02 0.  0.
    9900012    2    3    3    0    0 -0.24457492441E+02  0.20492881179E+02  0.18375312987E+02  0.54367092313E+02  0.40000018547E+02 0.  0.
         12    1    3    3    0    0  0.24457492441E+02 -0.20492881179E+02 -0.18375312987E+02  0.36820907687E+02  0.00000000000E+00 0. -1.
         11    1    4    4    0    0 -0.70497821470E+01  0.24540428892E+02 -0.38763878181E+01  0.25825538935E+02  0.51100000000E-03 0. -1.
        -11    1    4    4    0    0 -0.14045860318E+02 -0.32500924442E+01  0.18114700746E+02  0.23151494041E+02  0.51100000000E-03 0.  1.
         12    1    4    4    0    0 -0.33618499753E+01 -0.79745526900E+00  0.41370000598E+01  0.53900593371E+01  0.00000000000E+00 0. -1.
</event>
<event>
 8    1  0.2390921E-006  0.9118800E+02  0.7816164E-02  0.1184000E+00
        -11   -1    0    0    0    0  0.00000000000E+00  0.00000000000E+00  0.45593999997E+02  0.45594000000E+02  0.51100000000E-03 0. -1.
         11   -1    0    0    0    0 -0.00000000000E+00 -0.00000000000E+00 -0.45593999997E+02  0.45594000000E+02  0.51100000000E-03 0.  1.
         23    2    1    2    0    0 -0.44408920985E-15  0.00000000000E+00 -0.35527136788E-14  0.91188000000E+02  0.91188000000E+02 0.  0.
    9900012    2    3    3    0    0 -0.34758359760E+01 -0.25923220796E+02  0.25916871613E+02  0.54367094982E+02  0.40000024630E+02 0.  0.
        -12    1    3    3    0    0  0.34758359760E+01  0.25923220796E+02 -0.25916871613E+02  0.36820905018E+02  0.00000000000E+00 0.  1.
         11    1    4    4    0    0  0.77505261784E+01 -0.16949153635E+02  0.72973116862E+01  0.20014875045E+02  0.51100000000E-03 0. -1.
        -11    1    4    4    0    0 -0.28904042362E+01 -0.16574158730E+02  0.14901748137E+02  0.22474858665E+02  0.51100000000E-03 0.  1.
        -12    1    4    4    0    0 -0.83359579182E+01  0.76000915679E+01  0.37178117898E+01  0.11877361271E+02  0.00000000000E+00 0.  1.
</event>
<event>
 8    1  0.2390921E-006  0.9118800E+02  0.7816164E-02  0.1184000E+00
        -11   -1    0    0    0    0  0.00000000000E+00  0.00000000000E+00  0.45593999997E+02  0.45594000000E+02  0.51100000000E-03 0.  1.
         11   -1    0    0    0    0 -0.00000000000E+00 -0.00000000000E+00 -0.45593999997E+02  0.45594000000E+02  0.51100000000E-03 0. -1.
         23    2    1    2    0    0 -0.35527136788E-14 -0.22204460493E-15  0.00000000000E+00  0.91188000000E+02  0.91188000000E+02 0.  0.
    9900012    2    3    3    0    0  0.28001113058E+02  0.13509989579E+01 -0.23872402661E+02  0.54367093717E+02  0.40000021746E+02 0.  0.
        -12    1    3    3    0    0 -0.28001113058E+02 -0.13509989579E+01  0.23872402661E+02  0.36820906283E+02  0.00000000000E+00 0.  1.
         11    1    4    4    0    0  0.20742922983E+02 -0.11599625430E+02 -0.15514932458E+02  0.28381918424E+02  0.51100000000E-03 0. -1.
        -11    1    4    4    0    0  0.13611177859E+02  0.52339866068E+01 -0.55475207941E+01  0.15602364107E+02  0.51100000000E-03 0.  1.
        -12    1    4    4    0    0 -0.63529877838E+01  0.77166377811E+01 -0.28099494095E+01  0.10382811185E+02  0.00000000000E+00 0.  1.
</event>
<event>
 8    1  0.2390921E-006  0.9118800E+02  0.7816164E-02  0.1184000E+00
        -11   -1    0    0    0    0  0.00000000000E+00  0.00000000000E+00  0.45593999997E+02  0.45594000000E+02  0.51100000000E-03 0. -1.
         11   -1    0    0    0    0 -0.00000000000E+00 -0.00000000000E+00 -0.45593999997E+02  0.45594000000E+02  0.51100000000E-03 0.  1.
         23    2    1    2    0    0 -0.44408920985E-15  0.00000000000E+00  0.35527136788E-14  0.91188000000E+02  0.91188000000E+02 0.  0.
    9900012    2    3    3    0    0 -0.33532555369E+01 -0.33350403888E+02  0.15240883902E+02  0.54367105059E+02  0.40000047602E+02 0.  0.
        -12    1    3    3    0    0  0.33532555369E+01  0.33350403888E+02 -0.15240883902E+02  0.36820894941E+02  0.00000000000E+00 0.  1.
         11    1    4    4    0    0 -0.66523322324E+01  0.26142504154E+01 -0.24160237229E+01  0.75448658209E+01  0.51100000000E-03 0. -1.
        -11    1    4    4    0    0 -0.43079180919E+01 -0.23335544075E+02 -0.11623233512E+00  0.23730134551E+02  0.51100000000E-03 0.  1.
         12    1    4    4    0    0  0.76069947874E+01 -0.12629110228E+02  0.17773139960E+02  0.23092104687E+02  0.00000000000E+00 0. -1.
</event>
<event>
 8    1  0.2390921E-006  0.9118800E+02  0.7816164E-02  0.1184000E+00
        -11   -1    0    0    0    0  0.00000000000E+00  0.00000000000E+00  0.45593999997E+02  0.45594000000E+02  0.51100000000E-03 0.  1.
         11   -1    0    0    0    0 -0.00000000000E+00 -0.00000000000E+00 -0.45593999997E+02  0.45594000000E+02  0.51100000000E-03 0. -1.
         23    2    1    2    0    0  0.00000000000E+00  0.00000000000E+00  0.00000000000E+00  0.91188000000E+02  0.91188000000E+02 0.  0.
    9900012    2    3    3    0    0  0.26423516842E+02  0.12133780558E+02 -0.22590998449E+02  0.54367026577E+02  0.39999868687E+02 0.  0.
        -12    1    3    3    0    0 -0.26423516842E+02 -0.12133780558E+02  0.22590998449E+02  0.36820973423E+02  0.00000000000E+00 0.  1.
         11    1    4    4    0    0  0.17561326310E+02  0.88166730227E+01 -0.70900030351E+01  0.20890238109E+02  0.51100000000E-03 0. -1.
        -11    1    4    4    0    0  0.10058737877E+00 -0.46193059917E+00  0.80512287915E+01  0.80650965905E+01  0.51100000000E-03 0.  1.
        -12    1    4    4    0    0  0.87616031530E+01  0.37790381345E+01 -0.23552224205E+02  0.25411691877E+02  0.00000000000E+00 0.  1.
</event>
<event>
 8    1  0.2390921E-006  0.9118800E+02  0.7816164E-02  0.1184000E+00
        -11   -1    0    0    0    0  0.00000000000E+00  0.00000000000E+00  0.45593999997E+02  0.45594000000E+02  0.51100000000E-03 0. -1.
         11   -1    0    0    0    0 -0.00000000000E+00 -0.00000000000E+00 -0.45593999997E+02  0.45594000000E+02  0.51100000000E-03 0.  1.
         23    2    1    2    0    0  0.88817841970E-15 -0.17763568394E-14  0.00000000000E+00  0.91188000000E+02  0.91188000000E+02 0.  0.
    9900012    2    3    3    0    0  0.43770470979E+01 -0.12495256728E+02 -0.34358277569E+02  0.54367065472E+02  0.39999957357E+02 0.  0.
         12    1    3    3    0    0 -0.43770470979E+01  0.12495256728E+02  0.34358277569E+02  0.36820934528E+02  0.00000000000E+00 0. -1.
         11    1    4    4    0    0 -0.63499307687E+01 -0.41412780876E+01 -0.12831122563E+01  0.76888349111E+01  0.51100000000E-03 0. -1.
        -11    1    4    4    0    0  0.37253067460E+01 -0.15119998995E+02 -0.33489360584E+02  0.36932770713E+02  0.51100000000E-03 0.  1.
         12    1    4    4    0    0  0.70016711206E+01  0.67660203552E+01  0.41419527093E+00  0.97454598481E+01  0.00000000000E+00 0. -1.
</event>
<event>
 8    1  0.2390921E-006  0.9118800E+02  0.7816164E-02  0.1184000E+00
        -11   -1    0    0    0    0  0.00000000000E+00  0.00000000000E+00  0.45593999997E+02  0.45594000000E+02  0.51100000000E-03 0.  1.
         11   -1    0    0    0    0 -0.00000000000E+00 -0.00000000000E+00 -0.45593999997E+02  0.45594000000E+02  0.51100000000E-03 0. -1.
         23    2    1    2    0    0  0.00000000000E+00  0.35527136788E-14  0.00000000000E+00  0.91188000000E+02  0.91188000000E+02 0.  0.
    9900012    2    3    3    0    0 -0.28768729650E+02  0.17465745685E+02  0.14936261138E+02  0.54367028058E+02  0.39999872063E+02 0.  0.
         12    1    3    3    0    0  0.28768729650E+02 -0.17465745685E+02 -0.14936261138E+02  0.36820971942E+02  0.00000000000E+00 0. -1.
         11    1    4    4    0    0 -0.24079493356E+02  0.13034369785E+02  0.23373849160E+01  0.27480541561E+02  0.51100000000E-03 0. -1.
        -11    1    4    4    0    0 -0.47663924172E+01  0.28064178924E+01  0.19255382543E+02  0.20034076849E+02  0.51100000000E-03 0.  1.
        -12    1    4    4    0    0  0.77156123322E-01  0.16249580076E+01 -0.66565063203E+01  0.68524096482E+01  0.00000000000E+00 0.  1.
</event>
<event>
 8    1  0.2390921E-006  0.9118800E+02  0.7816164E-02  0.1184000E+00
        -11   -1    0    0    0    0  0.00000000000E+00  0.00000000000E+00  0.45593999997E+02  0.45594000000E+02  0.51100000000E-03 0.  1.
         11   -1    0    0    0    0 -0.00000000000E+00 -0.00000000000E+00 -0.45593999997E+02  0.45594000000E+02  0.51100000000E-03 0. -1.
         23    2    1    2    0    0 -0.35527136788E-14  0.00000000000E+00 -0.35527136788E-14  0.91188000000E+02  0.91188000000E+02 0.  0.
    9900012    2    3    3    0    0  0.26262536456E+02  0.17077931490E+02  0.19349542683E+02  0.54367063468E+02  0.39999952787E+02 0.  0.
         12    1    3    3    0    0 -0.26262536456E+02 -0.17077931490E+02 -0.19349542683E+02  0.36820936532E+02  0.00000000000E+00 0. -1.
         11    1    4    4    0    0  0.17202978121E+02 -0.87213214877E+00  0.70634206065E+01  0.18617061574E+02  0.51100000000E-03 0. -1.
        -11    1    4    4    0    0  0.16672482589E+02  0.65649791458E+01  0.12838360258E+02  0.22043006175E+02  0.51100000000E-03 0.  1.
         12    1    4    4    0    0 -0.76129242539E+01  0.11385084493E+02 -0.55223818190E+00  0.13706995718E+02  0.00000000000E+00 0. -1.
</event>
<event>
 8    1  0.2390921E-006  0.9118800E+02  0.7816164E-02  0.1184000E+00
        -11   -1    0    0    0    0  0.00000000000E+00  0.00000000000E+00  0.45593999997E+02  0.45594000000E+02  0.51100000000E-03 0.  1.
         11   -1    0    0    0    0 -0.00000000000E+00 -0.00000000000E+00 -0.45593999997E+02  0.45594000000E+02  0.51100000000E-03 0. -1.
         23    2    1    2    0    0  0.35527136788E-14  0.00000000000E+00  0.35527136788E-14  0.91188000000E+02  0.91188000000E+02 0.  0.
    9900012    2    3    3    0    0  0.31800402395E+02  0.91210845219E+01  0.16165246679E+02  0.54367150261E+02  0.40000150649E+02 0.  0.
         12    1    3    3    0    0 -0.31800402395E+02 -0.91210845219E+01 -0.16165246679E+02  0.36820849739E+02  0.00000000000E+00 0. -1.
         11    1    4    4    0    0  0.26168819525E+02 -0.90371601001E+01  0.26321733774E+00  0.27686579089E+02  0.51100000000E-03 0. -1.
        -11    1    4    4    0    0  0.17376986667E+01 -0.43877607495E+00 -0.16202371342E+00  0.17995480113E+01  0.51100000000E-03 0.  1.
        -12    1    4    4    0    0  0.38938842034E+01  0.18597020697E+02  0.16064053055E+02  0.24881023161E+02  0.00000000000E+00 0.  1.
</event>
<event>
 8    1  0.2390921E-006  0.9118800E+02  0.7816164E-02  0.1184000E+00
        -11   -1    0    0    0    0  0.00000000000E+00  0.00000000000E+00  0.45593999997E+02  0.45594000000E+02  0.51100000000E-03 0.  1.
         11   -1    0    0    0    0 -0.00000000000E+00 -0.00000000000E+00 -0.45593999997E+02  0.45594000000E+02  0.51100000000E-03 0. -1.
         23    2    1    2    0    0 -0.35527136788E-14 -0.17763568394E-14  0.00000000000E+00  0.91188000000E+02  0.91188000000E+02 0.  0.
    9900012    2    3    3    0    0  0.19999724021E+02  0.14845532022E+02  0.27118265996E+02  0.54367093811E+02  0.40000021962E+02 0.  0.
         12    1    3    3    0    0 -0.19999724021E+02 -0.14845532022E+02 -0.27118265996E+02  0.36820906189E+02  0.00000000000E+00 0. -1.
         11    1    4    4    0    0  0.30061413349E+02  0.98537576086E+01  0.10656733158E+02  0.33381897390E+02  0.51100000000E-03 0. -1.
        -11    1    4    4    0    0 -0.54557042381E+01 -0.56353966075E+00  0.48912499911E+01  0.73489191327E+01  0.51100000000E-03 0.  1.
        -12    1    4    4    0    0 -0.46059850900E+01  0.55553140742E+01  0.11570282847E+02  0.13636277288E+02  0.00000000000E+00 0.  1.
</event>
<event>
 8    1  0.2390921E-006  0.9118800E+02  0.7816164E-02  0.1184000E+00
        -11   -1    0    0    0    0  0.00000000000E+00  0.00000000000E+00  0.45593999997E+02  0.45594000000E+02  0.51100000000E-03 0. -1.
         11   -1    0    0    0    0 -0.00000000000E+00 -0.00000000000E+00 -0.45593999997E+02  0.45594000000E+02  0.51100000000E-03 0.  1.
         23    2    1    2    0    0  0.00000000000E+00  0.00000000000E+00  0.00000000000E+00  0.91188000000E+02  0.91188000000E+02 0.  0.
    9900012    2    3    3    0    0 -0.22620441496E+02 -0.22510352333E+02  0.18367889385E+02  0.54367086159E+02  0.40000004516E+02 0.  0.
        -12    1    3    3    0    0  0.22620441496E+02  0.22510352333E+02 -0.18367889385E+02  0.36820913841E+02  0.00000000000E+00 0.  1.
         11    1    4    4    0    0 -0.21171359529E+01 -0.45429449250E+01  0.14083273710E+02  0.14948552167E+02  0.51100000000E-03 0.  1.
        -11    1    4    4    0    0  0.71176928897E+01 -0.34025250486E+01 -0.76909091507E-01  0.78895274920E+01  0.51100000000E-03 0. -1.
         12    1    4    4    0    0 -0.27620998433E+02 -0.14564882360E+02  0.43615247661E+01  0.31529006500E+02  0.00000000000E+00 0. -1.
</event>
<event>
 8    1  0.2390921E-006  0.9118800E+02  0.7816164E-02  0.1184000E+00
        -11   -1    0    0    0    0  0.00000000000E+00  0.00000000000E+00  0.45593999997E+02  0.45594000000E+02  0.51100000000E-03 0. -1.
         11   -1    0    0    0    0 -0.00000000000E+00 -0.00000000000E+00 -0.45593999997E+02  0.45594000000E+02  0.51100000000E-03 0.  1.
         23    2    1    2    0    0  0.22204460493E-14  0.00000000000E+00  0.35527136788E-14  0.91188000000E+02  0.91188000000E+02 0.  0.
    9900012    2    3    3    0    0 -0.18519045814E+01  0.27457693426E+02  0.24462678416E+02  0.54367121219E+02  0.40000084444E+02 0.  0.
        -12    1    3    3    0    0  0.18519045814E+01 -0.27457693426E+02 -0.24462678416E+02  0.36820878781E+02  0.00000000000E+00 0.  1.
         11    1    4    4    0    0 -0.89872515137E+01  0.29237865741E+01  0.11236134113E+01  0.95174431997E+01  0.51100000000E-03 0. -1.
        -11    1    4    4    0    0  0.14966018748E+02  0.67411522050E+01  0.29475405982E+01  0.16676715686E+02  0.51100000000E-03 0.  1.
        -12    1    4    4    0    0 -0.78306718162E+01  0.17792754647E+02  0.20391524407E+02  0.28172962334E+02  0.00000000000E+00 0.  1.
</event>
<event>
 8    1  0.2390921E-006  0.9118800E+02  0.7816164E-02  0.1184000E+00
        -11   -1    0    0    0    0  0.00000000000E+00  0.00000000000E+00  0.45593999997E+02  0.45594000000E+02  0.51100000000E-03 0.  1.
         11   -1    0    0    0    0 -0.00000000000E+00 -0.00000000000E+00 -0.45593999997E+02  0.45594000000E+02  0.51100000000E-03 0. -1.
         23    2    1    2    0    0  0.00000000000E+00  0.00000000000E+00  0.00000000000E+00  0.91188000000E+02  0.91188000000E+02 0.  0.
    9900012    2    3    3    0    0  0.32528534431E+02 -0.11089918893E+02  0.13216817645E+02  0.54367134694E+02  0.40000115161E+02 0.  0.
         12    1    3    3    0    0 -0.32528534431E+02  0.11089918893E+02 -0.13216817645E+02  0.36820865306E+02  0.00000000000E+00 0. -1.
         11    1    4    4    0    0  0.97148088882E+01  0.79954510225E+01  0.65681391480E+01  0.14193139220E+02  0.51100000000E-03 0.  1.
        -11    1    4    4    0    0 -0.67426096026E+00  0.14019932132E+01  0.87960233610E+01  0.89325382754E+01  0.51100000000E-03 0. -1.
         12    1    4    4    0    0  0.23487986503E+02 -0.20487363129E+02 -0.21473448643E+01  0.31241457198E+02  0.00000000000E+00 0. -1.
</event>
<event>
 8    1  0.2390921E-006  0.9118800E+02  0.7816164E-02  0.1184000E+00
        -11   -1    0    0    0    0  0.00000000000E+00  0.00000000000E+00  0.45593999997E+02  0.45594000000E+02  0.51100000000E-03 0. -1.
         11   -1    0    0    0    0 -0.00000000000E+00 -0.00000000000E+00 -0.45593999997E+02  0.45594000000E+02  0.51100000000E-03 0.  1.
         23    2    1    2    0    0  0.44408920985E-15  0.88817841970E-15  0.00000000000E+00  0.91188000000E+02  0.91188000000E+02 0.  0.
    9900012    2    3    3    0    0  0.15374962245E+01  0.77222684455E+01 -0.35969185728E+02  0.54367086832E+02  0.40000006050E+02 0.  0.
         12    1    3    3    0    0 -0.15374962245E+01 -0.77222684455E+01  0.35969185728E+02  0.36820913168E+02  0.00000000000E+00 0. -1.
         11    1    4    4    0    0 -0.65681140722E+01 -0.43604063630E+01 -0.21035076470E+02  0.22463920150E+02  0.51100000000E-03 0. -1.
        -11    1    4    4    0    0  0.15390445238E+01  0.18204154073E+02 -0.59779512368E+01  0.19222273143E+02  0.51100000000E-03 0.  1.
         12    1    4    4    0    0  0.65665657729E+01 -0.61214792643E+01 -0.89561580214E+01  0.12680893539E+02  0.00000000000E+00 0. -1.
</event>
<event>
 8    1  0.2390921E-006  0.9118800E+02  0.7816164E-02  0.1184000E+00
        -11   -1    0    0    0    0  0.00000000000E+00  0.00000000000E+00  0.45593999997E+02  0.45594000000E+02  0.51100000000E-03 0. -1.
         11   -1    0    0    0    0 -0.00000000000E+00 -0.00000000000E+00 -0.45593999997E+02  0.45594000000E+02  0.51100000000E-03 0.  1.
         23    2    1    2    0    0  0.00000000000E+00 -0.19984014443E-14  0.00000000000E+00  0.91188000000E+02  0.91188000000E+02 0.  0.
    9900012    2    3    3    0    0  0.79330794272E+01  0.10935540411E+01 -0.35939521874E+02  0.54367097755E+02  0.40000030952E+02 0.  0.
         12    1    3    3    0    0 -0.79330794272E+01 -0.10935540411E+01  0.35939521874E+02  0.36820902245E+02  0.00000000000E+00 0. -1.
         11    1    4    4    0    0 -0.12077390222E+01  0.10373289124E+02 -0.89867178073E+00  0.10481954590E+02  0.51100000000E-03 0. -1.
        -11    1    4    4    0    0  0.22411418000E+01  0.14313997064E+01 -0.30103782431E+02  0.30221008233E+02  0.51100000000E-03 0.  1.
         12    1    4    4    0    0  0.68996766494E+01 -0.10711134789E+02 -0.49370676621E+01  0.13664134932E+02  0.00000000000E+00 0. -1.
</event>
<event>
 8    1  0.2390921E-006  0.9118800E+02  0.7816164E-02  0.1184000E+00
        -11   -1    0    0    0    0  0.00000000000E+00  0.00000000000E+00  0.45593999997E+02  0.45594000000E+02  0.51100000000E-03 0. -1.
         11   -1    0    0    0    0 -0.00000000000E+00 -0.00000000000E+00 -0.45593999997E+02  0.45594000000E+02  0.51100000000E-03 0.  1.
         23    2    1    2    0    0  0.00000000000E+00 -0.35527136788E-14  0.00000000000E+00  0.91188000000E+02  0.91188000000E+02 0.  0.
    9900012    2    3    3    0    0  0.18078542712E+02 -0.29432660195E+02 -0.12753995472E+02  0.54367087555E+02  0.40000007700E+02 0.  0.
         12    1    3    3    0    0 -0.18078542712E+02  0.29432660195E+02  0.12753995472E+02  0.36820912445E+02  0.00000000000E+00 0. -1.
         11    1    4    4    0    0  0.61503142476E+01  0.92363576900E+01  0.17611297689E+01  0.11235579515E+02  0.51100000000E-03 0. -1.
        -11    1    4    4    0    0  0.42012996483E+01 -0.19424656117E+02 -0.67908546087E+01  0.21001997300E+02  0.51100000000E-03 0.  1.
         12    1    4    4    0    0  0.77269288161E+01 -0.19244361768E+02 -0.77242706319E+01  0.22129510740E+02  0.00000000000E+00 0. -1.
</event>
<event>
 8    1  0.2390921E-006  0.9118800E+02  0.7816164E-02  0.1184000E+00
        -11   -1    0    0    0    0  0.00000000000E+00  0.00000000000E+00  0.45593999997E+02  0.45594000000E+02  0.51100000000E-03 0.  1.
         11   -1    0    0    0    0 -0.00000000000E+00 -0.00000000000E+00 -0.45593999997E+02  0.45594000000E+02  0.51100000000E-03 0. -1.
         23    2    1    2    0    0  0.00000000000E+00 -0.35527136788E-14  0.00000000000E+00  0.91188000000E+02  0.91188000000E+02 0.  0.
    9900012    2    3    3    0    0 -0.21127851684E+02  0.27625996844E+02  0.12091226917E+02  0.54367087644E+02  0.40000007901E+02 0.  0.
         12    1    3    3    0    0  0.21127851684E+02 -0.27625996844E+02 -0.12091226917E+02  0.36820912356E+02  0.00000000000E+00 0. -1.
         11    1    4    4    0    0  0.57548783265E+01  0.48726532226E+01 -0.90478255012E+01  0.11778137397E+02  0.51100000000E-03 0. -1.
        -11    1    4    4    0    0 -0.17037524592E+02  0.20086111058E+02  0.18054515874E+02  0.31932657975E+02  0.51100000000E-03 0.  1.
         12    1    4    4    0    0 -0.98452054187E+01  0.26672325632E+01  0.30845365439E+01  0.10656292271E+02  0.00000000000E+00 0. -1.
</event>
<event>
 8    1  0.2390921E-006  0.9118800E+02  0.7816164E-02  0.1184000E+00
        -11   -1    0    0    0    0  0.00000000000E+00  0.00000000000E+00  0.45593999997E+02  0.45594000000E+02  0.51100000000E-03 0.  1.
         11   -1    0    0    0    0 -0.00000000000E+00 -0.00000000000E+00 -0.45593999997E+02  0.45594000000E+02  0.51100000000E-03 0. -1.
         23    2    1    2    0    0  0.17763568394E-14  0.00000000000E+00  0.33306690739E-15  0.91188000000E+02  0.91188000000E+02 0.  0.
    9900012    2    3    3    0    0  0.83010682803E+01 -0.35859860758E+02 -0.97094555064E+00  0.54367080899E+02  0.39999992526E+02 0.  0.
        -12    1    3    3    0    0 -0.83010682803E+01  0.35859860758E+02  0.97094555064E+00  0.36820919101E+02  0.00000000000E+00 0.  1.
         11    1    4    4    0    0  0.57855300948E+01 -0.21956355868E+02 -0.12197193121E+01  0.22738549579E+02  0.51100000000E-03 0. -1.
        -11    1    4    4    0    0  0.12755104890E+02 -0.15660064659E+02 -0.36641125138E+01  0.20526959021E+02  0.51100000000E-03 0.  1.
        -12    1    4    4    0    0 -0.10239566704E+02  0.17565597694E+01  0.39128862753E+01  0.11101572299E+02  0.00000000000E+00 0.  1.
</event>
<event>
 8    1  0.2390921E-006  0.9118800E+02  0.7816164E-02  0.1184000E+00
        -11   -1    0    0    0    0  0.00000000000E+00  0.00000000000E+00  0.45593999997E+02  0.45594000000E+02  0.51100000000E-03 0. -1.
         11   -1    0    0    0    0 -0.00000000000E+00 -0.00000000000E+00 -0.45593999997E+02  0.45594000000E+02  0.51100000000E-03 0.  1.
         23    2    1    2    0    0  0.88817841970E-15  0.88817841970E-15  0.00000000000E+00  0.91188000000E+02  0.91188000000E+02 0.  0.
    9900012    2    3    3    0    0  0.79790328367E+01 -0.57553459812E+01  0.35482266532E+02  0.54367079172E+02  0.39999988589E+02 0.  0.
        -12    1    3    3    0    0 -0.79790328367E+01  0.57553459812E+01 -0.35482266532E+02  0.36820920828E+02  0.00000000000E+00 0.  1.
         11    1    4    4    0    0 -0.10308844991E+02  0.73177800171E+01  0.22209708930E+02  0.25555691351E+02  0.51100000000E-03 0. -1.
        -11    1    4    4    0    0  0.58572478084E+01 -0.28608248467E+01 -0.18037935435E+01  0.67635302987E+01  0.51100000000E-03 0.  1.
         12    1    4    4    0    0  0.12430630019E+02 -0.10212301152E+02  0.15076351145E+02  0.22047857522E+02  0.00000000000E+00 0. -1.
</event>
<event>
 8    1  0.2390921E-006  0.9118800E+02  0.7816164E-02  0.1184000E+00
        -11   -1    0    0    0    0  0.00000000000E+00  0.00000000000E+00  0.45593999997E+02  0.45594000000E+02  0.51100000000E-03 0.  1.
         11   -1    0    0    0    0 -0.00000000000E+00 -0.00000000000E+00 -0.45593999997E+02  0.45594000000E+02  0.51100000000E-03 0. -1.
         23    2    1    2    0    0  0.35527136788E-14  0.00000000000E+00  0.00000000000E+00  0.91188000000E+02  0.91188000000E+02 0.  0.
    9900012    2    3    3    0    0  0.19931297125E+02  0.29900346202E+02  0.80310764113E+01  0.54367007395E+02  0.39999824958E+02 0.  0.
        -12    1    3    3    0    0 -0.19931297125E+02 -0.29900346202E+02 -0.80310764113E+01  0.36820992605E+02  0.00000000000E+00 0.  1.
         11    1    4    4    0    0 -0.10581062884E+01  0.19345396885E+02 -0.79193139811E+01  0.20930348868E+02  0.51100000000E-03 0. -1.
        -11    1    4    4    0    0  0.16994198247E+02  0.24777334761E+01  0.26589835216E+01  0.17378496220E+02  0.51100000000E-03 0.  1.
        -12    1    4    4    0    0  0.39952051666E+01  0.80772158416E+01  0.13291406871E+02  0.16058162307E+02  0.00000000000E+00 0.  1.
</event>
<event>
 8    1  0.2390921E-006  0.9118800E+02  0.7816164E-02  0.1184000E+00
        -11   -1    0    0    0    0  0.00000000000E+00  0.00000000000E+00  0.45593999997E+02  0.45594000000E+02  0.51100000000E-03 0. -1.
         11   -1    0    0    0    0 -0.00000000000E+00 -0.00000000000E+00 -0.45593999997E+02  0.45594000000E+02  0.51100000000E-03 0.  1.
         23    2    1    2    0    0  0.00000000000E+00  0.00000000000E+00  0.17763568394E-14  0.91188000000E+02  0.91188000000E+02 0.  0.
    9900012    2    3    3    0    0 -0.93098593052E+01  0.33574130384E+02 -0.11911500906E+02  0.54367087937E+02  0.40000008570E+02 0.  0.
         12    1    3    3    0    0  0.93098593052E+01 -0.33574130384E+02  0.11911500906E+02  0.36820912063E+02  0.00000000000E+00 0. -1.
         11    1    4    4    0    0 -0.95283772139E+01  0.99486458522E+01 -0.67809609639E+01  0.15354053487E+02  0.51100000000E-03 0. -1.
        -11    1    4    4    0    0 -0.72263613580E+01 -0.43775451911E+01  0.29207664466E+01  0.89394673931E+01  0.51100000000E-03 0.  1.
         12    1    4    4    0    0  0.74448792667E+01  0.28003029723E+02 -0.80513063887E+01  0.30073567057E+02  0.00000000000E+00 0. -1.
</event>
<event>
 8    1  0.2390921E-006  0.9118800E+02  0.7816164E-02  0.1184000E+00
        -11   -1    0    0    0    0  0.00000000000E+00  0.00000000000E+00  0.45593999997E+02  0.45594000000E+02  0.51100000000E-03 0.  1.
         11   -1    0    0    0    0 -0.00000000000E+00 -0.00000000000E+00 -0.45593999997E+02  0.45594000000E+02  0.51100000000E-03 0. -1.
         23    2    1    2    0    0  0.00000000000E+00  0.00000000000E+00 -0.17763568394E-14  0.91188000000E+02  0.91188000000E+02 0.  0.
    9900012    2    3    3    0    0  0.33505616861E+02 -0.63567066856E+01  0.13883202557E+02  0.54367117415E+02  0.40000075771E+02 0.  0.
         12    1    3    3    0    0 -0.33505616861E+02  0.63567066856E+01 -0.13883202557E+02  0.36820882585E+02  0.00000000000E+00 0. -1.
         11    1    4    4    0    0  0.10480028812E+02 -0.31757031133E+01  0.19687739890E+02  0.22528275487E+02  0.51100000000E-03 0. -1.
        -11    1    4    4    0    0  0.71478956378E+01 -0.21673851497E+01  0.78769459810E+01  0.10855240609E+02  0.51100000000E-03 0.  1.
         12    1    4    4    0    0  0.15877692412E+02 -0.10136184225E+01 -0.13681483315E+02  0.20983601319E+02  0.00000000000E+00 0. -1.
</event>
<event>
 8    1  0.2390921E-006  0.9118800E+02  0.7816164E-02  0.1184000E+00
        -11   -1    0    0    0    0  0.00000000000E+00  0.00000000000E+00  0.45593999997E+02  0.45594000000E+02  0.51100000000E-03 0.  1.
         11   -1    0    0    0    0 -0.00000000000E+00 -0.00000000000E+00 -0.45593999997E+02  0.45594000000E+02  0.51100000000E-03 0. -1.
         23    2    1    2    0    0 -0.35527136788E-14  0.71054273576E-14  0.00000000000E+00  0.91188000000E+02  0.91188000000E+02 0.  0.
    9900012    2    3    3    0    0 -0.23739677836E+02  0.23116682695E+02  0.16057076955E+02  0.54367040712E+02  0.39999900910E+02 0.  0.
         12    1    3    3    0    0  0.23739677836E+02 -0.23116682695E+02 -0.16057076955E+02  0.36820959288E+02  0.00000000000E+00 0. -1.
         11    1    4    4    0    0  0.78697388587E+01  0.45072237819E+00  0.40562925695E+01  0.88650690938E+01  0.51100000000E-03 0. -1.
        -11    1    4    4    0    0 -0.81361340839E+01 -0.33574321091E+01  0.32267167280E+01  0.93744722146E+01  0.51100000000E-03 0.  1.
         12    1    4    4    0    0 -0.23473282611E+02  0.26023392426E+02  0.87740676576E+01  0.36127499403E+02  0.00000000000E+00 0. -1.
</event>
<event>
 8    1  0.2390921E-006  0.9118800E+02  0.7816164E-02  0.1184000E+00
        -11   -1    0    0    0    0  0.00000000000E+00  0.00000000000E+00  0.45593999997E+02  0.45594000000E+02  0.51100000000E-03 0.  1.
         11   -1    0    0    0    0 -0.00000000000E+00 -0.00000000000E+00 -0.45593999997E+02  0.45594000000E+02  0.51100000000E-03 0. -1.
         23    2    1    2    0    0  0.53290705182E-14  0.00000000000E+00  0.17763568394E-14  0.91188000000E+02  0.91188000000E+02 0.  0.
    9900012    2    3    3    0    0 -0.14814271421E+02 -0.32775007833E+02 -0.78813872202E+01  0.54367081479E+02  0.39999993848E+02 0.  0.
        -12    1    3    3    0    0  0.14814271421E+02  0.32775007833E+02  0.78813872202E+01  0.36820918521E+02  0.00000000000E+00 0.  1.
         11    1    4    4    0    0  0.11223020627E+01  0.46429994714E+01  0.12532705414E+01  0.49383897500E+01  0.51100000000E-03 0. -1.
        -11    1    4    4    0    0 -0.88028265068E+01 -0.94210896604E+00  0.43845461637E+01  0.98793506434E+01  0.51100000000E-03 0.  1.
         12    1    4    4    0    0 -0.71337469772E+01 -0.36475898339E+02 -0.13519203925E+02  0.39549341086E+02  0.00000000000E+00 0. -1.
</event>
<event>
 8    1  0.2390921E-006  0.9118800E+02  0.7816164E-02  0.1184000E+00
        -11   -1    0    0    0    0  0.00000000000E+00  0.00000000000E+00  0.45593999997E+02  0.45594000000E+02  0.51100000000E-03 0.  1.
         11   -1    0    0    0    0 -0.00000000000E+00 -0.00000000000E+00 -0.45593999997E+02  0.45594000000E+02  0.51100000000E-03 0. -1.
         23    2    1    2    0    0  0.00000000000E+00 -0.35527136788E-14  0.00000000000E+00  0.91188000000E+02  0.91188000000E+02 0.  0.
    9900012    2    3    3    0    0  0.42416894075E+01 -0.17521799236E+02 -0.32105684312E+02  0.54367077379E+02  0.39999984502E+02 0.  0.
        -12    1    3    3    0    0 -0.42416894075E+01  0.17521799236E+02  0.32105684312E+02  0.36820922621E+02  0.00000000000E+00 0.  1.
         11    1    4    4    0    0 -0.85454020253E+01 -0.18804285927E+02 -0.19801449086E+02  0.28613326461E+02  0.51100000000E-03 0. -1.
        -11    1    4    4    0    0 -0.20297030996E+01  0.65061236279E+01 -0.26409958460E+01  0.73091859091E+01  0.51100000000E-03 0.  1.
         12    1    4    4    0    0  0.14816794532E+02 -0.52236369366E+01 -0.96632393796E+01  0.18444565009E+02  0.00000000000E+00 0. -1.
</event>
<event>
 8    1  0.2390921E-006  0.9118800E+02  0.7816164E-02  0.1184000E+00
        -11   -1    0    0    0    0  0.00000000000E+00  0.00000000000E+00  0.45593999997E+02  0.45594000000E+02  0.51100000000E-03 0.  1.
         11   -1    0    0    0    0 -0.00000000000E+00 -0.00000000000E+00 -0.45593999997E+02  0.45594000000E+02  0.51100000000E-03 0. -1.
         23    2    1    2    0    0  0.00000000000E+00 -0.88817841970E-15 -0.35527136788E-14  0.91188000000E+02  0.91188000000E+02 0.  0.
    9900012    2    3    3    0    0  0.35542370456E+02 -0.46674051722E+01  0.84104428240E+01  0.54367077725E+02  0.39999985289E+02 0.  0.
        -12    1    3    3    0    0 -0.35542370456E+02  0.46674051722E+01 -0.84104428240E+01  0.36820922275E+02  0.00000000000E+00 0.  1.
         11    1    4    4    0    0  0.32424758686E+02 -0.12796173353E+02 -0.58215830870E+01  0.35341163793E+02  0.51100000000E-03 0. -1.
        -11    1    4    4    0    0 -0.93316139370E+00  0.54590789288E+01  0.20364178496E+01  0.59007906976E+01  0.51100000000E-03 0.  1.
         12    1    4    4    0    0  0.40507731635E+01  0.26696892519E+01  0.12195608061E+02  0.13125123234E+02  0.00000000000E+00 0. -1.
</event>
<event>
 8    1  0.2390921E-006  0.9118800E+02  0.7816164E-02  0.1184000E+00
        -11   -1    0    0    0    0  0.00000000000E+00  0.00000000000E+00  0.45593999997E+02  0.45594000000E+02  0.51100000000E-03 0.  1.
         11   -1    0    0    0    0 -0.00000000000E+00 -0.00000000000E+00 -0.45593999997E+02  0.45594000000E+02  0.51100000000E-03 0. -1.
         23    2    1    2    0    0  0.88817841970E-15  0.00000000000E+00 -0.71054273576E-14  0.91188000000E+02  0.91188000000E+02 0.  0.
    9900012    2    3    3    0    0 -0.56483770933E+01 -0.17066996383E+02  0.32133992829E+02  0.54367081700E+02  0.39999994352E+02 0.  0.
         12    1    3    3    0    0  0.56483770933E+01  0.17066996383E+02 -0.32133992829E+02  0.36820918300E+02  0.00000000000E+00 0. -1.
         11    1    4    4    0    0 -0.60560819679E+01 -0.12678433928E+02  0.11129346918E+01  0.14094589017E+02  0.51100000000E-03 0. -1.
        -11    1    4    4    0    0 -0.75048688553E+01 -0.12350589157E+02  0.17066300133E+02  0.22363334044E+02  0.51100000000E-03 0.  1.
         12    1    4    4    0    0  0.79125737299E+01  0.79620267016E+01  0.13954758004E+02  0.17909158640E+02  0.00000000000E+00 0. -1.
</event>
<event>
 8    1  0.2390921E-006  0.9118800E+02  0.7816164E-02  0.1184000E+00
        -11   -1    0    0    0    0  0.00000000000E+00  0.00000000000E+00  0.45593999997E+02  0.45594000000E+02  0.51100000000E-03 0. -1.
         11   -1    0    0    0    0 -0.00000000000E+00 -0.00000000000E+00 -0.45593999997E+02  0.45594000000E+02  0.51100000000E-03 0.  1.
         23    2    1    2    0    0 -0.88817841970E-15  0.00000000000E+00  0.00000000000E+00  0.91188000000E+02  0.91188000000E+02 0.  0.
    9900012    2    3    3    0    0  0.72859463799E+01  0.35615435092E+02  0.58509895458E+01  0.54367104979E+02  0.40000047421E+02 0.  0.
        -12    1    3    3    0    0 -0.72859463799E+01 -0.35615435092E+02 -0.58509895458E+01  0.36820895021E+02  0.00000000000E+00 0.  1.
         11    1    4    4    0    0  0.45201656742E+01  0.91596844642E+01  0.47113488182E+01  0.11248489906E+02  0.51100000000E-03 0. -1.
        -11    1    4    4    0    0  0.14751715701E+02  0.60882402612E+01  0.88647160461E+01  0.18255491679E+02  0.51100000000E-03 0.  1.
        -12    1    4    4    0    0 -0.11985934995E+02  0.20367510367E+02 -0.77250753185E+01  0.24863123395E+02  0.00000000000E+00 0.  1.
</event>
<event>
 8    1  0.2390921E-006  0.9118800E+02  0.7816164E-02  0.1184000E+00
        -11   -1    0    0    0    0  0.00000000000E+00  0.00000000000E+00  0.45593999997E+02  0.45594000000E+02  0.51100000000E-03 0.  1.
         11   -1    0    0    0    0 -0.00000000000E+00 -0.00000000000E+00 -0.45593999997E+02  0.45594000000E+02  0.51100000000E-03 0. -1.
         23    2    1    2    0    0  0.00000000000E+00 -0.35527136788E-14  0.00000000000E+00  0.91188000000E+02  0.91188000000E+02 0.  0.
    9900012    2    3    3    0    0 -0.13653032776E+02  0.24681191923E+02  0.23668660438E+02  0.54367190318E+02  0.40000241967E+02 0.  0.
         12    1    3    3    0    0  0.13653032776E+02 -0.24681191923E+02 -0.23668660438E+02  0.36820809682E+02  0.00000000000E+00 0. -1.
         11    1    4    4    0    0  0.62797053063E+00  0.23855276031E+02  0.36441775265E+01  0.24140185824E+02  0.51100000000E-03 0. -1.
        -11    1    4    4    0    0 -0.71151255678E+01 -0.44803232622E+01  0.11165656491E+00  0.84089699624E+01  0.51100000000E-03 0.  1.
         12    1    4    4    0    0 -0.71658777391E+01  0.53062391540E+01  0.19912826346E+02  0.21818034532E+02  0.00000000000E+00 0. -1.
</event>
<event>
 8    1  0.2390921E-006  0.9118800E+02  0.7816164E-02  0.1184000E+00
        -11   -1    0    0    0    0  0.00000000000E+00  0.00000000000E+00  0.45593999997E+02  0.45594000000E+02  0.51100000000E-03 0. -1.
         11   -1    0    0    0    0 -0.00000000000E+00 -0.00000000000E+00 -0.45593999997E+02  0.45594000000E+02  0.51100000000E-03 0.  1.
         23    2    1    2    0    0  0.00000000000E+00  0.00000000000E+00  0.00000000000E+00  0.91188000000E+02  0.91188000000E+02 0.  0.
    9900012    2    3    3    0    0 -0.23791737015E+02  0.22882557449E+02  0.16313216493E+02  0.54367092651E+02  0.40000019317E+02 0.  0.
        -12    1    3    3    0    0  0.23791737015E+02 -0.22882557449E+02 -0.16313216493E+02  0.36820907349E+02  0.00000000000E+00 0.  1.
         11    1    4    4    0    0 -0.71379609349E+01  0.19942065649E+02 -0.13880441374E+01  0.21226472516E+02  0.51100000000E-03 0. -1.
        -11    1    4    4    0    0 -0.13163962837E+02  0.11258796808E+02  0.16705723758E+02  0.24065153847E+02  0.51100000000E-03 0.  1.
        -12    1    4    4    0    0 -0.34898132430E+01 -0.83183050083E+01  0.99553687223E+00  0.90754662881E+01  0.00000000000E+00 0.  1.
</event>
<event>
 8    1  0.2390921E-006  0.9118800E+02  0.7816164E-02  0.1184000E+00
        -11   -1    0    0    0    0  0.00000000000E+00  0.00000000000E+00  0.45593999997E+02  0.45594000000E+02  0.51100000000E-03 0. -1.
         11   -1    0    0    0    0 -0.00000000000E+00 -0.00000000000E+00 -0.45593999997E+02  0.45594000000E+02  0.51100000000E-03 0.  1.
         23    2    1    2    0    0 -0.44408920985E-15  0.00000000000E+00  0.00000000000E+00  0.91188000000E+02  0.91188000000E+02 0.  0.
    9900012    2    3    3    0    0  0.25890058325E+01  0.15668749848E+02  0.33219995456E+02  0.54367071561E+02  0.39999971237E+02 0.  0.
        -12    1    3    3    0    0 -0.25890058325E+01 -0.15668749848E+02 -0.33219995456E+02  0.36820928439E+02  0.00000000000E+00 0.  1.
         11    1    4    4    0    0  0.27328301633E+01 -0.16523238784E+01  0.25325570402E+02  0.25526124880E+02  0.51100000000E-03 0. -1.
        -11    1    4    4    0    0  0.38959819788E+01  0.19862805519E+02  0.75790320439E+00  0.20255471759E+02  0.51100000000E-03 0.  1.
        -12    1    4    4    0    0 -0.40398063096E+01 -0.25417317928E+01  0.71365218497E+01  0.85854749220E+01  0.00000000000E+00 0.  1.
</event>
<event>
 8    1  0.2390921E-006  0.9118800E+02  0.7816164E-02  0.1184000E+00
        -11   -1    0    0    0    0  0.00000000000E+00  0.00000000000E+00  0.45593999997E+02  0.45594000000E+02  0.51100000000E-03 0.  1.
         11   -1    0    0    0    0 -0.00000000000E+00 -0.00000000000E+00 -0.45593999997E+02  0.45594000000E+02  0.51100000000E-03 0. -1.
         23    2    1    2    0    0 -0.53290705182E-14  0.35527136788E-14  0.00000000000E+00  0.91188000000E+02  0.91188000000E+02 0.  0.
    9900012    2    3    3    0    0  0.15427228510E+02 -0.31193414014E+02  0.12031339067E+02  0.54367060617E+02  0.39999946288E+02 0.  0.
         12    1    3    3    0    0 -0.15427228510E+02  0.31193414014E+02 -0.12031339067E+02  0.36820939383E+02  0.00000000000E+00 0. -1.
         11    1    4    4    0    0 -0.63022855692E+01 -0.29411436668E+01 -0.63533373543E+01  0.94198739515E+01  0.51100000000E-03 0. -1.
        -11    1    4    4    0    0 -0.23004109542E+01 -0.12903156758E+01  0.63542789480E+01  0.68799466794E+01  0.51100000000E-03 0.  1.
        -12    1    4    4    0    0  0.24029925033E+02 -0.26961954671E+02  0.12030397473E+02  0.38067239986E+02  0.00000000000E+00 0.  1.
</event>
<event>
 8    1  0.2390921E-006  0.9118800E+02  0.7816164E-02  0.1184000E+00
        -11   -1    0    0    0    0  0.00000000000E+00  0.00000000000E+00  0.45593999997E+02  0.45594000000E+02  0.51100000000E-03 0.  1.
         11   -1    0    0    0    0 -0.00000000000E+00 -0.00000000000E+00 -0.45593999997E+02  0.45594000000E+02  0.51100000000E-03 0. -1.
         23    2    1    2    0    0  0.00000000000E+00  0.71054273576E-14 -0.88817841970E-15  0.91188000000E+02  0.91188000000E+02 0.  0.
    9900012    2    3    3    0    0 -0.14462890526E+02  0.33397545722E+02 -0.55866593855E+01  0.54367054524E+02  0.39999932398E+02 0.  0.
        -12    1    3    3    0    0  0.14462890526E+02 -0.33397545722E+02  0.55866593855E+01  0.36820945476E+02  0.00000000000E+00 0.  1.
         11    1    4    4    0    0 -0.22365675465E+02  0.32747960957E+02 -0.38948188335E+01  0.39847484235E+02  0.51100000000E-03 0. -1.
        -11    1    4    4    0    0 -0.13018429386E+00 -0.44222401505E+01 -0.23259614338E+01  0.49983249946E+01  0.51100000000E-03 0.  1.
         12    1    4    4    0    0  0.80329692325E+01  0.50718249160E+01  0.63412088189E+00  0.95212452947E+01  0.00000000000E+00 0. -1.
</event>
<event>
 8    1  0.2390921E-006  0.9118800E+02  0.7816164E-02  0.1184000E+00
        -11   -1    0    0    0    0  0.00000000000E+00  0.00000000000E+00  0.45593999997E+02  0.45594000000E+02  0.51100000000E-03 0. -1.
         11   -1    0    0    0    0 -0.00000000000E+00 -0.00000000000E+00 -0.45593999997E+02  0.45594000000E+02  0.51100000000E-03 0.  1.
         23    2    1    2    0    0 -0.17763568394E-14  0.00000000000E+00  0.71054273576E-14  0.91188000000E+02  0.91188000000E+02 0.  0.
    9900012    2    3    3    0    0 -0.90943082243E+01  0.13100390862E+02  0.33188152453E+02  0.54367080049E+02  0.39999990587E+02 0.  0.
        -12    1    3    3    0    0  0.90943082243E+01 -0.13100390862E+02 -0.33188152453E+02  0.36820919951E+02  0.00000000000E+00 0.  1.
         11    1    4    4    0    0 -0.48472298136E+01 -0.78906442718E+00  0.33989106107E+01  0.59725081110E+01  0.51100000000E-03 0. -1.
        -11    1    4    4    0    0  0.12851089852E+01  0.42552361405E+01 -0.79204064639E+01  0.90824764536E+01  0.51100000000E-03 0.  1.
         12    1    4    4    0    0 -0.55321873960E+01  0.96342191486E+01  0.37709648306E+02  0.39312095484E+02  0.00000000000E+00 0. -1.
</event>
<event>
 8    1  0.2390921E-006  0.9118800E+02  0.7816164E-02  0.1184000E+00
        -11   -1    0    0    0    0  0.00000000000E+00  0.00000000000E+00  0.45593999997E+02  0.45594000000E+02  0.51100000000E-03 0. -1.
         11   -1    0    0    0    0 -0.00000000000E+00 -0.00000000000E+00 -0.45593999997E+02  0.45594000000E+02  0.51100000000E-03 0.  1.
         23    2    1    2    0    0  0.33306690739E-15 -0.71054273576E-14 -0.35527136788E-14  0.91188000000E+02  0.91188000000E+02 0.  0.
    9900012    2    3    3    0    0  0.41895124715E+00  0.31685594191E+02  0.18751614155E+02  0.54367144051E+02  0.40000136494E+02 0.  0.
        -12    1    3    3    0    0 -0.41895124715E+00 -0.31685594191E+02 -0.18751614155E+02  0.36820855949E+02  0.00000000000E+00 0.  1.
         11    1    4    4    0    0  0.69349625311E+01  0.34132858260E+02  0.89415117098E+01  0.35959648917E+02  0.51100000000E-03 0. -1.
        -11    1    4    4    0    0  0.18412775815E+01  0.41049039945E+01  0.50692763106E+01  0.67777653036E+01  0.51100000000E-03 0.  1.
        -12    1    4    4    0    0 -0.83572888655E+01 -0.65521680634E+01  0.47408261345E+01  0.11629729831E+02  0.00000000000E+00 0.  1.
</event>
<event>
 8    1  0.2390921E-006  0.9118800E+02  0.7816164E-02  0.1184000E+00
        -11   -1    0    0    0    0  0.00000000000E+00  0.00000000000E+00  0.45593999997E+02  0.45594000000E+02  0.51100000000E-03 0. -1.
         11   -1    0    0    0    0 -0.00000000000E+00 -0.00000000000E+00 -0.45593999997E+02  0.45594000000E+02  0.51100000000E-03 0.  1.
         23    2    1    2    0    0  0.17763568394E-14  0.17763568394E-14  0.00000000000E+00  0.91188000000E+02  0.91188000000E+02 0.  0.
    9900012    2    3    3    0    0 -0.12959792054E+02  0.56391015326E+01  0.34000291693E+02  0.54367142984E+02  0.40000134061E+02 0.  0.
        -12    1    3    3    0    0  0.12959792054E+02 -0.56391015326E+01 -0.34000291693E+02  0.36820857016E+02  0.00000000000E+00 0.  1.
         11    1    4    4    0    0 -0.81364541424E+01  0.13136053966E+01  0.34792748562E+02  0.35755598134E+02  0.51100000000E-03 0. -1.
        -11    1    4    4    0    0 -0.48409473781E+01  0.10888621198E+02  0.48119755016E+00  0.11925954656E+02  0.51100000000E-03 0.  1.
        -12    1    4    4    0    0  0.17609466300E-01 -0.65631250618E+01 -0.12736544197E+01  0.66855901947E+01  0.00000000000E+00 0.  1.
</event>
<event>
 8    1  0.2390921E-006  0.9118800E+02  0.7816164E-02  0.1184000E+00
        -11   -1    0    0    0    0  0.00000000000E+00  0.00000000000E+00  0.45593999997E+02  0.45594000000E+02  0.51100000000E-03 0.  1.
         11   -1    0    0    0    0 -0.00000000000E+00 -0.00000000000E+00 -0.45593999997E+02  0.45594000000E+02  0.51100000000E-03 0. -1.
         23    2    1    2    0    0  0.00000000000E+00 -0.17763568394E-14  0.00000000000E+00  0.91188000000E+02  0.91188000000E+02 0.  0.
    9900012    2    3    3    0    0 -0.25116925561E+02 -0.13808894044E+02  0.23113500937E+02  0.54367089774E+02  0.40000012757E+02 0.  0.
         12    1    3    3    0    0  0.25116925561E+02  0.13808894044E+02 -0.23113500937E+02  0.36820910226E+02  0.00000000000E+00 0. -1.
         11    1    4    4    0    0 -0.10898444452E+02 -0.74998123970E+01 -0.84282323740E+01  0.15686248075E+02  0.51100000000E-03 0. -1.
        -11    1    4    4    0    0 -0.60133091159E+01 -0.11265118725E+02  0.16940847160E+02  0.21214501860E+02  0.51100000000E-03 0.  1.
        -12    1    4    4    0    0 -0.82051719933E+01  0.49560370786E+01  0.14600886151E+02  0.17466339839E+02  0.00000000000E+00 0.  1.
</event>
<event>
 8    1  0.2390921E-006  0.9118800E+02  0.7816164E-02  0.1184000E+00
        -11   -1    0    0    0    0  0.00000000000E+00  0.00000000000E+00  0.45593999997E+02  0.45594000000E+02  0.51100000000E-03 0. -1.
         11   -1    0    0    0    0 -0.00000000000E+00 -0.00000000000E+00 -0.45593999997E+02  0.45594000000E+02  0.51100000000E-03 0.  1.
         23    2    1    2    0    0  0.00000000000E+00  0.00000000000E+00  0.00000000000E+00  0.91188000000E+02  0.91188000000E+02 0.  0.
    9900012    2    3    3    0    0  0.26639153910E+02  0.25364432795E+02  0.16676143112E+01  0.54367083260E+02  0.39999997908E+02 0.  0.
        -12    1    3    3    0    0 -0.26639153910E+02 -0.25364432795E+02 -0.16676143112E+01  0.36820916740E+02  0.00000000000E+00 0.  1.
         11    1    4    4    0    0 -0.27613083207E+01 -0.28686497713E+00 -0.43334538780E+01  0.51464490604E+01  0.51100000000E-03 0. -1.
        -11    1    4    4    0    0 -0.26357031823E+01  0.77317861821E+01  0.92848920981E+01  0.12366756663E+02  0.51100000000E-03 0.  1.
         12    1    4    4    0    0  0.32036165413E+02  0.17919511591E+02 -0.32838239090E+01  0.36853877537E+02  0.00000000000E+00 0. -1.
</event>
<event>
 8    1  0.2390921E-006  0.9118800E+02  0.7816164E-02  0.1184000E+00
        -11   -1    0    0    0    0  0.00000000000E+00  0.00000000000E+00  0.45593999997E+02  0.45594000000E+02  0.51100000000E-03 0. -1.
         11   -1    0    0    0    0 -0.00000000000E+00 -0.00000000000E+00 -0.45593999997E+02  0.45594000000E+02  0.51100000000E-03 0.  1.
         23    2    1    2    0    0  0.35527136788E-14  0.00000000000E+00  0.35527136788E-14  0.91188000000E+02  0.91188000000E+02 0.  0.
    9900012    2    3    3    0    0  0.30030399792E+02  0.68820507006E+01  0.20164155926E+02  0.54367072285E+02  0.39999972889E+02 0.  0.
        -12    1    3    3    0    0 -0.30030399792E+02 -0.68820507006E+01 -0.20164155926E+02  0.36820927715E+02  0.00000000000E+00 0.  1.
         11    1    4    4    0    0  0.40902455392E+01  0.10336328018E+02  0.39405091700E+01  0.11793956005E+02  0.51100000000E-03 0. -1.
        -11    1    4    4    0    0  0.93878034744E-01  0.44256099106E+01 -0.60908108407E+01  0.75294630037E+01  0.51100000000E-03 0.  1.
         12    1    4    4    0    0  0.25846276219E+02 -0.78798872284E+01  0.22314457597E+02  0.35043653276E+02  0.00000000000E+00 0. -1.
</event>
<event>
 8    1  0.2390921E-006  0.9118800E+02  0.7816164E-02  0.1184000E+00
        -11   -1    0    0    0    0  0.00000000000E+00  0.00000000000E+00  0.45593999997E+02  0.45594000000E+02  0.51100000000E-03 0.  1.
         11   -1    0    0    0    0 -0.00000000000E+00 -0.00000000000E+00 -0.45593999997E+02  0.45594000000E+02  0.51100000000E-03 0. -1.
         23    2    1    2    0    0 -0.26645352591E-14 -0.17763568394E-14  0.00000000000E+00  0.91188000000E+02  0.91188000000E+02 0.  0.
    9900012    2    3    3    0    0  0.92293032763E+00  0.14496893127E+02  0.33834416972E+02  0.54367089059E+02  0.40000011127E+02 0.  0.
         12    1    3    3    0    0 -0.92293032763E+00 -0.14496893127E+02 -0.33834416972E+02  0.36820910941E+02  0.00000000000E+00 0. -1.
         11    1    4    4    0    0 -0.14143241848E+02  0.18584371017E+02  0.21569982247E+02  0.31791103638E+02  0.51100000000E-03 0. -1.
        -11    1    4    4    0    0  0.11537473059E+02 -0.68040341372E+01  0.55050399869E+01  0.14481492694E+02  0.51100000000E-03 0.  1.
         12    1    4    4    0    0  0.35286991166E+01  0.27165562472E+01  0.67593947372E+01  0.80944927273E+01  0.00000000000E+00 0. -1.
</event>
<event>
 8    1  0.2390921E-006  0.9118800E+02  0.7816164E-02  0.1184000E+00
        -11   -1    0    0    0    0  0.00000000000E+00  0.00000000000E+00  0.45593999997E+02  0.45594000000E+02  0.51100000000E-03 0. -1.
         11   -1    0    0    0    0 -0.00000000000E+00 -0.00000000000E+00 -0.45593999997E+02  0.45594000000E+02  0.51100000000E-03 0.  1.
         23    2    1    2    0    0  0.00000000000E+00  0.00000000000E+00  0.00000000000E+00  0.91188000000E+02  0.91188000000E+02 0.  0.
    9900012    2    3    3    0    0 -0.13707997828E+02  0.72327793653E+01 -0.33399974354E+02  0.54367074038E+02  0.39999976885E+02 0.  0.
         12    1    3    3    0    0  0.13707997828E+02 -0.72327793653E+01  0.33399974354E+02  0.36820925962E+02  0.00000000000E+00 0. -1.
         11    1    4    4    0    0  0.19532583087E+00  0.31434950980E+01  0.18936058665E+01  0.36749771496E+01  0.51100000000E-03 0. -1.
        -11    1    4    4    0    0  0.99815412781E+01  0.71683116784E+01 -0.11215143760E+02  0.16637166478E+02  0.51100000000E-03 0.  1.
         12    1    4    4    0    0 -0.23884864937E+02 -0.30790274110E+01 -0.24078436461E+02  0.34054930411E+02  0.00000000000E+00 0. -1.
</event>
<event>
 8    1  0.2390921E-006  0.9118800E+02  0.7816164E-02  0.1184000E+00
        -11   -1    0    0    0    0  0.00000000000E+00  0.00000000000E+00  0.45593999997E+02  0.45594000000E+02  0.51100000000E-03 0.  1.
         11   -1    0    0    0    0 -0.00000000000E+00 -0.00000000000E+00 -0.45593999997E+02  0.45594000000E+02  0.51100000000E-03 0. -1.
         23    2    1    2    0    0  0.00000000000E+00  0.35527136788E-14  0.00000000000E+00  0.91188000000E+02  0.91188000000E+02 0.  0.
    9900012    2    3    3    0    0  0.10058655964E+02 -0.29138578940E+02  0.20138044716E+02  0.54367160962E+02  0.40000175045E+02 0.  0.
         12    1    3    3    0    0 -0.10058655964E+02  0.29138578940E+02 -0.20138044716E+02  0.36820839038E+02  0.00000000000E+00 0. -1.
         11    1    4    4    0    0  0.32484437745E+01  0.91465729901E+00 -0.42557076618E+01  0.54313932738E+01  0.51100000000E-03 0. -1.
        -11    1    4    4    0    0  0.97999178986E+01 -0.19945665631E+02  0.29732850193E+02  0.37120214831E+02  0.51100000000E-03 0.  1.
        -12    1    4    4    0    0 -0.29897057090E+01 -0.10107570609E+02 -0.53390978150E+01  0.11815552857E+02  0.00000000000E+00 0.  1.
</event>
<event>
 8    1  0.2390921E-006  0.9118800E+02  0.7816164E-02  0.1184000E+00
        -11   -1    0    0    0    0  0.00000000000E+00  0.00000000000E+00  0.45593999997E+02  0.45594000000E+02  0.51100000000E-03 0. -1.
         11   -1    0    0    0    0 -0.00000000000E+00 -0.00000000000E+00 -0.45593999997E+02  0.45594000000E+02  0.51100000000E-03 0.  1.
         23    2    1    2    0    0 -0.22204460493E-14  0.00000000000E+00  0.10658141036E-13  0.91188000000E+02  0.91188000000E+02 0.  0.
    9900012    2    3    3    0    0  0.23974203660E+01 -0.18392470104E+02  0.31807996179E+02  0.54367092870E+02  0.40000019816E+02 0.  0.
        -12    1    3    3    0    0 -0.23974203660E+01  0.18392470104E+02 -0.31807996179E+02  0.36820907130E+02  0.00000000000E+00 0.  1.
         11    1    4    4    0    0  0.80355318371E+01 -0.12082057634E+02  0.33044137254E+02  0.36089623103E+02  0.51100000000E-03 0. -1.
        -11    1    4    4    0    0 -0.10719798388E+02 -0.15868424559E+01 -0.27415814528E+01  0.11178032724E+02  0.51100000000E-03 0.  1.
        -12    1    4    4    0    0  0.50816869167E+01 -0.47235700142E+01  0.15054403779E+01  0.70994370432E+01  0.00000000000E+00 0.  1.
</event>
<event>
 8    1  0.2390921E-006  0.9118800E+02  0.7816164E-02  0.1184000E+00
        -11   -1    0    0    0    0  0.00000000000E+00  0.00000000000E+00  0.45593999997E+02  0.45594000000E+02  0.51100000000E-03 0. -1.
         11   -1    0    0    0    0 -0.00000000000E+00 -0.00000000000E+00 -0.45593999997E+02  0.45594000000E+02  0.51100000000E-03 0.  1.
         23    2    1    2    0    0  0.00000000000E+00 -0.22204460493E-15  0.00000000000E+00  0.91188000000E+02  0.91188000000E+02 0.  0.
    9900012    2    3    3    0    0 -0.16687784473E+02  0.18920674274E+01  0.32767632798E+02  0.54367084355E+02  0.40000000404E+02 0.  0.
        -12    1    3    3    0    0  0.16687784473E+02 -0.18920674274E+01 -0.32767632798E+02  0.36820915645E+02  0.00000000000E+00 0.  1.
         11    1    4    4    0    0  0.63528394641E+01  0.10968330811E+02  0.19617099511E+02  0.23355801068E+02  0.51100000000E-03 0.  1.
        -11    1    4    4    0    0 -0.12640218831E+02 -0.48399408361E+01  0.14339351629E+02  0.19718447322E+02  0.51100000000E-03 0. -1.
        -12    1    4    4    0    0 -0.10400405106E+02 -0.42363225478E+01 -0.11888183412E+01  0.11292835965E+02  0.00000000000E+00 0.  1.
</event>
<event>
 8    1  0.2390921E-006  0.9118800E+02  0.7816164E-02  0.1184000E+00
        -11   -1    0    0    0    0  0.00000000000E+00  0.00000000000E+00  0.45593999997E+02  0.45594000000E+02  0.51100000000E-03 0.  1.
         11   -1    0    0    0    0 -0.00000000000E+00 -0.00000000000E+00 -0.45593999997E+02  0.45594000000E+02  0.51100000000E-03 0. -1.
         23    2    1    2    0    0  0.00000000000E+00  0.26645352591E-14  0.00000000000E+00  0.91188000000E+02  0.91188000000E+02 0.  0.
    9900012    2    3    3    0    0  0.23668556556E+02 -0.39386210604E+01  0.27929675438E+02  0.54367081008E+02  0.39999992775E+02 0.  0.
         12    1    3    3    0    0 -0.23668556556E+02  0.39386210604E+01 -0.27929675438E+02  0.36820918992E+02  0.00000000000E+00 0. -1.
         11    1    4    4    0    0 -0.33794034829E+00 -0.71271976174E+01  0.19170329866E+02  0.20455138645E+02  0.51100000000E-03 0. -1.
        -11    1    4    4    0    0  0.20546992950E+02  0.11636462969E+02  0.57956354666E+01  0.24314102501E+02  0.51100000000E-03 0.  1.
        -12    1    4    4    0    0  0.34595039550E+01 -0.84478864115E+01  0.29637101049E+01  0.95978398623E+01  0.00000000000E+00 0.  1.
</event>
<event>
 8    1  0.2390921E-006  0.9118800E+02  0.7816164E-02  0.1184000E+00
        -11   -1    0    0    0    0  0.00000000000E+00  0.00000000000E+00  0.45593999997E+02  0.45594000000E+02  0.51100000000E-03 0.  1.
         11   -1    0    0    0    0 -0.00000000000E+00 -0.00000000000E+00 -0.45593999997E+02  0.45594000000E+02  0.51100000000E-03 0. -1.
         23    2    1    2    0    0  0.00000000000E+00  0.00000000000E+00 -0.20816681712E-16  0.91188000000E+02  0.91188000000E+02 0.  0.
    9900012    2    3    3    0    0 -0.40634823454E+01 -0.36595954151E+02 -0.61922697369E-01  0.54367087689E+02  0.40000008004E+02 0.  0.
         12    1    3    3    0    0  0.40634823454E+01  0.36595954151E+02  0.61922697369E-01  0.36820912311E+02  0.00000000000E+00 0. -1.
         11    1    4    4    0    0 -0.34230916038E+01 -0.93687923895E+01  0.14779190908E+01  0.10083455363E+02  0.51100000000E-03 0. -1.
        -11    1    4    4    0    0 -0.13843591143E+02 -0.20443269019E+02  0.87806303021E+01  0.26204422006E+02  0.51100000000E-03 0.  1.
         12    1    4    4    0    0  0.13203200402E+02 -0.67838927433E+01 -0.10320472090E+02  0.18079210319E+02  0.00000000000E+00 0. -1.
</event>
<event>
 8    1  0.2390921E-006  0.9118800E+02  0.7816164E-02  0.1184000E+00
        -11   -1    0    0    0    0  0.00000000000E+00  0.00000000000E+00  0.45593999997E+02  0.45594000000E+02  0.51100000000E-03 0.  1.
         11   -1    0    0    0    0 -0.00000000000E+00 -0.00000000000E+00 -0.45593999997E+02  0.45594000000E+02  0.51100000000E-03 0. -1.
         23    2    1    2    0    0  0.35527136788E-14 -0.35527136788E-14  0.17763568394E-14  0.91188000000E+02  0.91188000000E+02 0.  0.
    9900012    2    3    3    0    0  0.29336410186E+02 -0.18495793636E+02  0.12371746917E+02  0.54367089275E+02  0.40000011621E+02 0.  0.
         12    1    3    3    0    0 -0.29336410186E+02  0.18495793636E+02 -0.12371746917E+02  0.36820910725E+02  0.00000000000E+00 0. -1.
         11    1    4    4    0    0  0.21321555184E+02 -0.21538146858E+02  0.51168598610E+01  0.30735691641E+02  0.51100000000E-03 0. -1.
        -11    1    4    4    0    0  0.55275413900E+01 -0.72813739890E+01 -0.22114406548E+01  0.94054553859E+01  0.51100000000E-03 0.  1.
        -12    1    4    4    0    0  0.24873136115E+01  0.10323727211E+02  0.94663277109E+01  0.14225942249E+02  0.00000000000E+00 0.  1.
</event>
<event>
 8    1  0.2390921E-006  0.9118800E+02  0.7816164E-02  0.1184000E+00
        -11   -1    0    0    0    0  0.00000000000E+00  0.00000000000E+00  0.45593999997E+02  0.45594000000E+02  0.51100000000E-03 0.  1.
         11   -1    0    0    0    0 -0.00000000000E+00 -0.00000000000E+00 -0.45593999997E+02  0.45594000000E+02  0.51100000000E-03 0. -1.
         23    2    1    2    0    0  0.00000000000E+00  0.00000000000E+00  0.35527136788E-14  0.91188000000E+02  0.91188000000E+02 0.  0.
    9900012    2    3    3    0    0 -0.11059011736E+02 -0.21236362428E+02  0.27973123480E+02  0.54367075691E+02  0.39999980653E+02 0.  0.
         12    1    3    3    0    0  0.11059011736E+02  0.21236362428E+02 -0.27973123480E+02  0.36820924309E+02  0.00000000000E+00 0. -1.
         11    1    4    4    0    0 -0.55572087133E+01  0.85130863457E+01  0.10346317287E+02  0.14505222835E+02  0.51100000000E-03 0. -1.
        -11    1    4    4    0    0 -0.86837507019E+01 -0.29040966093E+02  0.10592621949E+02  0.32109015523E+02  0.51100000000E-03 0.  1.
        -12    1    4    4    0    0  0.31819476796E+01 -0.70848268133E+00  0.70341842434E+01  0.77528373333E+01  0.00000000000E+00 0.  1.
</event>
<event>
 8    1  0.2390921E-006  0.9118800E+02  0.7816164E-02  0.1184000E+00
        -11   -1    0    0    0    0  0.00000000000E+00  0.00000000000E+00  0.45593999997E+02  0.45594000000E+02  0.51100000000E-03 0.  1.
         11   -1    0    0    0    0 -0.00000000000E+00 -0.00000000000E+00 -0.45593999997E+02  0.45594000000E+02  0.51100000000E-03 0. -1.
         23    2    1    2    0    0  0.00000000000E+00 -0.88817841970E-15  0.00000000000E+00  0.91188000000E+02  0.91188000000E+02 0.  0.
    9900012    2    3    3    0    0  0.10486682394E+02  0.59479307722E+01  0.34791304658E+02  0.54367037657E+02  0.39999893946E+02 0.  0.
         12    1    3    3    0    0 -0.10486682394E+02 -0.59479307722E+01 -0.34791304658E+02  0.36820962343E+02  0.00000000000E+00 0. -1.
         11    1    4    4    0    0 -0.39467158839E+01 -0.17490250866E+01 -0.26007889121E+01  0.50398172832E+01  0.51100000000E-03 0. -1.
        -11    1    4    4    0    0  0.58218934158E+01  0.29205283562E+01  0.38832525052E+02  0.39374978489E+02  0.51100000000E-03 0.  1.
        -12    1    4    4    0    0  0.86115048620E+01  0.47764275025E+01 -0.14404314821E+01  0.99522418846E+01  0.00000000000E+00 0.  1.
</event>
<event>
 8    1  0.2390921E-006  0.9118800E+02  0.7816164E-02  0.1184000E+00
        -11   -1    0    0    0    0  0.00000000000E+00  0.00000000000E+00  0.45593999997E+02  0.45594000000E+02  0.51100000000E-03 0.  1.
         11   -1    0    0    0    0 -0.00000000000E+00 -0.00000000000E+00 -0.45593999997E+02  0.45594000000E+02  0.51100000000E-03 0. -1.
         23    2    1    2    0    0 -0.35527136788E-14  0.00000000000E+00  0.17763568394E-14  0.91188000000E+02  0.91188000000E+02 0.  0.
    9900012    2    3    3    0    0 -0.29730729882E+02 -0.20029423745E+02  0.84076006783E+01  0.54367056720E+02  0.39999937404E+02 0.  0.
         12    1    3    3    0    0  0.29730729882E+02  0.20029423745E+02 -0.84076006783E+01  0.36820943280E+02  0.00000000000E+00 0. -1.
         11    1    4    4    0    0 -0.15002535283E+02 -0.56992502010E+01 -0.33719595295E+01  0.16399013053E+02  0.51100000000E-03 0. -1.
        -11    1    4    4    0    0 -0.15785252698E+02 -0.11141557584E+02 -0.57191029493E+01  0.20149854762E+02  0.51100000000E-03 0.  1.
         12    1    4    4    0    0  0.10570580988E+01 -0.31886159602E+01  0.17498663157E+02  0.17818188905E+02  0.00000000000E+00 0. -1.
</event>
<event>
 8    1  0.2390921E-006  0.9118800E+02  0.7816164E-02  0.1184000E+00
        -11   -1    0    0    0    0  0.00000000000E+00  0.00000000000E+00  0.45593999997E+02  0.45594000000E+02  0.51100000000E-03 0.  1.
         11   -1    0    0    0    0 -0.00000000000E+00 -0.00000000000E+00 -0.45593999997E+02  0.45594000000E+02  0.51100000000E-03 0. -1.
         23    2    1    2    0    0  0.00000000000E+00  0.13322676296E-14 -0.35527136788E-14  0.91188000000E+02  0.91188000000E+02 0.  0.
    9900012    2    3    3    0    0  0.22830330252E+02 -0.37263660530E+01  0.28647362589E+02  0.54367066189E+02  0.39999958991E+02 0.  0.
         12    1    3    3    0    0 -0.22830330252E+02  0.37263660530E+01 -0.28647362589E+02  0.36820933811E+02  0.00000000000E+00 0. -1.
         11    1    4    4    0    0  0.48261254993E+01  0.41146148387E+01  0.33058936105E+02  0.33661770591E+02  0.51100000000E-03 0. -1.
        -11    1    4    4    0    0  0.95645635134E+01 -0.25027756175E+01 -0.25860538474E+00  0.98899766430E+01  0.51100000000E-03 0.  1.
         12    1    4    4    0    0  0.84396412398E+01 -0.53382052742E+01 -0.41529681314E+01  0.10815318955E+02  0.00000000000E+00 0. -1.
</event>
<event>
 8    1  0.2390921E-006  0.9118800E+02  0.7816164E-02  0.1184000E+00
        -11   -1    0    0    0    0  0.00000000000E+00  0.00000000000E+00  0.45593999997E+02  0.45594000000E+02  0.51100000000E-03 0. -1.
         11   -1    0    0    0    0 -0.00000000000E+00 -0.00000000000E+00 -0.45593999997E+02  0.45594000000E+02  0.51100000000E-03 0.  1.
         23    2    1    2    0    0  0.00000000000E+00  0.00000000000E+00  0.00000000000E+00  0.91188000000E+02  0.91188000000E+02 0.  0.
    9900012    2    3    3    0    0  0.33780879013E+02  0.48710807227E+01 -0.13816938838E+02  0.54367041116E+02  0.39999901832E+02 0.  0.
         12    1    3    3    0    0 -0.33780879013E+02 -0.48710807227E+01  0.13816938838E+02  0.36820958884E+02  0.00000000000E+00 0. -1.
         11    1    4    4    0    0  0.66001389470E+01  0.85435886377E+01  0.78221474131E+01  0.13331944020E+02  0.51100000000E-03 0. -1.
        -11    1    4    4    0    0  0.21391774072E+02  0.25213794575E+01 -0.23986180313E+02  0.32238210226E+02  0.51100000000E-03 0.  1.
         12    1    4    4    0    0  0.57889659945E+01 -0.61938873725E+01  0.23470940625E+01  0.87968868702E+01  0.00000000000E+00 0. -1.
</event>
<event>
 8    1  0.2390921E-006  0.9118800E+02  0.7816164E-02  0.1184000E+00
        -11   -1    0    0    0    0  0.00000000000E+00  0.00000000000E+00  0.45593999997E+02  0.45594000000E+02  0.51100000000E-03 0. -1.
         11   -1    0    0    0    0 -0.00000000000E+00 -0.00000000000E+00 -0.45593999997E+02  0.45594000000E+02  0.51100000000E-03 0.  1.
         23    2    1    2    0    0  0.00000000000E+00  0.00000000000E+00  0.00000000000E+00  0.91188000000E+02  0.91188000000E+02 0.  0.
    9900012    2    3    3    0    0 -0.29399710216E+02  0.14317881657E+02  0.16924385745E+02  0.54367088431E+02  0.40000009695E+02 0.  0.
        -12    1    3    3    0    0  0.29399710216E+02 -0.14317881657E+02 -0.16924385745E+02  0.36820911569E+02  0.00000000000E+00 0.  1.
         11    1    4    4    0    0 -0.66514171936E+01  0.73419570963E+01  0.49037071066E+01  0.11054050314E+02  0.51100000000E-03 0. -1.
        -11    1    4    4    0    0 -0.16815450521E+02  0.57329929067E+01  0.24016087074E+02  0.29873048430E+02  0.51100000000E-03 0.  1.
        -12    1    4    4    0    0 -0.59328425014E+01  0.12429316542E+01 -0.11995408436E+02  0.13439989687E+02  0.00000000000E+00 0.  1.
</event>
<event>
 8    1  0.2390921E-006  0.9118800E+02  0.7816164E-02  0.1184000E+00
        -11   -1    0    0    0    0  0.00000000000E+00  0.00000000000E+00  0.45593999997E+02  0.45594000000E+02  0.51100000000E-03 0.  1.
         11   -1    0    0    0    0 -0.00000000000E+00 -0.00000000000E+00 -0.45593999997E+02  0.45594000000E+02  0.51100000000E-03 0. -1.
         23    2    1    2    0    0  0.00000000000E+00  0.71054273576E-14 -0.88817841970E-15  0.91188000000E+02  0.91188000000E+02 0.  0.
    9900012    2    3    3    0    0 -0.45712957547E+01  0.36319058761E+02  0.39750901034E+01  0.54367189098E+02  0.40000239185E+02 0.  0.
         12    1    3    3    0    0  0.45712957547E+01 -0.36319058761E+02 -0.39750901034E+01  0.36820810902E+02  0.00000000000E+00 0. -1.
         11    1    4    4    0    0 -0.11774201001E+02  0.91834868148E+01  0.51642390343E+01  0.15799924188E+02  0.51100000000E-03 0. -1.
        -11    1    4    4    0    0 -0.87766713747E+01  0.12884271902E+02  0.48393435058E+01  0.16323408612E+02  0.51100000000E-03 0.  1.
         12    1    4    4    0    0  0.15979576621E+02  0.14251300044E+02 -0.60284924367E+01  0.22243856298E+02  0.00000000000E+00 0. -1.
</event>
<event>
 8    1  0.2390921E-006  0.9118800E+02  0.7816164E-02  0.1184000E+00
        -11   -1    0    0    0    0  0.00000000000E+00  0.00000000000E+00  0.45593999997E+02  0.45594000000E+02  0.51100000000E-03 0. -1.
         11   -1    0    0    0    0 -0.00000000000E+00 -0.00000000000E+00 -0.45593999997E+02  0.45594000000E+02  0.51100000000E-03 0.  1.
         23    2    1    2    0    0 -0.88817841970E-15  0.00000000000E+00  0.00000000000E+00  0.91188000000E+02  0.91188000000E+02 0.  0.
    9900012    2    3    3    0    0  0.55718727576E+01 -0.36092362514E+02 -0.46982699649E+01  0.54367107309E+02  0.40000052732E+02 0.  0.
         12    1    3    3    0    0 -0.55718727576E+01  0.36092362514E+02  0.46982699649E+01  0.36820892691E+02  0.00000000000E+00 0. -1.
         11    1    4    4    0    0  0.56897178392E+01 -0.35066175262E+01  0.18699242359E+01  0.69401637210E+01  0.51100000000E-03 0. -1.
        -11    1    4    4    0    0 -0.49581564694E+01 -0.35193089343E+01  0.11395665325E+02  0.12916270336E+02  0.51100000000E-03 0.  1.
        -12    1    4    4    0    0  0.48403113877E+01 -0.29066436054E+02 -0.17963859526E+02  0.34510673251E+02  0.00000000000E+00 0.  1.
</event>
<event>
 8    1  0.2390921E-006  0.9118800E+02  0.7816164E-02  0.1184000E+00
        -11   -1    0    0    0    0  0.00000000000E+00  0.00000000000E+00  0.45593999997E+02  0.45594000000E+02  0.51100000000E-03 0. -1.
         11   -1    0    0    0    0 -0.00000000000E+00 -0.00000000000E+00 -0.45593999997E+02  0.45594000000E+02  0.51100000000E-03 0.  1.
         23    2    1    2    0    0  0.00000000000E+00 -0.35527136788E-14  0.17763568394E-14  0.91188000000E+02  0.91188000000E+02 0.  0.
    9900012    2    3    3    0    0  0.23000501624E+02 -0.26112310291E+02  0.12037631577E+02  0.54367076632E+02  0.39999982798E+02 0.  0.
        -12    1    3    3    0    0 -0.23000501624E+02  0.26112310291E+02 -0.12037631577E+02  0.36820923368E+02  0.00000000000E+00 0.  1.
         11    1    4    4    0    0  0.16114126889E+02 -0.18945550333E+02  0.77971038372E+01  0.26065183508E+02  0.51100000000E-03 0. -1.
        -11    1    4    4    0    0  0.12556416790E+02 -0.99216334336E+01  0.10719965257E+02  0.19261881216E+02  0.51100000000E-03 0.  1.
        -12    1    4    4    0    0 -0.56700420553E+01  0.27548734748E+01 -0.64794375168E+01  0.90400119084E+01  0.00000000000E+00 0.  1.
</event>
<event>
 8    1  0.2390921E-006  0.9118800E+02  0.7816164E-02  0.1184000E+00
        -11   -1    0    0    0    0  0.00000000000E+00  0.00000000000E+00  0.45593999997E+02  0.45594000000E+02  0.51100000000E-03 0.  1.
         11   -1    0    0    0    0 -0.00000000000E+00 -0.00000000000E+00 -0.45593999997E+02  0.45594000000E+02  0.51100000000E-03 0. -1.
         23    2    1    2    0    0 -0.22204460493E-15 -0.17763568394E-14 -0.71054273576E-14  0.91188000000E+02  0.91188000000E+02 0.  0.
    9900012    2    3    3    0    0  0.17437930079E+01 -0.60644949221E+01 -0.36276201893E+02  0.54367058451E+02  0.39999941351E+02 0.  0.
        -12    1    3    3    0    0 -0.17437930079E+01  0.60644949221E+01  0.36276201893E+02  0.36820941549E+02  0.00000000000E+00 0.  1.
         11    1    4    4    0    0 -0.27937454945E+01  0.49855567995E+01 -0.47865067136E+01  0.74546252266E+01  0.51100000000E-03 0. -1.
        -11    1    4    4    0    0 -0.45539489961E+01  0.10017547165E+02 -0.56998579746E+01  0.12392662500E+02  0.51100000000E-03 0.  1.
         12    1    4    4    0    0  0.90914874985E+01 -0.21067598886E+02 -0.25789837205E+02  0.34519770724E+02  0.00000000000E+00 0. -1.
</event>
<event>
 8    1  0.2390921E-006  0.9118800E+02  0.7816164E-02  0.1184000E+00
        -11   -1    0    0    0    0  0.00000000000E+00  0.00000000000E+00  0.45593999997E+02  0.45594000000E+02  0.51100000000E-03 0. -1.
         11   -1    0    0    0    0 -0.00000000000E+00 -0.00000000000E+00 -0.45593999997E+02  0.45594000000E+02  0.51100000000E-03 0.  1.
         23    2    1    2    0    0  0.35527136788E-14  0.35527136788E-14  0.00000000000E+00  0.91188000000E+02  0.91188000000E+02 0.  0.
    9900012    2    3    3    0    0 -0.19885997813E+02 -0.21055676786E+02  0.22737283307E+02  0.54367102589E+02  0.40000041971E+02 0.  0.
        -12    1    3    3    0    0  0.19885997813E+02  0.21055676786E+02 -0.22737283307E+02  0.36820897411E+02  0.00000000000E+00 0.  1.
         11    1    4    4    0    0 -0.81991164026E+01  0.49490452029E+01  0.22108653936E+02  0.24093798732E+02  0.51100000000E-03 0. -1.
        -11    1    4    4    0    0  0.14164952555E+01 -0.38546108825E+01 -0.16741784477E+01  0.44347894651E+01  0.51100000000E-03 0.  1.
         12    1    4    4    0    0 -0.13103376666E+02 -0.22150111107E+02  0.23028078187E+01  0.25838514391E+02  0.00000000000E+00 0. -1.
</event>
<event>
 8    1  0.2390921E-006  0.9118800E+02  0.7816164E-02  0.1184000E+00
        -11   -1    0    0    0    0  0.00000000000E+00  0.00000000000E+00  0.45593999997E+02  0.45594000000E+02  0.51100000000E-03 0. -1.
         11   -1    0    0    0    0 -0.00000000000E+00 -0.00000000000E+00 -0.45593999997E+02  0.45594000000E+02  0.51100000000E-03 0.  1.
         23    2    1    2    0    0  0.00000000000E+00 -0.17763568394E-14  0.17763568394E-14  0.91188000000E+02  0.91188000000E+02 0.  0.
    9900012    2    3    3    0    0 -0.34299751263E+02  0.45846922430E+01  0.12581231912E+02  0.54367085616E+02  0.40000003278E+02 0.  0.
         12    1    3    3    0    0  0.34299751263E+02 -0.45846922430E+01 -0.12581231912E+02  0.36820914384E+02  0.00000000000E+00 0. -1.
         11    1    4    4    0    0 -0.81780752615E+01  0.59150728252E+01  0.12395378505E+02  0.15984818111E+02  0.51100000000E-03 0. -1.
        -11    1    4    4    0    0 -0.17033047516E+02 -0.11142733848E+02 -0.88984053155E+01  0.22214113593E+02  0.51100000000E-03 0.  1.
        -12    1    4    4    0    0 -0.90886284853E+01  0.98123532658E+01  0.90842587231E+01  0.16168153912E+02  0.00000000000E+00 0.  1.
</event>
<event>
 8    1  0.2390921E-006  0.9118800E+02  0.7816164E-02  0.1184000E+00
        -11   -1    0    0    0    0  0.00000000000E+00  0.00000000000E+00  0.45593999997E+02  0.45594000000E+02  0.51100000000E-03 0.  1.
         11   -1    0    0    0    0 -0.00000000000E+00 -0.00000000000E+00 -0.45593999997E+02  0.45594000000E+02  0.51100000000E-03 0. -1.
         23    2    1    2    0    0  0.00000000000E+00  0.44408920985E-15  0.71054273576E-14  0.91188000000E+02  0.91188000000E+02 0.  0.
    9900012    2    3    3    0    0  0.10469370832E+01  0.32585562714E+01  0.36661496818E+02  0.54367087258E+02  0.40000007022E+02 0.  0.
         12    1    3    3    0    0 -0.10469370832E+01 -0.32585562714E+01 -0.36661496818E+02  0.36820912742E+02  0.00000000000E+00 0. -1.
         11    1    4    4    0    0  0.19071188604E+01 -0.38531715596E+01 -0.77193505671E+01  0.88358591464E+01  0.51100000000E-03 0. -1.
        -11    1    4    4    0    0 -0.58076178728E+00  0.41614473965E+01  0.40129832778E+02  0.40349205788E+02  0.51100000000E-03 0.  1.
         12    1    4    4    0    0 -0.27941998985E+00  0.29502804345E+01  0.42510146071E+01  0.51820223237E+01  0.00000000000E+00 0. -1.
</event>
<event>
 8    1  0.2390921E-006  0.9118800E+02  0.7816164E-02  0.1184000E+00
        -11   -1    0    0    0    0  0.00000000000E+00  0.00000000000E+00  0.45593999997E+02  0.45594000000E+02  0.51100000000E-03 0.  1.
         11   -1    0    0    0    0 -0.00000000000E+00 -0.00000000000E+00 -0.45593999997E+02  0.45594000000E+02  0.51100000000E-03 0. -1.
         23    2    1    2    0    0  0.44408920985E-15  0.35527136788E-14  0.00000000000E+00  0.91188000000E+02  0.91188000000E+02 0.  0.
    9900012    2    3    3    0    0 -0.23530659080E+01  0.28197090170E+02 -0.23561893796E+02  0.54367141068E+02  0.40000129693E+02 0.  0.
        -12    1    3    3    0    0  0.23530659080E+01 -0.28197090170E+02  0.23561893796E+02  0.36820858932E+02  0.00000000000E+00 0.  1.
         11    1    4    4    0    0  0.36876513369E+01  0.65519807965E+01 -0.23912086327E+02  0.25066214263E+02  0.51100000000E-03 0. -1.
        -11    1    4    4    0    0 -0.19309228849E+01  0.74716211362E+01  0.92665514602E+01  0.12059127739E+02  0.51100000000E-03 0.  1.
         12    1    4    4    0    0 -0.41097943600E+01  0.14173488237E+02 -0.89163589294E+01  0.17241799066E+02  0.00000000000E+00 0. -1.
</event>
<event>
 8    1  0.2390921E-006  0.9118800E+02  0.7816164E-02  0.1184000E+00
        -11   -1    0    0    0    0  0.00000000000E+00  0.00000000000E+00  0.45593999997E+02  0.45594000000E+02  0.51100000000E-03 0. -1.
         11   -1    0    0    0    0 -0.00000000000E+00 -0.00000000000E+00 -0.45593999997E+02  0.45594000000E+02  0.51100000000E-03 0.  1.
         23    2    1    2    0    0 -0.44408920985E-15  0.00000000000E+00  0.88817841970E-15  0.91188000000E+02  0.91188000000E+02 0.  0.
    9900012    2    3    3    0    0 -0.91807882957E+00 -0.36037616971E+02  0.74984899080E+01  0.54367081264E+02  0.39999993356E+02 0.  0.
         12    1    3    3    0    0  0.91807882957E+00  0.36037616971E+02 -0.74984899080E+01  0.36820918736E+02  0.00000000000E+00 0. -1.
         11    1    4    4    0    0  0.68541497108E+01  0.42147877805E+00  0.66021547516E+01  0.95260411632E+01  0.51100000000E-03 0. -1.
        -11    1    4    4    0    0  0.53289966982E+01 -0.38036335537E+01  0.64840468309E+01  0.92145915583E+01  0.51100000000E-03 0.  1.
        -12    1    4    4    0    0 -0.13101225239E+02 -0.32655462196E+02 -0.55877116745E+01  0.35626448542E+02  0.00000000000E+00 0.  1.
</event>
<event>
 8    1  0.2390921E-006  0.9118800E+02  0.7816164E-02  0.1184000E+00
        -11   -1    0    0    0    0  0.00000000000E+00  0.00000000000E+00  0.45593999997E+02  0.45594000000E+02  0.51100000000E-03 0. -1.
         11   -1    0    0    0    0 -0.00000000000E+00 -0.00000000000E+00 -0.45593999997E+02  0.45594000000E+02  0.51100000000E-03 0.  1.
         23    2    1    2    0    0  0.00000000000E+00  0.00000000000E+00 -0.35527136788E-14  0.91188000000E+02  0.91188000000E+02 0.  0.
    9900012    2    3    3    0    0  0.10624371025E+02  0.24338419541E+02  0.25505775419E+02  0.54367075172E+02  0.39999979471E+02 0.  0.
         12    1    3    3    0    0 -0.10624371025E+02 -0.24338419541E+02 -0.25505775419E+02  0.36820924828E+02  0.00000000000E+00 0. -1.
         11    1    4    4    0    0  0.77354444196E+01  0.70204077819E+01  0.14101818073E+02  0.17549487144E+02  0.51100000000E-03 0. -1.
        -11    1    4    4    0    0  0.27332245850E+01  0.96540591240E+01  0.21743263649E+02  0.23946625828E+02  0.51100000000E-03 0.  1.
         12    1    4    4    0    0  0.15570202084E+00  0.76639526355E+01 -0.10339306303E+02  0.12870962200E+02  0.00000000000E+00 0. -1.
</event>
<event>
 8    1  0.2390921E-006  0.9118800E+02  0.7816164E-02  0.1184000E+00
        -11   -1    0    0    0    0  0.00000000000E+00  0.00000000000E+00  0.45593999997E+02  0.45594000000E+02  0.51100000000E-03 0.  1.
         11   -1    0    0    0    0 -0.00000000000E+00 -0.00000000000E+00 -0.45593999997E+02  0.45594000000E+02  0.51100000000E-03 0. -1.
         23    2    1    2    0    0  0.00000000000E+00  0.00000000000E+00  0.35527136788E-14  0.91188000000E+02  0.91188000000E+02 0.  0.
    9900012    2    3    3    0    0  0.16253694909E+02  0.23393948992E+02 -0.23330706251E+02  0.54367064354E+02  0.39999954808E+02 0.  0.
        -12    1    3    3    0    0 -0.16253694909E+02 -0.23393948992E+02  0.23330706251E+02  0.36820935646E+02  0.00000000000E+00 0.  1.
         11    1    4    4    0    0  0.76056177878E+01  0.88723085041E+01 -0.11879498325E+01  0.11746254943E+02  0.51100000000E-03 0. -1.
        -11    1    4    4    0    0  0.11687483730E+02  0.11471373772E+02  0.33932002476E+01  0.16724338562E+02  0.51100000000E-03 0.  1.
        -12    1    4    4    0    0 -0.30394066089E+01  0.30502667166E+01 -0.25535956666E+02  0.25896470849E+02  0.00000000000E+00 0.  1.
</event>
<event>
 8    1  0.2390921E-006  0.9118800E+02  0.7816164E-02  0.1184000E+00
        -11   -1    0    0    0    0  0.00000000000E+00  0.00000000000E+00  0.45593999997E+02  0.45594000000E+02  0.51100000000E-03 0.  1.
         11   -1    0    0    0    0 -0.00000000000E+00 -0.00000000000E+00 -0.45593999997E+02  0.45594000000E+02  0.51100000000E-03 0. -1.
         23    2    1    2    0    0  0.00000000000E+00  0.00000000000E+00  0.00000000000E+00  0.91188000000E+02  0.91188000000E+02 0.  0.
    9900012    2    3    3    0    0 -0.57461611461E+01  0.24010985714E+02 -0.27317287240E+02  0.54367082235E+02  0.39999995572E+02 0.  0.
        -12    1    3    3    0    0  0.57461611461E+01 -0.24010985714E+02  0.27317287240E+02  0.36820917765E+02  0.00000000000E+00 0.  1.
         11    1    4    4    0    0 -0.11951356017E+02  0.30068911393E+02 -0.14712489703E+02  0.35544784379E+02  0.51100000000E-03 0. -1.
        -11    1    4    4    0    0 -0.12357473300E+01 -0.56693239844E+01 -0.85681909260E+01  0.10348053049E+02  0.51100000000E-03 0.  1.
        -12    1    4    4    0    0  0.74409422014E+01 -0.38860169424E+00 -0.40366066115E+01  0.84742448075E+01  0.00000000000E+00 0.  1.
</event>
<event>
 8    1  0.2390921E-006  0.9118800E+02  0.7816164E-02  0.1184000E+00
        -11   -1    0    0    0    0  0.00000000000E+00  0.00000000000E+00  0.45593999997E+02  0.45594000000E+02  0.51100000000E-03 0. -1.
         11   -1    0    0    0    0 -0.00000000000E+00 -0.00000000000E+00 -0.45593999997E+02  0.45594000000E+02  0.51100000000E-03 0.  1.
         23    2    1    2    0    0  0.44408920985E-15  0.13322676296E-14  0.00000000000E+00  0.91188000000E+02  0.91188000000E+02 0.  0.
    9900012    2    3    3    0    0 -0.23544352849E+01  0.26978260193E+01 -0.36646463218E+02  0.54367015533E+02  0.39999843511E+02 0.  0.
         12    1    3    3    0    0  0.23544352849E+01 -0.26978260193E+01  0.36646463218E+02  0.36820984467E+02  0.00000000000E+00 0. -1.
         11    1    4    4    0    0 -0.12583302322E+01 -0.10374061738E+02 -0.13359678973E+02  0.16961296366E+02  0.51100000000E-03 0. -1.
        -11    1    4    4    0    0  0.21029816234E+01  0.89497302244E+01 -0.28550409378E+02  0.29994100732E+02  0.51100000000E-03 0.  1.
         12    1    4    4    0    0 -0.31990866761E+01  0.41221575331E+01  0.52636251327E+01  0.74116184350E+01  0.00000000000E+00 0. -1.
</event>
<event>
 8    1  0.2390921E-006  0.9118800E+02  0.7816164E-02  0.1184000E+00
        -11   -1    0    0    0    0  0.00000000000E+00  0.00000000000E+00  0.45593999997E+02  0.45594000000E+02  0.51100000000E-03 0. -1.
         11   -1    0    0    0    0 -0.00000000000E+00 -0.00000000000E+00 -0.45593999997E+02  0.45594000000E+02  0.51100000000E-03 0.  1.
         23    2    1    2    0    0 -0.35527136788E-14 -0.71054273576E-14  0.00000000000E+00  0.91188000000E+02  0.91188000000E+02 0.  0.
    9900012    2    3    3    0    0  0.22822432766E+02 -0.23090898398E+02 -0.17370282503E+02  0.54367085557E+02  0.40000003144E+02 0.  0.
        -12    1    3    3    0    0 -0.22822432766E+02  0.23090898398E+02  0.17370282503E+02  0.36820914443E+02  0.00000000000E+00 0.  1.
         11    1    4    4    0    0 -0.83251314297E+01 -0.59508604877E+01  0.12167875953E+01  0.10305393063E+02  0.51100000000E-03 0. -1.
        -11    1    4    4    0    0  0.41773270557E+01  0.21655904898E+01 -0.79353770220E+01  0.92255109475E+01  0.51100000000E-03 0.  1.
        -12    1    4    4    0    0  0.26970237140E+02 -0.19305628401E+02 -0.10651693076E+02  0.34836181546E+02  0.00000000000E+00 0.  1.
</event>
<event>
 8    1  0.2390921E-006  0.9118800E+02  0.7816164E-02  0.1184000E+00
        -11   -1    0    0    0    0  0.00000000000E+00  0.00000000000E+00  0.45593999997E+02  0.45594000000E+02  0.51100000000E-03 0. -1.
         11   -1    0    0    0    0 -0.00000000000E+00 -0.00000000000E+00 -0.45593999997E+02  0.45594000000E+02  0.51100000000E-03 0.  1.
         23    2    1    2    0    0  0.17763568394E-14  0.00000000000E+00  0.00000000000E+00  0.91188000000E+02  0.91188000000E+02 0.  0.
    9900012    2    3    3    0    0  0.13675798426E+02  0.30879321285E+01  0.34047247334E+02  0.54367111385E+02  0.40000062024E+02 0.  0.
        -12    1    3    3    0    0 -0.13675798426E+02 -0.30879321285E+01 -0.34047247334E+02  0.36820888615E+02  0.00000000000E+00 0.  1.
         11    1    4    4    0    0  0.20152095677E+02  0.17263047815E+01  0.15299792873E+02  0.25360811315E+02  0.51100000000E-03 0. -1.
        -11    1    4    4    0    0 -0.12498925175E+02  0.10052896064E+01  0.41450389501E+01  0.13206630375E+02  0.51100000000E-03 0.  1.
        -12    1    4    4    0    0  0.60226279244E+01  0.35633774067E+00  0.14602415510E+02  0.15799669694E+02  0.00000000000E+00 0.  1.
</event>
<event>
 8    1  0.2390921E-006  0.9118800E+02  0.7816164E-02  0.1184000E+00
        -11   -1    0    0    0    0  0.00000000000E+00  0.00000000000E+00  0.45593999997E+02  0.45594000000E+02  0.51100000000E-03 0. -1.
         11   -1    0    0    0    0 -0.00000000000E+00 -0.00000000000E+00 -0.45593999997E+02  0.45594000000E+02  0.51100000000E-03 0.  1.
         23    2    1    2    0    0  0.35527136788E-14  0.00000000000E+00 -0.26645352591E-14  0.91188000000E+02  0.91188000000E+02 0.  0.
    9900012    2    3    3    0    0  0.30340185692E+02  0.20409832251E+02 -0.43234618668E+01  0.54367076018E+02  0.39999981399E+02 0.  0.
         12    1    3    3    0    0 -0.30340185692E+02 -0.20409832251E+02  0.43234618668E+01  0.36820923982E+02  0.00000000000E+00 0. -1.
         11    1    4    4    0    0  0.53255089478E+01  0.99704111756E+01 -0.17925186092E+02  0.21191565333E+02  0.51100000000E-03 0. -1.
        -11    1    4    4    0    0  0.19565321821E+02  0.94977002771E+01  0.16147234443E+02  0.27087659717E+02  0.51100000000E-03 0.  1.
        -12    1    4    4    0    0  0.54493549236E+01  0.94172079877E+00 -0.25455102185E+01  0.60878509688E+01  0.00000000000E+00 0.  1.
</event>
<event>
 8    1  0.2390921E-006  0.9118800E+02  0.7816164E-02  0.1184000E+00
        -11   -1    0    0    0    0  0.00000000000E+00  0.00000000000E+00  0.45593999997E+02  0.45594000000E+02  0.51100000000E-03 0.  1.
         11   -1    0    0    0    0 -0.00000000000E+00 -0.00000000000E+00 -0.45593999997E+02  0.45594000000E+02  0.51100000000E-03 0. -1.
         23    2    1    2    0    0 -0.35527136788E-14  0.17763568394E-14 -0.35527136788E-14  0.91188000000E+02  0.91188000000E+02 0.  0.
    9900012    2    3    3    0    0 -0.11961343614E+02  0.14598629449E+02 -0.31616093213E+02  0.54367203255E+02  0.40000271460E+02 0.  0.
        -12    1    3    3    0    0  0.11961343614E+02 -0.14598629449E+02  0.31616093213E+02  0.36820796745E+02  0.00000000000E+00 0.  1.
         11    1    4    4    0    0  0.72938813574E+01  0.11114228888E+02 -0.14518511527E+02  0.19685374425E+02  0.51100000000E-03 0.  1.
        -11    1    4    4    0    0  0.45298299846E+01  0.27007221863E+01  0.17430765965E+00  0.52767076325E+01  0.51100000000E-03 0. -1.
         12    1    4    4    0    0 -0.23785054957E+02  0.78367837459E+00 -0.17271889346E+02  0.29405121198E+02  0.00000000000E+00 0. -1.
</event>
<event>
 8    1  0.2390921E-006  0.9118800E+02  0.7816164E-02  0.1184000E+00
        -11   -1    0    0    0    0  0.00000000000E+00  0.00000000000E+00  0.45593999997E+02  0.45594000000E+02  0.51100000000E-03 0.  1.
         11   -1    0    0    0    0 -0.00000000000E+00 -0.00000000000E+00 -0.45593999997E+02  0.45594000000E+02  0.51100000000E-03 0. -1.
         23    2    1    2    0    0  0.00000000000E+00  0.00000000000E+00  0.00000000000E+00  0.91188000000E+02  0.91188000000E+02 0.  0.
    9900012    2    3    3    0    0 -0.25223829335E+02  0.23891003228E+02  0.12196644166E+02  0.54367085692E+02  0.40000003452E+02 0.  0.
        -12    1    3    3    0    0  0.25223829335E+02 -0.23891003228E+02 -0.12196644166E+02  0.36820914308E+02  0.00000000000E+00 0.  1.
         11    1    4    4    0    0 -0.88380065742E+01 -0.13797599959E+01 -0.60016231195E+00  0.89651711034E+01  0.51100000000E-03 0. -1.
        -11    1    4    4    0    0 -0.22219988851E+02  0.21165140609E+02  0.18877176347E+02  0.36028306491E+02  0.51100000000E-03 0.  1.
        -12    1    4    4    0    0  0.58341660894E+01  0.41056226147E+01 -0.60803698691E+01  0.93736080971E+01  0.00000000000E+00 0.  1.
</event>
<event>
 8    1  0.2390921E-006  0.9118800E+02  0.7816164E-02  0.1184000E+00
        -11   -1    0    0    0    0  0.00000000000E+00  0.00000000000E+00  0.45593999997E+02  0.45594000000E+02  0.51100000000E-03 0.  1.
         11   -1    0    0    0    0 -0.00000000000E+00 -0.00000000000E+00 -0.45593999997E+02  0.45594000000E+02  0.51100000000E-03 0. -1.
         23    2    1    2    0    0  0.00000000000E+00 -0.35527136788E-14  0.00000000000E+00  0.91188000000E+02  0.91188000000E+02 0.  0.
    9900012    2    3    3    0    0  0.18154286427E+02  0.31397601854E+02  0.63555231598E+01  0.54367079419E+02  0.39999989150E+02 0.  0.
         12    1    3    3    0    0 -0.18154286427E+02 -0.31397601854E+02 -0.63555231598E+01  0.36820920581E+02  0.00000000000E+00 0. -1.
         11    1    4    4    0    0  0.18940332970E+02  0.13060534647E+02 -0.67370588210E+01  0.23972937661E+02  0.51100000000E-03 0. -1.
        -11    1    4    4    0    0 -0.57361219459E+01  0.13043307382E+02 -0.12711839004E+01  0.14305483956E+02  0.51100000000E-03 0.  1.
         12    1    4    4    0    0  0.49500754024E+01  0.52937598249E+01  0.14363765881E+02  0.16088657802E+02  0.00000000000E+00 0. -1.
</event>
<event>
 8    1  0.2390921E-006  0.9118800E+02  0.7816164E-02  0.1184000E+00
        -11   -1    0    0    0    0  0.00000000000E+00  0.00000000000E+00  0.45593999997E+02  0.45594000000E+02  0.51100000000E-03 0. -1.
         11   -1    0    0    0    0 -0.00000000000E+00 -0.00000000000E+00 -0.45593999997E+02  0.45594000000E+02  0.51100000000E-03 0.  1.
         23    2    1    2    0    0  0.00000000000E+00  0.00000000000E+00  0.71054273576E-14  0.91188000000E+02  0.91188000000E+02 0.  0.
    9900012    2    3    3    0    0 -0.44094719397E+01 -0.13920521787E+02 -0.33801715017E+02  0.54367077853E+02  0.39999985582E+02 0.  0.
         12    1    3    3    0    0  0.44094719397E+01  0.13920521787E+02  0.33801715017E+02  0.36820922147E+02  0.00000000000E+00 0. -1.
         11    1    4    4    0    0  0.55524250569E+01  0.33654492923E+01 -0.14644794964E+02  0.16019540965E+02  0.51100000000E-03 0. -1.
        -11    1    4    4    0    0  0.88921079622E+01 -0.38282299023E+01 -0.31117537458E+01  0.10168969458E+02  0.51100000000E-03 0.  1.
        -12    1    4    4    0    0 -0.18854004959E+02 -0.13457741177E+02 -0.16045166308E+02  0.28178567430E+02  0.00000000000E+00 0.  1.
</event>
<event>
 8    1  0.2390921E-006  0.9118800E+02  0.7816164E-02  0.1184000E+00
        -11   -1    0    0    0    0  0.00000000000E+00  0.00000000000E+00  0.45593999997E+02  0.45594000000E+02  0.51100000000E-03 0. -1.
         11   -1    0    0    0    0 -0.00000000000E+00 -0.00000000000E+00 -0.45593999997E+02  0.45594000000E+02  0.51100000000E-03 0.  1.
         23    2    1    2    0    0 -0.88817841970E-15 -0.35527136788E-14  0.35527136788E-14  0.91188000000E+02  0.91188000000E+02 0.  0.
    9900012    2    3    3    0    0 -0.52435677523E+01 -0.20524920682E+02  0.30116644294E+02  0.54367086985E+02  0.40000006399E+02 0.  0.
        -12    1    3    3    0    0  0.52435677523E+01  0.20524920682E+02 -0.30116644294E+02  0.36820913015E+02  0.00000000000E+00 0.  1.
         11    1    4    4    0    0 -0.46484391543E+01 -0.29602279966E+02  0.19252278990E+02  0.35616754657E+02  0.51100000000E-03 0. -1.
        -11    1    4    4    0    0 -0.38698846959E+01  0.60594107032E+01  0.12147588715E+02  0.14115820114E+02  0.51100000000E-03 0.  1.
         12    1    4    4    0    0  0.32747560979E+01  0.30179485805E+01 -0.12832234114E+01  0.46345122137E+01  0.00000000000E+00 0. -1.
</event>
<event>
 8    1  0.2390921E-006  0.9118800E+02  0.7816164E-02  0.1184000E+00
        -11   -1    0    0    0    0  0.00000000000E+00  0.00000000000E+00  0.45593999997E+02  0.45594000000E+02  0.51100000000E-03 0. -1.
         11   -1    0    0    0    0 -0.00000000000E+00 -0.00000000000E+00 -0.45593999997E+02  0.45594000000E+02  0.51100000000E-03 0.  1.
         23    2    1    2    0    0  0.00000000000E+00  0.00000000000E+00  0.35527136788E-14  0.91188000000E+02  0.91188000000E+02 0.  0.
    9900012    2    3    3    0    0 -0.21591977429E+02 -0.14465911330E+02  0.26082644167E+02  0.54367076510E+02  0.39999982519E+02 0.  0.
        -12    1    3    3    0    0  0.21591977429E+02  0.14465911330E+02 -0.26082644167E+02  0.36820923490E+02  0.00000000000E+00 0.  1.
         11    1    4    4    0    0  0.58596501562E+01 -0.15399272085E+02  0.61639437660E+01  0.17591682231E+02  0.51100000000E-03 0.  1.
        -11    1    4    4    0    0 -0.12738203127E+02 -0.66346410159E+01  0.88992217271E+01  0.16896047701E+02  0.51100000000E-03 0. -1.
         12    1    4    4    0    0 -0.14713424459E+02  0.75680017708E+01  0.11019478674E+02  0.19879346578E+02  0.00000000000E+00 0. -1.
</event>
<event>
 8    1  0.2390921E-006  0.9118800E+02  0.7816164E-02  0.1184000E+00
        -11   -1    0    0    0    0  0.00000000000E+00  0.00000000000E+00  0.45593999997E+02  0.45594000000E+02  0.51100000000E-03 0. -1.
         11   -1    0    0    0    0 -0.00000000000E+00 -0.00000000000E+00 -0.45593999997E+02  0.45594000000E+02  0.51100000000E-03 0.  1.
         23    2    1    2    0    0  0.26645352591E-14  0.00000000000E+00  0.00000000000E+00  0.91188000000E+02  0.91188000000E+02 0.  0.
    9900012    2    3    3    0    0  0.66010539795E+01 -0.35414264071E+02 -0.76182211951E+01  0.54367064277E+02  0.39999954632E+02 0.  0.
        -12    1    3    3    0    0 -0.66010539795E+01  0.35414264071E+02  0.76182211951E+01  0.36820935723E+02  0.00000000000E+00 0.  1.
         11    1    4    4    0    0  0.12403484316E+01 -0.15253944377E+02  0.31693379696E+01  0.15629011060E+02  0.51100000000E-03 0. -1.
        -11    1    4    4    0    0  0.16698533231E+02 -0.19650987669E+02 -0.85682796745E+01  0.27173843034E+02  0.51100000000E-03 0.  1.
        -12    1    4    4    0    0 -0.11337827683E+02 -0.50933202514E+00 -0.22192794902E+01  0.11564210182E+02  0.00000000000E+00 0.  1.
</event>
<event>
 8    1  0.2390921E-006  0.9118800E+02  0.7816164E-02  0.1184000E+00
        -11   -1    0    0    0    0  0.00000000000E+00  0.00000000000E+00  0.45593999997E+02  0.45594000000E+02  0.51100000000E-03 0.  1.
         11   -1    0    0    0    0 -0.00000000000E+00 -0.00000000000E+00 -0.45593999997E+02  0.45594000000E+02  0.51100000000E-03 0. -1.
         23    2    1    2    0    0 -0.44408920985E-15  0.00000000000E+00  0.00000000000E+00  0.91188000000E+02  0.91188000000E+02 0.  0.
    9900012    2    3    3    0    0  0.37270667557E+01 -0.30639726258E+02 -0.20077255495E+02  0.54367081489E+02  0.39999993870E+02 0.  0.
        -12    1    3    3    0    0 -0.37270667557E+01  0.30639726258E+02  0.20077255495E+02  0.36820918511E+02  0.00000000000E+00 0.  1.
         11    1    4    4    0    0 -0.66441423306E+01 -0.44214089943E+01 -0.16014426628E+01  0.81399080872E+01  0.51100000000E-03 0. -1.
        -11    1    4    4    0    0  0.47326635590E+01 -0.43397598324E+01  0.87464260829E+01  0.10850418851E+02  0.51100000000E-03 0.  1.
         12    1    4    4    0    0  0.56385455273E+01 -0.21878557432E+02 -0.27222238915E+02  0.35376754550E+02  0.00000000000E+00 0. -1.
</event>
<event>
 8    1  0.2390921E-006  0.9118800E+02  0.7816164E-02  0.1184000E+00
        -11   -1    0    0    0    0  0.00000000000E+00  0.00000000000E+00  0.45593999997E+02  0.45594000000E+02  0.51100000000E-03 0. -1.
         11   -1    0    0    0    0 -0.00000000000E+00 -0.00000000000E+00 -0.45593999997E+02  0.45594000000E+02  0.51100000000E-03 0.  1.
         23    2    1    2    0    0 -0.35527136788E-14  0.00000000000E+00 -0.35527136788E-14  0.91188000000E+02  0.91188000000E+02 0.  0.
    9900012    2    3    3    0    0 -0.29946002049E+02  0.10895984850E+01  0.21396978079E+02  0.54367069343E+02  0.39999966181E+02 0.  0.
        -12    1    3    3    0    0  0.29946002049E+02 -0.10895984850E+01 -0.21396978079E+02  0.36820930657E+02  0.00000000000E+00 0.  1.
         11    1    4    4    0    0 -0.18528330045E+02  0.12216036931E+02  0.12527746484E+02  0.25484799485E+02  0.51100000000E-03 0. -1.
        -11    1    4    4    0    0 -0.12677903073E+02 -0.77607368126E+01 -0.41037069803E+01  0.15420722209E+02  0.51100000000E-03 0.  1.
        -12    1    4    4    0    0  0.12602310693E+01 -0.33657016338E+01  0.12972938575E+02  0.13461547649E+02  0.00000000000E+00 0.  1.
</event>
<event>
 8    1  0.2390921E-006  0.9118800E+02  0.7816164E-02  0.1184000E+00
        -11   -1    0    0    0    0  0.00000000000E+00  0.00000000000E+00  0.45593999997E+02  0.45594000000E+02  0.51100000000E-03 0.  1.
         11   -1    0    0    0    0 -0.00000000000E+00 -0.00000000000E+00 -0.45593999997E+02  0.45594000000E+02  0.51100000000E-03 0. -1.
         23    2    1    2    0    0  0.26645352591E-14  0.00000000000E+00  0.00000000000E+00  0.91188000000E+02  0.91188000000E+02 0.  0.
    9900012    2    3    3    0    0 -0.61685120205E+01 -0.71196891428E+01  0.35595500862E+02  0.54367079375E+02  0.39999989052E+02 0.  0.
         12    1    3    3    0    0  0.61685120205E+01  0.71196891428E+01 -0.35595500862E+02  0.36820920625E+02  0.00000000000E+00 0. -1.
         11    1    4    4    0    0  0.32389030814E+01 -0.55660669272E+01 -0.19159807071E+01  0.67188225560E+01  0.51100000000E-03 0. -1.
        -11    1    4    4    0    0  0.75911076572E+00  0.11630212069E+02  0.93849449137E+01  0.14963798756E+02  0.51100000000E-03 0.  1.
        -12    1    4    4    0    0 -0.10166525868E+02 -0.13183834285E+02  0.28126536655E+02  0.32684458063E+02  0.00000000000E+00 0.  1.
</event>
<event>
 8    1  0.2390921E-006  0.9118800E+02  0.7816164E-02  0.1184000E+00
        -11   -1    0    0    0    0  0.00000000000E+00  0.00000000000E+00  0.45593999997E+02  0.45594000000E+02  0.51100000000E-03 0. -1.
         11   -1    0    0    0    0 -0.00000000000E+00 -0.00000000000E+00 -0.45593999997E+02  0.45594000000E+02  0.51100000000E-03 0.  1.
         23    2    1    2    0    0  0.00000000000E+00 -0.35527136788E-14  0.88817841970E-15  0.91188000000E+02  0.91188000000E+02 0.  0.
    9900012    2    3    3    0    0 -0.29187399873E+02 -0.21091802433E+02  0.76818094788E+01  0.54367100525E+02  0.40000037267E+02 0.  0.
        -12    1    3    3    0    0  0.29187399873E+02  0.21091802433E+02 -0.76818094788E+01  0.36820899475E+02  0.00000000000E+00 0.  1.
         11    1    4    4    0    0 -0.26531650188E+02 -0.26449110722E+02 -0.17252230800E+01  0.37502804090E+02  0.51100000000E-03 0. -1.
        -11    1    4    4    0    0 -0.53262339849E+01  0.54370457178E+01  0.11275600711E+02  0.13604021694E+02  0.51100000000E-03 0.  1.
         12    1    4    4    0    0  0.26704842992E+01 -0.79737429503E-01 -0.18685681523E+01  0.32602747414E+01  0.00000000000E+00 0. -1.
</event>
<event>
 8    1  0.2390921E-006  0.9118800E+02  0.7816164E-02  0.1184000E+00
        -11   -1    0    0    0    0  0.00000000000E+00  0.00000000000E+00  0.45593999997E+02  0.45594000000E+02  0.51100000000E-03 0. -1.
         11   -1    0    0    0    0 -0.00000000000E+00 -0.00000000000E+00 -0.45593999997E+02  0.45594000000E+02  0.51100000000E-03 0.  1.
         23    2    1    2    0    0 -0.88817841970E-15  0.00000000000E+00  0.00000000000E+00  0.91188000000E+02  0.91188000000E+02 0.  0.
    9900012    2    3    3    0    0  0.74399079685E+01 -0.27697028784E+02 -0.23093236779E+02  0.54367146954E+02  0.40000143112E+02 0.  0.
         12    1    3    3    0    0 -0.74399079685E+01  0.27697028784E+02  0.23093236779E+02  0.36820853046E+02  0.00000000000E+00 0. -1.
         11    1    4    4    0    0  0.80604342841E+01 -0.33493910556E+02 -0.55557575496E+01  0.34895258809E+02  0.51100000000E-03 0. -1.
        -11    1    4    4    0    0  0.26055948362E+01  0.33288118071E+01 -0.69843103231E+01  0.81639882073E+01  0.51100000000E-03 0.  1.
         12    1    4    4    0    0 -0.32261211519E+01  0.24680699641E+01 -0.10553168907E+02  0.11307899938E+02  0.00000000000E+00 0. -1.
</event>
<event>
 8    1  0.2390921E-006  0.9118800E+02  0.7816164E-02  0.1184000E+00
        -11   -1    0    0    0    0  0.00000000000E+00  0.00000000000E+00  0.45593999997E+02  0.45594000000E+02  0.51100000000E-03 0.  1.
         11   -1    0    0    0    0 -0.00000000000E+00 -0.00000000000E+00 -0.45593999997E+02  0.45594000000E+02  0.51100000000E-03 0. -1.
         23    2    1    2    0    0  0.00000000000E+00  0.35527136788E-14 -0.35527136788E-14  0.91188000000E+02  0.91188000000E+02 0.  0.
    9900012    2    3    3    0    0 -0.15998911612E+02  0.27769320242E+02 -0.18129501486E+02  0.54367093662E+02  0.40000021621E+02 0.  0.
        -12    1    3    3    0    0  0.15998911612E+02 -0.27769320242E+02  0.18129501486E+02  0.36820906338E+02  0.00000000000E+00 0.  1.
         11    1    4    4    0    0 -0.68863281031E+01  0.17836324548E+02  0.52714894613E+01  0.19832916819E+02  0.51100000000E-03 0.  1.
        -11    1    4    4    0    0  0.35523070748E+01  0.47218908399E+01  0.15171736768E+01  0.61005700459E+01  0.51100000000E-03 0. -1.
         12    1    4    4    0    0 -0.12664890584E+02  0.52111048535E+01 -0.24918164624E+02  0.28433606797E+02  0.00000000000E+00 0. -1.
</event>
<event>
 8    1  0.2390921E-006  0.9118800E+02  0.7816164E-02  0.1184000E+00
        -11   -1    0    0    0    0  0.00000000000E+00  0.00000000000E+00  0.45593999997E+02  0.45594000000E+02  0.51100000000E-03 0.  1.
         11   -1    0    0    0    0 -0.00000000000E+00 -0.00000000000E+00 -0.45593999997E+02  0.45594000000E+02  0.51100000000E-03 0. -1.
         23    2    1    2    0    0  0.88817841970E-15  0.00000000000E+00  0.00000000000E+00  0.91188000000E+02  0.91188000000E+02 0.  0.
    9900012    2    3    3    0    0  0.25170929162E+01  0.16736861626E+02  0.32700418381E+02  0.54367141019E+02  0.40000129580E+02 0.  0.
         12    1    3    3    0    0 -0.25170929162E+01 -0.16736861626E+02 -0.32700418381E+02  0.36820858981E+02  0.00000000000E+00 0. -1.
         11    1    4    4    0    0  0.19910941749E+02  0.61130081336E+01  0.14990265805E+02  0.25661694000E+02  0.51100000000E-03 0. -1.
        -11    1    4    4    0    0 -0.15725175616E+01  0.52552872604E+01  0.22056382775E+01  0.59123342381E+01  0.51100000000E-03 0.  1.
         12    1    4    4    0    0 -0.15821331271E+02  0.53685662323E+01  0.15504514298E+02  0.22793112780E+02  0.00000000000E+00 0. -1.
</event>
<event>
 8    1  0.2390921E-006  0.9118800E+02  0.7816164E-02  0.1184000E+00
        -11   -1    0    0    0    0  0.00000000000E+00  0.00000000000E+00  0.45593999997E+02  0.45594000000E+02  0.51100000000E-03 0. -1.
         11   -1    0    0    0    0 -0.00000000000E+00 -0.00000000000E+00 -0.45593999997E+02  0.45594000000E+02  0.51100000000E-03 0.  1.
         23    2    1    2    0    0  0.00000000000E+00 -0.22204460493E-14  0.35527136788E-14  0.91188000000E+02  0.91188000000E+02 0.  0.
    9900012    2    3    3    0    0  0.30182196338E+02 -0.39763324586E+01 -0.20712382263E+02  0.54367095956E+02  0.40000026850E+02 0.  0.
         12    1    3    3    0    0 -0.30182196338E+02  0.39763324586E+01  0.20712382263E+02  0.36820904044E+02  0.00000000000E+00 0. -1.
         11    1    4    4    0    0  0.71932112584E+01  0.10238437821E+02 -0.85618800388E+01  0.15161585909E+02  0.51100000000E-03 0. -1.
        -11    1    4    4    0    0  0.12353019174E+02 -0.89391966905E+01  0.69171446014E+01  0.16743751368E+02  0.51100000000E-03 0.  1.
        -12    1    4    4    0    0  0.10635965906E+02 -0.52755735888E+01 -0.19067646826E+02  0.22461758678E+02  0.00000000000E+00 0.  1.
</event>
<event>
 8    1  0.2390921E-006  0.9118800E+02  0.7816164E-02  0.1184000E+00
        -11   -1    0    0    0    0  0.00000000000E+00  0.00000000000E+00  0.45593999997E+02  0.45594000000E+02  0.51100000000E-03 0. -1.
         11   -1    0    0    0    0 -0.00000000000E+00 -0.00000000000E+00 -0.45593999997E+02  0.45594000000E+02  0.51100000000E-03 0.  1.
         23    2    1    2    0    0  0.00000000000E+00  0.00000000000E+00  0.00000000000E+00  0.91188000000E+02  0.91188000000E+02 0.  0.
    9900012    2    3    3    0    0  0.31307710907E+02 -0.10285671357E+02 -0.16425956790E+02  0.54367084015E+02  0.39999999629E+02 0.  0.
        -12    1    3    3    0    0 -0.31307710907E+02  0.10285671357E+02  0.16425956790E+02  0.36820915985E+02  0.00000000000E+00 0.  1.
         11    1    4    4    0    0  0.75914925559E+01  0.64969365801E+00  0.29633846231E+01  0.81752375966E+01  0.51100000000E-03 0. -1.
        -11    1    4    4    0    0  0.29067576945E+02 -0.16192827913E+02 -0.19727952386E+02  0.38682344950E+02  0.51100000000E-03 0.  1.
        -12    1    4    4    0    0 -0.53513585937E+01  0.52574628971E+01  0.33861097284E+00  0.75095014684E+01  0.00000000000E+00 0.  1.
</event>
<event>
 8    1  0.2390921E-006  0.9118800E+02  0.7816164E-02  0.1184000E+00
        -11   -1    0    0    0    0  0.00000000000E+00  0.00000000000E+00  0.45593999997E+02  0.45594000000E+02  0.51100000000E-03 0. -1.
         11   -1    0    0    0    0 -0.00000000000E+00 -0.00000000000E+00 -0.45593999997E+02  0.45594000000E+02  0.51100000000E-03 0.  1.
         23    2    1    2    0    0 -0.17763568394E-14  0.00000000000E+00  0.00000000000E+00  0.91188000000E+02  0.91188000000E+02 0.  0.
    9900012    2    3    3    0    0 -0.10276094774E+02 -0.40523654699E+01 -0.35124919607E+02  0.54367085194E+02  0.40000002318E+02 0.  0.
         12    1    3    3    0    0  0.10276094774E+02  0.40523654699E+01  0.35124919607E+02  0.36820914806E+02  0.00000000000E+00 0. -1.
         11    1    4    4    0    0  0.58565620055E+01 -0.41180523367E+01  0.16006288439E+00  0.71612355051E+01  0.51100000000E-03 0. -1.
        -11    1    4    4    0    0 -0.45437251175E+01  0.84147821011E+01 -0.30776370390E+02  0.32227922216E+02  0.51100000000E-03 0.  1.
         12    1    4    4    0    0 -0.11588931662E+02 -0.83490952344E+01 -0.45086121021E+01  0.14977927473E+02  0.00000000000E+00 0. -1.
</event>
<event>
 8    1  0.2390921E-006  0.9118800E+02  0.7816164E-02  0.1184000E+00
        -11   -1    0    0    0    0  0.00000000000E+00  0.00000000000E+00  0.45593999997E+02  0.45594000000E+02  0.51100000000E-03 0. -1.
         11   -1    0    0    0    0 -0.00000000000E+00 -0.00000000000E+00 -0.45593999997E+02  0.45594000000E+02  0.51100000000E-03 0.  1.
         23    2    1    2    0    0  0.35527136788E-14  0.44408920985E-15  0.00000000000E+00  0.91188000000E+02  0.91188000000E+02 0.  0.
    9900012    2    3    3    0    0 -0.28322616925E+02  0.30698227478E+00  0.23526905426E+02  0.54367080043E+02  0.39999990573E+02 0.  0.
        -12    1    3    3    0    0  0.28322616925E+02 -0.30698227478E+00 -0.23526905426E+02  0.36820919957E+02  0.00000000000E+00 0.  1.
         11    1    4    4    0    0 -0.75530366369E+01 -0.56950101423E+01  0.52813648067E+01  0.10833942839E+02  0.51100000000E-03 0.  1.
        -11    1    4    4    0    0 -0.93738071188E+01 -0.74048474620E+01  0.22460564591E+02  0.25439673501E+02  0.51100000000E-03 0. -1.
        -12    1    4    4    0    0 -0.11395773169E+02  0.13406839879E+02 -0.42150239718E+01  0.18093463702E+02  0.00000000000E+00 0.  1.
</event>
<event>
 8    1  0.2390921E-006  0.9118800E+02  0.7816164E-02  0.1184000E+00
        -11   -1    0    0    0    0  0.00000000000E+00  0.00000000000E+00  0.45593999997E+02  0.45594000000E+02  0.51100000000E-03 0.  1.
         11   -1    0    0    0    0 -0.00000000000E+00 -0.00000000000E+00 -0.45593999997E+02  0.45594000000E+02  0.51100000000E-03 0. -1.
         23    2    1    2    0    0 -0.17763568394E-14  0.94368957093E-15  0.00000000000E+00  0.91188000000E+02  0.91188000000E+02 0.  0.
    9900012    2    3    3    0    0 -0.11666673996E+02  0.37759009331E+00  0.34921786862E+02  0.54367013402E+02  0.39999838652E+02 0.  0.
         12    1    3    3    0    0  0.11666673996E+02 -0.37759009331E+00 -0.34921786862E+02  0.36820986598E+02  0.00000000000E+00 0. -1.
         11    1    4    4    0    0 -0.41487167769E+01 -0.15282091025E+02  0.46085771174E+01  0.16492214536E+02  0.51100000000E-03 0. -1.
        -11    1    4    4    0    0 -0.26941654265E+01 -0.20270431366E+01  0.14246257445E+01  0.36601898852E+01  0.51100000000E-03 0.  1.
        -12    1    4    4    0    0 -0.48237917925E+01  0.17686724255E+02  0.28888584001E+02  0.34214608980E+02  0.00000000000E+00 0.  1.
</event>
<event>
 8    1  0.2390921E-006  0.9118800E+02  0.7816164E-02  0.1184000E+00
        -11   -1    0    0    0    0  0.00000000000E+00  0.00000000000E+00  0.45593999997E+02  0.45594000000E+02  0.51100000000E-03 0. -1.
         11   -1    0    0    0    0 -0.00000000000E+00 -0.00000000000E+00 -0.45593999997E+02  0.45594000000E+02  0.51100000000E-03 0.  1.
         23    2    1    2    0    0  0.00000000000E+00 -0.35527136788E-14  0.00000000000E+00  0.91188000000E+02  0.91188000000E+02 0.  0.
    9900012    2    3    3    0    0 -0.30015368868E+02  0.11537627486E+02 -0.17937057995E+02  0.54367119161E+02  0.40000079750E+02 0.  0.
         12    1    3    3    0    0  0.30015368868E+02 -0.11537627486E+02  0.17937057995E+02  0.36820880839E+02  0.00000000000E+00 0. -1.
         11    1    4    4    0    0 -0.91135904209E+01 -0.26761515878E+01 -0.19288265184E+02  0.21500150971E+02  0.51100000000E-03 0. -1.
        -11    1    4    4    0    0 -0.80952946517E+01 -0.55445600604E+00  0.87800740829E+01  0.11955371936E+02  0.51100000000E-03 0.  1.
        -12    1    4    4    0    0 -0.12806483795E+02  0.14768235080E+02 -0.74288668936E+01  0.20911596254E+02  0.00000000000E+00 0.  1.
</event>
<event>
 8    1  0.2390921E-006  0.9118800E+02  0.7816164E-02  0.1184000E+00
        -11   -1    0    0    0    0  0.00000000000E+00  0.00000000000E+00  0.45593999997E+02  0.45594000000E+02  0.51100000000E-03 0. -1.
         11   -1    0    0    0    0 -0.00000000000E+00 -0.00000000000E+00 -0.45593999997E+02  0.45594000000E+02  0.51100000000E-03 0.  1.
         23    2    1    2    0    0  0.00000000000E+00  0.00000000000E+00 -0.35527136788E-14  0.91188000000E+02  0.91188000000E+02 0.  0.
    9900012    2    3    3    0    0 -0.15977831295E+02 -0.13457181031E+02  0.30321497916E+02  0.54367081353E+02  0.39999993560E+02 0.  0.
        -12    1    3    3    0    0  0.15977831295E+02  0.13457181031E+02 -0.30321497916E+02  0.36820918647E+02  0.00000000000E+00 0.  1.
         11    1    4    4    0    0  0.37225990903E+01 -0.23446708839E+01  0.29053599940E+02  0.29384807219E+02  0.51100000000E-03 0. -1.
        -11    1    4    4    0    0 -0.14886611523E+02 -0.25825186515E+01  0.23548214584E-01  0.15108976140E+02  0.51100000000E-03 0.  1.
         12    1    4    4    0    0 -0.48138188621E+01 -0.85299914955E+01  0.12443497611E+01  0.98732979940E+01  0.00000000000E+00 0. -1.
</event>
<event>
 8    1  0.2390921E-006  0.9118800E+02  0.7816164E-02  0.1184000E+00
        -11   -1    0    0    0    0  0.00000000000E+00  0.00000000000E+00  0.45593999997E+02  0.45594000000E+02  0.51100000000E-03 0. -1.
         11   -1    0    0    0    0 -0.00000000000E+00 -0.00000000000E+00 -0.45593999997E+02  0.45594000000E+02  0.51100000000E-03 0.  1.
         23    2    1    2    0    0  0.22204460493E-15  0.00000000000E+00  0.00000000000E+00  0.91188000000E+02  0.91188000000E+02 0.  0.
    9900012    2    3    3    0    0  0.13872765838E+01  0.30497786426E+02  0.20585000076E+02  0.54367058386E+02  0.39999941202E+02 0.  0.
        -12    1    3    3    0    0 -0.13872765838E+01 -0.30497786426E+02 -0.20585000076E+02  0.36820941614E+02  0.00000000000E+00 0.  1.
         11    1    4    4    0    0 -0.24352356033E+01  0.16175463642E+02  0.38918816536E+01  0.16814361111E+02  0.51100000000E-03 0.  1.
        -11    1    4    4    0    0  0.63950081929E+01 -0.40186887650E+01 -0.49779391639E+01  0.90457651836E+01  0.51100000000E-03 0. -1.
         12    1    4    4    0    0 -0.25724960057E+01  0.18341011549E+02  0.21671057587E+02  0.28506932091E+02  0.00000000000E+00 0. -1.
</event>
<event>
 8    1  0.2390921E-006  0.9118800E+02  0.7816164E-02  0.1184000E+00
        -11   -1    0    0    0    0  0.00000000000E+00  0.00000000000E+00  0.45593999997E+02  0.45594000000E+02  0.51100000000E-03 0.  1.
         11   -1    0    0    0    0 -0.00000000000E+00 -0.00000000000E+00 -0.45593999997E+02  0.45594000000E+02  0.51100000000E-03 0. -1.
         23    2    1    2    0    0 -0.71054273576E-14  0.00000000000E+00 -0.26645352591E-14  0.91188000000E+02  0.91188000000E+02 0.  0.
    9900012    2    3    3    0    0 -0.36396487332E+02  0.51788174813E+01  0.20630163967E+01  0.54367075551E+02  0.39999980334E+02 0.  0.
        -12    1    3    3    0    0  0.36396487332E+02 -0.51788174813E+01 -0.20630163967E+01  0.36820924449E+02  0.00000000000E+00 0.  1.
         11    1    4    4    0    0 -0.15871893814E+02 -0.52050982670E+01 -0.14513056032E+02  0.22127784726E+02  0.51100000000E-03 0.  1.
        -11    1    4    4    0    0 -0.17543354893E+02  0.11991465563E+01  0.13280766837E+02  0.22036016459E+02  0.51100000000E-03 0. -1.
        -12    1    4    4    0    0 -0.29812386249E+01  0.91847691920E+01  0.32953055917E+01  0.10203274366E+02  0.00000000000E+00 0.  1.
</event>
<event>
 8    1  0.2390921E-006  0.9118800E+02  0.7816164E-02  0.1184000E+00
        -11   -1    0    0    0    0  0.00000000000E+00  0.00000000000E+00  0.45593999997E+02  0.45594000000E+02  0.51100000000E-03 0. -1.
         11   -1    0    0    0    0 -0.00000000000E+00 -0.00000000000E+00 -0.45593999997E+02  0.45594000000E+02  0.51100000000E-03 0.  1.
         23    2    1    2    0    0 -0.17763568394E-14 -0.17763568394E-14  0.14210854715E-13  0.91188000000E+02  0.91188000000E+02 0.  0.
    9900012    2    3    3    0    0 -0.80181470737E+01 -0.97003028912E+01  0.34603365628E+02  0.54367089209E+02  0.40000011470E+02 0.  0.
        -12    1    3    3    0    0  0.80181470737E+01  0.97003028912E+01 -0.34603365628E+02  0.36820910791E+02  0.00000000000E+00 0.  1.
         11    1    4    4    0    0 -0.49326835176E+01  0.42230338890E+01  0.19699435502E+01  0.67857247045E+01  0.51100000000E-03 0. -1.
        -11    1    4    4    0    0 -0.16253292760E+02 -0.80298121775E+01  0.98970365779E+01  0.20654266930E+02  0.51100000000E-03 0.  1.
         12    1    4    4    0    0  0.13167829204E+02 -0.58935246028E+01  0.22736385500E+02  0.26927097574E+02  0.00000000000E+00 0. -1.
</event>
<event>
 8    1  0.2390921E-006  0.9118800E+02  0.7816164E-02  0.1184000E+00
        -11   -1    0    0    0    0  0.00000000000E+00  0.00000000000E+00  0.45593999997E+02  0.45594000000E+02  0.51100000000E-03 0.  1.
         11   -1    0    0    0    0 -0.00000000000E+00 -0.00000000000E+00 -0.45593999997E+02  0.45594000000E+02  0.51100000000E-03 0. -1.
         23    2    1    2    0    0 -0.88817841970E-15  0.71054273576E-14  0.00000000000E+00  0.91188000000E+02  0.91188000000E+02 0.  0.
    9900012    2    3    3    0    0  0.10923333803E+01 -0.33266943022E+02 -0.15744990436E+02  0.54366981355E+02  0.39999765595E+02 0.  0.
        -12    1    3    3    0    0 -0.10923333803E+01  0.33266943022E+02  0.15744990436E+02  0.36821018645E+02  0.00000000000E+00 0.  1.
         11    1    4    4    0    0 -0.97553822963E+01 -0.18659017145E+02 -0.16414807988E+02  0.26697796278E+02  0.51100000000E-03 0. -1.
        -11    1    4    4    0    0  0.57444765952E+01  0.48666926252E+01  0.20780848510E+00  0.75317257710E+01  0.51100000000E-03 0.  1.
         12    1    4    4    0    0  0.51032390813E+01 -0.19474618502E+02  0.46200906703E+00  0.20137459306E+02  0.00000000000E+00 0. -1.
</event>
<event>
 8    1  0.2390921E-006  0.9118800E+02  0.7816164E-02  0.1184000E+00
        -11   -1    0    0    0    0  0.00000000000E+00  0.00000000000E+00  0.45593999997E+02  0.45594000000E+02  0.51100000000E-03 0. -1.
         11   -1    0    0    0    0 -0.00000000000E+00 -0.00000000000E+00 -0.45593999997E+02  0.45594000000E+02  0.51100000000E-03 0.  1.
         23    2    1    2    0    0  0.00000000000E+00  0.17763568394E-14  0.00000000000E+00  0.91188000000E+02  0.91188000000E+02 0.  0.
    9900012    2    3    3    0    0  0.12341931617E+02  0.61729722785E+01  0.34137216868E+02  0.54367103239E+02  0.40000043454E+02 0.  0.
        -12    1    3    3    0    0 -0.12341931617E+02 -0.61729722785E+01 -0.34137216868E+02  0.36820896761E+02  0.00000000000E+00 0.  1.
         11    1    4    4    0    0  0.39387829091E+01  0.51876854732E+01  0.18950198098E+01  0.67835972547E+01  0.51100000000E-03 0. -1.
        -11    1    4    4    0    0  0.18028363083E+02  0.10870107574E+02  0.21572867099E+02  0.30142490097E+02  0.51100000000E-03 0.  1.
        -12    1    4    4    0    0 -0.96252143749E+01 -0.98848207692E+01  0.10669329959E+02  0.17441015887E+02  0.00000000000E+00 0.  1.
</event>
<event>
 8    1  0.2390921E-006  0.9118800E+02  0.7816164E-02  0.1184000E+00
        -11   -1    0    0    0    0  0.00000000000E+00  0.00000000000E+00  0.45593999997E+02  0.45594000000E+02  0.51100000000E-03 0. -1.
         11   -1    0    0    0    0 -0.00000000000E+00 -0.00000000000E+00 -0.45593999997E+02  0.45594000000E+02  0.51100000000E-03 0.  1.
         23    2    1    2    0    0 -0.17763568394E-14  0.00000000000E+00  0.00000000000E+00  0.91188000000E+02  0.91188000000E+02 0.  0.
    9900012    2    3    3    0    0  0.12464752621E+02  0.22220170867E+02  0.26583344247E+02  0.54367078738E+02  0.39999987598E+02 0.  0.
        -12    1    3    3    0    0 -0.12464752621E+02 -0.22220170867E+02 -0.26583344247E+02  0.36820921262E+02  0.00000000000E+00 0.  1.
         11    1    4    4    0    0  0.16784517773E+02  0.41602775244E+01  0.17052516145E+02  0.24286132938E+02  0.51100000000E-03 0. -1.
        -11    1    4    4    0    0  0.67656884357E+01  0.40295707573E+01 -0.28028219079E+01  0.83586955565E+01  0.51100000000E-03 0.  1.
         12    1    4    4    0    0 -0.11085453587E+02  0.14030322585E+02  0.12333650010E+02  0.21722250243E+02  0.00000000000E+00 0. -1.
</event>
<event>
 8    1  0.2390921E-006  0.9118800E+02  0.7816164E-02  0.1184000E+00
        -11   -1    0    0    0    0  0.00000000000E+00  0.00000000000E+00  0.45593999997E+02  0.45594000000E+02  0.51100000000E-03 0. -1.
         11   -1    0    0    0    0 -0.00000000000E+00 -0.00000000000E+00 -0.45593999997E+02  0.45594000000E+02  0.51100000000E-03 0.  1.
         23    2    1    2    0    0  0.44408920985E-15 -0.35527136788E-14  0.71054273576E-14  0.91188000000E+02  0.91188000000E+02 0.  0.
    9900012    2    3    3    0    0  0.22167781099E+01 -0.17598662609E+02  0.32266899699E+02  0.54367084110E+02  0.39999999845E+02 0.  0.
        -12    1    3    3    0    0 -0.22167781099E+01  0.17598662609E+02 -0.32266899699E+02  0.36820915890E+02  0.00000000000E+00 0.  1.
         11    1    4    4    0    0 -0.33664099521E+01 -0.90851066546E+01  0.27546424535E+01  0.10072732211E+02  0.51100000000E-03 0. -1.
        -11    1    4    4    0    0  0.76505833036E+01 -0.10200360481E+02 -0.17925624520E+01  0.12876026531E+02  0.51100000000E-03 0.  1.
         12    1    4    4    0    0 -0.20673952416E+01  0.16868045263E+01  0.31304819698E+02  0.31418325368E+02  0.00000000000E+00 0. -1.
</event>
<event>
 8    1  0.2390921E-006  0.9118800E+02  0.7816164E-02  0.1184000E+00
        -11   -1    0    0    0    0  0.00000000000E+00  0.00000000000E+00  0.45593999997E+02  0.45594000000E+02  0.51100000000E-03 0. -1.
         11   -1    0    0    0    0 -0.00000000000E+00 -0.00000000000E+00 -0.45593999997E+02  0.45594000000E+02  0.51100000000E-03 0.  1.
         23    2    1    2    0    0  0.00000000000E+00  0.00000000000E+00  0.00000000000E+00  0.91188000000E+02  0.91188000000E+02 0.  0.
    9900012    2    3    3    0    0 -0.27178843244E+02 -0.10117817838E+02 -0.22687434581E+02  0.54367089558E+02  0.40000012266E+02 0.  0.
         12    1    3    3    0    0  0.27178843244E+02  0.10117817838E+02  0.22687434581E+02  0.36820910442E+02  0.00000000000E+00 0. -1.
         11    1    4    4    0    0  0.96757971009E+00 -0.41598395811E+01  0.78193534507E+01  0.89097005833E+01  0.51100000000E-03 0. -1.
        -11    1    4    4    0    0 -0.85420717786E+01 -0.10498533577E+02 -0.13392342969E+02  0.19040510708E+02  0.51100000000E-03 0.  1.
         12    1    4    4    0    0 -0.19604351175E+02  0.45405553195E+01 -0.17114445063E+02  0.26416878268E+02  0.00000000000E+00 0. -1.
</event>
<event>
 8    1  0.2390921E-006  0.9118800E+02  0.7816164E-02  0.1184000E+00
        -11   -1    0    0    0    0  0.00000000000E+00  0.00000000000E+00  0.45593999997E+02  0.45594000000E+02  0.51100000000E-03 0.  1.
         11   -1    0    0    0    0 -0.00000000000E+00 -0.00000000000E+00 -0.45593999997E+02  0.45594000000E+02  0.51100000000E-03 0. -1.
         23    2    1    2    0    0  0.00000000000E+00  0.00000000000E+00  0.88817841970E-15  0.91188000000E+02  0.91188000000E+02 0.  0.
    9900012    2    3    3    0    0 -0.31428828161E+02  0.19108416790E+02 -0.16965330749E+01  0.54367067689E+02  0.39999962411E+02 0.  0.
         12    1    3    3    0    0  0.31428828161E+02 -0.19108416790E+02  0.16965330749E+01  0.36820932311E+02  0.00000000000E+00 0. -1.
         11    1    4    4    0    0 -0.24402989071E+02  0.23654731887E+02 -0.14075249614E+02  0.36785389331E+02  0.51100000000E-03 0. -1.
        -11    1    4    4    0    0 -0.46092187114E+01  0.16427730688E+01  0.87139750941E+01  0.99938462409E+01  0.51100000000E-03 0.  1.
         12    1    4    4    0    0 -0.24166203781E+01 -0.61890881662E+01  0.36647414454E+01  0.75878321174E+01  0.00000000000E+00 0. -1.
</event>
<event>
 8    1  0.2390921E-006  0.9118800E+02  0.7816164E-02  0.1184000E+00
        -11   -1    0    0    0    0  0.00000000000E+00  0.00000000000E+00  0.45593999997E+02  0.45594000000E+02  0.51100000000E-03 0. -1.
         11   -1    0    0    0    0 -0.00000000000E+00 -0.00000000000E+00 -0.45593999997E+02  0.45594000000E+02  0.51100000000E-03 0.  1.
         23    2    1    2    0    0  0.00000000000E+00  0.17763568394E-14  0.00000000000E+00  0.91188000000E+02  0.91188000000E+02 0.  0.
    9900012    2    3    3    0    0 -0.62277379774E+01  0.15004202375E+02 -0.33043432623E+02  0.54367092234E+02  0.40000018365E+02 0.  0.
         12    1    3    3    0    0  0.62277379774E+01 -0.15004202375E+02  0.33043432623E+02  0.36820907766E+02  0.00000000000E+00 0. -1.
         11    1    4    4    0    0  0.45157256011E+01 -0.42744959183E+01 -0.55048731464E+01  0.83046205018E+01  0.51100000000E-03 0. -1.
        -11    1    4    4    0    0 -0.53838893736E+01  0.17049076670E+02 -0.33355240576E+02  0.37844806172E+02  0.51100000000E-03 0.  1.
        -12    1    4    4    0    0 -0.53595742049E+01  0.22296216232E+01  0.58166810991E+01  0.82176655596E+01  0.00000000000E+00 0.  1.
</event>
<event>
 8    1  0.2390921E-006  0.9118800E+02  0.7816164E-02  0.1184000E+00
        -11   -1    0    0    0    0  0.00000000000E+00  0.00000000000E+00  0.45593999997E+02  0.45594000000E+02  0.51100000000E-03 0. -1.
         11   -1    0    0    0    0 -0.00000000000E+00 -0.00000000000E+00 -0.45593999997E+02  0.45594000000E+02  0.51100000000E-03 0.  1.
         23    2    1    2    0    0  0.00000000000E+00  0.88817841970E-15  0.88817841970E-15  0.91188000000E+02  0.91188000000E+02 0.  0.
    9900012    2    3    3    0    0 -0.35660828346E+02 -0.77576445503E+01  0.48895510981E+01  0.54367035357E+02  0.39999888703E+02 0.  0.
         12    1    3    3    0    0  0.35660828346E+02  0.77576445503E+01 -0.48895510981E+01  0.36820964643E+02  0.00000000000E+00 0. -1.
         11    1    4    4    0    0 -0.11611458155E+02  0.64462762711E+01 -0.14951441025E+02  0.19998150595E+02  0.51100000000E-03 0. -1.
        -11    1    4    4    0    0 -0.85992018105E+01 -0.64189352294E+01  0.83980126148E+01  0.13626284064E+02  0.51100000000E-03 0.  1.
         12    1    4    4    0    0 -0.15450168381E+02 -0.77849855920E+01  0.11442979509E+02  0.20742600698E+02  0.00000000000E+00 0. -1.
</event>
<event>
 8    1  0.2390921E-006  0.9118800E+02  0.7816164E-02  0.1184000E+00
        -11   -1    0    0    0    0  0.00000000000E+00  0.00000000000E+00  0.45593999997E+02  0.45594000000E+02  0.51100000000E-03 0. -1.
         11   -1    0    0    0    0 -0.00000000000E+00 -0.00000000000E+00 -0.45593999997E+02  0.45594000000E+02  0.51100000000E-03 0.  1.
         23    2    1    2    0    0  0.35527136788E-14  0.00000000000E+00  0.00000000000E+00  0.91188000000E+02  0.91188000000E+02 0.  0.
    9900012    2    3    3    0    0 -0.22906006509E+02  0.21206379525E+01 -0.28750607819E+02  0.54367086248E+02  0.40000004721E+02 0.  0.
         12    1    3    3    0    0  0.22906006509E+02 -0.21206379525E+01  0.28750607819E+02  0.36820913752E+02  0.00000000000E+00 0. -1.
         11    1    4    4    0    0  0.24952185443E+01 -0.23351401469E+01 -0.24867109174E+01  0.42264318920E+01  0.51100000000E-03 0. -1.
        -11    1    4    4    0    0 -0.10666143631E+02 -0.55084068124E+01 -0.29690705203E+02  0.32025726242E+02  0.51100000000E-03 0.  1.
         12    1    4    4    0    0 -0.14735081422E+02  0.99641849118E+01  0.34268083016E+01  0.18114928115E+02  0.00000000000E+00 0. -1.
</event>
<event>
 8    1  0.2390921E-006  0.9118800E+02  0.7816164E-02  0.1184000E+00
        -11   -1    0    0    0    0  0.00000000000E+00  0.00000000000E+00  0.45593999997E+02  0.45594000000E+02  0.51100000000E-03 0. -1.
         11   -1    0    0    0    0 -0.00000000000E+00 -0.00000000000E+00 -0.45593999997E+02  0.45594000000E+02  0.51100000000E-03 0.  1.
         23    2    1    2    0    0  0.00000000000E+00 -0.88817841970E-15  0.00000000000E+00  0.91188000000E+02  0.91188000000E+02 0.  0.
    9900012    2    3    3    0    0  0.27792105382E+02  0.67623674601E+01 -0.23187262098E+02  0.54367083949E+02  0.39999999480E+02 0.  0.
         12    1    3    3    0    0 -0.27792105382E+02 -0.67623674601E+01  0.23187262098E+02  0.36820916051E+02  0.00000000000E+00 0. -1.
         11    1    4    4    0    0  0.18076061103E+02  0.15072760579E+01  0.36270840034E+01  0.18497881088E+02  0.51100000000E-03 0. -1.
        -11    1    4    4    0    0  0.11029273436E+01 -0.72929266445E+01 -0.38525544414E+01  0.83213823222E+01  0.51100000000E-03 0.  1.
         12    1    4    4    0    0  0.86131169349E+01  0.12548018047E+02 -0.22961791660E+02  0.27547820539E+02  0.00000000000E+00 0. -1.
</event>
<event>
 8    1  0.2390921E-006  0.9118800E+02  0.7816164E-02  0.1184000E+00
        -11   -1    0    0    0    0  0.00000000000E+00  0.00000000000E+00  0.45593999997E+02  0.45594000000E+02  0.51100000000E-03 0.  1.
         11   -1    0    0    0    0 -0.00000000000E+00 -0.00000000000E+00 -0.45593999997E+02  0.45594000000E+02  0.51100000000E-03 0. -1.
         23    2    1    2    0    0 -0.35527136788E-14  0.35527136788E-14  0.00000000000E+00  0.91188000000E+02  0.91188000000E+02 0.  0.
    9900012    2    3    3    0    0 -0.27321694062E+02  0.22712935970E+02  0.96658972734E+01  0.54367054916E+02  0.39999933291E+02 0.  0.
        -12    1    3    3    0    0  0.27321694062E+02 -0.22712935970E+02 -0.96658972734E+01  0.36820945084E+02  0.00000000000E+00 0.  1.
         11    1    4    4    0    0 -0.14208919850E+02  0.35513780708E+01  0.61298114161E+01  0.15877036177E+02  0.51100000000E-03 0. -1.
        -11    1    4    4    0    0 -0.11332531115E+02  0.66887722413E+01  0.16034642275E+02  0.20743087734E+02  0.51100000000E-03 0.  1.
         12    1    4    4    0    0 -0.17802430968E+01  0.12472785658E+02 -0.12498556418E+02  0.17746931005E+02  0.00000000000E+00 0. -1.
</event>
<event>
 8    1  0.2390921E-006  0.9118800E+02  0.7816164E-02  0.1184000E+00
        -11   -1    0    0    0    0  0.00000000000E+00  0.00000000000E+00  0.45593999997E+02  0.45594000000E+02  0.51100000000E-03 0.  1.
         11   -1    0    0    0    0 -0.00000000000E+00 -0.00000000000E+00 -0.45593999997E+02  0.45594000000E+02  0.51100000000E-03 0. -1.
         23    2    1    2    0    0  0.00000000000E+00 -0.15543122345E-14  0.00000000000E+00  0.91188000000E+02  0.91188000000E+02 0.  0.
    9900012    2    3    3    0    0 -0.23118372267E+02 -0.16771470757E+01 -0.28609575512E+02  0.54367085161E+02  0.40000002241E+02 0.  0.
        -12    1    3    3    0    0  0.23118372267E+02  0.16771470757E+01  0.28609575512E+02  0.36820914839E+02  0.00000000000E+00 0.  1.
         11    1    4    4    0    0 -0.40014408704E+01 -0.16968047030E+01  0.34024781387E+00  0.43596380671E+01  0.51100000000E-03 0. -1.
        -11    1    4    4    0    0 -0.10227511577E+02  0.16514459261E+02 -0.23508793348E+02  0.30495782047E+02  0.51100000000E-03 0.  1.
        -12    1    4    4    0    0 -0.88894198192E+01 -0.16494801633E+02 -0.54410299783E+01  0.19511665046E+02  0.00000000000E+00 0.  1.
</event>
<event>
 8    1  0.2390921E-006  0.9118800E+02  0.7816164E-02  0.1184000E+00
        -11   -1    0    0    0    0  0.00000000000E+00  0.00000000000E+00  0.45593999997E+02  0.45594000000E+02  0.51100000000E-03 0.  1.
         11   -1    0    0    0    0 -0.00000000000E+00 -0.00000000000E+00 -0.45593999997E+02  0.45594000000E+02  0.51100000000E-03 0. -1.
         23    2    1    2    0    0  0.17763568394E-14  0.88817841970E-15 -0.71054273576E-14  0.91188000000E+02  0.91188000000E+02 0.  0.
    9900012    2    3    3    0    0 -0.10298244950E+02  0.74763954020E+01  0.34551746837E+02  0.54367169663E+02  0.40000194880E+02 0.  0.
         12    1    3    3    0    0  0.10298244950E+02 -0.74763954020E+01 -0.34551746837E+02  0.36820830337E+02  0.00000000000E+00 0. -1.
         11    1    4    4    0    0 -0.10897318227E+02  0.17360830332E+01  0.30787787053E+01  0.11456195154E+02  0.51100000000E-03 0. -1.
        -11    1    4    4    0    0  0.16712592856E+01 -0.11631060146E+02  0.13330239805E+02  0.17769917311E+02  0.51100000000E-03 0.  1.
        -12    1    4    4    0    0 -0.10721860084E+01  0.17371372515E+02  0.18142728327E+02  0.25141057198E+02  0.00000000000E+00 0.  1.
</event>
<event>
 8    1  0.2390921E-006  0.9118800E+02  0.7816164E-02  0.1184000E+00
        -11   -1    0    0    0    0  0.00000000000E+00  0.00000000000E+00  0.45593999997E+02  0.45594000000E+02  0.51100000000E-03 0. -1.
         11   -1    0    0    0    0 -0.00000000000E+00 -0.00000000000E+00 -0.45593999997E+02  0.45594000000E+02  0.51100000000E-03 0.  1.
         23    2    1    2    0    0  0.35527136788E-14  0.00000000000E+00  0.35527136788E-14  0.91188000000E+02  0.91188000000E+02 0.  0.
    9900012    2    3    3    0    0  0.28778965261E+02  0.56526631133E+01 -0.22262060099E+02  0.54367071690E+02  0.39999971532E+02 0.  0.
         12    1    3    3    0    0 -0.28778965261E+02 -0.56526631133E+01  0.22262060099E+02  0.36820928310E+02  0.00000000000E+00 0. -1.
         11    1    4    4    0    0 -0.57617029716E+01  0.78067039677E+01 -0.90193629183E+00  0.97445029277E+01  0.51100000000E-03 0. -1.
        -11    1    4    4    0    0  0.14052002370E+02  0.71375907413E+00  0.10669932878E+01  0.14110517268E+02  0.51100000000E-03 0.  1.
         12    1    4    4    0    0  0.20488665862E+02 -0.28677999286E+01 -0.22427117095E+02  0.30512051495E+02  0.00000000000E+00 0. -1.
</event>
<event>
 8    1  0.2390921E-006  0.9118800E+02  0.7816164E-02  0.1184000E+00
        -11   -1    0    0    0    0  0.00000000000E+00  0.00000000000E+00  0.45593999997E+02  0.45594000000E+02  0.51100000000E-03 0. -1.
         11   -1    0    0    0    0 -0.00000000000E+00 -0.00000000000E+00 -0.45593999997E+02  0.45594000000E+02  0.51100000000E-03 0.  1.
         23    2    1    2    0    0  0.00000000000E+00 -0.44408920985E-15  0.00000000000E+00  0.91188000000E+02  0.91188000000E+02 0.  0.
    9900012    2    3    3    0    0 -0.29609427273E+02 -0.35329517085E+01  0.21600467431E+02  0.54367080342E+02  0.39999991256E+02 0.  0.
        -12    1    3    3    0    0  0.29609427273E+02  0.35329517085E+01 -0.21600467431E+02  0.36820919658E+02  0.00000000000E+00 0.  1.
         11    1    4    4    0    0  0.69617072329E+01 -0.73928726605E+01  0.12606144536E+02  0.16187489431E+02  0.51100000000E-03 0. -1.
        -11    1    4    4    0    0 -0.30053030765E+02  0.18133889611E+01  0.87082387541E+01  0.31341768619E+02  0.51100000000E-03 0.  1.
         12    1    4    4    0    0 -0.65181037408E+01  0.20465319908E+01  0.28608414130E+00  0.68378222923E+01  0.00000000000E+00 0. -1.
</event>
<event>
 8    1  0.2390921E-006  0.9118800E+02  0.7816164E-02  0.1184000E+00
        -11   -1    0    0    0    0  0.00000000000E+00  0.00000000000E+00  0.45593999997E+02  0.45594000000E+02  0.51100000000E-03 0.  1.
         11   -1    0    0    0    0 -0.00000000000E+00 -0.00000000000E+00 -0.45593999997E+02  0.45594000000E+02  0.51100000000E-03 0. -1.
         23    2    1    2    0    0 -0.35527136788E-14  0.00000000000E+00  0.22204460493E-15  0.91188000000E+02  0.91188000000E+02 0.  0.
    9900012    2    3    3    0    0  0.19923312766E+02 -0.30931463180E+02 -0.14441146399E+01  0.54367091903E+02  0.40000017611E+02 0.  0.
         12    1    3    3    0    0 -0.19923312766E+02  0.30931463180E+02  0.14441146399E+01  0.36820908097E+02  0.00000000000E+00 0. -1.
         11    1    4    4    0    0 -0.66597949922E+01 -0.12039627560E+02 -0.11272878132E+02  0.17787166237E+02  0.51100000000E-03 0. -1.
        -11    1    4    4    0    0  0.69706329947E+01 -0.12122608248E+02  0.70068931009E+01  0.15641096709E+02  0.51100000000E-03 0.  1.
         12    1    4    4    0    0  0.19612474763E+02 -0.67692273715E+01  0.28218703909E+01  0.20938828956E+02  0.00000000000E+00 0. -1.
</event>
<event>
 8    1  0.2390921E-006  0.9118800E+02  0.7816164E-02  0.1184000E+00
        -11   -1    0    0    0    0  0.00000000000E+00  0.00000000000E+00  0.45593999997E+02  0.45594000000E+02  0.51100000000E-03 0. -1.
         11   -1    0    0    0    0 -0.00000000000E+00 -0.00000000000E+00 -0.45593999997E+02  0.45594000000E+02  0.51100000000E-03 0.  1.
         23    2    1    2    0    0  0.00000000000E+00  0.35527136788E-14  0.00000000000E+00  0.91188000000E+02  0.91188000000E+02 0.  0.
    9900012    2    3    3    0    0 -0.18671656029E+02 -0.27222321328E+02  0.16312423175E+02  0.54367072972E+02  0.39999974455E+02 0.  0.
        -12    1    3    3    0    0  0.18671656029E+02  0.27222321328E+02 -0.16312423175E+02  0.36820927028E+02  0.00000000000E+00 0.  1.
         11    1    4    4    0    0 -0.18913244043E+02 -0.10077500501E+02  0.90300243039E+01  0.23255282320E+02  0.51100000000E-03 0. -1.
        -11    1    4    4    0    0 -0.37978700234E+01  0.49789480896E+01 -0.22929425332E+01  0.66686825172E+01  0.51100000000E-03 0.  1.
         12    1    4    4    0    0  0.40394580372E+01 -0.22123768916E+02  0.95753414042E+01  0.24443108135E+02  0.00000000000E+00 0. -1.
</event>
<event>
 8    1  0.2390921E-006  0.9118800E+02  0.7816164E-02  0.1184000E+00
        -11   -1    0    0    0    0  0.00000000000E+00  0.00000000000E+00  0.45593999997E+02  0.45594000000E+02  0.51100000000E-03 0.  1.
         11   -1    0    0    0    0 -0.00000000000E+00 -0.00000000000E+00 -0.45593999997E+02  0.45594000000E+02  0.51100000000E-03 0. -1.
         23    2    1    2    0    0  0.00000000000E+00 -0.35527136788E-14  0.00000000000E+00  0.91188000000E+02  0.91188000000E+02 0.  0.
    9900012    2    3    3    0    0  0.23905479132E+02 -0.16699592789E+02  0.22481810306E+02  0.54367080315E+02  0.39999991194E+02 0.  0.
         12    1    3    3    0    0 -0.23905479132E+02  0.16699592789E+02 -0.22481810306E+02  0.36820919685E+02  0.00000000000E+00 0. -1.
         11    1    4    4    0    0  0.42475545014E+01 -0.61382367792E+01 -0.24325772108E+01  0.78509300180E+01  0.51100000000E-03 0. -1.
        -11    1    4    4    0    0  0.24340494362E+02  0.29990715261E+01  0.18891039389E+02  0.30956832288E+02  0.51100000000E-03 0.  1.
        -12    1    4    4    0    0 -0.46825697322E+01 -0.13560427536E+02  0.60233481278E+01  0.15559318009E+02  0.00000000000E+00 0.  1.
</event>
<event>
 8    1  0.2390921E-006  0.9118800E+02  0.7816164E-02  0.1184000E+00
        -11   -1    0    0    0    0  0.00000000000E+00  0.00000000000E+00  0.45593999997E+02  0.45594000000E+02  0.51100000000E-03 0. -1.
         11   -1    0    0    0    0 -0.00000000000E+00 -0.00000000000E+00 -0.45593999997E+02  0.45594000000E+02  0.51100000000E-03 0.  1.
         23    2    1    2    0    0  0.00000000000E+00 -0.17763568394E-14 -0.71054273576E-14  0.91188000000E+02  0.91188000000E+02 0.  0.
    9900012    2    3    3    0    0 -0.13662193046E+02  0.12307891415E+02  0.31900481868E+02  0.54367075877E+02  0.39999981076E+02 0.  0.
        -12    1    3    3    0    0  0.13662193046E+02 -0.12307891415E+02 -0.31900481868E+02  0.36820924123E+02  0.00000000000E+00 0.  1.
         11    1    4    4    0    0  0.12638354904E+01  0.15577564454E+02  0.11913618222E+02  0.19651770756E+02  0.51100000000E-03 0. -1.
        -11    1    4    4    0    0 -0.10650872938E+02 -0.60527925270E+01 -0.17615728399E+01  0.12376612252E+02  0.51100000000E-03 0.  1.
        -12    1    4    4    0    0 -0.42751555983E+01  0.27831194880E+01  0.21748436486E+02  0.22338692868E+02  0.00000000000E+00 0.  1.
</event>
<event>
 8    1  0.2390921E-006  0.9118800E+02  0.7816164E-02  0.1184000E+00
        -11   -1    0    0    0    0  0.00000000000E+00  0.00000000000E+00  0.45593999997E+02  0.45594000000E+02  0.51100000000E-03 0.  1.
         11   -1    0    0    0    0 -0.00000000000E+00 -0.00000000000E+00 -0.45593999997E+02  0.45594000000E+02  0.51100000000E-03 0. -1.
         23    2    1    2    0    0  0.17763568394E-14  0.00000000000E+00  0.35527136788E-14  0.91188000000E+02  0.91188000000E+02 0.  0.
    9900012    2    3    3    0    0  0.14765253881E+02  0.14681950699E+02 -0.30367871509E+02  0.54367081781E+02  0.39999994536E+02 0.  0.
        -12    1    3    3    0    0 -0.14765253881E+02 -0.14681950699E+02  0.30367871509E+02  0.36820918219E+02  0.00000000000E+00 0.  1.
         11    1    4    4    0    0 -0.23923110755E+01  0.98216403077E+01 -0.12444535279E+02  0.16032910814E+02  0.51100000000E-03 0. -1.
        -11    1    4    4    0    0  0.66002780897E+01  0.16562563134E+02 -0.12027518356E+02  0.21506821394E+02  0.51100000000E-03 0.  1.
        -12    1    4    4    0    0  0.10557286867E+02 -0.11702252742E+02 -0.58958178740E+01  0.16827349572E+02  0.00000000000E+00 0.  1.
</event>
<event>
 8    1  0.2390921E-006  0.9118800E+02  0.7816164E-02  0.1184000E+00
        -11   -1    0    0    0    0  0.00000000000E+00  0.00000000000E+00  0.45593999997E+02  0.45594000000E+02  0.51100000000E-03 0.  1.
         11   -1    0    0    0    0 -0.00000000000E+00 -0.00000000000E+00 -0.45593999997E+02  0.45594000000E+02  0.51100000000E-03 0. -1.
         23    2    1    2    0    0 -0.99920072216E-15  0.00000000000E+00 -0.35527136788E-14  0.91188000000E+02  0.91188000000E+02 0.  0.
    9900012    2    3    3    0    0 -0.63968084970E+00 -0.25848545391E+02  0.26214980649E+02  0.54367058936E+02  0.39999942457E+02 0.  0.
         12    1    3    3    0    0  0.63968084970E+00  0.25848545391E+02 -0.26214980649E+02  0.36820941064E+02  0.00000000000E+00 0. -1.
         11    1    4    4    0    0  0.65628298525E+01 -0.17942622413E+02 -0.17343434663E+01  0.19183753081E+02  0.51100000000E-03 0. -1.
        -11    1    4    4    0    0 -0.86389933518E+01  0.33687104265E+01  0.81093112369E+01  0.12318333697E+02  0.51100000000E-03 0.  1.
         12    1    4    4    0    0  0.14364826496E+01 -0.11274633404E+02  0.19840012878E+02  0.22864972159E+02  0.00000000000E+00 0. -1.
</event>
<event>
 8    1  0.2390921E-006  0.9118800E+02  0.7816164E-02  0.1184000E+00
        -11   -1    0    0    0    0  0.00000000000E+00  0.00000000000E+00  0.45593999997E+02  0.45594000000E+02  0.51100000000E-03 0.  1.
         11   -1    0    0    0    0 -0.00000000000E+00 -0.00000000000E+00 -0.45593999997E+02  0.45594000000E+02  0.51100000000E-03 0. -1.
         23    2    1    2    0    0  0.35527136788E-14  0.35527136788E-14 -0.35527136788E-14  0.91188000000E+02  0.91188000000E+02 0.  0.
    9900012    2    3    3    0    0 -0.17677690619E+02  0.13769386039E+02  0.29217855416E+02  0.54367084577E+02  0.40000000910E+02 0.  0.
         12    1    3    3    0    0  0.17677690619E+02 -0.13769386039E+02 -0.29217855416E+02  0.36820915423E+02  0.00000000000E+00 0. -1.
         11    1    4    4    0    0  0.33237402473E+01 -0.68091717822E+01 -0.43249688739E+01  0.87245301084E+01  0.51100000000E-03 0. -1.
        -11    1    4    4    0    0 -0.84642633639E+01  0.31048702056E+01  0.13573542958E+02  0.16294939152E+02  0.51100000000E-03 0.  1.
         12    1    4    4    0    0 -0.12537167502E+02  0.17473687615E+02  0.19969281332E+02  0.29347615317E+02  0.00000000000E+00 0. -1.
</event>
<event>
 8    1  0.2390921E-006  0.9118800E+02  0.7816164E-02  0.1184000E+00
        -11   -1    0    0    0    0  0.00000000000E+00  0.00000000000E+00  0.45593999997E+02  0.45594000000E+02  0.51100000000E-03 0. -1.
         11   -1    0    0    0    0 -0.00000000000E+00 -0.00000000000E+00 -0.45593999997E+02  0.45594000000E+02  0.51100000000E-03 0.  1.
         23    2    1    2    0    0  0.35527136788E-14  0.00000000000E+00  0.00000000000E+00  0.91188000000E+02  0.91188000000E+02 0.  0.
    9900012    2    3    3    0    0  0.20268224488E+02  0.19402621359E+02 -0.23843577919E+02  0.54367097682E+02  0.40000030786E+02 0.  0.
         12    1    3    3    0    0 -0.20268224488E+02 -0.19402621359E+02  0.23843577919E+02  0.36820902318E+02  0.00000000000E+00 0. -1.
         11    1    4    4    0    0  0.15288591673E+01 -0.80705961395E+01  0.21386639052E+00  0.82169137451E+01  0.51100000000E-03 0. -1.
        -11    1    4    4    0    0  0.18311634393E+02  0.81292524024E+01 -0.12198719040E+02  0.23456543762E+02  0.51100000000E-03 0.  1.
        -12    1    4    4    0    0  0.42773092789E+00  0.19343965096E+02 -0.11858725269E+02  0.22693640175E+02  0.00000000000E+00 0.  1.
</event>
<event>
 8    1  0.2390921E-006  0.9118800E+02  0.7816164E-02  0.1184000E+00
        -11   -1    0    0    0    0  0.00000000000E+00  0.00000000000E+00  0.45593999997E+02  0.45594000000E+02  0.51100000000E-03 0. -1.
         11   -1    0    0    0    0 -0.00000000000E+00 -0.00000000000E+00 -0.45593999997E+02  0.45594000000E+02  0.51100000000E-03 0.  1.
         23    2    1    2    0    0  0.88817841970E-15  0.00000000000E+00  0.00000000000E+00  0.91188000000E+02  0.91188000000E+02 0.  0.
    9900012    2    3    3    0    0 -0.37088632536E+01 -0.25294265535E+02  0.26499615913E+02  0.54367011703E+02  0.39999834779E+02 0.  0.
        -12    1    3    3    0    0  0.37088632536E+01  0.25294265535E+02 -0.26499615913E+02  0.36820988297E+02  0.00000000000E+00 0.  1.
         11    1    4    4    0    0  0.75809231880E+01 -0.16588147020E+02  0.15022260847E+02  0.23628485757E+02  0.51100000000E-03 0.  1.
        -11    1    4    4    0    0 -0.18301708884E+02 -0.51620188841E+01  0.12586500013E+02  0.22803924440E+02  0.51100000000E-03 0. -1.
         12    1    4    4    0    0  0.70119224426E+01 -0.35440996315E+01 -0.11091449476E+01  0.79346015056E+01  0.00000000000E+00 0. -1.
</event>
<event>
 8    1  0.2390921E-006  0.9118800E+02  0.7816164E-02  0.1184000E+00
        -11   -1    0    0    0    0  0.00000000000E+00  0.00000000000E+00  0.45593999997E+02  0.45594000000E+02  0.51100000000E-03 0.  1.
         11   -1    0    0    0    0 -0.00000000000E+00 -0.00000000000E+00 -0.45593999997E+02  0.45594000000E+02  0.51100000000E-03 0. -1.
         23    2    1    2    0    0  0.44408920985E-15 -0.35527136788E-14  0.00000000000E+00  0.91188000000E+02  0.91188000000E+02 0.  0.
    9900012    2    3    3    0    0  0.28842314142E+01 -0.23287094089E+02 -0.28375531641E+02  0.54367104603E+02  0.40000046564E+02 0.  0.
        -12    1    3    3    0    0 -0.28842314142E+01  0.23287094089E+02  0.28375531641E+02  0.36820895397E+02  0.00000000000E+00 0.  1.
         11    1    4    4    0    0 -0.93762368796E+00 -0.26320461376E+02 -0.25889205289E+02  0.36930973125E+02  0.51100000000E-03 0. -1.
        -11    1    4    4    0    0  0.67063199368E+01 -0.51588406796E+01 -0.22176652125E+01  0.87467938988E+01  0.51100000000E-03 0.  1.
        -12    1    4    4    0    0 -0.28844648346E+01  0.81922079668E+01 -0.26866113888E+00  0.86893375789E+01  0.00000000000E+00 0.  1.
</event>
<event>
 8    1  0.2390921E-006  0.9118800E+02  0.7816164E-02  0.1184000E+00
        -11   -1    0    0    0    0  0.00000000000E+00  0.00000000000E+00  0.45593999997E+02  0.45594000000E+02  0.51100000000E-03 0. -1.
         11   -1    0    0    0    0 -0.00000000000E+00 -0.00000000000E+00 -0.45593999997E+02  0.45594000000E+02  0.51100000000E-03 0.  1.
         23    2    1    2    0    0  0.14210854715E-13  0.17763568394E-14  0.35527136788E-14  0.91188000000E+02  0.91188000000E+02 0.  0.
    9900012    2    3    3    0    0  0.29624916319E+02  0.11208829665E+02  0.18775153221E+02  0.54367083284E+02  0.39999997962E+02 0.  0.
         12    1    3    3    0    0 -0.29624916319E+02 -0.11208829665E+02 -0.18775153221E+02  0.36820916716E+02  0.00000000000E+00 0. -1.
         11    1    4    4    0    0  0.14660097176E+02 -0.88221383859E+01  0.15813367660E+02  0.23298308349E+02  0.51100000000E-03 0. -1.
        -11    1    4    4    0    0 -0.28074376569E+01 -0.82094781702E+00  0.22001481637E+01  0.36600975013E+01  0.51100000000E-03 0.  1.
        -12    1    4    4    0    0  0.17772256801E+02  0.20851915868E+02  0.76163739717E+00  0.27408677434E+02  0.00000000000E+00 0.  1.
</event>
<event>
 8    1  0.2390921E-006  0.9118800E+02  0.7816164E-02  0.1184000E+00
        -11   -1    0    0    0    0  0.00000000000E+00  0.00000000000E+00  0.45593999997E+02  0.45594000000E+02  0.51100000000E-03 0.  1.
         11   -1    0    0    0    0 -0.00000000000E+00 -0.00000000000E+00 -0.45593999997E+02  0.45594000000E+02  0.51100000000E-03 0. -1.
         23    2    1    2    0    0  0.35527136788E-14  0.00000000000E+00  0.35527136788E-14  0.91188000000E+02  0.91188000000E+02 0.  0.
    9900012    2    3    3    0    0 -0.19936610615E+02  0.24145244031E+02  0.19373176926E+02  0.54367065244E+02  0.39999956836E+02 0.  0.
         12    1    3    3    0    0  0.19936610615E+02 -0.24145244031E+02 -0.19373176926E+02  0.36820934756E+02  0.00000000000E+00 0. -1.
         11    1    4    4    0    0  0.32360127775E+01  0.36150491838E+01 -0.32351610572E+01  0.58315200955E+01  0.51100000000E-03 0.  1.
        -11    1    4    4    0    0 -0.13304569486E+02  0.26177282279E+02  0.88120253414E+01  0.30658008213E+02  0.51100000000E-03 0. -1.
         12    1    4    4    0    0 -0.98680539063E+01 -0.56470874319E+01  0.13796312641E+02  0.17877536935E+02  0.00000000000E+00 0. -1.
</event>
<event>
 8    1  0.2390921E-006  0.9118800E+02  0.7816164E-02  0.1184000E+00
        -11   -1    0    0    0    0  0.00000000000E+00  0.00000000000E+00  0.45593999997E+02  0.45594000000E+02  0.51100000000E-03 0. -1.
         11   -1    0    0    0    0 -0.00000000000E+00 -0.00000000000E+00 -0.45593999997E+02  0.45594000000E+02  0.51100000000E-03 0.  1.
         23    2    1    2    0    0  0.00000000000E+00 -0.35527136788E-14  0.00000000000E+00  0.91188000000E+02  0.91188000000E+02 0.  0.
    9900012    2    3    3    0    0  0.34911226856E+02  0.93805721790E+01 -0.69993705291E+01  0.54367080908E+02  0.39999992546E+02 0.  0.
        -12    1    3    3    0    0 -0.34911226856E+02 -0.93805721790E+01  0.69993705291E+01  0.36820919092E+02  0.00000000000E+00 0.  1.
         11    1    4    4    0    0  0.21967088891E+02 -0.12336719021E+02 -0.33003369862E+00  0.25196359917E+02  0.51100000000E-03 0. -1.
        -11    1    4    4    0    0  0.31899710662E+01  0.16163947789E+02 -0.70949206208E+01  0.17938423074E+02  0.51100000000E-03 0.  1.
         12    1    4    4    0    0  0.97541668988E+01  0.55533434115E+01  0.42558379028E+00  0.11232297917E+02  0.00000000000E+00 0. -1.
</event>
<event>
 8    1  0.2390921E-006  0.9118800E+02  0.7816164E-02  0.1184000E+00
        -11   -1    0    0    0    0  0.00000000000E+00  0.00000000000E+00  0.45593999997E+02  0.45594000000E+02  0.51100000000E-03 0. -1.
         11   -1    0    0    0    0 -0.00000000000E+00 -0.00000000000E+00 -0.45593999997E+02  0.45594000000E+02  0.51100000000E-03 0.  1.
         23    2    1    2    0    0  0.71054273576E-14  0.16653345369E-14 -0.17763568394E-14  0.91188000000E+02  0.91188000000E+02 0.  0.
    9900012    2    3    3    0    0 -0.34952311550E+02  0.29412877215E+00 -0.11577140019E+02  0.54367071638E+02  0.39999971412E+02 0.  0.
         12    1    3    3    0    0  0.34952311550E+02 -0.29412877215E+00  0.11577140019E+02  0.36820928362E+02  0.00000000000E+00 0. -1.
         11    1    4    4    0    0 -0.11366707675E+01  0.24827463257E+01  0.55883711865E+01  0.62198024511E+01  0.51100000000E-03 0. -1.
        -11    1    4    4    0    0  0.16710918662E+01 -0.67887505029E+01 -0.90830610698E+01  0.11462184786E+02  0.51100000000E-03 0.  1.
        -12    1    4    4    0    0 -0.35486732649E+02  0.46001329494E+01 -0.80824501362E+01  0.36685084400E+02  0.00000000000E+00 0.  1.
</event>
<event>
 8    1  0.2390921E-006  0.9118800E+02  0.7816164E-02  0.1184000E+00
        -11   -1    0    0    0    0  0.00000000000E+00  0.00000000000E+00  0.45593999997E+02  0.45594000000E+02  0.51100000000E-03 0. -1.
         11   -1    0    0    0    0 -0.00000000000E+00 -0.00000000000E+00 -0.45593999997E+02  0.45594000000E+02  0.51100000000E-03 0.  1.
         23    2    1    2    0    0  0.00000000000E+00  0.00000000000E+00 -0.88817841970E-15  0.91188000000E+02  0.91188000000E+02 0.  0.
    9900012    2    3    3    0    0  0.20987629470E+02 -0.29248010032E+02  0.77363701768E+01  0.54367107763E+02  0.40000053767E+02 0.  0.
        -12    1    3    3    0    0 -0.20987629470E+02  0.29248010032E+02 -0.77363701768E+01  0.36820892237E+02  0.00000000000E+00 0.  1.
         11    1    4    4    0    0  0.11703574954E+02 -0.14134869086E+02 -0.13079198856E+02  0.22535164383E+02  0.51100000000E-03 0. -1.
        -11    1    4    4    0    0 -0.21309057946E+01 -0.96420102643E+01  0.37024663322E+01  0.10545965041E+02  0.51100000000E-03 0.  1.
         12    1    4    4    0    0  0.11414960310E+02 -0.54711306818E+01  0.17113102700E+02  0.21285978339E+02  0.00000000000E+00 0. -1.
</event>
<event>
 8    1  0.2390921E-006  0.9118800E+02  0.7816164E-02  0.1184000E+00
        -11   -1    0    0    0    0  0.00000000000E+00  0.00000000000E+00  0.45593999997E+02  0.45594000000E+02  0.51100000000E-03 0.  1.
         11   -1    0    0    0    0 -0.00000000000E+00 -0.00000000000E+00 -0.45593999997E+02  0.45594000000E+02  0.51100000000E-03 0. -1.
         23    2    1    2    0    0  0.00000000000E+00  0.00000000000E+00  0.17763568394E-14  0.91188000000E+02  0.91188000000E+02 0.  0.
    9900012    2    3    3    0    0  0.16106220174E+02  0.31045106127E+02  0.11513910705E+02  0.54367094492E+02  0.40000023513E+02 0.  0.
         12    1    3    3    0    0 -0.16106220174E+02 -0.31045106127E+02 -0.11513910705E+02  0.36820905508E+02  0.00000000000E+00 0. -1.
         11    1    4    4    0    0 -0.50334349030E+01  0.40348134910E+00  0.78480346553E+01  0.93321976154E+01  0.51100000000E-03 0. -1.
        -11    1    4    4    0    0  0.11787364749E+02 -0.57339998532E+00 -0.19717288106E+01  0.11964884874E+02  0.51100000000E-03 0.  1.
        -12    1    4    4    0    0  0.93522903282E+01  0.31215024763E+02  0.56376048598E+01  0.33070012003E+02  0.00000000000E+00 0.  1.
</event>
<event>
 8    1  0.2390921E-006  0.9118800E+02  0.7816164E-02  0.1184000E+00
        -11   -1    0    0    0    0  0.00000000000E+00  0.00000000000E+00  0.45593999997E+02  0.45594000000E+02  0.51100000000E-03 0.  1.
         11   -1    0    0    0    0 -0.00000000000E+00 -0.00000000000E+00 -0.45593999997E+02  0.45594000000E+02  0.51100000000E-03 0. -1.
         23    2    1    2    0    0 -0.17763568394E-14  0.00000000000E+00  0.00000000000E+00  0.91188000000E+02  0.91188000000E+02 0.  0.
    9900012    2    3    3    0    0 -0.13203013606E+02  0.16916457932E+02 -0.29921433947E+02  0.54367104755E+02  0.40000046909E+02 0.  0.
        -12    1    3    3    0    0  0.13203013606E+02 -0.16916457932E+02  0.29921433947E+02  0.36820895245E+02  0.00000000000E+00 0.  1.
         11    1    4    4    0    0  0.86636756050E+01  0.35397614609E+01 -0.20173679359E+02  0.22238851709E+02  0.51100000000E-03 0. -1.
        -11    1    4    4    0    0 -0.20625191524E+02  0.12189629232E+02 -0.13855391236E+02  0.27675936349E+02  0.51100000000E-03 0.  1.
         12    1    4    4    0    0 -0.12414976865E+01  0.11870672384E+01  0.41076366479E+01  0.44523166965E+01  0.00000000000E+00 0. -1.
</event>
<event>
 8    1  0.2390921E-006  0.9118800E+02  0.7816164E-02  0.1184000E+00
        -11   -1    0    0    0    0  0.00000000000E+00  0.00000000000E+00  0.45593999997E+02  0.45594000000E+02  0.51100000000E-03 0. -1.
         11   -1    0    0    0    0 -0.00000000000E+00 -0.00000000000E+00 -0.45593999997E+02  0.45594000000E+02  0.51100000000E-03 0.  1.
         23    2    1    2    0    0 -0.35527136788E-14  0.00000000000E+00 -0.17763568394E-14  0.91188000000E+02  0.91188000000E+02 0.  0.
    9900012    2    3    3    0    0 -0.27546742764E+02 -0.20625015697E+02  0.13098324427E+02  0.54367076434E+02  0.39999982347E+02 0.  0.
        -12    1    3    3    0    0  0.27546742764E+02  0.20625015697E+02 -0.13098324427E+02  0.36820923566E+02  0.00000000000E+00 0.  1.
         11    1    4    4    0    0 -0.16350597425E+02 -0.84874693571E+01  0.35635632829E+01  0.18763745782E+02  0.51100000000E-03 0. -1.
        -11    1    4    4    0    0 -0.10948286351E+02  0.81509357730E+01  0.63903082711E+01  0.15071123649E+02  0.51100000000E-03 0.  1.
        -12    1    4    4    0    0 -0.24785898862E+00 -0.20288482113E+02  0.31444528734E+01  0.20532207003E+02  0.00000000000E+00 0.  1.
</event>
<event>
 8    1  0.2390921E-006  0.9118800E+02  0.7816164E-02  0.1184000E+00
        -11   -1    0    0    0    0  0.00000000000E+00  0.00000000000E+00  0.45593999997E+02  0.45594000000E+02  0.51100000000E-03 0. -1.
         11   -1    0    0    0    0 -0.00000000000E+00 -0.00000000000E+00 -0.45593999997E+02  0.45594000000E+02  0.51100000000E-03 0.  1.
         23    2    1    2    0    0 -0.21094237468E-14  0.00000000000E+00  0.17763568394E-14  0.91188000000E+02  0.91188000000E+02 0.  0.
    9900012    2    3    3    0    0 -0.27098755366E+00 -0.35608531892E+02  0.93668537525E+01  0.54367096603E+02  0.40000028325E+02 0.  0.
         12    1    3    3    0    0  0.27098755366E+00  0.35608531892E+02 -0.93668537525E+01  0.36820903397E+02  0.00000000000E+00 0. -1.
         11    1    4    4    0    0 -0.10009504671E+02 -0.16784663582E+02  0.21541104609E+02  0.29084949774E+02  0.51100000000E-03 0. -1.
        -11    1    4    4    0    0  0.94844900682E+00 -0.86208006468E+01 -0.52662024057E+01  0.10146459843E+02  0.51100000000E-03 0.  1.
         12    1    4    4    0    0  0.87900681104E+01 -0.10203067663E+02 -0.69080484507E+01  0.15135686986E+02  0.00000000000E+00 0. -1.
</event>
<event>
 8    1  0.2390921E-006  0.9118800E+02  0.7816164E-02  0.1184000E+00
        -11   -1    0    0    0    0  0.00000000000E+00  0.00000000000E+00  0.45593999997E+02  0.45594000000E+02  0.51100000000E-03 0.  1.
         11   -1    0    0    0    0 -0.00000000000E+00 -0.00000000000E+00 -0.45593999997E+02  0.45594000000E+02  0.51100000000E-03 0. -1.
         23    2    1    2    0    0  0.35527136788E-14  0.00000000000E+00  0.00000000000E+00  0.91188000000E+02  0.91188000000E+02 0.  0.
    9900012    2    3    3    0    0 -0.29234193403E+02  0.37845040200E+01  0.22064001589E+02  0.54367072517E+02  0.39999973417E+02 0.  0.
         12    1    3    3    0    0  0.29234193403E+02 -0.37845040200E+01 -0.22064001589E+02  0.36820927483E+02  0.00000000000E+00 0. -1.
         11    1    4    4    0    0 -0.16219824374E+02  0.43334372182E+01  0.66821249812E+01  0.18069647904E+02  0.51100000000E-03 0.  1.
        -11    1    4    4    0    0 -0.11384566614E+02 -0.20621865597E+01 -0.71862662437E+01  0.13619963039E+02  0.51100000000E-03 0. -1.
         12    1    4    4    0    0 -0.16298024143E+01  0.15132533615E+01  0.22568142851E+02  0.22677461573E+02  0.00000000000E+00 0. -1.
</event>
<event>
 8    1  0.2390921E-006  0.9118800E+02  0.7816164E-02  0.1184000E+00
        -11   -1    0    0    0    0  0.00000000000E+00  0.00000000000E+00  0.45593999997E+02  0.45594000000E+02  0.51100000000E-03 0. -1.
         11   -1    0    0    0    0 -0.00000000000E+00 -0.00000000000E+00 -0.45593999997E+02  0.45594000000E+02  0.51100000000E-03 0.  1.
         23    2    1    2    0    0  0.44408920985E-15  0.00000000000E+00  0.00000000000E+00  0.91188000000E+02  0.91188000000E+02 0.  0.
    9900012    2    3    3    0    0 -0.36891164834E+01  0.11167299219E+02 -0.34892139535E+02  0.54367088094E+02  0.40000008927E+02 0.  0.
         12    1    3    3    0    0  0.36891164834E+01 -0.11167299219E+02  0.34892139535E+02  0.36820911906E+02  0.00000000000E+00 0. -1.
         11    1    4    4    0    0  0.10086102102E+00 -0.20346400679E+01  0.37639517994E+01  0.42798675869E+01  0.51100000000E-03 0. -1.
        -11    1    4    4    0    0  0.31816216676E+01  0.12356875563E+01 -0.35780397761E+02  0.35942822710E+02  0.51100000000E-03 0.  1.
         12    1    4    4    0    0 -0.69715991721E+01  0.11966251731E+02 -0.28756935733E+01  0.14144397797E+02  0.00000000000E+00 0. -1.
</event>
<event>
 8    1  0.2390921E-006  0.9118800E+02  0.7816164E-02  0.1184000E+00
        -11   -1    0    0    0    0  0.00000000000E+00  0.00000000000E+00  0.45593999997E+02  0.45594000000E+02  0.51100000000E-03 0. -1.
         11   -1    0    0    0    0 -0.00000000000E+00 -0.00000000000E+00 -0.45593999997E+02  0.45594000000E+02  0.51100000000E-03 0.  1.
         23    2    1    2    0    0  0.00000000000E+00  0.00000000000E+00 -0.35527136788E-14  0.91188000000E+02  0.91188000000E+02 0.  0.
    9900012    2    3    3    0    0  0.11325879162E+02  0.23676758657E+02 -0.25824665665E+02  0.54367111960E+02  0.40000063336E+02 0.  0.
         12    1    3    3    0    0 -0.11325879162E+02 -0.23676758657E+02  0.25824665665E+02  0.36820888040E+02  0.00000000000E+00 0. -1.
         11    1    4    4    0    0  0.21415713689E+02  0.30697166860E+01 -0.33889852781E+01  0.21898428592E+02  0.51100000000E-03 0. -1.
        -11    1    4    4    0    0 -0.96401226856E+01  0.15002611847E+02 -0.16554141586E+02  0.24332076187E+02  0.51100000000E-03 0.  1.
         12    1    4    4    0    0 -0.44971184155E+00  0.56044301238E+01 -0.58815388012E+01  0.81366071813E+01  0.00000000000E+00 0. -1.
</event>
<event>
 8    1  0.2390921E-006  0.9118800E+02  0.7816164E-02  0.1184000E+00
        -11   -1    0    0    0    0  0.00000000000E+00  0.00000000000E+00  0.45593999997E+02  0.45594000000E+02  0.51100000000E-03 0.  1.
         11   -1    0    0    0    0 -0.00000000000E+00 -0.00000000000E+00 -0.45593999997E+02  0.45594000000E+02  0.51100000000E-03 0. -1.
         23    2    1    2    0    0  0.14210854715E-13 -0.17763568394E-14 -0.88817841970E-15  0.91188000000E+02  0.91188000000E+02 0.  0.
    9900012    2    3    3    0    0 -0.34099493097E+02  0.13125403671E+02  0.45528003007E+01  0.54367086899E+02  0.40000006204E+02 0.  0.
         12    1    3    3    0    0  0.34099493097E+02 -0.13125403671E+02 -0.45528003007E+01  0.36820913101E+02  0.00000000000E+00 0. -1.
         11    1    4    4    0    0  0.67966524065E+01  0.71798582717E+01  0.48139533116E+01  0.10996317360E+02  0.51100000000E-03 0. -1.
        -11    1    4    4    0    0 -0.66973567404E+01 -0.38762782008E+01 -0.84903382525E+00  0.77846630431E+01  0.51100000000E-03 0.  1.
         12    1    4    4    0    0 -0.34198788763E+02  0.98218236004E+01  0.58788081440E+00  0.35586106496E+02  0.00000000000E+00 0. -1.
</event>
<event>
 8    1  0.2390921E-006  0.9118800E+02  0.7816164E-02  0.1184000E+00
        -11   -1    0    0    0    0  0.00000000000E+00  0.00000000000E+00  0.45593999997E+02  0.45594000000E+02  0.51100000000E-03 0. -1.
         11   -1    0    0    0    0 -0.00000000000E+00 -0.00000000000E+00 -0.45593999997E+02  0.45594000000E+02  0.51100000000E-03 0.  1.
         23    2    1    2    0    0  0.00000000000E+00  0.00000000000E+00 -0.17763568394E-14  0.91188000000E+02  0.91188000000E+02 0.  0.
    9900012    2    3    3    0    0 -0.33076299847E+02 -0.34288463121E+01  0.15810956097E+02  0.54367015069E+02  0.39999842452E+02 0.  0.
        -12    1    3    3    0    0  0.33076299847E+02  0.34288463121E+01 -0.15810956097E+02  0.36820984931E+02  0.00000000000E+00 0.  1.
         11    1    4    4    0    0  0.12590041404E+01  0.12976018010E+01 -0.40307645401E+01  0.44176832048E+01  0.51100000000E-03 0. -1.
        -11    1    4    4    0    0 -0.32356807845E+02 -0.14588873716E+02  0.17711550360E+02  0.39667332487E+02  0.51100000000E-03 0.  1.
        -12    1    4    4    0    0 -0.19784961419E+01  0.98624256034E+01  0.21301702776E+01  0.10281999376E+02  0.00000000000E+00 0.  1.
</event>
<event>
 8    1  0.2390921E-006  0.9118800E+02  0.7816164E-02  0.1184000E+00
        -11   -1    0    0    0    0  0.00000000000E+00  0.00000000000E+00  0.45593999997E+02  0.45594000000E+02  0.51100000000E-03 0. -1.
         11   -1    0    0    0    0 -0.00000000000E+00 -0.00000000000E+00 -0.45593999997E+02  0.45594000000E+02  0.51100000000E-03 0.  1.
         23    2    1    2    0    0  0.00000000000E+00  0.17763568394E-14  0.35527136788E-14  0.91188000000E+02  0.91188000000E+02 0.  0.
    9900012    2    3    3    0    0 -0.18877327980E+02 -0.12126210808E+02  0.29195633826E+02  0.54367034033E+02  0.39999885686E+02 0.  0.
        -12    1    3    3    0    0  0.18877327980E+02  0.12126210808E+02 -0.29195633826E+02  0.36820965967E+02  0.00000000000E+00 0.  1.
         11    1    4    4    0    0 -0.20371624894E+02  0.35971432753E+01  0.12083923594E+02  0.23957540572E+02  0.51100000000E-03 0. -1.
        -11    1    4    4    0    0  0.12967466999E+01 -0.13402417968E+02  0.33222692621E+00  0.13469102954E+02  0.51100000000E-03 0.  1.
         12    1    4    4    0    0  0.19755021416E+00 -0.23209361145E+01  0.16779483306E+02  0.16940390507E+02  0.00000000000E+00 0. -1.
</event>
<event>
 8    1  0.2390921E-006  0.9118800E+02  0.7816164E-02  0.1184000E+00
        -11   -1    0    0    0    0  0.00000000000E+00  0.00000000000E+00  0.45593999997E+02  0.45594000000E+02  0.51100000000E-03 0.  1.
         11   -1    0    0    0    0 -0.00000000000E+00 -0.00000000000E+00 -0.45593999997E+02  0.45594000000E+02  0.51100000000E-03 0. -1.
         23    2    1    2    0    0 -0.35527136788E-14  0.00000000000E+00 -0.35527136788E-14  0.91188000000E+02  0.91188000000E+02 0.  0.
    9900012    2    3    3    0    0  0.28989697670E+02  0.94340664238E+01  0.20648695916E+02  0.54367179486E+02  0.40000217274E+02 0.  0.
         12    1    3    3    0    0 -0.28989697670E+02 -0.94340664238E+01 -0.20648695916E+02  0.36820820514E+02  0.00000000000E+00 0. -1.
         11    1    4    4    0    0  0.37273948788E+01  0.88624673016E+01 -0.25832986311E+01  0.99554121629E+01  0.51100000000E-03 0. -1.
        -11    1    4    4    0    0  0.91050032635E+01 -0.28521918239E+00 -0.60649872887E+01  0.10943788443E+02  0.51100000000E-03 0.  1.
        -12    1    4    4    0    0  0.16157299528E+02  0.85681830452E+00  0.29296981836E+02  0.33467978880E+02  0.00000000000E+00 0.  1.
</event>
<event>
 8    1  0.2390921E-006  0.9118800E+02  0.7816164E-02  0.1184000E+00
        -11   -1    0    0    0    0  0.00000000000E+00  0.00000000000E+00  0.45593999997E+02  0.45594000000E+02  0.51100000000E-03 0. -1.
         11   -1    0    0    0    0 -0.00000000000E+00 -0.00000000000E+00 -0.45593999997E+02  0.45594000000E+02  0.51100000000E-03 0.  1.
         23    2    1    2    0    0 -0.17763568394E-14  0.44408920985E-15 -0.71054273576E-14  0.91188000000E+02  0.91188000000E+02 0.  0.
    9900012    2    3    3    0    0 -0.10830149609E+02 -0.33221124524E+01 -0.35035005423E+02  0.54367079632E+02  0.39999989638E+02 0.  0.
         12    1    3    3    0    0  0.10830149609E+02  0.33221124524E+01  0.35035005423E+02  0.36820920368E+02  0.00000000000E+00 0. -1.
         11    1    4    4    0    0  0.20947606840E+01 -0.99784007517E+01 -0.16405019741E+01  0.10327039792E+02  0.51100000000E-03 0. -1.
        -11    1    4    4    0    0  0.27037081165E+01 -0.25187835369E+01  0.20539310984E+01  0.42276401577E+01  0.51100000000E-03 0.  1.
        -12    1    4    4    0    0 -0.15628618409E+02  0.91750718362E+01 -0.35448434548E+02  0.39812399682E+02  0.00000000000E+00 0.  1.
</event>
<event>
 8    1  0.2390921E-006  0.9118800E+02  0.7816164E-02  0.1184000E+00
        -11   -1    0    0    0    0  0.00000000000E+00  0.00000000000E+00  0.45593999997E+02  0.45594000000E+02  0.51100000000E-03 0.  1.
         11   -1    0    0    0    0 -0.00000000000E+00 -0.00000000000E+00 -0.45593999997E+02  0.45594000000E+02  0.51100000000E-03 0. -1.
         23    2    1    2    0    0 -0.17763568394E-14 -0.35527136788E-14  0.00000000000E+00  0.91188000000E+02  0.91188000000E+02 0.  0.
    9900012    2    3    3    0    0 -0.55743679391E+01 -0.29072643539E+02 -0.21897196607E+02  0.54367090186E+02  0.40000013698E+02 0.  0.
        -12    1    3    3    0    0  0.55743679391E+01  0.29072643539E+02  0.21897196607E+02  0.36820909814E+02  0.00000000000E+00 0.  1.
         11    1    4    4    0    0 -0.94768163948E+01 -0.11150874157E+02 -0.17988707084E+02  0.23189342946E+02  0.51100000000E-03 0. -1.
        -11    1    4    4    0    0 -0.67479966146E+01 -0.35225889742E+01 -0.97222903562E+01  0.12347753700E+02  0.51100000000E-03 0.  1.
        -12    1    4    4    0    0  0.10650445070E+02 -0.14399180408E+02  0.58138008335E+01  0.18829993541E+02  0.00000000000E+00 0.  1.
</event>
<event>
 8    1  0.2390921E-006  0.9118800E+02  0.7816164E-02  0.1184000E+00
        -11   -1    0    0    0    0  0.00000000000E+00  0.00000000000E+00  0.45593999997E+02  0.45594000000E+02  0.51100000000E-03 0.  1.
         11   -1    0    0    0    0 -0.00000000000E+00 -0.00000000000E+00 -0.45593999997E+02  0.45594000000E+02  0.51100000000E-03 0. -1.
         23    2    1    2    0    0  0.00000000000E+00  0.71054273576E-14  0.00000000000E+00  0.91188000000E+02  0.91188000000E+02 0.  0.
    9900012    2    3    3    0    0 -0.87757477143E+01  0.25361847048E+02  0.25209986305E+02  0.54367076015E+02  0.39999981391E+02 0.  0.
         12    1    3    3    0    0  0.87757477143E+01 -0.25361847048E+02 -0.25209986305E+02  0.36820923985E+02  0.00000000000E+00 0. -1.
         11    1    4    4    0    0  0.43719235342E-01 -0.45944107476E+01 -0.58966312655E+01  0.74753449440E+01  0.51100000000E-03 0. -1.
        -11    1    4    4    0    0 -0.57155000510E+01  0.14833044332E+02  0.26284982144E+02  0.30717852001E+02  0.51100000000E-03 0.  1.
         12    1    4    4    0    0 -0.31039668986E+01  0.15123213463E+02  0.48216354261E+01  0.16173879069E+02  0.00000000000E+00 0. -1.
</event>
<event>
 8    1  0.2390921E-006  0.9118800E+02  0.7816164E-02  0.1184000E+00
        -11   -1    0    0    0    0  0.00000000000E+00  0.00000000000E+00  0.45593999997E+02  0.45594000000E+02  0.51100000000E-03 0.  1.
         11   -1    0    0    0    0 -0.00000000000E+00 -0.00000000000E+00 -0.45593999997E+02  0.45594000000E+02  0.51100000000E-03 0. -1.
         23    2    1    2    0    0  0.00000000000E+00  0.00000000000E+00  0.00000000000E+00  0.91188000000E+02  0.91188000000E+02 0.  0.
    9900012    2    3    3    0    0  0.43257731637E+01  0.17746703485E+02 -0.31970631748E+02  0.54367094356E+02  0.40000023204E+02 0.  0.
        -12    1    3    3    0    0 -0.43257731637E+01 -0.17746703485E+02  0.31970631748E+02  0.36820905644E+02  0.00000000000E+00 0.  1.
         11    1    4    4    0    0  0.27811629704E+01 -0.10759880487E+02 -0.18743407078E+02  0.21790484270E+02  0.51100000000E-03 0. -1.
        -11    1    4    4    0    0 -0.33072606029E-01  0.48922004687E+01  0.95634866599E+00  0.49849094531E+01  0.51100000000E-03 0.  1.
        -12    1    4    4    0    0  0.15776827992E+01  0.23614383503E+02 -0.14183573336E+02  0.27591700633E+02  0.00000000000E+00 0.  1.
</event>
<event>
 8    1  0.2390921E-006  0.9118800E+02  0.7816164E-02  0.1184000E+00
        -11   -1    0    0    0    0  0.00000000000E+00  0.00000000000E+00  0.45593999997E+02  0.45594000000E+02  0.51100000000E-03 0. -1.
         11   -1    0    0    0    0 -0.00000000000E+00 -0.00000000000E+00 -0.45593999997E+02  0.45594000000E+02  0.51100000000E-03 0.  1.
         23    2    1    2    0    0  0.00000000000E+00  0.00000000000E+00  0.00000000000E+00  0.91188000000E+02  0.91188000000E+02 0.  0.
    9900012    2    3    3    0    0 -0.72173274143E+01 -0.34590563187E+02 -0.10352883142E+02  0.54367094716E+02  0.40000024024E+02 0.  0.
         12    1    3    3    0    0  0.72173274143E+01  0.34590563187E+02  0.10352883142E+02  0.36820905284E+02  0.00000000000E+00 0. -1.
         11    1    4    4    0    0 -0.87651619297E+00  0.11017457936E+01  0.49171980113E+01  0.51147786828E+01  0.51100000000E-03 0. -1.
        -11    1    4    4    0    0 -0.12699602140E+02 -0.22428567474E+02 -0.21219532976E+02  0.33385462606E+02  0.51100000000E-03 0.  1.
         12    1    4    4    0    0  0.63587909185E+01 -0.13263741507E+02  0.59494518220E+01  0.15866853427E+02  0.00000000000E+00 0. -1.
</event>
<event>
 8    1  0.2390921E-006  0.9118800E+02  0.7816164E-02  0.1184000E+00
        -11   -1    0    0    0    0  0.00000000000E+00  0.00000000000E+00  0.45593999997E+02  0.45594000000E+02  0.51100000000E-03 0.  1.
         11   -1    0    0    0    0 -0.00000000000E+00 -0.00000000000E+00 -0.45593999997E+02  0.45594000000E+02  0.51100000000E-03 0. -1.
         23    2    1    2    0    0  0.35527136788E-14  0.00000000000E+00  0.00000000000E+00  0.91188000000E+02  0.91188000000E+02 0.  0.
    9900012    2    3    3    0    0 -0.28783149580E+02  0.12289320262E+02 -0.19398009291E+02  0.54367083978E+02  0.39999999546E+02 0.  0.
        -12    1    3    3    0    0  0.28783149580E+02 -0.12289320262E+02  0.19398009291E+02  0.36820916022E+02  0.00000000000E+00 0.  1.
         11    1    4    4    0    0 -0.13096483904E+02  0.55955093470E+01  0.29489842207E-01  0.14241786595E+02  0.51100000000E-03 0. -1.
        -11    1    4    4    0    0 -0.13653192394E+02 -0.46897310878E+01  0.31344603817E+01  0.14772544885E+02  0.51100000000E-03 0.  1.
         12    1    4    4    0    0 -0.20334732812E+01  0.11383542003E+02 -0.22561959515E+02  0.25352752499E+02  0.00000000000E+00 0. -1.
</event>
<event>
 8    1  0.2390921E-006  0.9118800E+02  0.7816164E-02  0.1184000E+00
        -11   -1    0    0    0    0  0.00000000000E+00  0.00000000000E+00  0.45593999997E+02  0.45594000000E+02  0.51100000000E-03 0. -1.
         11   -1    0    0    0    0 -0.00000000000E+00 -0.00000000000E+00 -0.45593999997E+02  0.45594000000E+02  0.51100000000E-03 0.  1.
         23    2    1    2    0    0 -0.35527136788E-14  0.00000000000E+00  0.00000000000E+00  0.91188000000E+02  0.91188000000E+02 0.  0.
    9900012    2    3    3    0    0 -0.26316861071E+02 -0.22360784782E+02 -0.12774883362E+02  0.54367088583E+02  0.40000010042E+02 0.  0.
        -12    1    3    3    0    0  0.26316861071E+02  0.22360784782E+02  0.12774883362E+02  0.36820911417E+02  0.00000000000E+00 0.  1.
         11    1    4    4    0    0  0.68587522572E+00 -0.14643996591E+02 -0.53830587283E+01  0.15617118253E+02  0.51100000000E-03 0. -1.
        -11    1    4    4    0    0  0.25909783620E+00  0.24850684878E+01  0.61557943444E+01  0.66435307894E+01  0.51100000000E-03 0.  1.
         12    1    4    4    0    0 -0.27261834133E+02 -0.10201856679E+02 -0.13547618978E+02  0.32106439541E+02  0.00000000000E+00 0. -1.
</event>
<event>
 8    1  0.2390921E-006  0.9118800E+02  0.7816164E-02  0.1184000E+00
        -11   -1    0    0    0    0  0.00000000000E+00  0.00000000000E+00  0.45593999997E+02  0.45594000000E+02  0.51100000000E-03 0. -1.
         11   -1    0    0    0    0 -0.00000000000E+00 -0.00000000000E+00 -0.45593999997E+02  0.45594000000E+02  0.51100000000E-03 0.  1.
         23    2    1    2    0    0  0.00000000000E+00  0.00000000000E+00  0.35527136788E-14  0.91188000000E+02  0.91188000000E+02 0.  0.
    9900012    2    3    3    0    0  0.40309205213E+01  0.33546260875E+02  0.14634892389E+02  0.54367081839E+02  0.39999994669E+02 0.  0.
         12    1    3    3    0    0 -0.40309205213E+01 -0.33546260875E+02 -0.14634892389E+02  0.36820918161E+02  0.00000000000E+00 0. -1.
         11    1    4    4    0    0 -0.78925492792E+01  0.72676371859E+01  0.11582283796E+02  0.15787975886E+02  0.51100000000E-03 0. -1.
        -11    1    4    4    0    0  0.50529127473E+00  0.22364252718E+02 -0.63779192202E+01  0.23261405219E+02  0.51100000000E-03 0.  1.
        -12    1    4    4    0    0  0.11418178526E+02  0.39143709712E+01  0.94305278140E+01  0.15317700735E+02  0.00000000000E+00 0.  1.
</event>
<event>
 8    1  0.2390921E-006  0.9118800E+02  0.7816164E-02  0.1184000E+00
        -11   -1    0    0    0    0  0.00000000000E+00  0.00000000000E+00  0.45593999997E+02  0.45594000000E+02  0.51100000000E-03 0.  1.
         11   -1    0    0    0    0 -0.00000000000E+00 -0.00000000000E+00 -0.45593999997E+02  0.45594000000E+02  0.51100000000E-03 0. -1.
         23    2    1    2    0    0  0.00000000000E+00  0.88817841970E-15  0.00000000000E+00  0.91188000000E+02  0.91188000000E+02 0.  0.
    9900012    2    3    3    0    0  0.65782180842E+01  0.60885589758E+01  0.35713290077E+02  0.54367046839E+02  0.39999914879E+02 0.  0.
         12    1    3    3    0    0 -0.65782180842E+01 -0.60885589758E+01 -0.35713290077E+02  0.36820953161E+02  0.00000000000E+00 0. -1.
         11    1    4    4    0    0  0.39191139930E+01 -0.77733975609E+01  0.19888295423E+02  0.21710123427E+02  0.51100000000E-03 0. -1.
        -11    1    4    4    0    0 -0.88188377292E+01  0.50930416361E+01  0.15075907820E+02  0.18193239647E+02  0.51100000000E-03 0.  1.
         12    1    4    4    0    0  0.11477941820E+02  0.87689149005E+01  0.74908683372E+00  0.14463683765E+02  0.00000000000E+00 0. -1.
</event>
<event>
 8    1  0.2390921E-006  0.9118800E+02  0.7816164E-02  0.1184000E+00
        -11   -1    0    0    0    0  0.00000000000E+00  0.00000000000E+00  0.45593999997E+02  0.45594000000E+02  0.51100000000E-03 0.  1.
         11   -1    0    0    0    0 -0.00000000000E+00 -0.00000000000E+00 -0.45593999997E+02  0.45594000000E+02  0.51100000000E-03 0. -1.
         23    2    1    2    0    0  0.00000000000E+00  0.71054273576E-14  0.00000000000E+00  0.91188000000E+02  0.91188000000E+02 0.  0.
    9900012    2    3    3    0    0  0.10392786618E+02 -0.29546404513E+02  0.19359251868E+02  0.54367072985E+02  0.39999974483E+02 0.  0.
        -12    1    3    3    0    0 -0.10392786618E+02  0.29546404513E+02 -0.19359251868E+02  0.36820927015E+02  0.00000000000E+00 0.  1.
         11    1    4    4    0    0 -0.56037345248E+01 -0.27275978892E+02  0.58863712691E+01  0.28461030061E+02  0.51100000000E-03 0. -1.
        -11    1    4    4    0    0  0.19774211021E+01  0.26260265934E+01  0.10177464713E+02  0.10695185745E+02  0.51100000000E-03 0.  1.
        -12    1    4    4    0    0  0.14019100041E+02 -0.48964522150E+01  0.32954158865E+01  0.15210857179E+02  0.00000000000E+00 0.  1.
</event>
<event>
 8    1  0.2390921E-006  0.9118800E+02  0.7816164E-02  0.1184000E+00
        -11   -1    0    0    0    0  0.00000000000E+00  0.00000000000E+00  0.45593999997E+02  0.45594000000E+02  0.51100000000E-03 0.  1.
         11   -1    0    0    0    0 -0.00000000000E+00 -0.00000000000E+00 -0.45593999997E+02  0.45594000000E+02  0.51100000000E-03 0. -1.
         23    2    1    2    0    0  0.00000000000E+00  0.00000000000E+00  0.88817841970E-15  0.91188000000E+02  0.91188000000E+02 0.  0.
    9900012    2    3    3    0    0 -0.32327524360E+02 -0.16848034997E+02  0.51809616995E+01  0.54367252063E+02  0.40000382727E+02 0.  0.
         12    1    3    3    0    0  0.32327524360E+02  0.16848034997E+02 -0.51809616995E+01  0.36820747937E+02  0.00000000000E+00 0. -1.
         11    1    4    4    0    0 -0.15048401658E+00 -0.11363444295E+02  0.11789352713E+02  0.16374961048E+02  0.51100000000E-03 0. -1.
        -11    1    4    4    0    0 -0.27721426363E+02 -0.35369666142E+01  0.20929184698E+01  0.28024416505E+02  0.51100000000E-03 0.  1.
        -12    1    4    4    0    0 -0.44556139801E+01 -0.19476240879E+01 -0.87013094836E+01  0.99678745105E+01  0.00000000000E+00 0.  1.
</event>
<event>
 8    1  0.2390921E-006  0.9118800E+02  0.7816164E-02  0.1184000E+00
        -11   -1    0    0    0    0  0.00000000000E+00  0.00000000000E+00  0.45593999997E+02  0.45594000000E+02  0.51100000000E-03 0. -1.
         11   -1    0    0    0    0 -0.00000000000E+00 -0.00000000000E+00 -0.45593999997E+02  0.45594000000E+02  0.51100000000E-03 0.  1.
         23    2    1    2    0    0  0.00000000000E+00  0.00000000000E+00  0.00000000000E+00  0.91188000000E+02  0.91188000000E+02 0.  0.
    9900012    2    3    3    0    0  0.12431247390E+02 -0.55645537561E+01  0.34209337446E+02  0.54367096444E+02  0.40000027964E+02 0.  0.
        -12    1    3    3    0    0 -0.12431247390E+02  0.55645537561E+01 -0.34209337446E+02  0.36820903556E+02  0.00000000000E+00 0.  1.
         11    1    4    4    0    0  0.60258131893E+01 -0.34948884946E+01 -0.29520422980E+01  0.75656608549E+01  0.51100000000E-03 0.  1.
        -11    1    4    4    0    0  0.24116086801E+01 -0.10273716375E+02  0.36105377858E+02  0.37615999457E+02  0.51100000000E-03 0. -1.
         12    1    4    4    0    0  0.39938255207E+01  0.82040511136E+01  0.10560018856E+01  0.91854361326E+01  0.00000000000E+00 0. -1.
</event>
<event>
 8    1  0.2390921E-006  0.9118800E+02  0.7816164E-02  0.1184000E+00
        -11   -1    0    0    0    0  0.00000000000E+00  0.00000000000E+00  0.45593999997E+02  0.45594000000E+02  0.51100000000E-03 0.  1.
         11   -1    0    0    0    0 -0.00000000000E+00 -0.00000000000E+00 -0.45593999997E+02  0.45594000000E+02  0.51100000000E-03 0. -1.
         23    2    1    2    0    0  0.00000000000E+00  0.35527136788E-14  0.00000000000E+00  0.91188000000E+02  0.91188000000E+02 0.  0.
    9900012    2    3    3    0    0 -0.19442537326E+02 -0.29793052051E+02  0.94942957415E+01  0.54367083936E+02  0.39999999448E+02 0.  0.
         12    1    3    3    0    0  0.19442537326E+02  0.29793052051E+02 -0.94942957415E+01  0.36820916064E+02  0.00000000000E+00 0. -1.
         11    1    4    4    0    0 -0.10430968378E+02 -0.16404533823E+02 -0.31457417415E+01  0.19692879998E+02  0.51100000000E-03 0. -1.
        -11    1    4    4    0    0  0.50802765029E+00  0.83841885759E+01  0.19797742456E+01  0.86297286454E+01  0.51100000000E-03 0.  1.
        -12    1    4    4    0    0 -0.95195965980E+01 -0.21772706804E+02  0.10660263237E+02  0.26044475293E+02  0.00000000000E+00 0.  1.
</event>
<event>
 8    1  0.2390921E-006  0.9118800E+02  0.7816164E-02  0.1184000E+00
        -11   -1    0    0    0    0  0.00000000000E+00  0.00000000000E+00  0.45593999997E+02  0.45594000000E+02  0.51100000000E-03 0.  1.
         11   -1    0    0    0    0 -0.00000000000E+00 -0.00000000000E+00 -0.45593999997E+02  0.45594000000E+02  0.51100000000E-03 0. -1.
         23    2    1    2    0    0  0.00000000000E+00 -0.35527136788E-14  0.17763568394E-14  0.91188000000E+02  0.91188000000E+02 0.  0.
    9900012    2    3    3    0    0  0.31891336051E+02  0.17116523852E+02 -0.67636240187E+01  0.54367091351E+02  0.40000016352E+02 0.  0.
        -12    1    3    3    0    0 -0.31891336051E+02 -0.17116523852E+02  0.67636240187E+01  0.36820908649E+02  0.00000000000E+00 0.  1.
         11    1    4    4    0    0  0.26679319724E+02  0.73551422126E+01 -0.20673415486E+02  0.34543803004E+02  0.51100000000E-03 0. -1.
        -11    1    4    4    0    0  0.47461584921E+01  0.38015785499E+01  0.18384003486E+01  0.63527738828E+01  0.51100000000E-03 0.  1.
        -12    1    4    4    0    0  0.46585783539E+00  0.59598030891E+01  0.12071391119E+02  0.13470514464E+02  0.00000000000E+00 0.  1.
</event>
<event>
 8    1  0.2390921E-006  0.9118800E+02  0.7816164E-02  0.1184000E+00
        -11   -1    0    0    0    0  0.00000000000E+00  0.00000000000E+00  0.45593999997E+02  0.45594000000E+02  0.51100000000E-03 0. -1.
         11   -1    0    0    0    0 -0.00000000000E+00 -0.00000000000E+00 -0.45593999997E+02  0.45594000000E+02  0.51100000000E-03 0.  1.
         23    2    1    2    0    0  0.17763568394E-14  0.00000000000E+00  0.00000000000E+00  0.91188000000E+02  0.91188000000E+02 0.  0.
    9900012    2    3    3    0    0 -0.13954562306E+02 -0.23289900392E+02  0.24872272877E+02  0.54367092522E+02  0.40000019023E+02 0.  0.
        -12    1    3    3    0    0  0.13954562306E+02  0.23289900392E+02 -0.24872272877E+02  0.36820907478E+02  0.00000000000E+00 0.  1.
         11    1    4    4    0    0  0.53836307339E+00 -0.10023708316E+02  0.94155378370E+01  0.13762881829E+02  0.51100000000E-03 0. -1.
        -11    1    4    4    0    0  0.24980214878E+00 -0.13674059916E+02  0.20820679059E+02  0.24910700360E+02  0.51100000000E-03 0.  1.
         12    1    4    4    0    0 -0.14742727528E+02  0.40786783986E+00 -0.53639440193E+01  0.15693510333E+02  0.00000000000E+00 0. -1.
</event>
<event>
 8    1  0.2390921E-006  0.9118800E+02  0.7816164E-02  0.1184000E+00
        -11   -1    0    0    0    0  0.00000000000E+00  0.00000000000E+00  0.45593999997E+02  0.45594000000E+02  0.51100000000E-03 0.  1.
         11   -1    0    0    0    0 -0.00000000000E+00 -0.00000000000E+00 -0.45593999997E+02  0.45594000000E+02  0.51100000000E-03 0. -1.
         23    2    1    2    0    0  0.35527136788E-14  0.00000000000E+00  0.00000000000E+00  0.91188000000E+02  0.91188000000E+02 0.  0.
    9900012    2    3    3    0    0  0.19832584672E+02 -0.14006909167E+02  0.27681303877E+02  0.54367088773E+02  0.40000010477E+02 0.  0.
         12    1    3    3    0    0 -0.19832584672E+02  0.14006909167E+02 -0.27681303877E+02  0.36820911227E+02  0.00000000000E+00 0. -1.
         11    1    4    4    0    0  0.91136916278E+00 -0.15886673422E+01 -0.63940019953E+01  0.66511442212E+01  0.51100000000E-03 0. -1.
        -11    1    4    4    0    0  0.50414920664E+01 -0.12015904315E+02  0.30809060433E+02  0.33451409593E+02  0.51100000000E-03 0.  1.
        -12    1    4    4    0    0  0.13879723443E+02 -0.40233751015E+00  0.32662454399E+01  0.14264534959E+02  0.00000000000E+00 0.  1.
</event>
<event>
 8    1  0.2390921E-006  0.9118800E+02  0.7816164E-02  0.1184000E+00
        -11   -1    0    0    0    0  0.00000000000E+00  0.00000000000E+00  0.45593999997E+02  0.45594000000E+02  0.51100000000E-03 0.  1.
         11   -1    0    0    0    0 -0.00000000000E+00 -0.00000000000E+00 -0.45593999997E+02  0.45594000000E+02  0.51100000000E-03 0. -1.
         23    2    1    2    0    0 -0.22204460493E-15  0.00000000000E+00  0.00000000000E+00  0.91188000000E+02  0.91188000000E+02 0.  0.
    9900012    2    3    3    0    0  0.74054749282E+00 -0.34205617568E+02 -0.13609098676E+02  0.54367078630E+02  0.39999987353E+02 0.  0.
        -12    1    3    3    0    0 -0.74054749282E+00  0.34205617568E+02  0.13609098676E+02  0.36820921370E+02  0.00000000000E+00 0.  1.
         11    1    4    4    0    0 -0.69768556549E+01 -0.10267577665E+02 -0.54085226250E+01  0.13540745296E+02  0.51100000000E-03 0. -1.
        -11    1    4    4    0    0  0.12426198068E+02 -0.29385942858E+02 -0.99411100870E+01  0.33418104466E+02  0.51100000000E-03 0.  1.
        -12    1    4    4    0    0 -0.47087949202E+01  0.54479029557E+01  0.17405340363E+01  0.74082288671E+01  0.00000000000E+00 0.  1.
</event>
<event>
 8    1  0.2390921E-006  0.9118800E+02  0.7816164E-02  0.1184000E+00
        -11   -1    0    0    0    0  0.00000000000E+00  0.00000000000E+00  0.45593999997E+02  0.45594000000E+02  0.51100000000E-03 0. -1.
         11   -1    0    0    0    0 -0.00000000000E+00 -0.00000000000E+00 -0.45593999997E+02  0.45594000000E+02  0.51100000000E-03 0.  1.
         23    2    1    2    0    0  0.00000000000E+00  0.17763568394E-14  0.17763568394E-14  0.91188000000E+02  0.91188000000E+02 0.  0.
    9900012    2    3    3    0    0 -0.33352288388E+02  0.12241634836E+02 -0.96718074018E+01  0.54367127895E+02  0.40000099662E+02 0.  0.
        -12    1    3    3    0    0  0.33352288388E+02 -0.12241634836E+02  0.96718074018E+01  0.36820872105E+02  0.00000000000E+00 0.  1.
         11    1    4    4    0    0 -0.19211244710E+02 -0.59809714711E+01  0.53846415795E+01  0.20828785568E+02  0.51100000000E-03 0. -1.
        -11    1    4    4    0    0 -0.18447338549E+01  0.29958966190E+01  0.46056817003E+01  0.57957522146E+01  0.51100000000E-03 0.  1.
         12    1    4    4    0    0 -0.12296309823E+02  0.15226709688E+02 -0.19662130682E+02  0.27742590112E+02  0.00000000000E+00 0. -1.
</event>
<event>
 8    1  0.2390921E-006  0.9118800E+02  0.7816164E-02  0.1184000E+00
        -11   -1    0    0    0    0  0.00000000000E+00  0.00000000000E+00  0.45593999997E+02  0.45594000000E+02  0.51100000000E-03 0.  1.
         11   -1    0    0    0    0 -0.00000000000E+00 -0.00000000000E+00 -0.45593999997E+02  0.45594000000E+02  0.51100000000E-03 0. -1.
         23    2    1    2    0    0  0.00000000000E+00 -0.44408920985E-15  0.17763568394E-14  0.91188000000E+02  0.91188000000E+02 0.  0.
    9900012    2    3    3    0    0 -0.34539286430E+02  0.29178209794E+01 -0.12421912748E+02  0.54367083353E+02  0.39999998121E+02 0.  0.
         12    1    3    3    0    0  0.34539286430E+02 -0.29178209794E+01  0.12421912748E+02  0.36820916647E+02  0.00000000000E+00 0. -1.
         11    1    4    4    0    0 -0.90151497749E+01  0.31564696648E+01 -0.19895883387E+02  0.22069943412E+02  0.51100000000E-03 0. -1.
        -11    1    4    4    0    0 -0.53754878260E+00 -0.56880278173E+01  0.23403308256E+00  0.57181632443E+01  0.51100000000E-03 0.  1.
         12    1    4    4    0    0 -0.24986587873E+02  0.54493791319E+01  0.72399375559E+01  0.26578976697E+02  0.00000000000E+00 0. -1.
</event>
<event>
 8    1  0.2390921E-006  0.9118800E+02  0.7816164E-02  0.1184000E+00
        -11   -1    0    0    0    0  0.00000000000E+00  0.00000000000E+00  0.45593999997E+02  0.45594000000E+02  0.51100000000E-03 0. -1.
         11   -1    0    0    0    0 -0.00000000000E+00 -0.00000000000E+00 -0.45593999997E+02  0.45594000000E+02  0.51100000000E-03 0.  1.
         23    2    1    2    0    0  0.00000000000E+00  0.88817841970E-15 -0.17763568394E-14  0.91188000000E+02  0.91188000000E+02 0.  0.
    9900012    2    3    3    0    0  0.34754181450E+02  0.64486935119E+01 -0.10312111333E+02  0.54367103536E+02  0.40000044131E+02 0.  0.
        -12    1    3    3    0    0 -0.34754181450E+02 -0.64486935119E+01  0.10312111333E+02  0.36820896464E+02  0.00000000000E+00 0.  1.
         11    1    4    4    0    0 -0.30059026427E+01  0.69227165669E+01 -0.11167025484E+02  0.13478201430E+02  0.51100000000E-03 0. -1.
        -11    1    4    4    0    0  0.11328100733E+02  0.70863631642E+01  0.96395612035E+00  0.13396701862E+02  0.51100000000E-03 0.  1.
        -12    1    4    4    0    0  0.26431983360E+02 -0.75603862193E+01 -0.10904196953E+00  0.27492200244E+02  0.00000000000E+00 0.  1.
</event>
<event>
 8    1  0.2390921E-006  0.9118800E+02  0.7816164E-02  0.1184000E+00
        -11   -1    0    0    0    0  0.00000000000E+00  0.00000000000E+00  0.45593999997E+02  0.45594000000E+02  0.51100000000E-03 0. -1.
         11   -1    0    0    0    0 -0.00000000000E+00 -0.00000000000E+00 -0.45593999997E+02  0.45594000000E+02  0.51100000000E-03 0.  1.
         23    2    1    2    0    0  0.00000000000E+00  0.00000000000E+00 -0.35527136788E-14  0.91188000000E+02  0.91188000000E+02 0.  0.
    9900012    2    3    3    0    0 -0.17700772229E+02 -0.18413784422E+02 -0.26521558569E+02  0.54367111049E+02  0.40000061258E+02 0.  0.
         12    1    3    3    0    0  0.17700772229E+02  0.18413784422E+02  0.26521558569E+02  0.36820888951E+02  0.00000000000E+00 0. -1.
         11    1    4    4    0    0 -0.18913920095E+02 -0.23645505586E+02 -0.12604391207E+02  0.32798124729E+02  0.51100000000E-03 0. -1.
        -11    1    4    4    0    0  0.53839251432E+01  0.37446695503E+01  0.41218956238E+00  0.65710806177E+01  0.51100000000E-03 0.  1.
        -12    1    4    4    0    0 -0.41707772774E+01  0.14870516136E+01 -0.14329356924E+02  0.14997905702E+02  0.00000000000E+00 0.  1.
</event>
<event>
 8    1  0.2390921E-006  0.9118800E+02  0.7816164E-02  0.1184000E+00
        -11   -1    0    0    0    0  0.00000000000E+00  0.00000000000E+00  0.45593999997E+02  0.45594000000E+02  0.51100000000E-03 0. -1.
         11   -1    0    0    0    0 -0.00000000000E+00 -0.00000000000E+00 -0.45593999997E+02  0.45594000000E+02  0.51100000000E-03 0.  1.
         23    2    1    2    0    0  0.22204460493E-15 -0.17763568394E-14 -0.71054273576E-14  0.91188000000E+02  0.91188000000E+02 0.  0.
    9900012    2    3    3    0    0 -0.75909761960E+00  0.15095978974E+02 -0.33575514118E+02  0.54367082593E+02  0.39999996388E+02 0.  0.
         12    1    3    3    0    0  0.75909761960E+00 -0.15095978974E+02  0.33575514118E+02  0.36820917407E+02  0.00000000000E+00 0. -1.
         11    1    4    4    0    0 -0.38920789455E+01  0.30471229527E+01 -0.10798024466E+02  0.11875629222E+02  0.51100000000E-03 0. -1.
        -11    1    4    4    0    0 -0.10649713055E+02  0.47493309429E+01 -0.24167222049E+02  0.26833321717E+02  0.51100000000E-03 0.  1.
         12    1    4    4    0    0  0.13782694381E+02  0.72995250782E+01  0.13897323960E+01  0.15658131654E+02  0.00000000000E+00 0. -1.
</event>
<event>
 8    1  0.2390921E-006  0.9118800E+02  0.7816164E-02  0.1184000E+00
        -11   -1    0    0    0    0  0.00000000000E+00  0.00000000000E+00  0.45593999997E+02  0.45594000000E+02  0.51100000000E-03 0.  1.
         11   -1    0    0    0    0 -0.00000000000E+00 -0.00000000000E+00 -0.45593999997E+02  0.45594000000E+02  0.51100000000E-03 0. -1.
         23    2    1    2    0    0  0.17763568394E-14  0.00000000000E+00 -0.71054273576E-14  0.91188000000E+02  0.91188000000E+02 0.  0.
    9900012    2    3    3    0    0 -0.14136013400E+02 -0.10642387015E+02  0.32290768904E+02  0.54367068010E+02  0.39999963142E+02 0.  0.
         12    1    3    3    0    0  0.14136013400E+02  0.10642387015E+02 -0.32290768904E+02  0.36820931990E+02  0.00000000000E+00 0. -1.
         11    1    4    4    0    0  0.43093554832E+01 -0.84144077466E+01  0.62508057152E+01  0.11333374376E+02  0.51100000000E-03 0. -1.
        -11    1    4    4    0    0 -0.10418487184E+02 -0.12059464600E+02  0.22835264591E+01  0.16099380578E+02  0.51100000000E-03 0.  1.
         12    1    4    4    0    0 -0.80268816990E+01  0.98314853322E+01  0.23756436730E+02  0.26934313055E+02  0.00000000000E+00 0. -1.
</event>
<event>
 8    1  0.2390921E-006  0.9118800E+02  0.7816164E-02  0.1184000E+00
        -11   -1    0    0    0    0  0.00000000000E+00  0.00000000000E+00  0.45593999997E+02  0.45594000000E+02  0.51100000000E-03 0.  1.
         11   -1    0    0    0    0 -0.00000000000E+00 -0.00000000000E+00 -0.45593999997E+02  0.45594000000E+02  0.51100000000E-03 0. -1.
         23    2    1    2    0    0 -0.35527136788E-14 -0.26645352591E-14  0.00000000000E+00  0.91188000000E+02  0.91188000000E+02 0.  0.
    9900012    2    3    3    0    0 -0.23987269441E+02  0.70129732715E+01  0.27040894233E+02  0.54367070486E+02  0.39999968788E+02 0.  0.
         12    1    3    3    0    0  0.23987269441E+02 -0.70129732715E+01 -0.27040894233E+02  0.36820929514E+02  0.00000000000E+00 0. -1.
         11    1    4    4    0    0 -0.68659388466E+00 -0.26255895086E+01 -0.35093521180E+01  0.44362916924E+01  0.51100000000E-03 0. -1.
        -11    1    4    4    0    0  0.11407911223E+01 -0.85123234250E+01  0.10089964285E+02  0.13250223923E+02  0.51100000000E-03 0.  1.
         12    1    4    4    0    0 -0.24441466678E+02  0.18150886205E+02  0.20460282066E+02  0.36680554871E+02  0.00000000000E+00 0. -1.
</event>
<event>
 8    1  0.2390921E-006  0.9118800E+02  0.7816164E-02  0.1184000E+00
        -11   -1    0    0    0    0  0.00000000000E+00  0.00000000000E+00  0.45593999997E+02  0.45594000000E+02  0.51100000000E-03 0. -1.
         11   -1    0    0    0    0 -0.00000000000E+00 -0.00000000000E+00 -0.45593999997E+02  0.45594000000E+02  0.51100000000E-03 0.  1.
         23    2    1    2    0    0  0.17763568394E-14  0.17763568394E-14  0.71054273576E-14  0.91188000000E+02  0.91188000000E+02 0.  0.
    9900012    2    3    3    0    0 -0.85047670382E+01 -0.23565417309E+01 -0.35747665173E+02  0.54367083165E+02  0.39999997690E+02 0.  0.
         12    1    3    3    0    0  0.85047670382E+01  0.23565417309E+01  0.35747665173E+02  0.36820916835E+02  0.00000000000E+00 0. -1.
         11    1    4    4    0    0  0.21257433895E+01  0.23182747773E+01  0.23000570886E+01  0.38965941247E+01  0.51100000000E-03 0. -1.
        -11    1    4    4    0    0 -0.18279290558E+02 -0.12554026991E+02 -0.25838612011E+02  0.34049521699E+02  0.51100000000E-03 0.  1.
        -12    1    4    4    0    0  0.76487801303E+01  0.78792104827E+01 -0.12209110250E+02  0.16420967341E+02  0.00000000000E+00 0.  1.
</event>
<event>
 8    1  0.2390921E-006  0.9118800E+02  0.7816164E-02  0.1184000E+00
        -11   -1    0    0    0    0  0.00000000000E+00  0.00000000000E+00  0.45593999997E+02  0.45594000000E+02  0.51100000000E-03 0.  1.
         11   -1    0    0    0    0 -0.00000000000E+00 -0.00000000000E+00 -0.45593999997E+02  0.45594000000E+02  0.51100000000E-03 0. -1.
         23    2    1    2    0    0  0.00000000000E+00 -0.17763568394E-14  0.00000000000E+00  0.91188000000E+02  0.91188000000E+02 0.  0.
    9900012    2    3    3    0    0 -0.80001534951E+01  0.14834132672E+02 -0.32737213288E+02  0.54367094498E+02  0.40000023528E+02 0.  0.
         12    1    3    3    0    0  0.80001534951E+01 -0.14834132672E+02  0.32737213288E+02  0.36820905502E+02  0.00000000000E+00 0. -1.
         11    1    4    4    0    0 -0.31829907170E+01  0.29601399134E+01 -0.15419141503E+02  0.16020105592E+02  0.51100000000E-03 0. -1.
        -11    1    4    4    0    0  0.83997170163E+01  0.37854825506E-01 -0.18751728770E+02  0.20547116855E+02  0.51100000000E-03 0.  1.
        -12    1    4    4    0    0 -0.13216879794E+02  0.11836137933E+02  0.14336569852E+01  0.17799872051E+02  0.00000000000E+00 0.  1.
</event>
<event>
 8    1  0.2390921E-006  0.9118800E+02  0.7816164E-02  0.1184000E+00
        -11   -1    0    0    0    0  0.00000000000E+00  0.00000000000E+00  0.45593999997E+02  0.45594000000E+02  0.51100000000E-03 0. -1.
         11   -1    0    0    0    0 -0.00000000000E+00 -0.00000000000E+00 -0.45593999997E+02  0.45594000000E+02  0.51100000000E-03 0.  1.
         23    2    1    2    0    0 -0.35527136788E-14  0.00000000000E+00  0.00000000000E+00  0.91188000000E+02  0.91188000000E+02 0.  0.
    9900012    2    3    3    0    0 -0.22433201143E+02  0.13744175634E+02  0.25760984146E+02  0.54367093146E+02  0.40000020444E+02 0.  0.
        -12    1    3    3    0    0  0.22433201143E+02 -0.13744175634E+02 -0.25760984146E+02  0.36820906854E+02  0.00000000000E+00 0.  1.
         11    1    4    4    0    0 -0.64360900010E+01  0.17840951211E+02  0.13071455870E+02  0.23034447105E+02  0.51100000000E-03 0. -1.
        -11    1    4    4    0    0 -0.20352481610E+02 -0.46531921289E+01  0.35284544374E+01  0.21173702928E+02  0.51100000000E-03 0.  1.
        -12    1    4    4    0    0  0.43553704684E+01  0.55641655248E+00  0.91610738391E+01  0.10158943113E+02  0.00000000000E+00 0.  1.
</event>
<event>
 8    1  0.2390921E-006  0.9118800E+02  0.7816164E-02  0.1184000E+00
        -11   -1    0    0    0    0  0.00000000000E+00  0.00000000000E+00  0.45593999997E+02  0.45594000000E+02  0.51100000000E-03 0.  1.
         11   -1    0    0    0    0 -0.00000000000E+00 -0.00000000000E+00 -0.45593999997E+02  0.45594000000E+02  0.51100000000E-03 0. -1.
         23    2    1    2    0    0 -0.35527136788E-14 -0.55511151231E-15 -0.35527136788E-14  0.91188000000E+02  0.91188000000E+02 0.  0.
    9900012    2    3    3    0    0 -0.31543139836E+02  0.70652127666E+00  0.18981854179E+02  0.54367087041E+02  0.40000006528E+02 0.  0.
         12    1    3    3    0    0  0.31543139836E+02 -0.70652127666E+00 -0.18981854179E+02  0.36820912959E+02  0.00000000000E+00 0. -1.
         11    1    4    4    0    0 -0.55813203301E+01 -0.27775677950E+01  0.71868237728E+01  0.95140136475E+01  0.51100000000E-03 0.  1.
        -11    1    4    4    0    0 -0.28756201880E+02  0.47709661327E+01  0.20489700986E+02  0.35630171360E+02  0.51100000000E-03 0. -1.
         12    1    4    4    0    0  0.27943823738E+01 -0.12868770610E+01 -0.86946705801E+01  0.92229020334E+01  0.00000000000E+00 0. -1.
</event>
<event>
 8    1  0.2390921E-006  0.9118800E+02  0.7816164E-02  0.1184000E+00
        -11   -1    0    0    0    0  0.00000000000E+00  0.00000000000E+00  0.45593999997E+02  0.45594000000E+02  0.51100000000E-03 0. -1.
         11   -1    0    0    0    0 -0.00000000000E+00 -0.00000000000E+00 -0.45593999997E+02  0.45594000000E+02  0.51100000000E-03 0.  1.
         23    2    1    2    0    0  0.00000000000E+00 -0.17763568394E-14  0.17763568394E-14  0.91188000000E+02  0.91188000000E+02 0.  0.
    9900012    2    3    3    0    0 -0.33060778043E+02  0.12676026333E+02 -0.10103568275E+02  0.54367098595E+02  0.40000032866E+02 0.  0.
         12    1    3    3    0    0  0.33060778043E+02 -0.12676026333E+02  0.10103568275E+02  0.36820901405E+02  0.00000000000E+00 0. -1.
         11    1    4    4    0    0 -0.13728917497E+02  0.10603676329E+02 -0.46180515832E+01  0.17951254218E+02  0.51100000000E-03 0.  1.
        -11    1    4    4    0    0 -0.25335078024E+02  0.45832503522E+00 -0.11445218461E+02  0.27804123187E+02  0.51100000000E-03 0. -1.
         12    1    4    4    0    0  0.60032174777E+01  0.16140249692E+01  0.59597017683E+01  0.86117211899E+01  0.00000000000E+00 0. -1.
</event>
<event>
 8    1  0.2390921E-006  0.9118800E+02  0.7816164E-02  0.1184000E+00
        -11   -1    0    0    0    0  0.00000000000E+00  0.00000000000E+00  0.45593999997E+02  0.45594000000E+02  0.51100000000E-03 0. -1.
         11   -1    0    0    0    0 -0.00000000000E+00 -0.00000000000E+00 -0.45593999997E+02  0.45594000000E+02  0.51100000000E-03 0.  1.
         23    2    1    2    0    0  0.00000000000E+00  0.94368957093E-15  0.00000000000E+00  0.91188000000E+02  0.91188000000E+02 0.  0.
    9900012    2    3    3    0    0 -0.10753772533E+02  0.30222037259E+00  0.35214253805E+02  0.54367100610E+02  0.40000037460E+02 0.  0.
        -12    1    3    3    0    0  0.10753772533E+02 -0.30222037259E+00 -0.35214253805E+02  0.36820899390E+02  0.00000000000E+00 0.  1.
         11    1    4    4    0    0 -0.15415630677E+01  0.15932219270E+02  0.19702158649E+02  0.25384780544E+02  0.51100000000E-03 0. -1.
        -11    1    4    4    0    0  0.30724784188E+01 -0.59436972169E+01 -0.35461358046E+00  0.67002545692E+01  0.51100000000E-03 0.  1.
         12    1    4    4    0    0 -0.12284687884E+02 -0.96863016809E+01  0.15866708736E+02  0.22282065497E+02  0.00000000000E+00 0. -1.
</event>
<event>
 8    1  0.2390921E-006  0.9118800E+02  0.7816164E-02  0.1184000E+00
        -11   -1    0    0    0    0  0.00000000000E+00  0.00000000000E+00  0.45593999997E+02  0.45594000000E+02  0.51100000000E-03 0.  1.
         11   -1    0    0    0    0 -0.00000000000E+00 -0.00000000000E+00 -0.45593999997E+02  0.45594000000E+02  0.51100000000E-03 0. -1.
         23    2    1    2    0    0 -0.88817841970E-15  0.00000000000E+00 -0.17763568394E-14  0.91188000000E+02  0.91188000000E+02 0.  0.
    9900012    2    3    3    0    0 -0.32272125879E+01 -0.35176670644E+02 -0.10390605541E+02  0.54367112692E+02  0.40000065003E+02 0.  0.
        -12    1    3    3    0    0  0.32272125879E+01  0.35176670644E+02  0.10390605541E+02  0.36820887308E+02  0.00000000000E+00 0.  1.
         11    1    4    4    0    0 -0.73700242986E+00 -0.15075176333E+02 -0.61978762098E+01  0.16316181656E+02  0.51100000000E-03 0. -1.
        -11    1    4    4    0    0 -0.76866517307E+01 -0.24994602241E+02 -0.10830394832E+02  0.28303925673E+02  0.51100000000E-03 0.  1.
        -12    1    4    4    0    0  0.51964415726E+01  0.48931079306E+01  0.66376655007E+01  0.97470053626E+01  0.00000000000E+00 0.  1.
</event>
<event>
 8    1  0.2390921E-006  0.9118800E+02  0.7816164E-02  0.1184000E+00
        -11   -1    0    0    0    0  0.00000000000E+00  0.00000000000E+00  0.45593999997E+02  0.45594000000E+02  0.51100000000E-03 0.  1.
         11   -1    0    0    0    0 -0.00000000000E+00 -0.00000000000E+00 -0.45593999997E+02  0.45594000000E+02  0.51100000000E-03 0. -1.
         23    2    1    2    0    0 -0.17763568394E-14 -0.71054273576E-14  0.00000000000E+00  0.91188000000E+02  0.91188000000E+02 0.  0.
    9900012    2    3    3    0    0 -0.15194098487E+02 -0.30244806031E+02  0.14497246883E+02  0.54367094418E+02  0.40000023345E+02 0.  0.
        -12    1    3    3    0    0  0.15194098487E+02  0.30244806031E+02 -0.14497246883E+02  0.36820905582E+02  0.00000000000E+00 0.  1.
         11    1    4    4    0    0 -0.15318725032E+01  0.13966667429E+01  0.12816984942E+02  0.12983543993E+02  0.51100000000E-03 0. -1.
        -11    1    4    4    0    0  0.41041260031E+01 -0.42969701478E+01 -0.53833588293E+01  0.80180019485E+01  0.51100000000E-03 0.  1.
         12    1    4    4    0    0 -0.17766351987E+02 -0.27344502626E+02  0.70636207708E+01  0.33365548477E+02  0.00000000000E+00 0. -1.
</event>
<event>
 8    1  0.2390921E-006  0.9118800E+02  0.7816164E-02  0.1184000E+00
        -11   -1    0    0    0    0  0.00000000000E+00  0.00000000000E+00  0.45593999997E+02  0.45594000000E+02  0.51100000000E-03 0.  1.
         11   -1    0    0    0    0 -0.00000000000E+00 -0.00000000000E+00 -0.45593999997E+02  0.45594000000E+02  0.51100000000E-03 0. -1.
         23    2    1    2    0    0 -0.17763568394E-14 -0.71054273576E-14 -0.17763568394E-14  0.91188000000E+02  0.91188000000E+02 0.  0.
    9900012    2    3    3    0    0 -0.72463378781E+01  0.33388537506E+02  0.13728656061E+02  0.54367084114E+02  0.39999999855E+02 0.  0.
         12    1    3    3    0    0  0.72463378781E+01 -0.33388537506E+02 -0.13728656061E+02  0.36820915886E+02  0.00000000000E+00 0. -1.
         11    1    4    4    0    0  0.21989217275E+01  0.12213671842E+02  0.63291309495E+01  0.13930790913E+02  0.51100000000E-03 0.  1.
        -11    1    4    4    0    0 -0.19579314061E+02  0.12789042398E+02 -0.31202002626E+01  0.23593320972E+02  0.51100000000E-03 0. -1.
         12    1    4    4    0    0  0.10134054455E+02  0.83858232656E+01  0.10519725374E+02  0.16842972229E+02  0.00000000000E+00 0. -1.
</event>
<event>
 8    1  0.2390921E-006  0.9118800E+02  0.7816164E-02  0.1184000E+00
        -11   -1    0    0    0    0  0.00000000000E+00  0.00000000000E+00  0.45593999997E+02  0.45594000000E+02  0.51100000000E-03 0. -1.
         11   -1    0    0    0    0 -0.00000000000E+00 -0.00000000000E+00 -0.45593999997E+02  0.45594000000E+02  0.51100000000E-03 0.  1.
         23    2    1    2    0    0 -0.88817841970E-15  0.00000000000E+00  0.35527136788E-14  0.91188000000E+02  0.91188000000E+02 0.  0.
    9900012    2    3    3    0    0  0.77726793373E+01 -0.30310703375E+02 -0.19406877235E+02  0.54367079762E+02  0.39999989933E+02 0.  0.
         12    1    3    3    0    0 -0.77726793373E+01  0.30310703375E+02  0.19406877235E+02  0.36820920238E+02  0.00000000000E+00 0. -1.
         11    1    4    4    0    0  0.10912620215E+02 -0.28609347905E+02 -0.18849802786E+01  0.30677894622E+02  0.51100000000E-03 0. -1.
        -11    1    4    4    0    0 -0.36408200003E+01 -0.76027570676E+01 -0.15093818740E+02  0.17288170803E+02  0.51100000000E-03 0.  1.
         12    1    4    4    0    0  0.50087912252E+00  0.59014015975E+01 -0.24280782165E+01  0.64010143365E+01  0.00000000000E+00 0. -1.
</event>
<event>
 8    1  0.2390921E-006  0.9118800E+02  0.7816164E-02  0.1184000E+00
        -11   -1    0    0    0    0  0.00000000000E+00  0.00000000000E+00  0.45593999997E+02  0.45594000000E+02  0.51100000000E-03 0. -1.
         11   -1    0    0    0    0 -0.00000000000E+00 -0.00000000000E+00 -0.45593999997E+02  0.45594000000E+02  0.51100000000E-03 0.  1.
         23    2    1    2    0    0 -0.35527136788E-14  0.00000000000E+00  0.88817841970E-15  0.91188000000E+02  0.91188000000E+02 0.  0.
    9900012    2    3    3    0    0 -0.22271324903E+02  0.28571691401E+02  0.65898600741E+01  0.54367085858E+02  0.40000003831E+02 0.  0.
        -12    1    3    3    0    0  0.22271324903E+02 -0.28571691401E+02 -0.65898600741E+01  0.36820914142E+02  0.00000000000E+00 0.  1.
         11    1    4    4    0    0  0.87841897715E+00 -0.24592211188E+01 -0.66668790907E+01  0.71600744048E+01  0.51100000000E-03 0. -1.
        -11    1    4    4    0    0 -0.66868402010E+01  0.67521278314E+01 -0.67881630170E+01  0.11678365448E+02  0.51100000000E-03 0.  1.
         12    1    4    4    0    0 -0.16462903679E+02  0.24278784688E+02  0.20044902182E+02  0.35528646005E+02  0.00000000000E+00 0. -1.
</event>
<event>
 8    1  0.2390921E-006  0.9118800E+02  0.7816164E-02  0.1184000E+00
        -11   -1    0    0    0    0  0.00000000000E+00  0.00000000000E+00  0.45593999997E+02  0.45594000000E+02  0.51100000000E-03 0.  1.
         11   -1    0    0    0    0 -0.00000000000E+00 -0.00000000000E+00 -0.45593999997E+02  0.45594000000E+02  0.51100000000E-03 0. -1.
         23    2    1    2    0    0  0.00000000000E+00  0.17763568394E-14  0.00000000000E+00  0.91188000000E+02  0.91188000000E+02 0.  0.
    9900012    2    3    3    0    0  0.80009264303E+01  0.11648020247E+02 -0.34001312287E+02  0.54367076103E+02  0.39999981592E+02 0.  0.
        -12    1    3    3    0    0 -0.80009264303E+01 -0.11648020247E+02  0.34001312287E+02  0.36820923897E+02  0.00000000000E+00 0.  1.
         11    1    4    4    0    0  0.12413836732E+02  0.36700641490E+01  0.21154300415E+01  0.13116697671E+02  0.51100000000E-03 0. -1.
        -11    1    4    4    0    0 -0.47442096719E+01 -0.19339475815E+01 -0.16457358707E+01  0.53810896180E+01  0.51100000000E-03 0.  1.
        -12    1    4    4    0    0  0.33129937025E+00  0.99119036793E+01 -0.34471006458E+02  0.35869288814E+02  0.00000000000E+00 0.  1.
</event>
<event>
 8    1  0.2390921E-006  0.9118800E+02  0.7816164E-02  0.1184000E+00
        -11   -1    0    0    0    0  0.00000000000E+00  0.00000000000E+00  0.45593999997E+02  0.45594000000E+02  0.51100000000E-03 0. -1.
         11   -1    0    0    0    0 -0.00000000000E+00 -0.00000000000E+00 -0.45593999997E+02  0.45594000000E+02  0.51100000000E-03 0.  1.
         23    2    1    2    0    0  0.00000000000E+00  0.13322676296E-14  0.00000000000E+00  0.91188000000E+02  0.91188000000E+02 0.  0.
    9900012    2    3    3    0    0  0.10341981338E+02 -0.33160317242E+01 -0.35182776678E+02  0.54367076340E+02  0.39999982132E+02 0.  0.
         12    1    3    3    0    0 -0.10341981338E+02  0.33160317242E+01  0.35182776678E+02  0.36820923660E+02  0.00000000000E+00 0. -1.
         11    1    4    4    0    0  0.48812788602E+01 -0.20931288140E+02 -0.14678684562E+02  0.26027091409E+02  0.51100000000E-03 0. -1.
        -11    1    4    4    0    0 -0.78369270787E-02  0.49842057689E+01 -0.94606683642E+01  0.10693297654E+02  0.51100000000E-03 0.  1.
         12    1    4    4    0    0  0.54685394053E+01  0.12631050647E+02 -0.11043423752E+02  0.17646687277E+02  0.00000000000E+00 0. -1.
</event>
<event>
 8    1  0.2390921E-006  0.9118800E+02  0.7816164E-02  0.1184000E+00
        -11   -1    0    0    0    0  0.00000000000E+00  0.00000000000E+00  0.45593999997E+02  0.45594000000E+02  0.51100000000E-03 0.  1.
         11   -1    0    0    0    0 -0.00000000000E+00 -0.00000000000E+00 -0.45593999997E+02  0.45594000000E+02  0.51100000000E-03 0. -1.
         23    2    1    2    0    0  0.00000000000E+00  0.00000000000E+00  0.00000000000E+00  0.91188000000E+02  0.91188000000E+02 0.  0.
    9900012    2    3    3    0    0  0.63491905797E+01 -0.34303879193E+02  0.11777467878E+02  0.54367121434E+02  0.40000084934E+02 0.  0.
         12    1    3    3    0    0 -0.63491905797E+01  0.34303879193E+02 -0.11777467878E+02  0.36820878566E+02  0.00000000000E+00 0. -1.
         11    1    4    4    0    0 -0.51455894817E+01 -0.25376944376E+01  0.58613570886E+01  0.82019809408E+01  0.51100000000E-03 0. -1.
        -11    1    4    4    0    0  0.64160885867E+01 -0.45860170132E+01  0.15094834503E+02  0.17030906427E+02  0.51100000000E-03 0.  1.
        -12    1    4    4    0    0  0.50786914747E+01 -0.27180167743E+02 -0.91787237139E+01  0.29134234066E+02  0.00000000000E+00 0.  1.
</event>
<event>
 8    1  0.2390921E-006  0.9118800E+02  0.7816164E-02  0.1184000E+00
        -11   -1    0    0    0    0  0.00000000000E+00  0.00000000000E+00  0.45593999997E+02  0.45594000000E+02  0.51100000000E-03 0.  1.
         11   -1    0    0    0    0 -0.00000000000E+00 -0.00000000000E+00 -0.45593999997E+02  0.45594000000E+02  0.51100000000E-03 0. -1.
         23    2    1    2    0    0  0.35527136788E-14  0.00000000000E+00  0.00000000000E+00  0.91188000000E+02  0.91188000000E+02 0.  0.
    9900012    2    3    3    0    0 -0.26998269113E+02 -0.87549459845E+01  0.23456857633E+02  0.54367084961E+02  0.40000001786E+02 0.  0.
         12    1    3    3    0    0  0.26998269113E+02  0.87549459845E+01 -0.23456857633E+02  0.36820915039E+02  0.00000000000E+00 0. -1.
         11    1    4    4    0    0 -0.89442244290E+01 -0.77678413300E+01 -0.67635338999E+01  0.13641257297E+02  0.51100000000E-03 0. -1.
        -11    1    4    4    0    0 -0.11103725774E+02 -0.61536375228E+01  0.29403715741E+02  0.32027152238E+02  0.51100000000E-03 0.  1.
        -12    1    4    4    0    0 -0.69503189094E+01  0.51665328684E+01  0.81667579183E+00  0.86986754263E+01  0.00000000000E+00 0.  1.
</event>
<event>
 8    1  0.2390921E-006  0.9118800E+02  0.7816164E-02  0.1184000E+00
        -11   -1    0    0    0    0  0.00000000000E+00  0.00000000000E+00  0.45593999997E+02  0.45594000000E+02  0.51100000000E-03 0. -1.
         11   -1    0    0    0    0 -0.00000000000E+00 -0.00000000000E+00 -0.45593999997E+02  0.45594000000E+02  0.51100000000E-03 0.  1.
         23    2    1    2    0    0 -0.17763568394E-14  0.00000000000E+00  0.00000000000E+00  0.91188000000E+02  0.91188000000E+02 0.  0.
    9900012    2    3    3    0    0  0.97577782704E+01  0.81388140157E+01  0.34558995005E+02  0.54367100145E+02  0.40000036401E+02 0.  0.
        -12    1    3    3    0    0 -0.97577782704E+01 -0.81388140157E+01 -0.34558995005E+02  0.36820899855E+02  0.00000000000E+00 0.  1.
         11    1    4    4    0    0 -0.67907648643E+01  0.15346572691E+02  0.29610987307E+01  0.17041123401E+02  0.51100000000E-03 0. -1.
        -11    1    4    4    0    0  0.59705252798E+01 -0.68961219253E+01  0.17043480723E+02  0.19330905440E+02  0.51100000000E-03 0.  1.
         12    1    4    4    0    0  0.10578017855E+02 -0.31163675016E+00  0.14554415551E+02  0.17995071304E+02  0.00000000000E+00 0. -1.
</event>
<event>
 8    1  0.2390921E-006  0.9118800E+02  0.7816164E-02  0.1184000E+00
        -11   -1    0    0    0    0  0.00000000000E+00  0.00000000000E+00  0.45593999997E+02  0.45594000000E+02  0.51100000000E-03 0. -1.
         11   -1    0    0    0    0 -0.00000000000E+00 -0.00000000000E+00 -0.45593999997E+02  0.45594000000E+02  0.51100000000E-03 0.  1.
         23    2    1    2    0    0  0.00000000000E+00 -0.17763568394E-14  0.00000000000E+00  0.91188000000E+02  0.91188000000E+02 0.  0.
    9900012    2    3    3    0    0  0.14213873054E+02 -0.80995660004E+01 -0.32987017161E+02  0.54367075816E+02  0.39999980938E+02 0.  0.
         12    1    3    3    0    0 -0.14213873054E+02  0.80995660004E+01  0.32987017161E+02  0.36820924184E+02  0.00000000000E+00 0. -1.
         11    1    4    4    0    0  0.94370466444E+01 -0.22051850731E+02 -0.27848307532E+02  0.36754186193E+02  0.51100000000E-03 0. -1.
        -11    1    4    4    0    0  0.22746726808E+00  0.64002837079E+01 -0.59725795778E+01  0.87571159621E+01  0.51100000000E-03 0.  1.
         12    1    4    4    0    0  0.45493591418E+01  0.75520010229E+01  0.83386994869E+00  0.88557736614E+01  0.00000000000E+00 0. -1.
</event>
<event>
 8    1  0.2390921E-006  0.9118800E+02  0.7816164E-02  0.1184000E+00
        -11   -1    0    0    0    0  0.00000000000E+00  0.00000000000E+00  0.45593999997E+02  0.45594000000E+02  0.51100000000E-03 0. -1.
         11   -1    0    0    0    0 -0.00000000000E+00 -0.00000000000E+00 -0.45593999997E+02  0.45594000000E+02  0.51100000000E-03 0.  1.
         23    2    1    2    0    0  0.00000000000E+00  0.71054273576E-14  0.00000000000E+00  0.91188000000E+02  0.91188000000E+02 0.  0.
    9900012    2    3    3    0    0  0.82703457436E+01 -0.23264771243E+02 -0.27315401402E+02  0.54367090812E+02  0.40000015124E+02 0.  0.
         12    1    3    3    0    0 -0.82703457436E+01  0.23264771243E+02  0.27315401402E+02  0.36820909188E+02  0.00000000000E+00 0. -1.
         11    1    4    4    0    0  0.43450550763E+00  0.21685590686E+01  0.81280673381E+00  0.23562891414E+01  0.51100000000E-03 0. -1.
        -11    1    4    4    0    0  0.55423469779E+01  0.82592545320E+01 -0.55845091417E+01  0.11406999521E+02  0.51100000000E-03 0.  1.
        -12    1    4    4    0    0  0.22934932581E+01 -0.33692584843E+02 -0.22543698994E+02  0.40603802150E+02  0.00000000000E+00 0.  1.
</event>
<event>
 8    1  0.2390921E-006  0.9118800E+02  0.7816164E-02  0.1184000E+00
        -11   -1    0    0    0    0  0.00000000000E+00  0.00000000000E+00  0.45593999997E+02  0.45594000000E+02  0.51100000000E-03 0. -1.
         11   -1    0    0    0    0 -0.00000000000E+00 -0.00000000000E+00 -0.45593999997E+02  0.45594000000E+02  0.51100000000E-03 0.  1.
         23    2    1    2    0    0  0.00000000000E+00 -0.71054273576E-14  0.00000000000E+00  0.91188000000E+02  0.91188000000E+02 0.  0.
    9900012    2    3    3    0    0 -0.32885136062E+01 -0.36623909263E+02 -0.19118645653E+01  0.54367078263E+02  0.39999986516E+02 0.  0.
         12    1    3    3    0    0  0.32885136062E+01  0.36623909263E+02  0.19118645653E+01  0.36820921737E+02  0.00000000000E+00 0. -1.
         11    1    4    4    0    0 -0.36357951415E+01  0.23901639253E+01 -0.21961788472E+00  0.43566182042E+01  0.51100000000E-03 0. -1.
        -11    1    4    4    0    0 -0.31346426817E+01  0.22640098693E+01 -0.72479435944E+01  0.82148896547E+01  0.51100000000E-03 0.  1.
        -12    1    4    4    0    0  0.34819242170E+01 -0.41278083058E+02  0.55556969138E+01  0.41795570404E+02  0.00000000000E+00 0.  1.
</event>
<event>
 8    1  0.2390921E-006  0.9118800E+02  0.7816164E-02  0.1184000E+00
        -11   -1    0    0    0    0  0.00000000000E+00  0.00000000000E+00  0.45593999997E+02  0.45594000000E+02  0.51100000000E-03 0.  1.
         11   -1    0    0    0    0 -0.00000000000E+00 -0.00000000000E+00 -0.45593999997E+02  0.45594000000E+02  0.51100000000E-03 0. -1.
         23    2    1    2    0    0  0.00000000000E+00  0.00000000000E+00  0.00000000000E+00  0.91188000000E+02  0.91188000000E+02 0.  0.
    9900012    2    3    3    0    0 -0.18356595837E+02  0.26436832312E+02 -0.17885952877E+02  0.54367108868E+02  0.40000056286E+02 0.  0.
        -12    1    3    3    0    0  0.18356595837E+02 -0.26436832312E+02  0.17885952877E+02  0.36820891132E+02  0.00000000000E+00 0.  1.
         11    1    4    4    0    0 -0.15980775063E+01  0.22303714777E+02 -0.11523004627E+02  0.25155301240E+02  0.51100000000E-03 0. -1.
        -11    1    4    4    0    0 -0.10409791709E+01 -0.49599960290E+00 -0.11870132080E+02  0.11926008934E+02  0.51100000000E-03 0.  1.
        -12    1    4    4    0    0 -0.15717539160E+02  0.46291171381E+01  0.55071838305E+01  0.17285798693E+02  0.00000000000E+00 0.  1.
</event>
<event>
 8    1  0.2390921E-006  0.9118800E+02  0.7816164E-02  0.1184000E+00
        -11   -1    0    0    0    0  0.00000000000E+00  0.00000000000E+00  0.45593999997E+02  0.45594000000E+02  0.51100000000E-03 0. -1.
         11   -1    0    0    0    0 -0.00000000000E+00 -0.00000000000E+00 -0.45593999997E+02  0.45594000000E+02  0.51100000000E-03 0.  1.
         23    2    1    2    0    0 -0.71054273576E-14  0.88817841970E-15 -0.26645352591E-14  0.91188000000E+02  0.91188000000E+02 0.  0.
    9900012    2    3    3    0    0 -0.36085858095E+02 -0.53204220870E+01 -0.50300599507E+01  0.54366843734E+02  0.39999451857E+02 0.  0.
         12    1    3    3    0    0  0.36085858095E+02  0.53204220870E+01  0.50300599507E+01  0.36821156266E+02  0.00000000000E+00 0. -1.
         11    1    4    4    0    0 -0.23713695217E+02 -0.12230408294E+02  0.30254248772E+01  0.26852847592E+02  0.51100000000E-03 0.  1.
        -11    1    4    4    0    0 -0.29081550005E+01 -0.64702274725E+01  0.30449260050E+01  0.77196362408E+01  0.51100000000E-03 0. -1.
        -12    1    4    4    0    0 -0.94640078780E+01  0.13380213679E+02 -0.11100410833E+02  0.19794359901E+02  0.00000000000E+00 0.  1.
</event>
<event>
 8    1  0.2390921E-006  0.9118800E+02  0.7816164E-02  0.1184000E+00
        -11   -1    0    0    0    0  0.00000000000E+00  0.00000000000E+00  0.45593999997E+02  0.45594000000E+02  0.51100000000E-03 0. -1.
         11   -1    0    0    0    0 -0.00000000000E+00 -0.00000000000E+00 -0.45593999997E+02  0.45594000000E+02  0.51100000000E-03 0.  1.
         23    2    1    2    0    0  0.13322676296E-14 -0.88817841970E-15  0.71054273576E-14  0.91188000000E+02  0.91188000000E+02 0.  0.
    9900012    2    3    3    0    0 -0.23107659323E+01  0.60455635615E+01 -0.36247637175E+02  0.54367086395E+02  0.40000005054E+02 0.  0.
         12    1    3    3    0    0  0.23107659323E+01 -0.60455635615E+01  0.36247637175E+02  0.36820913605E+02  0.00000000000E+00 0. -1.
         11    1    4    4    0    0 -0.35343899724E+01  0.25787832120E+01 -0.12108343530E+02  0.12874549259E+02  0.51100000000E-03 0.  1.
        -11    1    4    4    0    0 -0.14074107936E+02  0.14755621704E+01 -0.16873666814E+01  0.14251491307E+02  0.51100000000E-03 0. -1.
        -12    1    4    4    0    0  0.15297731976E+02  0.19912181792E+01 -0.22451926964E+02  0.27241045828E+02  0.00000000000E+00 0.  1.
</event>
<event>
 8    1  0.2390921E-006  0.9118800E+02  0.7816164E-02  0.1184000E+00
        -11   -1    0    0    0    0  0.00000000000E+00  0.00000000000E+00  0.45593999997E+02  0.45594000000E+02  0.51100000000E-03 0.  1.
         11   -1    0    0    0    0 -0.00000000000E+00 -0.00000000000E+00 -0.45593999997E+02  0.45594000000E+02  0.51100000000E-03 0. -1.
         23    2    1    2    0    0  0.88817841970E-15 -0.88817841970E-15  0.00000000000E+00  0.91188000000E+02  0.91188000000E+02 0.  0.
    9900012    2    3    3    0    0 -0.49706910175E+01  0.51503193625E+01 -0.36118463151E+02  0.54367123597E+02  0.40000089863E+02 0.  0.
        -12    1    3    3    0    0  0.49706910175E+01 -0.51503193625E+01  0.36118463151E+02  0.36820876403E+02  0.00000000000E+00 0.  1.
         11    1    4    4    0    0 -0.13777970160E+02 -0.12732723271E+02 -0.13183022406E+02  0.22929168839E+02  0.51100000000E-03 0. -1.
        -11    1    4    4    0    0  0.45334995671E+01  0.99907881403E+01 -0.18299182278E+02  0.21336085355E+02  0.51100000000E-03 0.  1.
         12    1    4    4    0    0  0.42737795755E+01  0.78922544934E+01 -0.46362584673E+01  0.10101869402E+02  0.00000000000E+00 0. -1.
</event>
<event>
 8    1  0.2390921E-006  0.9118800E+02  0.7816164E-02  0.1184000E+00
        -11   -1    0    0    0    0  0.00000000000E+00  0.00000000000E+00  0.45593999997E+02  0.45594000000E+02  0.51100000000E-03 0. -1.
         11   -1    0    0    0    0 -0.00000000000E+00 -0.00000000000E+00 -0.45593999997E+02  0.45594000000E+02  0.51100000000E-03 0.  1.
         23    2    1    2    0    0  0.00000000000E+00  0.00000000000E+00  0.00000000000E+00  0.91188000000E+02  0.91188000000E+02 0.  0.
    9900012    2    3    3    0    0 -0.28118335553E+02  0.55759271404E+01  0.23109463137E+02  0.54367095011E+02  0.40000024696E+02 0.  0.
        -12    1    3    3    0    0  0.28118335553E+02 -0.55759271404E+01 -0.23109463137E+02  0.36820904989E+02  0.00000000000E+00 0.  1.
         11    1    4    4    0    0 -0.16399067859E+02  0.14965166260E+02 -0.71954851459E+00  0.22212685073E+02  0.51100000000E-03 0. -1.
        -11    1    4    4    0    0 -0.11890180407E+02 -0.13194806280E+02  0.19109412249E+02  0.26089249503E+02  0.51100000000E-03 0.  1.
         12    1    4    4    0    0  0.17091271320E+00  0.38055671609E+01  0.47195994027E+01  0.60651604343E+01  0.00000000000E+00 0. -1.
</event>
<event>
 8    1  0.2390921E-006  0.9118800E+02  0.7816164E-02  0.1184000E+00
        -11   -1    0    0    0    0  0.00000000000E+00  0.00000000000E+00  0.45593999997E+02  0.45594000000E+02  0.51100000000E-03 0. -1.
         11   -1    0    0    0    0 -0.00000000000E+00 -0.00000000000E+00 -0.45593999997E+02  0.45594000000E+02  0.51100000000E-03 0.  1.
         23    2    1    2    0    0  0.00000000000E+00  0.48849813084E-14  0.00000000000E+00  0.91188000000E+02  0.91188000000E+02 0.  0.
    9900012    2    3    3    0    0  0.14218213718E+02 -0.35621150093E+01 -0.33777690502E+02  0.54367100496E+02  0.40000037200E+02 0.  0.
         12    1    3    3    0    0 -0.14218213718E+02  0.35621150093E+01  0.33777690502E+02  0.36820899504E+02  0.00000000000E+00 0. -1.
         11    1    4    4    0    0  0.37572437948E+01  0.15981231728E+02 -0.24347088864E+02  0.29364900560E+02  0.51100000000E-03 0. -1.
        -11    1    4    4    0    0  0.45320483400E+01 -0.74601125613E+01 -0.72919846973E+01  0.11373907977E+02  0.51100000000E-03 0.  1.
         12    1    4    4    0    0  0.59289215833E+01 -0.12083234176E+02 -0.21386169408E+01  0.13628291959E+02  0.00000000000E+00 0. -1.
</event>
<event>
 8    1  0.2390921E-006  0.9118800E+02  0.7816164E-02  0.1184000E+00
        -11   -1    0    0    0    0  0.00000000000E+00  0.00000000000E+00  0.45593999997E+02  0.45594000000E+02  0.51100000000E-03 0.  1.
         11   -1    0    0    0    0 -0.00000000000E+00 -0.00000000000E+00 -0.45593999997E+02  0.45594000000E+02  0.51100000000E-03 0. -1.
         23    2    1    2    0    0 -0.35527136788E-14 -0.35527136788E-14  0.88817841970E-15  0.91188000000E+02  0.91188000000E+02 0.  0.
    9900012    2    3    3    0    0  0.31090687460E+02  0.19376213572E+02 -0.37028891052E+01  0.54367083569E+02  0.39999998612E+02 0.  0.
        -12    1    3    3    0    0 -0.31090687460E+02 -0.19376213572E+02  0.37028891052E+01  0.36820916431E+02  0.00000000000E+00 0.  1.
         11    1    4    4    0    0 -0.33992216873E+01  0.13009920121E+01  0.20580972404E+01  0.41812740650E+01  0.51100000000E-03 0. -1.
        -11    1    4    4    0    0  0.72267619058E+01  0.20646583999E+02  0.12758899228E+01  0.21911992466E+02  0.51100000000E-03 0.  1.
         12    1    4    4    0    0  0.27263147241E+02 -0.25713624391E+01 -0.70368762684E+01  0.28273817038E+02  0.00000000000E+00 0. -1.
</event>
<event>
 8    1  0.2390921E-006  0.9118800E+02  0.7816164E-02  0.1184000E+00
        -11   -1    0    0    0    0  0.00000000000E+00  0.00000000000E+00  0.45593999997E+02  0.45594000000E+02  0.51100000000E-03 0.  1.
         11   -1    0    0    0    0 -0.00000000000E+00 -0.00000000000E+00 -0.45593999997E+02  0.45594000000E+02  0.51100000000E-03 0. -1.
         23    2    1    2    0    0 -0.71054273576E-14  0.00000000000E+00 -0.17763568394E-14  0.91188000000E+02  0.91188000000E+02 0.  0.
    9900012    2    3    3    0    0  0.35336628343E+02  0.89950945363E+01 -0.51177179015E+01  0.54367081151E+02  0.39999993100E+02 0.  0.
        -12    1    3    3    0    0 -0.35336628343E+02 -0.89950945363E+01  0.51177179015E+01  0.36820918849E+02  0.00000000000E+00 0.  1.
         11    1    4    4    0    0  0.27821038950E+02 -0.23353066124E+01 -0.62824196187E+01  0.28616999524E+02  0.51100000000E-03 0. -1.
        -11    1    4    4    0    0 -0.57565404422E+01  0.19084047109E+01  0.62391201996E+01  0.87009417611E+01  0.51100000000E-03 0.  1.
        -12    1    4    4    0    0  0.13272129835E+02  0.94219964378E+01 -0.50744184824E+01  0.17049139866E+02  0.00000000000E+00 0.  1.
</event>
<event>
 8    1  0.2390921E-006  0.9118800E+02  0.7816164E-02  0.1184000E+00
        -11   -1    0    0    0    0  0.00000000000E+00  0.00000000000E+00  0.45593999997E+02  0.45594000000E+02  0.51100000000E-03 0. -1.
         11   -1    0    0    0    0 -0.00000000000E+00 -0.00000000000E+00 -0.45593999997E+02  0.45594000000E+02  0.51100000000E-03 0.  1.
         23    2    1    2    0    0  0.00000000000E+00  0.00000000000E+00  0.35527136788E-14  0.91188000000E+02  0.91188000000E+02 0.  0.
    9900012    2    3    3    0    0  0.14866852499E+02 -0.12658588032E+02 -0.31217244577E+02  0.54367088643E+02  0.40000010180E+02 0.  0.
         12    1    3    3    0    0 -0.14866852499E+02  0.12658588032E+02  0.31217244577E+02  0.36820911357E+02  0.00000000000E+00 0. -1.
         11    1    4    4    0    0 -0.81040363505E+01 -0.23539319315E+00 -0.53277238154E+00  0.81249407257E+01  0.51100000000E-03 0. -1.
        -11    1    4    4    0    0  0.24146215417E+02 -0.94667758819E+01 -0.14430909593E+02  0.29680140103E+02  0.51100000000E-03 0.  1.
        -12    1    4    4    0    0 -0.11753265678E+01 -0.29564189572E+01 -0.16253562602E+02  0.16562007814E+02  0.00000000000E+00 0.  1.
</event>
<event>
 8    1  0.2390921E-006  0.9118800E+02  0.7816164E-02  0.1184000E+00
        -11   -1    0    0    0    0  0.00000000000E+00  0.00000000000E+00  0.45593999997E+02  0.45594000000E+02  0.51100000000E-03 0.  1.
         11   -1    0    0    0    0 -0.00000000000E+00 -0.00000000000E+00 -0.45593999997E+02  0.45594000000E+02  0.51100000000E-03 0. -1.
         23    2    1    2    0    0 -0.17763568394E-14  0.00000000000E+00 -0.35527136788E-14  0.91188000000E+02  0.91188000000E+02 0.  0.
    9900012    2    3    3    0    0 -0.49095168631E+01 -0.20855430068E+02 -0.29945413390E+02  0.54367080644E+02  0.39999991944E+02 0.  0.
        -12    1    3    3    0    0  0.49095168631E+01  0.20855430068E+02  0.29945413390E+02  0.36820919356E+02  0.00000000000E+00 0.  1.
         11    1    4    4    0    0 -0.11280922326E+02 -0.97156394071E+01 -0.18420728916E+02  0.23684934276E+02  0.51100000000E-03 0. -1.
        -11    1    4    4    0    0 -0.86514165321E+01  0.12354504800E+01 -0.17929636735E+01  0.89212143174E+01  0.51100000000E-03 0.  1.
         12    1    4    4    0    0  0.15022821995E+02 -0.12375241140E+02 -0.97317208002E+01  0.21760932050E+02  0.00000000000E+00 0. -1.
</event>
<event>
 8    1  0.2390921E-006  0.9118800E+02  0.7816164E-02  0.1184000E+00
        -11   -1    0    0    0    0  0.00000000000E+00  0.00000000000E+00  0.45593999997E+02  0.45594000000E+02  0.51100000000E-03 0.  1.
         11   -1    0    0    0    0 -0.00000000000E+00 -0.00000000000E+00 -0.45593999997E+02  0.45594000000E+02  0.51100000000E-03 0. -1.
         23    2    1    2    0    0  0.10658141036E-13  0.00000000000E+00  0.17763568394E-14  0.91188000000E+02  0.91188000000E+02 0.  0.
    9900012    2    3    3    0    0  0.26146339635E+02  0.23582305154E+02  0.10771382578E+02  0.54367097304E+02  0.40000029925E+02 0.  0.
         12    1    3    3    0    0 -0.26146339635E+02 -0.23582305154E+02 -0.10771382578E+02  0.36820902696E+02  0.00000000000E+00 0. -1.
         11    1    4    4    0    0  0.15957382109E+01 -0.38003173489E+01 -0.21190027984E+01  0.46345404854E+01  0.51100000000E-03 0. -1.
        -11    1    4    4    0    0 -0.68871833642E+01  0.96549432235E+00  0.14311765021E+01  0.71002634050E+01  0.51100000000E-03 0.  1.
        -12    1    4    4    0    0  0.31437784788E+02  0.26417128181E+02  0.11459208875E+02  0.42632293414E+02  0.00000000000E+00 0.  1.
</event>
<event>
 8    1  0.2390921E-006  0.9118800E+02  0.7816164E-02  0.1184000E+00
        -11   -1    0    0    0    0  0.00000000000E+00  0.00000000000E+00  0.45593999997E+02  0.45594000000E+02  0.51100000000E-03 0.  1.
         11   -1    0    0    0    0 -0.00000000000E+00 -0.00000000000E+00 -0.45593999997E+02  0.45594000000E+02  0.51100000000E-03 0. -1.
         23    2    1    2    0    0  0.00000000000E+00 -0.33306690739E-15  0.17763568394E-14  0.91188000000E+02  0.91188000000E+02 0.  0.
    9900012    2    3    3    0    0  0.36355552067E+02 -0.82991868908E+00 -0.57764712097E+01  0.54367047395E+02  0.39999916147E+02 0.  0.
        -12    1    3    3    0    0 -0.36355552067E+02  0.82991868908E+00  0.57764712097E+01  0.36820952605E+02  0.00000000000E+00 0.  1.
         11    1    4    4    0    0  0.20206944005E+02  0.51417712616E+01 -0.94883776107E+01  0.22908245408E+02  0.51100000000E-03 0. -1.
        -11    1    4    4    0    0  0.14068337998E-01 -0.48622482324E+00  0.12345492509E+02  0.12355071754E+02  0.51100000000E-03 0.  1.
        -12    1    4    4    0    0  0.16134539724E+02 -0.54854651274E+01 -0.86335861076E+01  0.19103730234E+02  0.00000000000E+00 0.  1.
</event>
<event>
 8    1  0.2390921E-006  0.9118800E+02  0.7816164E-02  0.1184000E+00
        -11   -1    0    0    0    0  0.00000000000E+00  0.00000000000E+00  0.45593999997E+02  0.45594000000E+02  0.51100000000E-03 0. -1.
         11   -1    0    0    0    0 -0.00000000000E+00 -0.00000000000E+00 -0.45593999997E+02  0.45594000000E+02  0.51100000000E-03 0.  1.
         23    2    1    2    0    0  0.17763568394E-14  0.35527136788E-14  0.00000000000E+00  0.91188000000E+02  0.91188000000E+02 0.  0.
    9900012    2    3    3    0    0 -0.11382367243E+02 -0.30146779000E+02 -0.17815571515E+02  0.54367066327E+02  0.39999959305E+02 0.  0.
         12    1    3    3    0    0  0.11382367243E+02  0.30146779000E+02  0.17815571515E+02  0.36820933673E+02  0.00000000000E+00 0. -1.
         11    1    4    4    0    0 -0.68985531323E+01 -0.13230586033E+02 -0.14031028279E+02  0.20481899251E+02  0.51100000000E-03 0. -1.
        -11    1    4    4    0    0 -0.12890396964E+02 -0.16043559690E+02 -0.10486985071E+02  0.23098376513E+02  0.51100000000E-03 0.  1.
         12    1    4    4    0    0  0.84065828528E+01 -0.87263327823E+00  0.67024418351E+01  0.10786790563E+02  0.00000000000E+00 0. -1.
</event>
<event>
 8    1  0.2390921E-006  0.9118800E+02  0.7816164E-02  0.1184000E+00
        -11   -1    0    0    0    0  0.00000000000E+00  0.00000000000E+00  0.45593999997E+02  0.45594000000E+02  0.51100000000E-03 0. -1.
         11   -1    0    0    0    0 -0.00000000000E+00 -0.00000000000E+00 -0.45593999997E+02  0.45594000000E+02  0.51100000000E-03 0.  1.
         23    2    1    2    0    0  0.00000000000E+00  0.26645352591E-14  0.00000000000E+00  0.91188000000E+02  0.91188000000E+02 0.  0.
    9900012    2    3    3    0    0  0.35092819541E+02 -0.65391458089E+01 -0.90284432344E+01  0.54367092916E+02  0.40000019920E+02 0.  0.
         12    1    3    3    0    0 -0.35092819541E+02  0.65391458089E+01  0.90284432344E+01  0.36820907084E+02  0.00000000000E+00 0. -1.
         11    1    4    4    0    0  0.57128532574E+01  0.87817787484E+01 -0.80332561163E+00  0.10507219548E+02  0.51100000000E-03 0. -1.
        -11    1    4    4    0    0  0.17141356412E+02 -0.21442388550E+02 -0.11541926591E+02  0.29779492878E+02  0.51100000000E-03 0.  1.
        -12    1    4    4    0    0  0.12238609872E+02  0.61214639927E+01  0.33168089686E+01  0.14080380490E+02  0.00000000000E+00 0.  1.
</event>
<event>
 8    1  0.2390921E-006  0.9118800E+02  0.7816164E-02  0.1184000E+00
        -11   -1    0    0    0    0  0.00000000000E+00  0.00000000000E+00  0.45593999997E+02  0.45594000000E+02  0.51100000000E-03 0. -1.
         11   -1    0    0    0    0 -0.00000000000E+00 -0.00000000000E+00 -0.45593999997E+02  0.45594000000E+02  0.51100000000E-03 0.  1.
         23    2    1    2    0    0 -0.17763568394E-14  0.00000000000E+00  0.88817841970E-15  0.91188000000E+02  0.91188000000E+02 0.  0.
    9900012    2    3    3    0    0 -0.15655277639E+02  0.33215436849E+02  0.27251710944E+01  0.54367088543E+02  0.40000009951E+02 0.  0.
        -12    1    3    3    0    0  0.15655277639E+02 -0.33215436849E+02 -0.27251710944E+01  0.36820911457E+02  0.00000000000E+00 0.  1.
         11    1    4    4    0    0 -0.12504398887E+02  0.16299438959E+02 -0.16664660924E+02  0.26452648749E+02  0.51100000000E-03 0. -1.
        -11    1    4    4    0    0  0.29629725615E+01  0.11628949751E+01  0.31162669355E+01  0.44545090636E+01  0.51100000000E-03 0.  1.
         12    1    4    4    0    0 -0.61138513137E+01  0.15753102915E+02  0.16273565083E+02  0.23459930730E+02  0.00000000000E+00 0. -1.
</event>
<event>
 8    1  0.2390921E-006  0.9118800E+02  0.7816164E-02  0.1184000E+00
        -11   -1    0    0    0    0  0.00000000000E+00  0.00000000000E+00  0.45593999997E+02  0.45594000000E+02  0.51100000000E-03 0.  1.
         11   -1    0    0    0    0 -0.00000000000E+00 -0.00000000000E+00 -0.45593999997E+02  0.45594000000E+02  0.51100000000E-03 0. -1.
         23    2    1    2    0    0  0.35527136788E-14  0.44408920985E-15  0.71054273576E-14  0.91188000000E+02  0.91188000000E+02 0.  0.
    9900012    2    3    3    0    0 -0.14410480563E+02 -0.33186110823E+01 -0.33720931129E+02  0.54367131925E+02  0.40000108849E+02 0.  0.
        -12    1    3    3    0    0  0.14410480563E+02  0.33186110823E+01  0.33720931129E+02  0.36820868075E+02  0.00000000000E+00 0.  1.
         11    1    4    4    0    0 -0.23348104244E+01  0.23615776222E+01 -0.16487579471E+02  0.16818699880E+02  0.51100000000E-03 0. -1.
        -11    1    4    4    0    0  0.95339203543E+01  0.50991667606E-01 -0.36335958417E+00  0.95409783524E+01  0.51100000000E-03 0.  1.
        -12    1    4    4    0    0 -0.21609590493E+02 -0.57311803721E+01 -0.16869992074E+02  0.28007453692E+02  0.00000000000E+00 0.  1.
</event>
<event>
 8    1  0.2390921E-006  0.9118800E+02  0.7816164E-02  0.1184000E+00
        -11   -1    0    0    0    0  0.00000000000E+00  0.00000000000E+00  0.45593999997E+02  0.45594000000E+02  0.51100000000E-03 0.  1.
         11   -1    0    0    0    0 -0.00000000000E+00 -0.00000000000E+00 -0.45593999997E+02  0.45594000000E+02  0.51100000000E-03 0. -1.
         23    2    1    2    0    0 -0.17763568394E-14  0.00000000000E+00  0.00000000000E+00  0.91188000000E+02  0.91188000000E+02 0.  0.
    9900012    2    3    3    0    0 -0.15326472846E+02  0.32213192792E+02  0.91211684189E+01  0.54366996849E+02  0.39999800916E+02 0.  0.
         12    1    3    3    0    0  0.15326472846E+02 -0.32213192792E+02 -0.91211684189E+01  0.36821003151E+02  0.00000000000E+00 0. -1.
         11    1    4    4    0    0 -0.14159648813E+02  0.42138730373E+01  0.14717888466E+02  0.20853503822E+02  0.51100000000E-03 0. -1.
        -11    1    4    4    0    0  0.23072041450E+01 -0.68035138217E+00  0.25419527869E+01  0.34996561548E+01  0.51100000000E-03 0.  1.
         12    1    4    4    0    0 -0.34740281784E+01  0.28679671137E+02 -0.81386728344E+01  0.30013836872E+02  0.00000000000E+00 0. -1.
</event>
<event>
 8    1  0.2390921E-006  0.9118800E+02  0.7816164E-02  0.1184000E+00
        -11   -1    0    0    0    0  0.00000000000E+00  0.00000000000E+00  0.45593999997E+02  0.45594000000E+02  0.51100000000E-03 0.  1.
         11   -1    0    0    0    0 -0.00000000000E+00 -0.00000000000E+00 -0.45593999997E+02  0.45594000000E+02  0.51100000000E-03 0. -1.
         23    2    1    2    0    0  0.00000000000E+00  0.17763568394E-14  0.00000000000E+00  0.91188000000E+02  0.91188000000E+02 0.  0.
    9900012    2    3    3    0    0 -0.17947002267E+02 -0.11619137836E+02 -0.29977987493E+02  0.54367095767E+02  0.40000026420E+02 0.  0.
        -12    1    3    3    0    0  0.17947002267E+02  0.11619137836E+02  0.29977987493E+02  0.36820904233E+02  0.00000000000E+00 0.  1.
         11    1    4    4    0    0 -0.11372867101E+02 -0.19958736097E+01 -0.25216747720E+02  0.27734635087E+02  0.51100000000E-03 0. -1.
        -11    1    4    4    0    0  0.29541625061E+01 -0.64421414309E+01 -0.12216146212E+02  0.14123119020E+02  0.51100000000E-03 0.  1.
         12    1    4    4    0    0 -0.95282976716E+01 -0.31811227954E+01  0.74549064390E+01  0.12509341660E+02  0.00000000000E+00 0. -1.
</event>
<event>
 8    1  0.2390921E-006  0.9118800E+02  0.7816164E-02  0.1184000E+00
        -11   -1    0    0    0    0  0.00000000000E+00  0.00000000000E+00  0.45593999997E+02  0.45594000000E+02  0.51100000000E-03 0. -1.
         11   -1    0    0    0    0 -0.00000000000E+00 -0.00000000000E+00 -0.45593999997E+02  0.45594000000E+02  0.51100000000E-03 0.  1.
         23    2    1    2    0    0  0.44408920985E-14  0.00000000000E+00  0.17763568394E-14  0.91188000000E+02  0.91188000000E+02 0.  0.
    9900012    2    3    3    0    0  0.67624934338E+01  0.33334440555E+02  0.14101463156E+02  0.54367251668E+02  0.40000381826E+02 0.  0.
        -12    1    3    3    0    0 -0.67624934338E+01 -0.33334440555E+02 -0.14101463156E+02  0.36820748332E+02  0.00000000000E+00 0.  1.
         11    1    4    4    0    0 -0.73264781579E+01 -0.18871216003E+01  0.23272273502E+01  0.79154594013E+01  0.51100000000E-03 0. -1.
        -11    1    4    4    0    0 -0.52248777452E+01  0.57078522143E+00  0.10814469672E+01  0.53660666251E+01  0.51100000000E-03 0.  1.
         12    1    4    4    0    0  0.19313849337E+02  0.34650776934E+02  0.10692788839E+02  0.41085725642E+02  0.00000000000E+00 0. -1.
</event>
<event>
 8    1  0.2390921E-006  0.9118800E+02  0.7816164E-02  0.1184000E+00
        -11   -1    0    0    0    0  0.00000000000E+00  0.00000000000E+00  0.45593999997E+02  0.45594000000E+02  0.51100000000E-03 0.  1.
         11   -1    0    0    0    0 -0.00000000000E+00 -0.00000000000E+00 -0.45593999997E+02  0.45594000000E+02  0.51100000000E-03 0. -1.
         23    2    1    2    0    0  0.00000000000E+00  0.00000000000E+00 -0.17763568394E-14  0.91188000000E+02  0.91188000000E+02 0.  0.
    9900012    2    3    3    0    0 -0.10039453817E+02  0.32071817878E+02  0.15046340017E+02  0.54367021158E+02  0.39999856334E+02 0.  0.
        -12    1    3    3    0    0  0.10039453817E+02 -0.32071817878E+02 -0.15046340017E+02  0.36820978842E+02  0.00000000000E+00 0.  1.
         11    1    4    4    0    0 -0.15714557242E+02  0.17672517542E+02  0.22792433752E+02  0.32844485415E+02  0.51100000000E-03 0. -1.
        -11    1    4    4    0    0  0.38458234301E+00  0.11483537397E+02 -0.98415279486E+01  0.15128622123E+02  0.51100000000E-03 0.  1.
         12    1    4    4    0    0  0.52905210819E+01  0.29157629397E+01  0.20954342132E+01  0.63939136201E+01  0.00000000000E+00 0. -1.
</event>
<event>
 8    1  0.2390921E-006  0.9118800E+02  0.7816164E-02  0.1184000E+00
        -11   -1    0    0    0    0  0.00000000000E+00  0.00000000000E+00  0.45593999997E+02  0.45594000000E+02  0.51100000000E-03 0. -1.
         11   -1    0    0    0    0 -0.00000000000E+00 -0.00000000000E+00 -0.45593999997E+02  0.45594000000E+02  0.51100000000E-03 0.  1.
         23    2    1    2    0    0 -0.13322676296E-14  0.00000000000E+00  0.00000000000E+00  0.91188000000E+02  0.91188000000E+02 0.  0.
    9900012    2    3    3    0    0 -0.24227914413E+01  0.27374668031E+02  0.24505866024E+02  0.54367084235E+02  0.40000000130E+02 0.  0.
        -12    1    3    3    0    0  0.24227914413E+01 -0.27374668031E+02 -0.24505866024E+02  0.36820915765E+02  0.00000000000E+00 0.  1.
         11    1    4    4    0    0 -0.10644589744E+02  0.63482703860E+01  0.19090980557E+02  0.22761225068E+02  0.51100000000E-03 0. -1.
        -11    1    4    4    0    0 -0.12049718830E+01  0.41896303753E+01  0.10737796509E+02  0.11589013507E+02  0.51100000000E-03 0.  1.
        -12    1    4    4    0    0  0.94267701854E+01  0.16836767270E+02 -0.53229110421E+01  0.20016845660E+02  0.00000000000E+00 0.  1.
</event>
<event>
 8    1  0.2390921E-006  0.9118800E+02  0.7816164E-02  0.1184000E+00
        -11   -1    0    0    0    0  0.00000000000E+00  0.00000000000E+00  0.45593999997E+02  0.45594000000E+02  0.51100000000E-03 0.  1.
         11   -1    0    0    0    0 -0.00000000000E+00 -0.00000000000E+00 -0.45593999997E+02  0.45594000000E+02  0.51100000000E-03 0. -1.
         23    2    1    2    0    0  0.00000000000E+00 -0.35527136788E-14  0.88817841970E-15  0.91188000000E+02  0.91188000000E+02 0.  0.
    9900012    2    3    3    0    0  0.33019391642E+02 -0.14965059274E+02 -0.64456933139E+01  0.54367079510E+02  0.39999989359E+02 0.  0.
         12    1    3    3    0    0 -0.33019391642E+02  0.14965059274E+02  0.64456933139E+01  0.36820920490E+02  0.00000000000E+00 0. -1.
         11    1    4    4    0    0  0.11208580018E+02  0.60846762663E+01 -0.10398616742E+02  0.16455600314E+02  0.51100000000E-03 0. -1.
        -11    1    4    4    0    0  0.17371953550E+02 -0.18743448160E+02 -0.64597150835E+01  0.26359619464E+02  0.51100000000E-03 0.  1.
        -12    1    4    4    0    0  0.44388580734E+01 -0.23062873796E+01  0.10412638512E+02  0.11551859731E+02  0.00000000000E+00 0.  1.
</event>
<event>
 8    1  0.2390921E-006  0.9118800E+02  0.7816164E-02  0.1184000E+00
        -11   -1    0    0    0    0  0.00000000000E+00  0.00000000000E+00  0.45593999997E+02  0.45594000000E+02  0.51100000000E-03 0.  1.
         11   -1    0    0    0    0 -0.00000000000E+00 -0.00000000000E+00 -0.45593999997E+02  0.45594000000E+02  0.51100000000E-03 0. -1.
         23    2    1    2    0    0  0.00000000000E+00 -0.35527136788E-14  0.00000000000E+00  0.91188000000E+02  0.91188000000E+02 0.  0.
    9900012    2    3    3    0    0 -0.16463846970E+02 -0.29010026037E+02  0.15592945844E+02  0.54367084370E+02  0.40000000439E+02 0.  0.
         12    1    3    3    0    0  0.16463846970E+02  0.29010026037E+02 -0.15592945844E+02  0.36820915630E+02  0.00000000000E+00 0. -1.
         11    1    4    4    0    0 -0.15783536495E+01 -0.23087226159E+01  0.12354410311E+02  0.12666998648E+02  0.51100000000E-03 0. -1.
        -11    1    4    4    0    0  0.73351472518E+01 -0.96223947132E+01  0.60608822328E+01  0.13532522268E+02  0.51100000000E-03 0.  1.
         12    1    4    4    0    0 -0.22220640572E+02 -0.17078908708E+02 -0.28223466998E+01  0.28167563455E+02  0.00000000000E+00 0. -1.
</event>
<event>
 8    1  0.2390921E-006  0.9118800E+02  0.7816164E-02  0.1184000E+00
        -11   -1    0    0    0    0  0.00000000000E+00  0.00000000000E+00  0.45593999997E+02  0.45594000000E+02  0.51100000000E-03 0.  1.
         11   -1    0    0    0    0 -0.00000000000E+00 -0.00000000000E+00 -0.45593999997E+02  0.45594000000E+02  0.51100000000E-03 0. -1.
         23    2    1    2    0    0  0.00000000000E+00  0.00000000000E+00 -0.13322676296E-14  0.91188000000E+02  0.91188000000E+02 0.  0.
    9900012    2    3    3    0    0 -0.14892377956E+02 -0.33545058387E+02 -0.29544523577E+01  0.54367046019E+02  0.39999913009E+02 0.  0.
         12    1    3    3    0    0  0.14892377956E+02  0.33545058387E+02  0.29544523577E+01  0.36820953981E+02  0.00000000000E+00 0. -1.
         11    1    4    4    0    0 -0.86148534948E+01 -0.21524606791E+01 -0.35113840682E+01  0.95487489258E+01  0.51100000000E-03 0. -1.
        -11    1    4    4    0    0  0.75756580642E+01 -0.87645999046E+01 -0.10911030854E+02  0.15914125837E+02  0.51100000000E-03 0.  1.
        -12    1    4    4    0    0 -0.13853182525E+02 -0.22627997803E+02  0.11467962564E+02  0.28904171256E+02  0.00000000000E+00 0.  1.
</event>
<event>
 8    1  0.2390921E-006  0.9118800E+02  0.7816164E-02  0.1184000E+00
        -11   -1    0    0    0    0  0.00000000000E+00  0.00000000000E+00  0.45593999997E+02  0.45594000000E+02  0.51100000000E-03 0. -1.
         11   -1    0    0    0    0 -0.00000000000E+00 -0.00000000000E+00 -0.45593999997E+02  0.45594000000E+02  0.51100000000E-03 0.  1.
         23    2    1    2    0    0  0.00000000000E+00  0.00000000000E+00 -0.35527136788E-14  0.91188000000E+02  0.91188000000E+02 0.  0.
    9900012    2    3    3    0    0  0.23021026924E+02 -0.14534174802E+02  0.24790552895E+02  0.54367062605E+02  0.39999950821E+02 0.  0.
        -12    1    3    3    0    0 -0.23021026924E+02  0.14534174802E+02 -0.24790552895E+02  0.36820937395E+02  0.00000000000E+00 0.  1.
         11    1    4    4    0    0  0.75685382040E+01  0.48176808111E+01  0.14950774913E+02  0.17436125995E+02  0.51100000000E-03 0. -1.
        -11    1    4    4    0    0  0.17435307076E+02 -0.24501352639E+02  0.85631092115E+01  0.31267124166E+02  0.51100000000E-03 0.  1.
        -12    1    4    4    0    0 -0.19828183551E+01  0.51494970264E+01  0.12766687699E+01  0.56638124441E+01  0.00000000000E+00 0.  1.
</event>
<event>
 8    1  0.2390921E-006  0.9118800E+02  0.7816164E-02  0.1184000E+00
        -11   -1    0    0    0    0  0.00000000000E+00  0.00000000000E+00  0.45593999997E+02  0.45594000000E+02  0.51100000000E-03 0. -1.
         11   -1    0    0    0    0 -0.00000000000E+00 -0.00000000000E+00 -0.45593999997E+02  0.45594000000E+02  0.51100000000E-03 0.  1.
         23    2    1    2    0    0  0.35527136788E-14  0.35527136788E-14 -0.66613381478E-15  0.91188000000E+02  0.91188000000E+02 0.  0.
    9900012    2    3    3    0    0  0.21572903289E+02  0.29790563145E+02  0.17075083972E+01  0.54367035947E+02  0.39999890049E+02 0.  0.
        -12    1    3    3    0    0 -0.21572903289E+02 -0.29790563145E+02 -0.17075083972E+01  0.36820964053E+02  0.00000000000E+00 0.  1.
         11    1    4    4    0    0  0.14008248813E+02  0.17961806948E+02  0.10969465641E+02  0.25282142321E+02  0.51100000000E-03 0. -1.
        -11    1    4    4    0    0  0.76881245990E+01 -0.16856190252E+01 -0.12879620286E+02  0.15094144239E+02  0.51100000000E-03 0.  1.
        -12    1    4    4    0    0 -0.12347012247E+00  0.13514375223E+02  0.36176630416E+01  0.13990749387E+02  0.00000000000E+00 0.  1.
</event>
<event>
 8    1  0.2390921E-006  0.9118800E+02  0.7816164E-02  0.1184000E+00
        -11   -1    0    0    0    0  0.00000000000E+00  0.00000000000E+00  0.45593999997E+02  0.45594000000E+02  0.51100000000E-03 0.  1.
         11   -1    0    0    0    0 -0.00000000000E+00 -0.00000000000E+00 -0.45593999997E+02  0.45594000000E+02  0.51100000000E-03 0. -1.
         23    2    1    2    0    0 -0.71054273576E-14  0.35527136788E-14  0.88817841970E-15  0.91188000000E+02  0.91188000000E+02 0.  0.
    9900012    2    3    3    0    0 -0.22753870748E+02  0.28536998616E+02  0.48662656923E+01  0.54367089286E+02  0.40000011645E+02 0.  0.
        -12    1    3    3    0    0  0.22753870748E+02 -0.28536998616E+02 -0.48662656923E+01  0.36820910714E+02  0.00000000000E+00 0.  1.
         11    1    4    4    0    0 -0.28396996272E+02  0.15446650229E+02  0.48180992130E+01  0.32683367037E+02  0.51100000000E-03 0. -1.
        -11    1    4    4    0    0 -0.48117431772E+01  0.55532710810E+01  0.37836781352E+01  0.82648601074E+01  0.51100000000E-03 0.  1.
        -12    1    4    4    0    0  0.10454868701E+02  0.75370773052E+01 -0.37355116559E+01  0.13418862142E+02  0.00000000000E+00 0.  1.
</event>
<event>
 8    1  0.2390921E-006  0.9118800E+02  0.7816164E-02  0.1184000E+00
        -11   -1    0    0    0    0  0.00000000000E+00  0.00000000000E+00  0.45593999997E+02  0.45594000000E+02  0.51100000000E-03 0.  1.
         11   -1    0    0    0    0 -0.00000000000E+00 -0.00000000000E+00 -0.45593999997E+02  0.45594000000E+02  0.51100000000E-03 0. -1.
         23    2    1    2    0    0  0.00000000000E+00  0.17763568394E-14  0.35527136788E-14  0.91188000000E+02  0.91188000000E+02 0.  0.
    9900012    2    3    3    0    0  0.21315888581E+02  0.15059698843E+02  0.25973413110E+02  0.54367084424E+02  0.40000000562E+02 0.  0.
         12    1    3    3    0    0 -0.21315888581E+02 -0.15059698843E+02 -0.25973413110E+02  0.36820915576E+02  0.00000000000E+00 0. -1.
         11    1    4    4    0    0  0.12623385379E+02  0.14302102582E+02  0.10588791533E+01  0.19105528573E+02  0.51100000000E-03 0. -1.
        -11    1    4    4    0    0 -0.31384562522E+01  0.78727130006E+01  0.17835474281E+02  0.19746737977E+02  0.51100000000E-03 0.  1.
        -12    1    4    4    0    0  0.11830959454E+02 -0.71151167396E+01  0.70790596761E+01  0.15514817875E+02  0.00000000000E+00 0.  1.
</event>
<event>
 8    1  0.2390921E-006  0.9118800E+02  0.7816164E-02  0.1184000E+00
        -11   -1    0    0    0    0  0.00000000000E+00  0.00000000000E+00  0.45593999997E+02  0.45594000000E+02  0.51100000000E-03 0.  1.
         11   -1    0    0    0    0 -0.00000000000E+00 -0.00000000000E+00 -0.45593999997E+02  0.45594000000E+02  0.51100000000E-03 0. -1.
         23    2    1    2    0    0  0.00000000000E+00  0.71054273576E-14  0.00000000000E+00  0.91188000000E+02  0.91188000000E+02 0.  0.
    9900012    2    3    3    0    0  0.17953035391E+02 -0.24820534269E+02  0.20430547622E+02  0.54367113572E+02  0.40000067011E+02 0.  0.
         12    1    3    3    0    0 -0.17953035391E+02  0.24820534269E+02 -0.20430547622E+02  0.36820886428E+02  0.00000000000E+00 0. -1.
         11    1    4    4    0    0  0.14553773295E+02  0.28824912479E+01  0.98873754990E+01  0.17829225093E+02  0.51100000000E-03 0. -1.
        -11    1    4    4    0    0 -0.87564174305E+00 -0.70443572096E+01 -0.63399625154E+01  0.95176069427E+01  0.51100000000E-03 0.  1.
        -12    1    4    4    0    0  0.42749038391E+01 -0.20658668308E+02  0.16883134638E+02  0.27020281536E+02  0.00000000000E+00 0.  1.
</event>
<event>
 8    1  0.2390921E-006  0.9118800E+02  0.7816164E-02  0.1184000E+00
        -11   -1    0    0    0    0  0.00000000000E+00  0.00000000000E+00  0.45593999997E+02  0.45594000000E+02  0.51100000000E-03 0.  1.
         11   -1    0    0    0    0 -0.00000000000E+00 -0.00000000000E+00 -0.45593999997E+02  0.45594000000E+02  0.51100000000E-03 0. -1.
         23    2    1    2    0    0  0.66613381478E-15  0.00000000000E+00 -0.35527136788E-14  0.91188000000E+02  0.91188000000E+02 0.  0.
    9900012    2    3    3    0    0 -0.16934365558E+01 -0.20096213810E+02 -0.30806728391E+02  0.54367081339E+02  0.39999993528E+02 0.  0.
        -12    1    3    3    0    0  0.16934365558E+01  0.20096213810E+02  0.30806728391E+02  0.36820918661E+02  0.00000000000E+00 0.  1.
         11    1    4    4    0    0  0.47209353911E+01  0.53753511922E+01 -0.53746011646E+01  0.89480707052E+01  0.51100000000E-03 0. -1.
        -11    1    4    4    0    0  0.18844634752E+01  0.49700550202E+01 -0.72918471572E+01  0.90235073402E+01  0.51100000000E-03 0.  1.
         12    1    4    4    0    0 -0.82988354221E+01 -0.30441620023E+02 -0.18140280070E+02  0.36395503293E+02  0.00000000000E+00 0. -1.
</event>
<event>
 8    1  0.2390921E-006  0.9118800E+02  0.7816164E-02  0.1184000E+00
        -11   -1    0    0    0    0  0.00000000000E+00  0.00000000000E+00  0.45593999997E+02  0.45594000000E+02  0.51100000000E-03 0. -1.
         11   -1    0    0    0    0 -0.00000000000E+00 -0.00000000000E+00 -0.45593999997E+02  0.45594000000E+02  0.51100000000E-03 0.  1.
         23    2    1    2    0    0  0.00000000000E+00  0.00000000000E+00 -0.35527136788E-14  0.91188000000E+02  0.91188000000E+02 0.  0.
    9900012    2    3    3    0    0 -0.32466997439E+02  0.13945578839E+01 -0.17312687249E+02  0.54367084012E+02  0.39999999623E+02 0.  0.
         12    1    3    3    0    0  0.32466997439E+02 -0.13945578839E+01  0.17312687249E+02  0.36820915988E+02  0.00000000000E+00 0. -1.
         11    1    4    4    0    0 -0.14543462944E+02 -0.84900296016E+00  0.73492872711E+01  0.16317020073E+02  0.51100000000E-03 0. -1.
        -11    1    4    4    0    0 -0.22382536357E+02  0.59690222141E+01 -0.19804362379E+02  0.30476547204E+02  0.51100000000E-03 0.  1.
         12    1    4    4    0    0  0.44590018620E+01 -0.37254613701E+01 -0.48576121417E+01  0.75735167356E+01  0.00000000000E+00 0. -1.
</event>
<event>
 8    1  0.2390921E-006  0.9118800E+02  0.7816164E-02  0.1184000E+00
        -11   -1    0    0    0    0  0.00000000000E+00  0.00000000000E+00  0.45593999997E+02  0.45594000000E+02  0.51100000000E-03 0.  1.
         11   -1    0    0    0    0 -0.00000000000E+00 -0.00000000000E+00 -0.45593999997E+02  0.45594000000E+02  0.51100000000E-03 0. -1.
         23    2    1    2    0    0  0.00000000000E+00 -0.17763568394E-14  0.00000000000E+00  0.91188000000E+02  0.91188000000E+02 0.  0.
    9900012    2    3    3    0    0 -0.11654487617E+02  0.24634570178E+01 -0.34840841708E+02  0.54367082670E+02  0.39999996562E+02 0.  0.
        -12    1    3    3    0    0  0.11654487617E+02 -0.24634570178E+01  0.34840841708E+02  0.36820917330E+02  0.00000000000E+00 0.  1.
         11    1    4    4    0    0  0.15240705634E+01  0.15818919876E+02 -0.17807373159E+02  0.23867625693E+02  0.51100000000E-03 0. -1.
        -11    1    4    4    0    0 -0.15460209835E+02 -0.66944728084E+01 -0.16263475107E+02  0.23416547080E+02  0.51100000000E-03 0.  1.
        -12    1    4    4    0    0  0.22816516545E+01 -0.66609900495E+01 -0.76999344257E+00  0.70829098973E+01  0.00000000000E+00 0.  1.
</event>
<event>
 8    1  0.2390921E-006  0.9118800E+02  0.7816164E-02  0.1184000E+00
        -11   -1    0    0    0    0  0.00000000000E+00  0.00000000000E+00  0.45593999997E+02  0.45594000000E+02  0.51100000000E-03 0. -1.
         11   -1    0    0    0    0 -0.00000000000E+00 -0.00000000000E+00 -0.45593999997E+02  0.45594000000E+02  0.51100000000E-03 0.  1.
         23    2    1    2    0    0 -0.35527136788E-14  0.00000000000E+00  0.00000000000E+00  0.91188000000E+02  0.91188000000E+02 0.  0.
    9900012    2    3    3    0    0 -0.30345251162E+02  0.20355515133E+02 -0.45385587740E+01  0.54367085017E+02  0.40000001914E+02 0.  0.
         12    1    3    3    0    0  0.30345251162E+02 -0.20355515133E+02  0.45385587740E+01  0.36820914983E+02  0.00000000000E+00 0. -1.
         11    1    4    4    0    0  0.36237823057E+00  0.22455080915E+02 -0.33659074330E+01  0.22708837707E+02  0.51100000000E-03 0. -1.
        -11    1    4    4    0    0 -0.20060346404E+02 -0.41468207459E+01  0.13411484395E+01  0.20528329195E+02  0.51100000000E-03 0.  1.
         12    1    4    4    0    0 -0.10647282989E+02  0.20472549640E+01 -0.25137997806E+01  0.11129918116E+02  0.00000000000E+00 0. -1.
</event>
<event>
 8    1  0.2390921E-006  0.9118800E+02  0.7816164E-02  0.1184000E+00
        -11   -1    0    0    0    0  0.00000000000E+00  0.00000000000E+00  0.45593999997E+02  0.45594000000E+02  0.51100000000E-03 0.  1.
         11   -1    0    0    0    0 -0.00000000000E+00 -0.00000000000E+00 -0.45593999997E+02  0.45594000000E+02  0.51100000000E-03 0. -1.
         23    2    1    2    0    0  0.71054273576E-14 -0.17763568394E-14 -0.35527136788E-14  0.91188000000E+02  0.91188000000E+02 0.  0.
    9900012    2    3    3    0    0  0.27687957488E+02 -0.86379337010E+01 -0.22683389610E+02  0.54367176371E+02  0.40000210173E+02 0.  0.
         12    1    3    3    0    0 -0.27687957488E+02  0.86379337010E+01  0.22683389610E+02  0.36820823629E+02  0.00000000000E+00 0. -1.
         11    1    4    4    0    0  0.13424138895E+00  0.16664705103E+01 -0.20457282902E+00  0.16843381536E+01  0.51100000000E-03 0. -1.
        -11    1    4    4    0    0  0.34131346290E+02 -0.15878030441E+02 -0.22880463368E+02  0.44051972197E+02  0.51100000000E-03 0.  1.
         12    1    4    4    0    0 -0.65776301907E+01  0.55736262301E+01  0.40164658680E+00  0.86308660202E+01  0.00000000000E+00 0. -1.
</event>
<event>
 8    1  0.2390921E-006  0.9118800E+02  0.7816164E-02  0.1184000E+00
        -11   -1    0    0    0    0  0.00000000000E+00  0.00000000000E+00  0.45593999997E+02  0.45594000000E+02  0.51100000000E-03 0. -1.
         11   -1    0    0    0    0 -0.00000000000E+00 -0.00000000000E+00 -0.45593999997E+02  0.45594000000E+02  0.51100000000E-03 0.  1.
         23    2    1    2    0    0 -0.26645352591E-14 -0.35527136788E-14  0.00000000000E+00  0.91188000000E+02  0.91188000000E+02 0.  0.
    9900012    2    3    3    0    0  0.16030351580E+01  0.23860462485E+02 -0.27997985548E+02  0.54367101227E+02  0.40000038868E+02 0.  0.
         12    1    3    3    0    0 -0.16030351580E+01 -0.23860462485E+02  0.27997985548E+02  0.36820898773E+02  0.00000000000E+00 0. -1.
         11    1    4    4    0    0  0.15948339770E+02  0.12999184652E+02 -0.17295512257E+02  0.26878673470E+02  0.51100000000E-03 0. -1.
        -11    1    4    4    0    0 -0.39469436108E+01 -0.31819436327E+01 -0.84715001749E+01  0.98726614762E+01  0.51100000000E-03 0.  1.
         12    1    4    4    0    0 -0.10398361001E+02  0.14043221465E+02 -0.22309731165E+01  0.17615766281E+02  0.00000000000E+00 0. -1.
</event>
<event>
 8    1  0.2390921E-006  0.9118800E+02  0.7816164E-02  0.1184000E+00
        -11   -1    0    0    0    0  0.00000000000E+00  0.00000000000E+00  0.45593999997E+02  0.45594000000E+02  0.51100000000E-03 0.  1.
         11   -1    0    0    0    0 -0.00000000000E+00 -0.00000000000E+00 -0.45593999997E+02  0.45594000000E+02  0.51100000000E-03 0. -1.
         23    2    1    2    0    0  0.00000000000E+00  0.00000000000E+00 -0.88817841970E-15  0.91188000000E+02  0.91188000000E+02 0.  0.
    9900012    2    3    3    0    0  0.35262608422E+02 -0.86937943577E+01  0.60618621679E+01  0.54367084938E+02  0.40000001733E+02 0.  0.
        -12    1    3    3    0    0 -0.35262608422E+02  0.86937943577E+01 -0.60618621679E+01  0.36820915062E+02  0.00000000000E+00 0.  1.
         11    1    4    4    0    0  0.83167269808E+01  0.14764243203E+01  0.46769853780E+00  0.84596996772E+01  0.51100000000E-03 0. -1.
        -11    1    4    4    0    0  0.12507163466E+02  0.10946751393E+02 -0.61978638029E+01  0.17739053526E+02  0.51100000000E-03 0.  1.
        -12    1    4    4    0    0  0.14438717976E+02 -0.21116970071E+02  0.11792027433E+02  0.28168331735E+02  0.00000000000E+00 0.  1.
</event>
<event>
 8    1  0.2390921E-006  0.9118800E+02  0.7816164E-02  0.1184000E+00
        -11   -1    0    0    0    0  0.00000000000E+00  0.00000000000E+00  0.45593999997E+02  0.45594000000E+02  0.51100000000E-03 0.  1.
         11   -1    0    0    0    0 -0.00000000000E+00 -0.00000000000E+00 -0.45593999997E+02  0.45594000000E+02  0.51100000000E-03 0. -1.
         23    2    1    2    0    0  0.17763568394E-14  0.00000000000E+00  0.77715611724E-15  0.91188000000E+02  0.91188000000E+02 0.  0.
    9900012    2    3    3    0    0 -0.12237581353E+02  0.34717772390E+02  0.83819586641E+00  0.54367018354E+02  0.39999849940E+02 0.  0.
         12    1    3    3    0    0  0.12237581353E+02 -0.34717772390E+02 -0.83819586641E+00  0.36820981646E+02  0.00000000000E+00 0. -1.
         11    1    4    4    0    0 -0.12077199629E+01 -0.30137558329E+01  0.80179573831E+00  0.33442769616E+01  0.51100000000E-03 0. -1.
        -11    1    4    4    0    0 -0.14699795777E+02  0.14781369884E+02  0.12844200826E+02  0.24485636333E+02  0.51100000000E-03 0.  1.
        -12    1    4    4    0    0  0.36699343868E+01  0.22950158339E+02 -0.12807800698E+02  0.26537105059E+02  0.00000000000E+00 0.  1.
</event>
<event>
 8    1  0.2390921E-006  0.9118800E+02  0.7816164E-02  0.1184000E+00
        -11   -1    0    0    0    0  0.00000000000E+00  0.00000000000E+00  0.45593999997E+02  0.45594000000E+02  0.51100000000E-03 0.  1.
         11   -1    0    0    0    0 -0.00000000000E+00 -0.00000000000E+00 -0.45593999997E+02  0.45594000000E+02  0.51100000000E-03 0. -1.
         23    2    1    2    0    0  0.88817841970E-15  0.00000000000E+00  0.35527136788E-14  0.91188000000E+02  0.91188000000E+02 0.  0.
    9900012    2    3    3    0    0  0.53210480073E+01 -0.30673277151E+02  0.19662356127E+02  0.54367194312E+02  0.40000251073E+02 0.  0.
         12    1    3    3    0    0 -0.53210480073E+01  0.30673277151E+02 -0.19662356127E+02  0.36820805688E+02  0.00000000000E+00 0. -1.
         11    1    4    4    0    0 -0.42203155251E+01 -0.12279726174E+01 -0.27295165201E+01  0.51738999387E+01  0.51100000000E-03 0. -1.
        -11    1    4    4    0    0  0.13457081363E+02 -0.26683326119E+02  0.28590614638E+02  0.41358387024E+02  0.51100000000E-03 0.  1.
        -12    1    4    4    0    0 -0.39157178309E+01 -0.27619784144E+01 -0.61987419917E+01  0.78349073494E+01  0.00000000000E+00 0.  1.
</event>
<event>
 8    1  0.2390921E-006  0.9118800E+02  0.7816164E-02  0.1184000E+00
        -11   -1    0    0    0    0  0.00000000000E+00  0.00000000000E+00  0.45593999997E+02  0.45594000000E+02  0.51100000000E-03 0. -1.
         11   -1    0    0    0    0 -0.00000000000E+00 -0.00000000000E+00 -0.45593999997E+02  0.45594000000E+02  0.51100000000E-03 0.  1.
         23    2    1    2    0    0  0.00000000000E+00 -0.35527136788E-14  0.83266726847E-16  0.91188000000E+02  0.91188000000E+02 0.  0.
    9900012    2    3    3    0    0 -0.30339080021E+02  0.20864123797E+02 -0.99667385560E-01  0.54367063402E+02  0.39999952639E+02 0.  0.
        -12    1    3    3    0    0  0.30339080021E+02 -0.20864123797E+02  0.99667385560E-01  0.36820936598E+02  0.00000000000E+00 0.  1.
         11    1    4    4    0    0 -0.11625210581E+02  0.36434850390E+01 -0.35935119341E+01  0.12701725575E+02  0.51100000000E-03 0. -1.
        -11    1    4    4    0    0 -0.14173658113E+02  0.51541568746E+01 -0.13563660663E+02  0.20283757251E+02  0.51100000000E-03 0.  1.
         12    1    4    4    0    0 -0.45402113269E+01  0.12066481884E+02  0.17057505211E+02  0.21381580577E+02  0.00000000000E+00 0. -1.
</event>
<event>
 8    1  0.2390921E-006  0.9118800E+02  0.7816164E-02  0.1184000E+00
        -11   -1    0    0    0    0  0.00000000000E+00  0.00000000000E+00  0.45593999997E+02  0.45594000000E+02  0.51100000000E-03 0. -1.
         11   -1    0    0    0    0 -0.00000000000E+00 -0.00000000000E+00 -0.45593999997E+02  0.45594000000E+02  0.51100000000E-03 0.  1.
         23    2    1    2    0    0  0.00000000000E+00  0.00000000000E+00  0.71054273576E-14  0.91188000000E+02  0.91188000000E+02 0.  0.
    9900012    2    3    3    0    0 -0.85358289993E+01 -0.14050303675E+02 -0.32947037003E+02  0.54367100265E+02  0.40000036673E+02 0.  0.
         12    1    3    3    0    0  0.85358289993E+01  0.14050303675E+02  0.32947037003E+02  0.36820899735E+02  0.00000000000E+00 0. -1.
         11    1    4    4    0    0 -0.44646281934E+01  0.17406269824E+01  0.15192120923E+01  0.50269964034E+01  0.51100000000E-03 0. -1.
        -11    1    4    4    0    0 -0.27407289338E+01 -0.25187896697E+02 -0.21243975413E+02  0.33064304419E+02  0.51100000000E-03 0.  1.
        -12    1    4    4    0    0 -0.13304718721E+01  0.93969660397E+01 -0.13222273682E+02  0.16275799442E+02  0.00000000000E+00 0.  1.
</event>
<event>
 8    1  0.2390921E-006  0.9118800E+02  0.7816164E-02  0.1184000E+00
        -11   -1    0    0    0    0  0.00000000000E+00  0.00000000000E+00  0.45593999997E+02  0.45594000000E+02  0.51100000000E-03 0.  1.
         11   -1    0    0    0    0 -0.00000000000E+00 -0.00000000000E+00 -0.45593999997E+02  0.45594000000E+02  0.51100000000E-03 0. -1.
         23    2    1    2    0    0 -0.88817841970E-15 -0.17763568394E-14  0.00000000000E+00  0.91188000000E+02  0.91188000000E+02 0.  0.
    9900012    2    3    3    0    0 -0.28012545838E+01 -0.11478363892E+02  0.34873766504E+02  0.54367089432E+02  0.40000011978E+02 0.  0.
         12    1    3    3    0    0  0.28012545838E+01  0.11478363892E+02 -0.34873766504E+02  0.36820910568E+02  0.00000000000E+00 0. -1.
         11    1    4    4    0    0  0.91814222721E+01  0.25558241365E+01  0.10225099632E+02  0.13977961751E+02  0.51100000000E-03 0. -1.
        -11    1    4    4    0    0 -0.13316270270E+02 -0.18913590811E+02  0.26340601630E+02  0.35055302962E+02  0.51100000000E-03 0.  1.
        -12    1    4    4    0    0  0.13335934141E+01  0.48794027824E+01 -0.16919347584E+01  0.53338247191E+01  0.00000000000E+00 0.  1.
</event>
<event>
 8    1  0.2390921E-006  0.9118800E+02  0.7816164E-02  0.1184000E+00
        -11   -1    0    0    0    0  0.00000000000E+00  0.00000000000E+00  0.45593999997E+02  0.45594000000E+02  0.51100000000E-03 0.  1.
         11   -1    0    0    0    0 -0.00000000000E+00 -0.00000000000E+00 -0.45593999997E+02  0.45594000000E+02  0.51100000000E-03 0. -1.
         23    2    1    2    0    0  0.44408920985E-15  0.71054273576E-14  0.00000000000E+00  0.91188000000E+02  0.91188000000E+02 0.  0.
    9900012    2    3    3    0    0 -0.20305193909E+01 -0.33454537488E+02 -0.15246353147E+02  0.54367076984E+02  0.39999983600E+02 0.  0.
        -12    1    3    3    0    0  0.20305193909E+01  0.33454537488E+02  0.15246353147E+02  0.36820923016E+02  0.00000000000E+00 0.  1.
         11    1    4    4    0    0 -0.54588688506E+01  0.77616131020E+00 -0.59067612527E+01  0.80803158518E+01  0.51100000000E-03 0. -1.
        -11    1    4    4    0    0 -0.67231202075E+01 -0.19448031718E+02  0.72897214950E+01  0.21830399052E+02  0.51100000000E-03 0.  1.
        -12    1    4    4    0    0  0.10151469667E+02 -0.14782667080E+02 -0.16629313389E+02  0.24456362080E+02  0.00000000000E+00 0.  1.
</event>
<event>
 8    1  0.2390921E-006  0.9118800E+02  0.7816164E-02  0.1184000E+00
        -11   -1    0    0    0    0  0.00000000000E+00  0.00000000000E+00  0.45593999997E+02  0.45594000000E+02  0.51100000000E-03 0. -1.
         11   -1    0    0    0    0 -0.00000000000E+00 -0.00000000000E+00 -0.45593999997E+02  0.45594000000E+02  0.51100000000E-03 0.  1.
         23    2    1    2    0    0  0.00000000000E+00  0.88817841970E-15  0.00000000000E+00  0.91188000000E+02  0.91188000000E+02 0.  0.
    9900012    2    3    3    0    0  0.21297314111E+02 -0.53640790039E+01  0.29553877884E+02  0.54367073479E+02  0.39999975609E+02 0.  0.
        -12    1    3    3    0    0 -0.21297314111E+02  0.53640790039E+01 -0.29553877884E+02  0.36820926521E+02  0.00000000000E+00 0.  1.
         11    1    4    4    0    0 -0.61850511059E+00  0.32022090371E+01  0.59311972349E+01  0.67687363805E+01  0.51100000000E-03 0. -1.
        -11    1    4    4    0    0  0.11312785609E+02  0.31361087217E+01 -0.66226835841E+01  0.13478658474E+02  0.51100000000E-03 0.  1.
        -12    1    4    4    0    0  0.10603033613E+02 -0.11702396763E+02  0.30245364233E+02  0.34119678624E+02  0.00000000000E+00 0.  1.
</event>
<event>
 8    1  0.2390921E-006  0.9118800E+02  0.7816164E-02  0.1184000E+00
        -11   -1    0    0    0    0  0.00000000000E+00  0.00000000000E+00  0.45593999997E+02  0.45594000000E+02  0.51100000000E-03 0.  1.
         11   -1    0    0    0    0 -0.00000000000E+00 -0.00000000000E+00 -0.45593999997E+02  0.45594000000E+02  0.51100000000E-03 0. -1.
         23    2    1    2    0    0 -0.17763568394E-14 -0.22204460493E-14  0.71054273576E-14  0.91188000000E+02  0.91188000000E+02 0.  0.
    9900012    2    3    3    0    0  0.13443648554E+02  0.22091336040E+01 -0.34207527578E+02  0.54367259910E+02  0.40000400615E+02 0.  0.
        -12    1    3    3    0    0 -0.13443648554E+02 -0.22091336040E+01  0.34207527578E+02  0.36820740090E+02  0.00000000000E+00 0.  1.
         11    1    4    4    0    0  0.83223305379E+01 -0.59572048119E+01  0.77646136212E-01  0.10235013627E+02  0.51100000000E-03 0. -1.
        -11    1    4    4    0    0  0.86097307616E+01  0.11320298262E+02 -0.59623072477E+01  0.15421599285E+02  0.51100000000E-03 0.  1.
         12    1    4    4    0    0 -0.34884127452E+01 -0.31539598458E+01 -0.28322866467E+02  0.28710646999E+02  0.00000000000E+00 0. -1.
</event>
<event>
 8    1  0.2390921E-006  0.9118800E+02  0.7816164E-02  0.1184000E+00
        -11   -1    0    0    0    0  0.00000000000E+00  0.00000000000E+00  0.45593999997E+02  0.45594000000E+02  0.51100000000E-03 0.  1.
         11   -1    0    0    0    0 -0.00000000000E+00 -0.00000000000E+00 -0.45593999997E+02  0.45594000000E+02  0.51100000000E-03 0. -1.
         23    2    1    2    0    0  0.35527136788E-14 -0.35527136788E-14  0.44408920985E-15  0.91188000000E+02  0.91188000000E+02 0.  0.
    9900012    2    3    3    0    0 -0.23772027468E+02  0.28008630045E+02  0.24874773836E+01  0.54367079442E+02  0.39999989205E+02 0.  0.
         12    1    3    3    0    0  0.23772027468E+02 -0.28008630045E+02 -0.24874773836E+01  0.36820920558E+02  0.00000000000E+00 0. -1.
         11    1    4    4    0    0 -0.23943117464E+02  0.14237328681E+02 -0.87902440699E+01  0.29210319973E+02  0.51100000000E-03 0. -1.
        -11    1    4    4    0    0  0.16661311723E+01  0.17102253863E+02  0.12563106846E+02  0.21286022037E+02  0.51100000000E-03 0.  1.
        -12    1    4    4    0    0 -0.14950411769E+01 -0.33309524981E+01 -0.12853853922E+01  0.38707374326E+01  0.00000000000E+00 0.  1.
</event>
<event>
 8    1  0.2390921E-006  0.9118800E+02  0.7816164E-02  0.1184000E+00
        -11   -1    0    0    0    0  0.00000000000E+00  0.00000000000E+00  0.45593999997E+02  0.45594000000E+02  0.51100000000E-03 0.  1.
         11   -1    0    0    0    0 -0.00000000000E+00 -0.00000000000E+00 -0.45593999997E+02  0.45594000000E+02  0.51100000000E-03 0. -1.
         23    2    1    2    0    0 -0.71054273576E-14  0.00000000000E+00 -0.88817841970E-15  0.91188000000E+02  0.91188000000E+02 0.  0.
    9900012    2    3    3    0    0  0.34718835856E+02 -0.11567563855E+02  0.40710816599E+01  0.54367084712E+02  0.40000001219E+02 0.  0.
        -12    1    3    3    0    0 -0.34718835856E+02  0.11567563855E+02 -0.40710816599E+01  0.36820915288E+02  0.00000000000E+00 0.  1.
         11    1    4    4    0    0  0.28670722307E+02 -0.12751107291E+02  0.37532061930E+00  0.31380597836E+02  0.51100000000E-03 0. -1.
        -11    1    4    4    0    0  0.46214641448E+01  0.19862209305E+01 -0.89330933193E+01  0.10251983269E+02  0.51100000000E-03 0.  1.
        -12    1    4    4    0    0  0.14266494041E+01 -0.80267749463E+00  0.12628854360E+02  0.12734503607E+02  0.00000000000E+00 0.  1.
</event>
<event>
 8    1  0.2390921E-006  0.9118800E+02  0.7816164E-02  0.1184000E+00
        -11   -1    0    0    0    0  0.00000000000E+00  0.00000000000E+00  0.45593999997E+02  0.45594000000E+02  0.51100000000E-03 0.  1.
         11   -1    0    0    0    0 -0.00000000000E+00 -0.00000000000E+00 -0.45593999997E+02  0.45594000000E+02  0.51100000000E-03 0. -1.
         23    2    1    2    0    0 -0.17763568394E-14  0.00000000000E+00  0.00000000000E+00  0.91188000000E+02  0.91188000000E+02 0.  0.
    9900012    2    3    3    0    0 -0.33137920739E+01 -0.34474652538E+02  0.12501851585E+02  0.54367093186E+02  0.40000020537E+02 0.  0.
         12    1    3    3    0    0  0.33137920739E+01  0.34474652538E+02 -0.12501851585E+02  0.36820906814E+02  0.00000000000E+00 0. -1.
         11    1    4    4    0    0  0.13042406850E+02 -0.88475458789E+01 -0.11409665738E+01  0.15801431882E+02  0.51100000000E-03 0. -1.
        -11    1    4    4    0    0 -0.16006405897E+01 -0.20326855522E+02  0.74450101968E+01  0.21706480203E+02  0.51100000000E-03 0.  1.
         12    1    4    4    0    0 -0.14755558335E+02 -0.53002511372E+01  0.61978079618E+01  0.16859181102E+02  0.00000000000E+00 0. -1.
</event>
<event>
 8    1  0.2390921E-006  0.9118800E+02  0.7816164E-02  0.1184000E+00
        -11   -1    0    0    0    0  0.00000000000E+00  0.00000000000E+00  0.45593999997E+02  0.45594000000E+02  0.51100000000E-03 0. -1.
         11   -1    0    0    0    0 -0.00000000000E+00 -0.00000000000E+00 -0.45593999997E+02  0.45594000000E+02  0.51100000000E-03 0.  1.
         23    2    1    2    0    0 -0.71054273576E-14  0.17763568394E-14 -0.17763568394E-14  0.91188000000E+02  0.91188000000E+02 0.  0.
    9900012    2    3    3    0    0  0.35898737736E+02 -0.63339954858E+01  0.51904367107E+01  0.54367088780E+02  0.40000010491E+02 0.  0.
         12    1    3    3    0    0 -0.35898737736E+02  0.63339954858E+01 -0.51904367107E+01  0.36820911220E+02  0.00000000000E+00 0. -1.
         11    1    4    4    0    0  0.67301818825E+01  0.90433553455E+01  0.42244835069E+00  0.11280783969E+02  0.51100000000E-03 0. -1.
        -11    1    4    4    0    0  0.13653923277E+02  0.43285060825E+01  0.99961868868E+01  0.17466806758E+02  0.51100000000E-03 0.  1.
        -12    1    4    4    0    0  0.15514632576E+02 -0.19705856914E+02 -0.52281985268E+01  0.25619498053E+02  0.00000000000E+00 0.  1.
</event>
<event>
 8    1  0.2390921E-006  0.9118800E+02  0.7816164E-02  0.1184000E+00
        -11   -1    0    0    0    0  0.00000000000E+00  0.00000000000E+00  0.45593999997E+02  0.45594000000E+02  0.51100000000E-03 0. -1.
         11   -1    0    0    0    0 -0.00000000000E+00 -0.00000000000E+00 -0.45593999997E+02  0.45594000000E+02  0.51100000000E-03 0.  1.
         23    2    1    2    0    0  0.00000000000E+00  0.35527136788E-14  0.00000000000E+00  0.91188000000E+02  0.91188000000E+02 0.  0.
    9900012    2    3    3    0    0 -0.21542782984E+02  0.23922422250E+02  0.17871915423E+02  0.54367093630E+02  0.40000021549E+02 0.  0.
        -12    1    3    3    0    0  0.21542782984E+02 -0.23922422250E+02 -0.17871915423E+02  0.36820906370E+02  0.00000000000E+00 0.  1.
         11    1    4    4    0    0 -0.93639268145E+01  0.42752414611E+01  0.13315409233E+02  0.16830357639E+02  0.51100000000E-03 0. -1.
        -11    1    4    4    0    0  0.53523451173E+01 -0.41919247002E+01 -0.22713593252E+01  0.71679079508E+01  0.51100000000E-03 0.  1.
         12    1    4    4    0    0 -0.17531201287E+02  0.23839105489E+02  0.68278655146E+01  0.30368828041E+02  0.00000000000E+00 0. -1.
</event>
<event>
 8    1  0.2390921E-006  0.9118800E+02  0.7816164E-02  0.1184000E+00
        -11   -1    0    0    0    0  0.00000000000E+00  0.00000000000E+00  0.45593999997E+02  0.45594000000E+02  0.51100000000E-03 0.  1.
         11   -1    0    0    0    0 -0.00000000000E+00 -0.00000000000E+00 -0.45593999997E+02  0.45594000000E+02  0.51100000000E-03 0. -1.
         23    2    1    2    0    0  0.00000000000E+00  0.00000000000E+00  0.00000000000E+00  0.91188000000E+02  0.91188000000E+02 0.  0.
    9900012    2    3    3    0    0 -0.18431222195E+02  0.85859924402E+01 -0.30697728945E+02  0.54367085017E+02  0.40000001914E+02 0.  0.
        -12    1    3    3    0    0  0.18431222195E+02 -0.85859924402E+01  0.30697728945E+02  0.36820914983E+02  0.00000000000E+00 0.  1.
         11    1    4    4    0    0 -0.13920344614E+02  0.37819619347E+01 -0.53811441464E+01  0.15395971643E+02  0.51100000000E-03 0. -1.
        -11    1    4    4    0    0 -0.11857453306E+01 -0.69207637515E+01  0.33807983643E+01  0.77931226562E+01  0.51100000000E-03 0.  1.
        -12    1    4    4    0    0 -0.33251322507E+01  0.11724794257E+02 -0.28697383163E+02  0.31177990718E+02  0.00000000000E+00 0.  1.
</event>
<event>
 8    1  0.2390921E-006  0.9118800E+02  0.7816164E-02  0.1184000E+00
        -11   -1    0    0    0    0  0.00000000000E+00  0.00000000000E+00  0.45593999997E+02  0.45594000000E+02  0.51100000000E-03 0. -1.
         11   -1    0    0    0    0 -0.00000000000E+00 -0.00000000000E+00 -0.45593999997E+02  0.45594000000E+02  0.51100000000E-03 0.  1.
         23    2    1    2    0    0 -0.53290705182E-14  0.35527136788E-14  0.35527136788E-14  0.91188000000E+02  0.91188000000E+02 0.  0.
    9900012    2    3    3    0    0  0.10657004178E+02 -0.23857044661E+02 -0.25943203602E+02  0.54367080251E+02  0.39999991049E+02 0.  0.
         12    1    3    3    0    0 -0.10657004178E+02  0.23857044661E+02  0.25943203602E+02  0.36820919749E+02  0.00000000000E+00 0. -1.
         11    1    4    4    0    0 -0.79048019250E+01  0.15299388545E+01 -0.19463889163E+02  0.21063465716E+02  0.51100000000E-03 0. -1.
        -11    1    4    4    0    0  0.50561504409E+01 -0.33437337148E+01 -0.41520396295E+01  0.73474244319E+01  0.51100000000E-03 0.  1.
         12    1    4    4    0    0  0.13505655662E+02 -0.22043249801E+02 -0.23272748098E+01  0.25956190103E+02  0.00000000000E+00 0. -1.
</event>
<event>
 8    1  0.2390921E-006  0.9118800E+02  0.7816164E-02  0.1184000E+00
        -11   -1    0    0    0    0  0.00000000000E+00  0.00000000000E+00  0.45593999997E+02  0.45594000000E+02  0.51100000000E-03 0.  1.
         11   -1    0    0    0    0 -0.00000000000E+00 -0.00000000000E+00 -0.45593999997E+02  0.45594000000E+02  0.51100000000E-03 0. -1.
         23    2    1    2    0    0  0.00000000000E+00  0.00000000000E+00 -0.17763568394E-14  0.91188000000E+02  0.91188000000E+02 0.  0.
    9900012    2    3    3    0    0  0.27691194973E+02  0.21059755831E+02  0.12060859055E+02  0.54367083175E+02  0.39999997713E+02 0.  0.
        -12    1    3    3    0    0 -0.27691194973E+02 -0.21059755831E+02 -0.12060859055E+02  0.36820916825E+02  0.00000000000E+00 0.  1.
         11    1    4    4    0    0  0.34147638308E+02  0.17420691109E+02  0.12799854948E+02  0.40415071046E+02  0.51100000000E-03 0. -1.
        -11    1    4    4    0    0 -0.13917000640E+01 -0.17300651243E+01  0.44202867965E+01  0.49466038882E+01  0.51100000000E-03 0.  1.
         12    1    4    4    0    0 -0.50647432703E+01  0.53691298462E+01 -0.51592826897E+01  0.90054082401E+01  0.00000000000E+00 0. -1.
</event>
<event>
 8    1  0.2390921E-006  0.9118800E+02  0.7816164E-02  0.1184000E+00
        -11   -1    0    0    0    0  0.00000000000E+00  0.00000000000E+00  0.45593999997E+02  0.45594000000E+02  0.51100000000E-03 0. -1.
         11   -1    0    0    0    0 -0.00000000000E+00 -0.00000000000E+00 -0.45593999997E+02  0.45594000000E+02  0.51100000000E-03 0.  1.
         23    2    1    2    0    0  0.00000000000E+00  0.00000000000E+00  0.17763568394E-14  0.91188000000E+02  0.91188000000E+02 0.  0.
    9900012    2    3    3    0    0  0.20130069764E+02 -0.29691816927E+02  0.83040109379E+01  0.54367077975E+02  0.39999985858E+02 0.  0.
        -12    1    3    3    0    0 -0.20130069764E+02  0.29691816927E+02 -0.83040109379E+01  0.36820922025E+02  0.00000000000E+00 0.  1.
         11    1    4    4    0    0  0.24712361039E+02 -0.13549820474E+02  0.11567970167E+02  0.30465002167E+02  0.51100000000E-03 0. -1.
        -11    1    4    4    0    0 -0.12291724603E+01  0.13427434679E+01  0.42152307705E+01  0.45915134398E+01  0.51100000000E-03 0.  1.
        -12    1    4    4    0    0 -0.33531188146E+01 -0.17484739921E+02 -0.74791899995E+01  0.19310562368E+02  0.00000000000E+00 0.  1.
</event>
<event>
 8    1  0.2390921E-006  0.9118800E+02  0.7816164E-02  0.1184000E+00
        -11   -1    0    0    0    0  0.00000000000E+00  0.00000000000E+00  0.45593999997E+02  0.45594000000E+02  0.51100000000E-03 0. -1.
         11   -1    0    0    0    0 -0.00000000000E+00 -0.00000000000E+00 -0.45593999997E+02  0.45594000000E+02  0.51100000000E-03 0.  1.
         23    2    1    2    0    0  0.00000000000E+00 -0.13322676296E-14  0.00000000000E+00  0.91188000000E+02  0.91188000000E+02 0.  0.
    9900012    2    3    3    0    0  0.25681795645E+02  0.18200758238E+01 -0.26323250703E+02  0.54367070746E+02  0.39999969379E+02 0.  0.
         12    1    3    3    0    0 -0.25681795645E+02 -0.18200758238E+01  0.26323250703E+02  0.36820929254E+02  0.00000000000E+00 0. -1.
         11    1    4    4    0    0  0.81374198477E+01 -0.77996023766E+01 -0.59867028724E+01  0.12762915441E+02  0.51100000000E-03 0. -1.
        -11    1    4    4    0    0  0.12440837387E+02 -0.71935402115E+00 -0.25944919856E+02  0.28782473342E+02  0.51100000000E-03 0.  1.
         12    1    4    4    0    0  0.51035384108E+01  0.10339032222E+02  0.56083720250E+01  0.12821681963E+02  0.00000000000E+00 0. -1.
</event>
<event>
 8    1  0.2390921E-006  0.9118800E+02  0.7816164E-02  0.1184000E+00
        -11   -1    0    0    0    0  0.00000000000E+00  0.00000000000E+00  0.45593999997E+02  0.45594000000E+02  0.51100000000E-03 0.  1.
         11   -1    0    0    0    0 -0.00000000000E+00 -0.00000000000E+00 -0.45593999997E+02  0.45594000000E+02  0.51100000000E-03 0. -1.
         23    2    1    2    0    0  0.11102230246E-14 -0.88817841970E-15  0.71054273576E-14  0.91188000000E+02  0.91188000000E+02 0.  0.
    9900012    2    3    3    0    0 -0.98924847123E+00 -0.28927139672E+01 -0.36693790265E+02  0.54367073196E+02  0.39999974966E+02 0.  0.
        -12    1    3    3    0    0  0.98924847123E+00  0.28927139672E+01  0.36693790265E+02  0.36820926804E+02  0.00000000000E+00 0.  1.
         11    1    4    4    0    0 -0.31450777445E+00  0.74724847032E+01 -0.22471446306E+02  0.23683387471E+02  0.51100000000E-03 0. -1.
        -11    1    4    4    0    0 -0.10654479220E+02 -0.11909156640E+02 -0.12823635815E+02  0.20488815854E+02  0.51100000000E-03 0.  1.
         12    1    4    4    0    0  0.99797385234E+01  0.15439579699E+01 -0.13987081447E+01  0.10194869871E+02  0.00000000000E+00 0. -1.
</event>
<event>
 8    1  0.2390921E-006  0.9118800E+02  0.7816164E-02  0.1184000E+00
        -11   -1    0    0    0    0  0.00000000000E+00  0.00000000000E+00  0.45593999997E+02  0.45594000000E+02  0.51100000000E-03 0.  1.
         11   -1    0    0    0    0 -0.00000000000E+00 -0.00000000000E+00 -0.45593999997E+02  0.45594000000E+02  0.51100000000E-03 0. -1.
         23    2    1    2    0    0 -0.71054273576E-14 -0.35527136788E-14  0.00000000000E+00  0.91188000000E+02  0.91188000000E+02 0.  0.
    9900012    2    3    3    0    0  0.31729517677E+02  0.16970592819E+02  0.78113328241E+01  0.54367078866E+02  0.39999987891E+02 0.  0.
         12    1    3    3    0    0 -0.31729517677E+02 -0.16970592819E+02 -0.78113328241E+01  0.36820921134E+02  0.00000000000E+00 0. -1.
         11    1    4    4    0    0  0.11348197159E+02 -0.31338126869E+01 -0.81203424747E+01  0.14301829355E+02  0.51100000000E-03 0. -1.
        -11    1    4    4    0    0 -0.28302652346E+01  0.11684517819E+02  0.42682303869E+01  0.12757591812E+02  0.51100000000E-03 0.  1.
        -12    1    4    4    0    0  0.23211585752E+02  0.84198876869E+01  0.11663444912E+02  0.27307657699E+02  0.00000000000E+00 0.  1.
</event>
<event>
 8    1  0.2390921E-006  0.9118800E+02  0.7816164E-02  0.1184000E+00
        -11   -1    0    0    0    0  0.00000000000E+00  0.00000000000E+00  0.45593999997E+02  0.45594000000E+02  0.51100000000E-03 0.  1.
         11   -1    0    0    0    0 -0.00000000000E+00 -0.00000000000E+00 -0.45593999997E+02  0.45594000000E+02  0.51100000000E-03 0. -1.
         23    2    1    2    0    0 -0.35527136788E-14  0.17763568394E-14  0.71054273576E-14  0.91188000000E+02  0.91188000000E+02 0.  0.
    9900012    2    3    3    0    0  0.97007475959E+01  0.95837678857E+01 -0.34202732718E+02  0.54367081540E+02  0.39999993988E+02 0.  0.
        -12    1    3    3    0    0 -0.97007475959E+01 -0.95837678857E+01  0.34202732718E+02  0.36820918460E+02  0.00000000000E+00 0.  1.
         11    1    4    4    0    0  0.23430123667E+01 -0.24667131178E+01 -0.79182998144E+01  0.86182279367E+01  0.51100000000E-03 0. -1.
        -11    1    4    4    0    0 -0.90765033292E+01  0.17755463471E+02 -0.15758817236E+02  0.25416131033E+02  0.51100000000E-03 0.  1.
        -12    1    4    4    0    0  0.16434238558E+02 -0.57049824672E+01 -0.10525615668E+02  0.20332722571E+02  0.00000000000E+00 0.  1.
</event>
<event>
 8    1  0.2390921E-006  0.9118800E+02  0.7816164E-02  0.1184000E+00
        -11   -1    0    0    0    0  0.00000000000E+00  0.00000000000E+00  0.45593999997E+02  0.45594000000E+02  0.51100000000E-03 0.  1.
         11   -1    0    0    0    0 -0.00000000000E+00 -0.00000000000E+00 -0.45593999997E+02  0.45594000000E+02  0.51100000000E-03 0. -1.
         23    2    1    2    0    0  0.13322676296E-14  0.35527136788E-14 -0.35527136788E-14  0.91188000000E+02  0.91188000000E+02 0.  0.
    9900012    2    3    3    0    0 -0.38571562092E+01 -0.24589854949E+02  0.27133772823E+02  0.54367078663E+02  0.39999987429E+02 0.  0.
         12    1    3    3    0    0  0.38571562092E+01  0.24589854949E+02 -0.27133772823E+02  0.36820921337E+02  0.00000000000E+00 0. -1.
         11    1    4    4    0    0 -0.10882496045E+02 -0.45306442964E+01  0.10228292626E+02  0.15606839149E+02  0.51100000000E-03 0. -1.
        -11    1    4    4    0    0 -0.89434140761E+01  0.23704213891E+00  0.30443108895E+01  0.94503266274E+01  0.51100000000E-03 0.  1.
        -12    1    4    4    0    0  0.15968753912E+02 -0.20296252792E+02  0.13861169308E+02  0.29309912888E+02  0.00000000000E+00 0.  1.
</event>
<event>
 8    1  0.2390921E-006  0.9118800E+02  0.7816164E-02  0.1184000E+00
        -11   -1    0    0    0    0  0.00000000000E+00  0.00000000000E+00  0.45593999997E+02  0.45594000000E+02  0.51100000000E-03 0.  1.
         11   -1    0    0    0    0 -0.00000000000E+00 -0.00000000000E+00 -0.45593999997E+02  0.45594000000E+02  0.51100000000E-03 0. -1.
         23    2    1    2    0    0  0.00000000000E+00 -0.35527136788E-14  0.00000000000E+00  0.91188000000E+02  0.91188000000E+02 0.  0.
    9900012    2    3    3    0    0  0.32692486171E+02 -0.16097085206E+02  0.52787020391E+01  0.54367088830E+02  0.40000010606E+02 0.  0.
        -12    1    3    3    0    0 -0.32692486171E+02  0.16097085206E+02 -0.52787020391E+01  0.36820911170E+02  0.00000000000E+00 0.  1.
         11    1    4    4    0    0 -0.16190287291E+01 -0.59516500101E+01  0.28958607888E+01  0.68139123737E+01  0.51100000000E-03 0. -1.
        -11    1    4    4    0    0  0.14137223437E+02 -0.61582119821E+01  0.16519590434E+02  0.22598263864E+02  0.51100000000E-03 0.  1.
         12    1    4    4    0    0  0.20174291463E+02 -0.39872232136E+01 -0.14136749183E+02  0.24954912592E+02  0.00000000000E+00 0. -1.
</event>
<event>
 8    1  0.2390921E-006  0.9118800E+02  0.7816164E-02  0.1184000E+00
        -11   -1    0    0    0    0  0.00000000000E+00  0.00000000000E+00  0.45593999997E+02  0.45594000000E+02  0.51100000000E-03 0.  1.
         11   -1    0    0    0    0 -0.00000000000E+00 -0.00000000000E+00 -0.45593999997E+02  0.45594000000E+02  0.51100000000E-03 0. -1.
         23    2    1    2    0    0  0.22204460493E-14  0.00000000000E+00  0.00000000000E+00  0.91188000000E+02  0.91188000000E+02 0.  0.
    9900012    2    3    3    0    0 -0.84813301816E+00  0.29635950974E+02 -0.21835106045E+02  0.54367071498E+02  0.39999971094E+02 0.  0.
        -12    1    3    3    0    0  0.84813301816E+00 -0.29635950974E+02  0.21835106045E+02  0.36820928502E+02  0.00000000000E+00 0.  1.
         11    1    4    4    0    0 -0.19708272456E+02  0.17695136694E+02 -0.14300361619E+02  0.30100402132E+02  0.51100000000E-03 0. -1.
        -11    1    4    4    0    0  0.49964125671E+01  0.56663407259E+01 -0.70681886530E+00  0.75875654153E+01  0.51100000000E-03 0.  1.
         12    1    4    4    0    0  0.13863726871E+02  0.62744735538E+01 -0.68279255610E+01  0.16679103951E+02  0.00000000000E+00 0. -1.
</event>
<event>
 8    1  0.2390921E-006  0.9118800E+02  0.7816164E-02  0.1184000E+00
        -11   -1    0    0    0    0  0.00000000000E+00  0.00000000000E+00  0.45593999997E+02  0.45594000000E+02  0.51100000000E-03 0. -1.
         11   -1    0    0    0    0 -0.00000000000E+00 -0.00000000000E+00 -0.45593999997E+02  0.45594000000E+02  0.51100000000E-03 0.  1.
         23    2    1    2    0    0  0.35527136788E-14  0.00000000000E+00 -0.17763568394E-14  0.91188000000E+02  0.91188000000E+02 0.  0.
    9900012    2    3    3    0    0  0.18106895813E+02  0.28635305572E+02  0.14420115041E+02  0.54367080417E+02  0.39999991426E+02 0.  0.
        -12    1    3    3    0    0 -0.18106895813E+02 -0.28635305572E+02 -0.14420115041E+02  0.36820919583E+02  0.00000000000E+00 0.  1.
         11    1    4    4    0    0 -0.12366709556E+01  0.18875789075E+02  0.22968327847E+02  0.29755148338E+02  0.51100000000E-03 0. -1.
        -11    1    4    4    0    0  0.85667272290E+01  0.87189768467E+01 -0.39116229403E+01  0.12833945884E+02  0.51100000000E-03 0.  1.
         12    1    4    4    0    0  0.10776839539E+02  0.10405396501E+01 -0.46365898658E+01  0.11777986195E+02  0.00000000000E+00 0. -1.
</event>
<event>
 8    1  0.2390921E-006  0.9118800E+02  0.7816164E-02  0.1184000E+00
        -11   -1    0    0    0    0  0.00000000000E+00  0.00000000000E+00  0.45593999997E+02  0.45594000000E+02  0.51100000000E-03 0. -1.
         11   -1    0    0    0    0 -0.00000000000E+00 -0.00000000000E+00 -0.45593999997E+02  0.45594000000E+02  0.51100000000E-03 0.  1.
         23    2    1    2    0    0  0.00000000000E+00  0.16653345369E-15  0.00000000000E+00  0.91188000000E+02  0.91188000000E+02 0.  0.
    9900012    2    3    3    0    0 -0.31332177713E+02 -0.40227694052E+00 -0.19336818424E+02  0.54367085647E+02  0.40000003351E+02 0.  0.
         12    1    3    3    0    0  0.31332177713E+02  0.40227694052E+00  0.19336818424E+02  0.36820914353E+02  0.00000000000E+00 0. -1.
         11    1    4    4    0    0 -0.63225767008E+01  0.81370623048E+01  0.43059778792E+01  0.11168178224E+02  0.51100000000E-03 0. -1.
        -11    1    4    4    0    0 -0.15347550007E+02  0.64359698089E+01 -0.49296596218E+01  0.17357146737E+02  0.51100000000E-03 0.  1.
        -12    1    4    4    0    0 -0.96620510049E+01 -0.14975309054E+02 -0.18713136682E+02  0.25841760686E+02  0.00000000000E+00 0.  1.
</event>
<event>
 8    1  0.2390921E-006  0.9118800E+02  0.7816164E-02  0.1184000E+00
        -11   -1    0    0    0    0  0.00000000000E+00  0.00000000000E+00  0.45593999997E+02  0.45594000000E+02  0.51100000000E-03 0.  1.
         11   -1    0    0    0    0 -0.00000000000E+00 -0.00000000000E+00 -0.45593999997E+02  0.45594000000E+02  0.51100000000E-03 0. -1.
         23    2    1    2    0    0  0.00000000000E+00  0.17763568394E-14  0.88817841970E-15  0.91188000000E+02  0.91188000000E+02 0.  0.
    9900012    2    3    3    0    0 -0.34612464906E+02  0.10414361351E+02  0.70211649616E+01  0.54367103669E+02  0.40000044433E+02 0.  0.
        -12    1    3    3    0    0  0.34612464906E+02 -0.10414361351E+02 -0.70211649616E+01  0.36820896331E+02  0.00000000000E+00 0.  1.
         11    1    4    4    0    0 -0.71203851821E+01  0.89568849186E+01 -0.14497054641E+02  0.18468629243E+02  0.51100000000E-03 0. -1.
        -11    1    4    4    0    0 -0.12450737963E+02  0.27231982816E+01  0.14336457086E+02  0.19182562049E+02  0.51100000000E-03 0.  1.
         12    1    4    4    0    0 -0.15041341761E+02 -0.12657218491E+01  0.71817625162E+01  0.16715912377E+02  0.00000000000E+00 0. -1.
</event>
<event>
 8    1  0.2390921E-006  0.9118800E+02  0.7816164E-02  0.1184000E+00
        -11   -1    0    0    0    0  0.00000000000E+00  0.00000000000E+00  0.45593999997E+02  0.45594000000E+02  0.51100000000E-03 0.  1.
         11   -1    0    0    0    0 -0.00000000000E+00 -0.00000000000E+00 -0.45593999997E+02  0.45594000000E+02  0.51100000000E-03 0. -1.
         23    2    1    2    0    0  0.35527136788E-14  0.71054273576E-14  0.44408920985E-15  0.91188000000E+02  0.91188000000E+02 0.  0.
    9900012    2    3    3    0    0  0.21888270725E+02 -0.29554088195E+02 -0.17996033446E+01  0.54367094300E+02  0.40000023076E+02 0.  0.
         12    1    3    3    0    0 -0.21888270725E+02  0.29554088195E+02  0.17996033446E+01  0.36820905700E+02  0.00000000000E+00 0. -1.
         11    1    4    4    0    0  0.11692718822E+01  0.38527426526E+01 -0.55589238656E+01  0.68638515052E+01  0.51100000000E-03 0. -1.
        -11    1    4    4    0    0 -0.50297252773E+01 -0.11506184153E+02 -0.32721008960E+01  0.12976789073E+02  0.51100000000E-03 0.  1.
        -12    1    4    4    0    0  0.25748724120E+02 -0.21900646695E+02  0.70314214169E+01  0.34526453722E+02  0.00000000000E+00 0.  1.
</event>
<event>
 8    1  0.2390921E-006  0.9118800E+02  0.7816164E-02  0.1184000E+00
        -11   -1    0    0    0    0  0.00000000000E+00  0.00000000000E+00  0.45593999997E+02  0.45594000000E+02  0.51100000000E-03 0.  1.
         11   -1    0    0    0    0 -0.00000000000E+00 -0.00000000000E+00 -0.45593999997E+02  0.45594000000E+02  0.51100000000E-03 0. -1.
         23    2    1    2    0    0 -0.88817841970E-15  0.00000000000E+00 -0.88817841970E-15  0.91188000000E+02  0.91188000000E+02 0.  0.
    9900012    2    3    3    0    0 -0.32055006623E+01 -0.36522390336E+02 -0.34081148567E+01  0.54367143448E+02  0.40000135118E+02 0.  0.
         12    1    3    3    0    0  0.32055006623E+01  0.36522390336E+02  0.34081148567E+01  0.36820856552E+02  0.00000000000E+00 0. -1.
         11    1    4    4    0    0 -0.40809920962E+00  0.73374585298E+01  0.52993341338E+01  0.90602309664E+01  0.51100000000E-03 0. -1.
        -11    1    4    4    0    0 -0.19061262868E+01 -0.18303226379E+02 -0.69624235094E+01  0.19675282836E+02  0.51100000000E-03 0.  1.
         12    1    4    4    0    0 -0.89127516593E+00 -0.25556622486E+02 -0.17450254811E+01  0.25631629645E+02  0.00000000000E+00 0. -1.
</event>
<event>
 8    1  0.2390921E-006  0.9118800E+02  0.7816164E-02  0.1184000E+00
        -11   -1    0    0    0    0  0.00000000000E+00  0.00000000000E+00  0.45593999997E+02  0.45594000000E+02  0.51100000000E-03 0.  1.
         11   -1    0    0    0    0 -0.00000000000E+00 -0.00000000000E+00 -0.45593999997E+02  0.45594000000E+02  0.51100000000E-03 0. -1.
         23    2    1    2    0    0 -0.44408920985E-15  0.35527136788E-14  0.71054273576E-14  0.91188000000E+02  0.91188000000E+02 0.  0.
    9900012    2    3    3    0    0  0.39699033983E+01 -0.11329104176E+02 -0.34809062475E+02  0.54367087941E+02  0.40000008580E+02 0.  0.
        -12    1    3    3    0    0 -0.39699033983E+01  0.11329104176E+02  0.34809062475E+02  0.36820912059E+02  0.00000000000E+00 0.  1.
         11    1    4    4    0    0  0.94083133990E-01 -0.70066886743E+01 -0.14328233626E+01  0.71523087786E+01  0.51100000000E-03 0. -1.
        -11    1    4    4    0    0 -0.68774326525E+01  0.11960595183E+02 -0.12177325081E+02  0.18402232566E+02  0.51100000000E-03 0.  1.
         12    1    4    4    0    0  0.10753252917E+02 -0.16283010685E+02 -0.21198914032E+02  0.28812546597E+02  0.00000000000E+00 0. -1.
</event>
<event>
 8    1  0.2390921E-006  0.9118800E+02  0.7816164E-02  0.1184000E+00
        -11   -1    0    0    0    0  0.00000000000E+00  0.00000000000E+00  0.45593999997E+02  0.45594000000E+02  0.51100000000E-03 0. -1.
         11   -1    0    0    0    0 -0.00000000000E+00 -0.00000000000E+00 -0.45593999997E+02  0.45594000000E+02  0.51100000000E-03 0.  1.
         23    2    1    2    0    0 -0.35527136788E-14  0.17763568394E-14  0.00000000000E+00  0.91188000000E+02  0.91188000000E+02 0.  0.
    9900012    2    3    3    0    0  0.23488802176E+02  0.14224892596E+02 -0.24529775756E+02  0.54367064438E+02  0.39999955000E+02 0.  0.
         12    1    3    3    0    0 -0.23488802176E+02 -0.14224892596E+02  0.24529775756E+02  0.36820935562E+02  0.00000000000E+00 0. -1.
         11    1    4    4    0    0  0.79370215361E+01 -0.11681696711E+01  0.64987195260E+01  0.10324450929E+02  0.51100000000E-03 0. -1.
        -11    1    4    4    0    0  0.19040595715E+02  0.41626265168E+01 -0.19788228395E+02  0.27774911845E+02  0.51100000000E-03 0.  1.
        -12    1    4    4    0    0 -0.34888150751E+01  0.11230435751E+02 -0.11240266886E+02  0.16267701665E+02  0.00000000000E+00 0.  1.
</event>
<event>
 8    1  0.2390921E-006  0.9118800E+02  0.7816164E-02  0.1184000E+00
        -11   -1    0    0    0    0  0.00000000000E+00  0.00000000000E+00  0.45593999997E+02  0.45594000000E+02  0.51100000000E-03 0.  1.
         11   -1    0    0    0    0 -0.00000000000E+00 -0.00000000000E+00 -0.45593999997E+02  0.45594000000E+02  0.51100000000E-03 0. -1.
         23    2    1    2    0    0  0.00000000000E+00  0.00000000000E+00  0.00000000000E+00  0.91188000000E+02  0.91188000000E+02 0.  0.
    9900012    2    3    3    0    0 -0.22834385553E+02 -0.20290410757E+02  0.20558928649E+02  0.54367089100E+02  0.40000011222E+02 0.  0.
         12    1    3    3    0    0  0.22834385553E+02  0.20290410757E+02 -0.20558928649E+02  0.36820910900E+02  0.00000000000E+00 0. -1.
         11    1    4    4    0    0  0.71313362574E+00 -0.19825382182E+02  0.58535268067E+01  0.20683764517E+02  0.51100000000E-03 0. -1.
        -11    1    4    4    0    0 -0.10167017792E+02  0.48019259365E+01 -0.22337098456E+01  0.11463690654E+02  0.51100000000E-03 0.  1.
        -12    1    4    4    0    0 -0.13380501387E+02 -0.52669545113E+01  0.16939111688E+02  0.22219633929E+02  0.00000000000E+00 0.  1.
</event>
<event>
 8    1  0.2390921E-006  0.9118800E+02  0.7816164E-02  0.1184000E+00
        -11   -1    0    0    0    0  0.00000000000E+00  0.00000000000E+00  0.45593999997E+02  0.45594000000E+02  0.51100000000E-03 0. -1.
         11   -1    0    0    0    0 -0.00000000000E+00 -0.00000000000E+00 -0.45593999997E+02  0.45594000000E+02  0.51100000000E-03 0.  1.
         23    2    1    2    0    0 -0.22204460493E-14  0.00000000000E+00  0.17763568394E-14  0.91188000000E+02  0.91188000000E+02 0.  0.
    9900012    2    3    3    0    0  0.14989302378E+01  0.33880279308E+02  0.14340856326E+02  0.54367078257E+02  0.39999986503E+02 0.  0.
        -12    1    3    3    0    0 -0.14989302378E+01 -0.33880279308E+02 -0.14340856326E+02  0.36820921743E+02  0.00000000000E+00 0.  1.
         11    1    4    4    0    0 -0.16022569949E+02  0.24085285605E+02  0.24207963139E+01  0.29029019713E+02  0.51100000000E-03 0. -1.
        -11    1    4    4    0    0  0.33523593421E+01 -0.99476223182E+00 -0.62681498203E+00  0.35525712293E+01  0.51100000000E-03 0.  1.
         12    1    4    4    0    0  0.14169140845E+02  0.10789755935E+02  0.12546874995E+02  0.21785487315E+02  0.00000000000E+00 0. -1.
</event>
<event>
 8    1  0.2390921E-006  0.9118800E+02  0.7816164E-02  0.1184000E+00
        -11   -1    0    0    0    0  0.00000000000E+00  0.00000000000E+00  0.45593999997E+02  0.45594000000E+02  0.51100000000E-03 0. -1.
         11   -1    0    0    0    0 -0.00000000000E+00 -0.00000000000E+00 -0.45593999997E+02  0.45594000000E+02  0.51100000000E-03 0.  1.
         23    2    1    2    0    0  0.00000000000E+00  0.00000000000E+00  0.00000000000E+00  0.91188000000E+02  0.91188000000E+02 0.  0.
    9900012    2    3    3    0    0 -0.18257199581E+02 -0.17969487674E+02  0.26449060102E+02  0.54367073829E+02  0.39999976407E+02 0.  0.
        -12    1    3    3    0    0  0.18257199581E+02  0.17969487674E+02 -0.26449060102E+02  0.36820926171E+02  0.00000000000E+00 0.  1.
         11    1    4    4    0    0 -0.26043035405E+02 -0.13447180795E+02  0.27572608261E+02  0.40240714345E+02  0.51100000000E-03 0. -1.
        -11    1    4    4    0    0  0.39152339589E+01 -0.69208694324E+01 -0.38335337252E+01  0.88274272433E+01  0.51100000000E-03 0.  1.
         12    1    4    4    0    0  0.38706018644E+01  0.23985625537E+01  0.27099855662E+01  0.52989322402E+01  0.00000000000E+00 0. -1.
</event>
<event>
 8    1  0.2390921E-006  0.9118800E+02  0.7816164E-02  0.1184000E+00
        -11   -1    0    0    0    0  0.00000000000E+00  0.00000000000E+00  0.45593999997E+02  0.45594000000E+02  0.51100000000E-03 0. -1.
         11   -1    0    0    0    0 -0.00000000000E+00 -0.00000000000E+00 -0.45593999997E+02  0.45594000000E+02  0.51100000000E-03 0.  1.
         23    2    1    2    0    0  0.00000000000E+00 -0.11102230246E-14  0.71054273576E-14  0.91188000000E+02  0.91188000000E+02 0.  0.
    9900012    2    3    3    0    0  0.14877222442E+02  0.19517952483E+01 -0.33624959047E+02  0.54367093939E+02  0.40000022252E+02 0.  0.
         12    1    3    3    0    0 -0.14877222442E+02 -0.19517952483E+01  0.33624959047E+02  0.36820906061E+02  0.00000000000E+00 0. -1.
         11    1    4    4    0    0  0.12179708376E+02  0.11272027666E+02 -0.29131909136E+02  0.33527183509E+02  0.51100000000E-03 0.  1.
        -11    1    4    4    0    0 -0.22482540330E+01  0.42166686936E+01  0.18098563775E+01  0.51098455394E+01  0.51100000000E-03 0. -1.
        -12    1    4    4    0    0  0.49457680985E+01 -0.13536901111E+02 -0.63029062882E+01  0.15730064891E+02  0.00000000000E+00 0.  1.
</event>
<event>
 8    1  0.2390921E-006  0.9118800E+02  0.7816164E-02  0.1184000E+00
        -11   -1    0    0    0    0  0.00000000000E+00  0.00000000000E+00  0.45593999997E+02  0.45594000000E+02  0.51100000000E-03 0.  1.
         11   -1    0    0    0    0 -0.00000000000E+00 -0.00000000000E+00 -0.45593999997E+02  0.45594000000E+02  0.51100000000E-03 0. -1.
         23    2    1    2    0    0 -0.35527136788E-14 -0.17763568394E-14  0.00000000000E+00  0.91188000000E+02  0.91188000000E+02 0.  0.
    9900012    2    3    3    0    0  0.14716300476E+02 -0.98760048959E+01  0.32274989960E+02  0.54367082720E+02  0.39999996677E+02 0.  0.
         12    1    3    3    0    0 -0.14716300476E+02  0.98760048959E+01 -0.32274989960E+02  0.36820917280E+02  0.00000000000E+00 0. -1.
         11    1    4    4    0    0  0.52939217798E+01  0.53788457388E+01  0.24320976874E+02  0.25465025146E+02  0.51100000000E-03 0.  1.
        -11    1    4    4    0    0  0.10768784048E+02 -0.71512418633E+01 -0.47512212556E+01  0.13772475222E+02  0.51100000000E-03 0. -1.
         12    1    4    4    0    0 -0.13464053515E+01 -0.81036087714E+01  0.12705234341E+02  0.15129582352E+02  0.00000000000E+00 0. -1.
</event>
<event>
 8    1  0.2390921E-006  0.9118800E+02  0.7816164E-02  0.1184000E+00
        -11   -1    0    0    0    0  0.00000000000E+00  0.00000000000E+00  0.45593999997E+02  0.45594000000E+02  0.51100000000E-03 0.  1.
         11   -1    0    0    0    0 -0.00000000000E+00 -0.00000000000E+00 -0.45593999997E+02  0.45594000000E+02  0.51100000000E-03 0. -1.
         23    2    1    2    0    0  0.00000000000E+00  0.88817841970E-15  0.71054273576E-14  0.91188000000E+02  0.91188000000E+02 0.  0.
    9900012    2    3    3    0    0 -0.16419529515E+02  0.72707369103E+01  0.32145217241E+02  0.54367088059E+02  0.40000008848E+02 0.  0.
         12    1    3    3    0    0  0.16419529515E+02 -0.72707369103E+01 -0.32145217241E+02  0.36820911941E+02  0.00000000000E+00 0. -1.
         11    1    4    4    0    0 -0.33820233368E+01 -0.10468089876E+02  0.95909005335E+01  0.14594668917E+02  0.51100000000E-03 0. -1.
        -11    1    4    4    0    0 -0.34677157414E+01 -0.15102416050E+01  0.17210867590E+02  0.17621573302E+02  0.51100000000E-03 0.  1.
        -12    1    4    4    0    0 -0.95697904370E+01  0.19249068391E+02  0.53434491168E+01  0.22150845839E+02  0.00000000000E+00 0.  1.
</event>
<event>
 8    1  0.2390921E-006  0.9118800E+02  0.7816164E-02  0.1184000E+00
        -11   -1    0    0    0    0  0.00000000000E+00  0.00000000000E+00  0.45593999997E+02  0.45594000000E+02  0.51100000000E-03 0.  1.
         11   -1    0    0    0    0 -0.00000000000E+00 -0.00000000000E+00 -0.45593999997E+02  0.45594000000E+02  0.51100000000E-03 0. -1.
         23    2    1    2    0    0  0.00000000000E+00 -0.35527136788E-14 -0.71054273576E-14  0.91188000000E+02  0.91188000000E+02 0.  0.
    9900012    2    3    3    0    0 -0.21959358659E+02  0.17222872225E+02  0.24019607366E+02  0.54367050821E+02  0.39999923957E+02 0.  0.
         12    1    3    3    0    0  0.21959358659E+02 -0.17222872225E+02 -0.24019607366E+02  0.36820949179E+02  0.00000000000E+00 0. -1.
         11    1    4    4    0    0  0.32532639466E+01 -0.83767265876E+01  0.34645092434E+01  0.96309967910E+01  0.51100000000E-03 0. -1.
        -11    1    4    4    0    0 -0.16447035656E+02  0.14395108303E+02  0.28779219471E+01  0.22045556467E+02  0.51100000000E-03 0.  1.
         12    1    4    4    0    0 -0.87655869494E+01  0.11204490510E+02  0.17677176175E+02  0.22690497564E+02  0.00000000000E+00 0. -1.
</event>
<event>
 8    1  0.2390921E-006  0.9118800E+02  0.7816164E-02  0.1184000E+00
        -11   -1    0    0    0    0  0.00000000000E+00  0.00000000000E+00  0.45593999997E+02  0.45594000000E+02  0.51100000000E-03 0. -1.
         11   -1    0    0    0    0 -0.00000000000E+00 -0.00000000000E+00 -0.45593999997E+02  0.45594000000E+02  0.51100000000E-03 0.  1.
         23    2    1    2    0    0  0.00000000000E+00  0.00000000000E+00  0.00000000000E+00  0.91188000000E+02  0.91188000000E+02 0.  0.
    9900012    2    3    3    0    0 -0.22170363863E+02 -0.27913731112E+02 -0.92238414809E+01  0.54367072933E+02  0.39999974366E+02 0.  0.
        -12    1    3    3    0    0  0.22170363863E+02  0.27913731112E+02  0.92238414809E+01  0.36820927067E+02  0.00000000000E+00 0.  1.
         11    1    4    4    0    0 -0.11242591221E+02 -0.27329231969E+01 -0.55006353298E+01  0.12810999799E+02  0.51100000000E-03 0. -1.
        -11    1    4    4    0    0 -0.19469457367E+02 -0.26160847986E+02 -0.13575028196E+01  0.32638819704E+02  0.51100000000E-03 0.  1.
        -12    1    4    4    0    0  0.85416847250E+01  0.98004007113E+00 -0.23657033314E+01  0.89172534300E+01  0.00000000000E+00 0.  1.
</event>
<event>
 8    1  0.2390921E-006  0.9118800E+02  0.7816164E-02  0.1184000E+00
        -11   -1    0    0    0    0  0.00000000000E+00  0.00000000000E+00  0.45593999997E+02  0.45594000000E+02  0.51100000000E-03 0.  1.
         11   -1    0    0    0    0 -0.00000000000E+00 -0.00000000000E+00 -0.45593999997E+02  0.45594000000E+02  0.51100000000E-03 0. -1.
         23    2    1    2    0    0  0.00000000000E+00  0.00000000000E+00  0.13322676296E-14  0.91188000000E+02  0.91188000000E+02 0.  0.
    9900012    2    3    3    0    0 -0.18888931853E+02  0.31557242667E+02 -0.17686589874E+01  0.54367089285E+02  0.40000011643E+02 0.  0.
        -12    1    3    3    0    0  0.18888931853E+02 -0.31557242667E+02  0.17686589874E+01  0.36820910715E+02  0.00000000000E+00 0.  1.
         11    1    4    4    0    0  0.75554722910E+01  0.13342518174E+02  0.67924937267E+01  0.16770388309E+02  0.51100000000E-03 0. -1.
        -11    1    4    4    0    0 -0.39938046307E+01 -0.33309510214E+01  0.39859503388E+00  0.52158017981E+01  0.51100000000E-03 0.  1.
         12    1    4    4    0    0 -0.22450599513E+02  0.21545675514E+02 -0.89597477479E+01  0.32380899178E+02  0.00000000000E+00 0. -1.
</event>
<event>
 8    1  0.2390921E-006  0.9118800E+02  0.7816164E-02  0.1184000E+00
        -11   -1    0    0    0    0  0.00000000000E+00  0.00000000000E+00  0.45593999997E+02  0.45594000000E+02  0.51100000000E-03 0.  1.
         11   -1    0    0    0    0 -0.00000000000E+00 -0.00000000000E+00 -0.45593999997E+02  0.45594000000E+02  0.51100000000E-03 0. -1.
         23    2    1    2    0    0  0.00000000000E+00  0.00000000000E+00  0.88817841970E-15  0.91188000000E+02  0.91188000000E+02 0.  0.
    9900012    2    3    3    0    0 -0.16596641906E+02 -0.32280925627E+02 -0.61864835401E+01  0.54367092074E+02  0.40000018001E+02 0.  0.
        -12    1    3    3    0    0  0.16596641906E+02  0.32280925627E+02  0.61864835401E+01  0.36820907926E+02  0.00000000000E+00 0.  1.
         11    1    4    4    0    0  0.39070462762E+01 -0.75584457684E+01  0.83147858981E+01  0.11896670872E+02  0.51100000000E-03 0. -1.
        -11    1    4    4    0    0 -0.10831891547E+02 -0.46423851541E+01  0.50510909356E+01  0.12821666596E+02  0.51100000000E-03 0.  1.
         12    1    4    4    0    0 -0.96717966357E+01 -0.20080094704E+02 -0.19552360374E+02  0.29648754606E+02  0.00000000000E+00 0. -1.
</event>
<event>
 8    1  0.2390921E-006  0.9118800E+02  0.7816164E-02  0.1184000E+00
        -11   -1    0    0    0    0  0.00000000000E+00  0.00000000000E+00  0.45593999997E+02  0.45594000000E+02  0.51100000000E-03 0. -1.
         11   -1    0    0    0    0 -0.00000000000E+00 -0.00000000000E+00 -0.45593999997E+02  0.45594000000E+02  0.51100000000E-03 0.  1.
         23    2    1    2    0    0  0.00000000000E+00  0.00000000000E+00  0.35527136788E-14  0.91188000000E+02  0.91188000000E+02 0.  0.
    9900012    2    3    3    0    0 -0.67780383688E+01 -0.24362704897E+02 -0.26763718547E+02  0.54367084415E+02  0.40000000542E+02 0.  0.
         12    1    3    3    0    0  0.67780383688E+01  0.24362704897E+02  0.26763718547E+02  0.36820915585E+02  0.00000000000E+00 0. -1.
         11    1    4    4    0    0  0.53360555850E+01 -0.11330973052E+02  0.71407168170E+00  0.12544892911E+02  0.51100000000E-03 0. -1.
        -11    1    4    4    0    0 -0.77149918428E+01 -0.10690475667E+02  0.70478107262E+00  0.13202427267E+02  0.51100000000E-03 0.  1.
        -12    1    4    4    0    0 -0.43991021110E+01 -0.23412561782E+01 -0.28182571301E+02  0.28619764238E+02  0.00000000000E+00 0.  1.
</event>
<event>
 8    1  0.2390921E-006  0.9118800E+02  0.7816164E-02  0.1184000E+00
        -11   -1    0    0    0    0  0.00000000000E+00  0.00000000000E+00  0.45593999997E+02  0.45594000000E+02  0.51100000000E-03 0. -1.
         11   -1    0    0    0    0 -0.00000000000E+00 -0.00000000000E+00 -0.45593999997E+02  0.45594000000E+02  0.51100000000E-03 0.  1.
         23    2    1    2    0    0 -0.35527136788E-14  0.00000000000E+00  0.35527136788E-14  0.91188000000E+02  0.91188000000E+02 0.  0.
    9900012    2    3    3    0    0  0.19395631454E+02  0.18514947271E+02 -0.25234585086E+02  0.54367108153E+02  0.40000054656E+02 0.  0.
         12    1    3    3    0    0 -0.19395631454E+02 -0.18514947271E+02  0.25234585086E+02  0.36820891847E+02  0.00000000000E+00 0. -1.
         11    1    4    4    0    0  0.81764645046E+01  0.29492931453E+01  0.89400751089E+00  0.87379718209E+01  0.51100000000E-03 0. -1.
        -11    1    4    4    0    0 -0.58243086030E+01 -0.66256656267E+01 -0.99904426038E+01  0.13327826506E+02  0.51100000000E-03 0.  1.
        -12    1    4    4    0    0  0.17043475553E+02  0.22191319752E+02 -0.16138149993E+02  0.32301309826E+02  0.00000000000E+00 0.  1.
</event>
<event>
 8    1  0.2390921E-006  0.9118800E+02  0.7816164E-02  0.1184000E+00
        -11   -1    0    0    0    0  0.00000000000E+00  0.00000000000E+00  0.45593999997E+02  0.45594000000E+02  0.51100000000E-03 0.  1.
         11   -1    0    0    0    0 -0.00000000000E+00 -0.00000000000E+00 -0.45593999997E+02  0.45594000000E+02  0.51100000000E-03 0. -1.
         23    2    1    2    0    0  0.00000000000E+00  0.00000000000E+00  0.10547118734E-14  0.91188000000E+02  0.91188000000E+02 0.  0.
    9900012    2    3    3    0    0  0.35118694194E+02 -0.11061584068E+02  0.30173347724E+00  0.54367185681E+02  0.40000231397E+02 0.  0.
        -12    1    3    3    0    0 -0.35118694194E+02  0.11061584068E+02 -0.30173347724E+00  0.36820814319E+02  0.00000000000E+00 0.  1.
         11    1    4    4    0    0  0.13325407403E+02 -0.83149389944E+00 -0.17103186023E+02  0.21697392400E+02  0.51100000000E-03 0. -1.
        -11    1    4    4    0    0  0.14139422120E+02 -0.12193753939E+02  0.16114246747E+02  0.24663329895E+02  0.51100000000E-03 0.  1.
        -12    1    4    4    0    0  0.76538646714E+01  0.19636637705E+01  0.12906727526E+01  0.80064633869E+01  0.00000000000E+00 0.  1.
</event>
<event>
 8    1  0.2390921E-006  0.9118800E+02  0.7816164E-02  0.1184000E+00
        -11   -1    0    0    0    0  0.00000000000E+00  0.00000000000E+00  0.45593999997E+02  0.45594000000E+02  0.51100000000E-03 0.  1.
         11   -1    0    0    0    0 -0.00000000000E+00 -0.00000000000E+00 -0.45593999997E+02  0.45594000000E+02  0.51100000000E-03 0. -1.
         23    2    1    2    0    0  0.94368957093E-15  0.00000000000E+00  0.00000000000E+00  0.91188000000E+02  0.91188000000E+02 0.  0.
    9900012    2    3    3    0    0  0.23799941866E+00 -0.21594670756E+02  0.29822700935E+02  0.54367082849E+02  0.39999996970E+02 0.  0.
        -12    1    3    3    0    0 -0.23799941866E+00  0.21594670756E+02 -0.29822700935E+02  0.36820917151E+02  0.00000000000E+00 0.  1.
         11    1    4    4    0    0  0.67871679677E+01 -0.11011000087E+02  0.18895915498E+02  0.22898982395E+02  0.51100000000E-03 0. -1.
        -11    1    4    4    0    0 -0.74884222115E+01 -0.26441388155E+01  0.18700504255E+02  0.20316909138E+02  0.51100000000E-03 0.  1.
        -12    1    4    4    0    0  0.93925366238E+00 -0.79395318541E+01 -0.77737188179E+01  0.11151191316E+02  0.00000000000E+00 0.  1.
</event>
<event>
 8    1  0.2390921E-006  0.9118800E+02  0.7816164E-02  0.1184000E+00
        -11   -1    0    0    0    0  0.00000000000E+00  0.00000000000E+00  0.45593999997E+02  0.45594000000E+02  0.51100000000E-03 0. -1.
         11   -1    0    0    0    0 -0.00000000000E+00 -0.00000000000E+00 -0.45593999997E+02  0.45594000000E+02  0.51100000000E-03 0.  1.
         23    2    1    2    0    0  0.13322676296E-14  0.00000000000E+00 -0.35527136788E-14  0.91188000000E+02  0.91188000000E+02 0.  0.
    9900012    2    3    3    0    0  0.18514398643E+01 -0.27760589284E+02  0.24118507142E+02  0.54367074785E+02  0.39999978587E+02 0.  0.
        -12    1    3    3    0    0 -0.18514398643E+01  0.27760589284E+02 -0.24118507142E+02  0.36820925215E+02  0.00000000000E+00 0.  1.
         11    1    4    4    0    0 -0.21524545238E+01 -0.49065579277E+01  0.12094839486E+02  0.13228473594E+02  0.51100000000E-03 0. -1.
        -11    1    4    4    0    0  0.11770865303E+02 -0.10475260442E+01 -0.45559762684E+01  0.12665208282E+02  0.51100000000E-03 0.  1.
        -12    1    4    4    0    0 -0.77669709152E+01 -0.21806505312E+02  0.16579643925E+02  0.28473392909E+02  0.00000000000E+00 0.  1.
</event>
<event>
 8    1  0.2390921E-006  0.9118800E+02  0.7816164E-02  0.1184000E+00
        -11   -1    0    0    0    0  0.00000000000E+00  0.00000000000E+00  0.45593999997E+02  0.45594000000E+02  0.51100000000E-03 0. -1.
         11   -1    0    0    0    0 -0.00000000000E+00 -0.00000000000E+00 -0.45593999997E+02  0.45594000000E+02  0.51100000000E-03 0.  1.
         23    2    1    2    0    0 -0.17763568394E-14  0.35527136788E-14  0.00000000000E+00  0.91188000000E+02  0.91188000000E+02 0.  0.
    9900012    2    3    3    0    0  0.10840566497E+02  0.31226600595E+02  0.16222297317E+02  0.54367063063E+02  0.39999951864E+02 0.  0.
        -12    1    3    3    0    0 -0.10840566497E+02 -0.31226600595E+02 -0.16222297317E+02  0.36820936937E+02  0.00000000000E+00 0.  1.
         11    1    4    4    0    0  0.17770919906E+02  0.13560507250E+02  0.18673713749E+02  0.29127315988E+02  0.51100000000E-03 0. -1.
        -11    1    4    4    0    0  0.49659969173E+01  0.26713045189E+01 -0.23229246392E+01  0.60986041317E+01  0.51100000000E-03 0.  1.
         12    1    4    4    0    0 -0.11896350327E+02  0.14994788826E+02 -0.12849179295E+00  0.19141142943E+02  0.00000000000E+00 0. -1.
</event>
