<event>
 8    1  0.1229038E-006  0.9118800E+02  0.7816164E-02  0.1184000E+00
        -11   -1    0    0    0    0  0.00000000000E+00  0.00000000000E+00  0.45593999997E+02  0.45594000000E+02  0.51100000000E-03 0.  1.
         11   -1    0    0    0    0 -0.00000000000E+00 -0.00000000000E+00 -0.45593999997E+02  0.45594000000E+02  0.51100000000E-03 0. -1.
         23    2    1    2    0    0  0.15543122345E-14  0.00000000000E+00  0.00000000000E+00  0.91188000000E+02  0.91188000000E+02 0.  0.
    9900012    2    3    3    0    0  0.62689776912E+00 -0.22753347108E+02  0.28942562449E+02  0.54367085745E+02  0.40000003572E+02 0.  0.
         12    1    3    3    0    0 -0.62689776912E+00  0.22753347108E+02 -0.28942562449E+02  0.36820914255E+02  0.00000000000E+00 0. -1.
         11    1    4    4    0    0  0.13345266364E+02 -0.47817079411E+01  0.16927592756E+02  0.22079498680E+02  0.51100000000E-03 0. -1.
        -11    1    4    4    0    0 -0.16575247390E+02 -0.83906019046E+01  0.35063991270E+01  0.18905974227E+02  0.51100000000E-03 0.  1.
        -12    1    4    4    0    0  0.38568787957E+01 -0.95810372627E+01  0.85085705660E+01  0.13381612838E+02  0.00000000000E+00 0.  1.
</event>
<event>
 8    1  0.1229038E-006  0.9118800E+02  0.7816164E-02  0.1184000E+00
        -11   -1    0    0    0    0  0.00000000000E+00  0.00000000000E+00  0.45593999997E+02  0.45594000000E+02  0.51100000000E-03 0.  1.
         11   -1    0    0    0    0 -0.00000000000E+00 -0.00000000000E+00 -0.45593999997E+02  0.45594000000E+02  0.51100000000E-03 0. -1.
         23    2    1    2    0    0 -0.44408920985E-15 -0.88817841970E-15  0.00000000000E+00  0.91188000000E+02  0.91188000000E+02 0.  0.
    9900012    2    3    3    0    0 -0.23884705567E+01  0.18102212079E+01  0.36698754766E+02  0.54367078042E+02  0.39999986013E+02 0.  0.
         12    1    3    3    0    0  0.23884705567E+01 -0.18102212079E+01 -0.36698754766E+02  0.36820921958E+02  0.00000000000E+00 0. -1.
         11    1    4    4    0    0  0.36087831813E+01 -0.37996816044E+01  0.16034297870E+02  0.16868894593E+02  0.51100000000E-03 0. -1.
        -11    1    4    4    0    0  0.85470910631E+01  0.12415234856E+02  0.11900790924E+02  0.19204677738E+02  0.51100000000E-03 0.  1.
         12    1    4    4    0    0 -0.14544344801E+02 -0.68053320435E+01  0.87636659722E+01  0.18293505711E+02  0.00000000000E+00 0. -1.
</event>
<event>
 8    1  0.1229038E-006  0.9118800E+02  0.7816164E-02  0.1184000E+00
        -11   -1    0    0    0    0  0.00000000000E+00  0.00000000000E+00  0.45593999997E+02  0.45594000000E+02  0.51100000000E-03 0. -1.
         11   -1    0    0    0    0 -0.00000000000E+00 -0.00000000000E+00 -0.45593999997E+02  0.45594000000E+02  0.51100000000E-03 0.  1.
         23    2    1    2    0    0  0.00000000000E+00  0.00000000000E+00  0.17763568394E-14  0.91188000000E+02  0.91188000000E+02 0.  0.
    9900012    2    3    3    0    0  0.34064482374E+02 -0.11271332412E+02  0.82672713997E+01  0.54367086511E+02  0.40000005320E+02 0.  0.
         12    1    3    3    0    0 -0.34064482374E+02  0.11271332412E+02 -0.82672713997E+01  0.36820913489E+02  0.00000000000E+00 0. -1.
         11    1    4    4    0    0 -0.21422395978E+01 -0.66001544365E+00 -0.60588955773E+01  0.64602652235E+01  0.51100000000E-03 0. -1.
        -11    1    4    4    0    0  0.27176279617E+02 -0.19171595333E+02  0.99044117939E+01  0.34701550609E+02  0.51100000000E-03 0.  1.
        -12    1    4    4    0    0  0.90304423548E+01  0.85602783646E+01  0.44217551831E+01  0.13205270679E+02  0.00000000000E+00 0.  1.
</event>
<event>
 8    1  0.1229038E-006  0.9118800E+02  0.7816164E-02  0.1184000E+00
        -11   -1    0    0    0    0  0.00000000000E+00  0.00000000000E+00  0.45593999997E+02  0.45594000000E+02  0.51100000000E-03 0. -1.
         11   -1    0    0    0    0 -0.00000000000E+00 -0.00000000000E+00 -0.45593999997E+02  0.45594000000E+02  0.51100000000E-03 0.  1.
         23    2    1    2    0    0  0.00000000000E+00  0.00000000000E+00  0.00000000000E+00  0.91188000000E+02  0.91188000000E+02 0.  0.
    9900012    2    3    3    0    0  0.33958012442E+02 -0.93992230220E+01  0.10690522522E+02  0.54367091887E+02  0.40000017575E+02 0.  0.
        -12    1    3    3    0    0 -0.33958012442E+02  0.93992230220E+01 -0.10690522522E+02  0.36820908113E+02  0.00000000000E+00 0.  1.
         11    1    4    4    0    0  0.24147318243E+02  0.13865330492E+01  0.13029967616E+01  0.24222164500E+02  0.51100000000E-03 0. -1.
        -11    1    4    4    0    0  0.15595298812E+02 -0.12708340025E+02  0.14957534229E+01  0.20173064462E+02  0.51100000000E-03 0.  1.
        -12    1    4    4    0    0 -0.57846046124E+01  0.19225839540E+01  0.78917723375E+01  0.99718629257E+01  0.00000000000E+00 0.  1.
</event>
<event>
 8    1  0.1229038E-006  0.9118800E+02  0.7816164E-02  0.1184000E+00
        -11   -1    0    0    0    0  0.00000000000E+00  0.00000000000E+00  0.45593999997E+02  0.45594000000E+02  0.51100000000E-03 0.  1.
         11   -1    0    0    0    0 -0.00000000000E+00 -0.00000000000E+00 -0.45593999997E+02  0.45594000000E+02  0.51100000000E-03 0. -1.
         23    2    1    2    0    0  0.00000000000E+00  0.00000000000E+00  0.00000000000E+00  0.91188000000E+02  0.91188000000E+02 0.  0.
    9900012    2    3    3    0    0 -0.26368933263E+02 -0.90649409656E+01 -0.24047582370E+02  0.54367081842E+02  0.39999994676E+02 0.  0.
        -12    1    3    3    0    0  0.26368933263E+02  0.90649409656E+01  0.24047582370E+02  0.36820918158E+02  0.00000000000E+00 0.  1.
         11    1    4    4    0    0 -0.19976549285E+02 -0.64345990976E+01 -0.24522749513E+02  0.32277419830E+02  0.51100000000E-03 0. -1.
        -11    1    4    4    0    0 -0.21452806642E+01  0.10641660488E+01 -0.99541575100E+01  0.10238160504E+02  0.51100000000E-03 0.  1.
        -12    1    4    4    0    0 -0.42471033132E+01 -0.36945079167E+01  0.10429324653E+02  0.11851501509E+02  0.00000000000E+00 0.  1.
</event>
<event>
 8    1  0.1229038E-006  0.9118800E+02  0.7816164E-02  0.1184000E+00
        -11   -1    0    0    0    0  0.00000000000E+00  0.00000000000E+00  0.45593999997E+02  0.45594000000E+02  0.51100000000E-03 0.  1.
         11   -1    0    0    0    0 -0.00000000000E+00 -0.00000000000E+00 -0.45593999997E+02  0.45594000000E+02  0.51100000000E-03 0. -1.
         23    2    1    2    0    0  0.00000000000E+00  0.00000000000E+00  0.00000000000E+00  0.91188000000E+02  0.91188000000E+02 0.  0.
    9900012    2    3    3    0    0  0.23691743145E+02 -0.74122521043E+01  0.27194477025E+02  0.54367085357E+02  0.40000002688E+02 0.  0.
         12    1    3    3    0    0 -0.23691743145E+02  0.74122521043E+01 -0.27194477025E+02  0.36820914643E+02  0.00000000000E+00 0. -1.
         11    1    4    4    0    0  0.47252284856E+01  0.44625452091E+01 -0.45205833420E+01  0.79169292026E+01  0.51100000000E-03 0. -1.
        -11    1    4    4    0    0  0.18994201962E+01 -0.49233916603E+01 -0.37562317224E+01  0.64774114843E+01  0.51100000000E-03 0.  1.
        -12    1    4    4    0    0  0.17067094463E+02 -0.69514056531E+01  0.35471292090E+02  0.39972744670E+02  0.00000000000E+00 0.  1.
</event>
<event>
 8    1  0.1229038E-006  0.9118800E+02  0.7816164E-02  0.1184000E+00
        -11   -1    0    0    0    0  0.00000000000E+00  0.00000000000E+00  0.45593999997E+02  0.45594000000E+02  0.51100000000E-03 0. -1.
         11   -1    0    0    0    0 -0.00000000000E+00 -0.00000000000E+00 -0.45593999997E+02  0.45594000000E+02  0.51100000000E-03 0.  1.
         23    2    1    2    0    0 -0.44408920985E-15 -0.22204460493E-15  0.00000000000E+00  0.91188000000E+02  0.91188000000E+02 0.  0.
    9900012    2    3    3    0    0 -0.36817322391E+01  0.45847265300E+00  0.36633503241E+02  0.54367096845E+02  0.40000028878E+02 0.  0.
        -12    1    3    3    0    0  0.36817322391E+01 -0.45847265300E+00 -0.36633503241E+02  0.36820903155E+02  0.00000000000E+00 0.  1.
         11    1    4    4    0    0 -0.12251426418E+02  0.37170037323E+01  0.37084373544E+02  0.39232184842E+02  0.51100000000E-03 0. -1.
        -11    1    4    4    0    0  0.17682544269E+01 -0.62154462930E+01  0.27933537716E+01  0.70399802481E+01  0.51100000000E-03 0.  1.
        -12    1    4    4    0    0  0.68014397516E+01  0.29569152138E+01 -0.32442240750E+01  0.80949317554E+01  0.00000000000E+00 0.  1.
</event>
<event>
 8    1  0.1229038E-006  0.9118800E+02  0.7816164E-02  0.1184000E+00
        -11   -1    0    0    0    0  0.00000000000E+00  0.00000000000E+00  0.45593999997E+02  0.45594000000E+02  0.51100000000E-03 0.  1.
         11   -1    0    0    0    0 -0.00000000000E+00 -0.00000000000E+00 -0.45593999997E+02  0.45594000000E+02  0.51100000000E-03 0. -1.
         23    2    1    2    0    0  0.00000000000E+00  0.00000000000E+00  0.00000000000E+00  0.91188000000E+02  0.91188000000E+02 0.  0.
    9900012    2    3    3    0    0  0.15429187708E+02  0.15611743776E+02 -0.29563394787E+02  0.54367072685E+02  0.39999973799E+02 0.  0.
        -12    1    3    3    0    0 -0.15429187708E+02 -0.15611743776E+02  0.29563394787E+02  0.36820927315E+02  0.00000000000E+00 0.  1.
         11    1    4    4    0    0  0.13666091357E+02  0.15601508619E+01  0.74031943042E+00  0.13774766670E+02  0.51100000000E-03 0. -1.
        -11    1    4    4    0    0  0.90598327126E+01  0.36837622663E+01 -0.25913879903E+01  0.10117606693E+02  0.51100000000E-03 0.  1.
        -12    1    4    4    0    0 -0.72967363612E+01  0.10367830647E+02 -0.27712326227E+02  0.30474699322E+02  0.00000000000E+00 0.  1.
</event>
<event>
 8    1  0.1229038E-006  0.9118800E+02  0.7816164E-02  0.1184000E+00
        -11   -1    0    0    0    0  0.00000000000E+00  0.00000000000E+00  0.45593999997E+02  0.45594000000E+02  0.51100000000E-03 0. -1.
         11   -1    0    0    0    0 -0.00000000000E+00 -0.00000000000E+00 -0.45593999997E+02  0.45594000000E+02  0.51100000000E-03 0.  1.
         23    2    1    2    0    0 -0.26645352591E-14  0.00000000000E+00 -0.17763568394E-14  0.91188000000E+02  0.91188000000E+02 0.  0.
    9900012    2    3    3    0    0 -0.45654042460E+01  0.34317110125E+02 -0.12541037846E+02  0.54367019656E+02  0.39999852909E+02 0.  0.
        -12    1    3    3    0    0  0.45654042460E+01 -0.34317110125E+02  0.12541037846E+02  0.36820980344E+02  0.00000000000E+00 0.  1.
         11    1    4    4    0    0  0.75098685342E-01  0.14904689724E+02 -0.17504872619E+01  0.15007318931E+02  0.51100000000E-03 0. -1.
        -11    1    4    4    0    0  0.99058405870E+01  0.18328012023E+02 -0.13072809855E+02  0.24595529273E+02  0.51100000000E-03 0.  1.
        -12    1    4    4    0    0 -0.14546343518E+02  0.10844083776E+01  0.22822592707E+01  0.14764171452E+02  0.00000000000E+00 0.  1.
</event>
<event>
 8    1  0.1229038E-006  0.9118800E+02  0.7816164E-02  0.1184000E+00
        -11   -1    0    0    0    0  0.00000000000E+00  0.00000000000E+00  0.45593999997E+02  0.45594000000E+02  0.51100000000E-03 0.  1.
         11   -1    0    0    0    0 -0.00000000000E+00 -0.00000000000E+00 -0.45593999997E+02  0.45594000000E+02  0.51100000000E-03 0. -1.
         23    2    1    2    0    0  0.00000000000E+00 -0.44408920985E-15 -0.17763568394E-14  0.91188000000E+02  0.91188000000E+02 0.  0.
    9900012    2    3    3    0    0  0.36322156462E+02 -0.37322035392E+01  0.47489908156E+01  0.54367064283E+02  0.39999954645E+02 0.  0.
         12    1    3    3    0    0 -0.36322156462E+02  0.37322035392E+01 -0.47489908156E+01  0.36820935717E+02  0.00000000000E+00 0. -1.
         11    1    4    4    0    0  0.12203232335E+02  0.52234731579E+01  0.14527835358E+02  0.19678962160E+02  0.51100000000E-03 0.  1.
        -11    1    4    4    0    0  0.12159171891E+02 -0.15084519133E+02 -0.85999148200E+01  0.21197799738E+02  0.51100000000E-03 0. -1.
        -12    1    4    4    0    0  0.11959752236E+02  0.61288424355E+01 -0.11789297223E+01  0.13490302385E+02  0.00000000000E+00 0.  1.
</event>
<event>
 8    1  0.1229038E-006  0.9118800E+02  0.7816164E-02  0.1184000E+00
        -11   -1    0    0    0    0  0.00000000000E+00  0.00000000000E+00  0.45593999997E+02  0.45594000000E+02  0.51100000000E-03 0.  1.
         11   -1    0    0    0    0 -0.00000000000E+00 -0.00000000000E+00 -0.45593999997E+02  0.45594000000E+02  0.51100000000E-03 0. -1.
         23    2    1    2    0    0  0.00000000000E+00 -0.88817841970E-15 -0.35527136788E-14  0.91188000000E+02  0.91188000000E+02 0.  0.
    9900012    2    3    3    0    0  0.22173881648E+02 -0.76039153170E+01 -0.28395092351E+02  0.54367057248E+02  0.39999938609E+02 0.  0.
        -12    1    3    3    0    0 -0.22173881648E+02  0.76039153170E+01  0.28395092351E+02  0.36820942752E+02  0.00000000000E+00 0.  1.
         11    1    4    4    0    0  0.22690527956E+02 -0.39828601723E+01 -0.20856034260E+02  0.31075672146E+02  0.51100000000E-03 0. -1.
        -11    1    4    4    0    0 -0.36495505351E+01  0.70737358139E+01  0.24472548780E+01  0.83274254228E+01  0.51100000000E-03 0.  1.
        -12    1    4    4    0    0  0.31329042274E+01 -0.10694790959E+02 -0.99863129697E+01  0.14963959679E+02  0.00000000000E+00 0.  1.
</event>
<event>
 8    1  0.1229038E-006  0.9118800E+02  0.7816164E-02  0.1184000E+00
        -11   -1    0    0    0    0  0.00000000000E+00  0.00000000000E+00  0.45593999997E+02  0.45594000000E+02  0.51100000000E-03 0.  1.
         11   -1    0    0    0    0 -0.00000000000E+00 -0.00000000000E+00 -0.45593999997E+02  0.45594000000E+02  0.51100000000E-03 0. -1.
         23    2    1    2    0    0  0.00000000000E+00  0.35527136788E-14  0.35527136788E-14  0.91188000000E+02  0.91188000000E+02 0.  0.
    9900012    2    3    3    0    0 -0.18020165775E+02  0.17762085817E+02  0.26749922662E+02  0.54367130516E+02  0.40000105636E+02 0.  0.
         12    1    3    3    0    0  0.18020165775E+02 -0.17762085817E+02 -0.26749922662E+02  0.36820869484E+02  0.00000000000E+00 0. -1.
         11    1    4    4    0    0 -0.20278272550E+02  0.13177304785E+02 -0.28151351046E+00  0.24185304404E+02  0.51100000000E-03 0. -1.
        -11    1    4    4    0    0 -0.23554757481E+01  0.56491122481E+01  0.58113682427E+01  0.84399488331E+01  0.51100000000E-03 0.  1.
         12    1    4    4    0    0  0.46135825222E+01 -0.10643312165E+01  0.21220067930E+02  0.21741877278E+02  0.00000000000E+00 0. -1.
</event>
<event>
 8    1  0.1229038E-006  0.9118800E+02  0.7816164E-02  0.1184000E+00
        -11   -1    0    0    0    0  0.00000000000E+00  0.00000000000E+00  0.45593999997E+02  0.45594000000E+02  0.51100000000E-03 0.  1.
         11   -1    0    0    0    0 -0.00000000000E+00 -0.00000000000E+00 -0.45593999997E+02  0.45594000000E+02  0.51100000000E-03 0. -1.
         23    2    1    2    0    0  0.00000000000E+00 -0.35527136788E-14  0.00000000000E+00  0.91188000000E+02  0.91188000000E+02 0.  0.
    9900012    2    3    3    0    0  0.30042750259E+02  0.17060900528E+02 -0.12733333529E+02  0.54367096253E+02  0.40000027529E+02 0.  0.
        -12    1    3    3    0    0 -0.30042750259E+02 -0.17060900528E+02  0.12733333529E+02  0.36820903747E+02  0.00000000000E+00 0.  1.
         11    1    4    4    0    0  0.12133477851E+02  0.11436209302E+02 -0.17995307983E+02  0.24532412796E+02  0.51100000000E-03 0. -1.
        -11    1    4    4    0    0  0.29036502568E+01  0.75868417542E+01 -0.67115937588E+01  0.10537402131E+02  0.51100000000E-03 0.  1.
        -12    1    4    4    0    0  0.15005622151E+02 -0.19621505284E+01  0.11973568213E+02  0.19297281327E+02  0.00000000000E+00 0.  1.
</event>
<event>
 8    1  0.1229038E-006  0.9118800E+02  0.7816164E-02  0.1184000E+00
        -11   -1    0    0    0    0  0.00000000000E+00  0.00000000000E+00  0.45593999997E+02  0.45594000000E+02  0.51100000000E-03 0.  1.
         11   -1    0    0    0    0 -0.00000000000E+00 -0.00000000000E+00 -0.45593999997E+02  0.45594000000E+02  0.51100000000E-03 0. -1.
         23    2    1    2    0    0  0.00000000000E+00  0.35527136788E-14  0.17763568394E-14  0.91188000000E+02  0.91188000000E+02 0.  0.
    9900012    2    3    3    0    0 -0.12077629279E+02  0.31266327328E+02  0.15242269079E+02  0.54367093979E+02  0.40000022343E+02 0.  0.
         12    1    3    3    0    0  0.12077629279E+02 -0.31266327328E+02 -0.15242269079E+02  0.36820906021E+02  0.00000000000E+00 0. -1.
         11    1    4    4    0    0 -0.17844109217E+02  0.34314667363E+01  0.13857120000E+02  0.22851848342E+02  0.51100000000E-03 0. -1.
        -11    1    4    4    0    0  0.10636099611E+01  0.15929847500E+02 -0.56174475262E+01  0.16924745921E+02  0.51100000000E-03 0.  1.
         12    1    4    4    0    0  0.47028699769E+01  0.11905013092E+02  0.70025966058E+01  0.14590499716E+02  0.00000000000E+00 0. -1.
</event>
<event>
 8    1  0.1229038E-006  0.9118800E+02  0.7816164E-02  0.1184000E+00
        -11   -1    0    0    0    0  0.00000000000E+00  0.00000000000E+00  0.45593999997E+02  0.45594000000E+02  0.51100000000E-03 0. -1.
         11   -1    0    0    0    0 -0.00000000000E+00 -0.00000000000E+00 -0.45593999997E+02  0.45594000000E+02  0.51100000000E-03 0.  1.
         23    2    1    2    0    0  0.71054273576E-14  0.00000000000E+00  0.00000000000E+00  0.91188000000E+02  0.91188000000E+02 0.  0.
    9900012    2    3    3    0    0  0.35006652779E+02 -0.78975195118E+01  0.82427431172E+01  0.54367090623E+02  0.40000014693E+02 0.  0.
         12    1    3    3    0    0 -0.35006652779E+02  0.78975195118E+01 -0.82427431172E+01  0.36820909377E+02  0.00000000000E+00 0. -1.
         11    1    4    4    0    0  0.45145069928E+01 -0.15165676690E+02  0.44546032429E+01  0.16438430982E+02  0.51100000000E-03 0.  1.
        -11    1    4    4    0    0  0.33156235980E+02  0.68093974696E+01  0.74256497489E+00  0.33856392030E+02  0.51100000000E-03 0. -1.
         12    1    4    4    0    0 -0.26640901936E+01  0.45875970814E+00  0.30455748993E+01  0.40722676112E+01  0.00000000000E+00 0. -1.
</event>
<event>
 8    1  0.1229038E-006  0.9118800E+02  0.7816164E-02  0.1184000E+00
        -11   -1    0    0    0    0  0.00000000000E+00  0.00000000000E+00  0.45593999997E+02  0.45594000000E+02  0.51100000000E-03 0. -1.
         11   -1    0    0    0    0 -0.00000000000E+00 -0.00000000000E+00 -0.45593999997E+02  0.45594000000E+02  0.51100000000E-03 0.  1.
         23    2    1    2    0    0 -0.88817841970E-15  0.17763568394E-14  0.00000000000E+00  0.91188000000E+02  0.91188000000E+02 0.  0.
    9900012    2    3    3    0    0 -0.58581558060E+01 -0.14870806707E+02 -0.33171084963E+02  0.54367085302E+02  0.40000002564E+02 0.  0.
         12    1    3    3    0    0  0.58581558060E+01  0.14870806707E+02  0.33171084963E+02  0.36820914698E+02  0.00000000000E+00 0. -1.
         11    1    4    4    0    0  0.22916192585E-01  0.46040527784E+01  0.14346909091E+01  0.48224646607E+01  0.51100000000E-03 0. -1.
        -11    1    4    4    0    0  0.37048588129E+01 -0.25924071836E+01  0.41885658516E+01  0.61636545964E+01  0.51100000000E-03 0.  1.
        -12    1    4    4    0    0 -0.95859308115E+01 -0.16882452302E+02 -0.38794341724E+02  0.43380966045E+02  0.00000000000E+00 0.  1.
</event>
<event>
 8    1  0.1229038E-006  0.9118800E+02  0.7816164E-02  0.1184000E+00
        -11   -1    0    0    0    0  0.00000000000E+00  0.00000000000E+00  0.45593999997E+02  0.45594000000E+02  0.51100000000E-03 0. -1.
         11   -1    0    0    0    0 -0.00000000000E+00 -0.00000000000E+00 -0.45593999997E+02  0.45594000000E+02  0.51100000000E-03 0.  1.
         23    2    1    2    0    0 -0.55511151231E-15 -0.35527136788E-14  0.00000000000E+00  0.91188000000E+02  0.91188000000E+02 0.  0.
    9900012    2    3    3    0    0  0.59428472813E+00  0.23993122738E+02  0.27924121443E+02  0.54367086494E+02  0.40000005280E+02 0.  0.
        -12    1    3    3    0    0 -0.59428472813E+00 -0.23993122738E+02 -0.27924121443E+02  0.36820913506E+02  0.00000000000E+00 0.  1.
         11    1    4    4    0    0  0.42755635533E+01 -0.72408808134E+01  0.12169550857E+02  0.14792186011E+02  0.51100000000E-03 0. -1.
        -11    1    4    4    0    0  0.56366659430E+01  0.30126415202E+01  0.12821615193E+01  0.65185849926E+01  0.51100000000E-03 0.  1.
        -12    1    4    4    0    0 -0.93179447682E+01  0.28221362032E+02  0.14472409067E+02  0.33056315491E+02  0.00000000000E+00 0.  1.
</event>
<event>
 8    1  0.1229038E-006  0.9118800E+02  0.7816164E-02  0.1184000E+00
        -11   -1    0    0    0    0  0.00000000000E+00  0.00000000000E+00  0.45593999997E+02  0.45594000000E+02  0.51100000000E-03 0. -1.
         11   -1    0    0    0    0 -0.00000000000E+00 -0.00000000000E+00 -0.45593999997E+02  0.45594000000E+02  0.51100000000E-03 0.  1.
         23    2    1    2    0    0  0.35527136788E-14  0.00000000000E+00 -0.35527136788E-14  0.91188000000E+02  0.91188000000E+02 0.  0.
    9900012    2    3    3    0    0 -0.21192965639E+02  0.19492385355E+02  0.22949528171E+02  0.54367140115E+02  0.40000127520E+02 0.  0.
        -12    1    3    3    0    0  0.21192965639E+02 -0.19492385355E+02 -0.22949528171E+02  0.36820859885E+02  0.00000000000E+00 0.  1.
         11    1    4    4    0    0 -0.24741277816E+01  0.60462855570E+01 -0.77731086214E+00  0.65789885054E+01  0.51100000000E-03 0. -1.
        -11    1    4    4    0    0 -0.25351433389E+02  0.99622286109E+01  0.51011124268E+01  0.27712136728E+02  0.51100000000E-03 0.  1.
        -12    1    4    4    0    0  0.66325955312E+01  0.34838711871E+01  0.18625726606E+02  0.20076014882E+02  0.00000000000E+00 0.  1.
</event>
<event>
 8    1  0.1229038E-006  0.9118800E+02  0.7816164E-02  0.1184000E+00
        -11   -1    0    0    0    0  0.00000000000E+00  0.00000000000E+00  0.45593999997E+02  0.45594000000E+02  0.51100000000E-03 0.  1.
         11   -1    0    0    0    0 -0.00000000000E+00 -0.00000000000E+00 -0.45593999997E+02  0.45594000000E+02  0.51100000000E-03 0. -1.
         23    2    1    2    0    0 -0.17763568394E-14  0.00000000000E+00  0.00000000000E+00  0.91188000000E+02  0.91188000000E+02 0.  0.
    9900012    2    3    3    0    0  0.67926507737E+01  0.29351589757E+02  0.21168997714E+02  0.54367049578E+02  0.39999921122E+02 0.  0.
         12    1    3    3    0    0 -0.67926507737E+01 -0.29351589757E+02 -0.21168997714E+02  0.36820950422E+02  0.00000000000E+00 0. -1.
         11    1    4    4    0    0  0.13856570370E+02  0.10289504404E+02  0.99165930689E+01  0.19905206898E+02  0.51100000000E-03 0.  1.
        -11    1    4    4    0    0  0.94606547609E+01  0.74895871260E+01  0.66195708912E+01  0.13762871171E+02  0.51100000000E-03 0. -1.
         12    1    4    4    0    0 -0.16524574358E+02  0.11572498227E+02  0.46328337543E+01  0.20698971508E+02  0.00000000000E+00 0. -1.
</event>
<event>
 8    1  0.1229038E-006  0.9118800E+02  0.7816164E-02  0.1184000E+00
        -11   -1    0    0    0    0  0.00000000000E+00  0.00000000000E+00  0.45593999997E+02  0.45594000000E+02  0.51100000000E-03 0. -1.
         11   -1    0    0    0    0 -0.00000000000E+00 -0.00000000000E+00 -0.45593999997E+02  0.45594000000E+02  0.51100000000E-03 0.  1.
         23    2    1    2    0    0 -0.71054273576E-14  0.00000000000E+00 -0.11102230246E-15  0.91188000000E+02  0.91188000000E+02 0.  0.
    9900012    2    3    3    0    0  0.36560204455E+02  0.43246586884E+01  0.65454536993E+00  0.54367086755E+02  0.40000005875E+02 0.  0.
         12    1    3    3    0    0 -0.36560204455E+02 -0.43246586884E+01 -0.65454536993E+00  0.36820913245E+02  0.00000000000E+00 0. -1.
         11    1    4    4    0    0  0.39496265992E+01 -0.45203531186E+01 -0.22885079453E+01  0.64242051233E+01  0.51100000000E-03 0. -1.
        -11    1    4    4    0    0  0.24088713159E+02  0.11505538901E+02  0.16739732720E+02  0.31509715627E+02  0.51100000000E-03 0.  1.
        -12    1    4    4    0    0  0.85218646968E+01 -0.26605270943E+01 -0.13796679405E+02  0.16433166005E+02  0.00000000000E+00 0.  1.
</event>
<event>
 8    1  0.1229038E-006  0.9118800E+02  0.7816164E-02  0.1184000E+00
        -11   -1    0    0    0    0  0.00000000000E+00  0.00000000000E+00  0.45593999997E+02  0.45594000000E+02  0.51100000000E-03 0. -1.
         11   -1    0    0    0    0 -0.00000000000E+00 -0.00000000000E+00 -0.45593999997E+02  0.45594000000E+02  0.51100000000E-03 0.  1.
         23    2    1    2    0    0  0.00000000000E+00  0.35527136788E-14  0.00000000000E+00  0.91188000000E+02  0.91188000000E+02 0.  0.
    9900012    2    3    3    0    0  0.30165956408E+02 -0.15192406072E+02 -0.14662398011E+02  0.54367081438E+02  0.39999993755E+02 0.  0.
        -12    1    3    3    0    0 -0.30165956408E+02  0.15192406072E+02  0.14662398011E+02  0.36820918562E+02  0.00000000000E+00 0.  1.
         11    1    4    4    0    0  0.25812872554E+02  0.18639055339E+00 -0.23674958326E+01  0.25921885883E+02  0.51100000000E-03 0. -1.
        -11    1    4    4    0    0  0.59439956082E+01  0.23990858116E+01 -0.76913295671E+01  0.10012154977E+02  0.51100000000E-03 0.  1.
         12    1    4    4    0    0 -0.15909117542E+01 -0.17777882437E+02 -0.46035726110E+01  0.18433040578E+02  0.00000000000E+00 0. -1.
</event>
<event>
 8    1  0.1229038E-006  0.9118800E+02  0.7816164E-02  0.1184000E+00
        -11   -1    0    0    0    0  0.00000000000E+00  0.00000000000E+00  0.45593999997E+02  0.45594000000E+02  0.51100000000E-03 0. -1.
         11   -1    0    0    0    0 -0.00000000000E+00 -0.00000000000E+00 -0.45593999997E+02  0.45594000000E+02  0.51100000000E-03 0.  1.
         23    2    1    2    0    0  0.00000000000E+00  0.00000000000E+00  0.00000000000E+00  0.91188000000E+02  0.91188000000E+02 0.  0.
    9900012    2    3    3    0    0 -0.25162303390E+02  0.19018294499E+02 -0.18998489458E+02  0.54367086931E+02  0.40000006277E+02 0.  0.
        -12    1    3    3    0    0  0.25162303390E+02 -0.19018294499E+02  0.18998489458E+02  0.36820913069E+02  0.00000000000E+00 0.  1.
         11    1    4    4    0    0 -0.15670578732E+02  0.22325312424E+02 -0.55094805798E+01  0.27826983112E+02  0.51100000000E-03 0. -1.
        -11    1    4    4    0    0 -0.35291053851E+01  0.86522803909E+01 -0.70553205393E+01  0.11708718502E+02  0.51100000000E-03 0.  1.
        -12    1    4    4    0    0 -0.59626192723E+01 -0.11959298315E+02 -0.64336883386E+01  0.14831385317E+02  0.00000000000E+00 0.  1.
</event>
<event>
 8    1  0.1229038E-006  0.9118800E+02  0.7816164E-02  0.1184000E+00
        -11   -1    0    0    0    0  0.00000000000E+00  0.00000000000E+00  0.45593999997E+02  0.45594000000E+02  0.51100000000E-03 0.  1.
         11   -1    0    0    0    0 -0.00000000000E+00 -0.00000000000E+00 -0.45593999997E+02  0.45594000000E+02  0.51100000000E-03 0. -1.
         23    2    1    2    0    0  0.35527136788E-14  0.88817841970E-15  0.35527136788E-14  0.91188000000E+02  0.91188000000E+02 0.  0.
    9900012    2    3    3    0    0  0.24496381871E+02  0.13617978490E+01  0.27456379206E+02  0.54367082340E+02  0.39999995811E+02 0.  0.
         12    1    3    3    0    0 -0.24496381871E+02 -0.13617978490E+01 -0.27456379206E+02  0.36820917660E+02  0.00000000000E+00 0. -1.
         11    1    4    4    0    0  0.11285830168E+01 -0.39718533194E+01  0.27734442179E+01  0.49740638825E+01  0.51100000000E-03 0. -1.
        -11    1    4    4    0    0 -0.66276988483E+01 -0.55836538102E+01  0.12535037680E+02  0.15239119128E+02  0.51100000000E-03 0.  1.
        -12    1    4    4    0    0  0.29995497703E+02  0.10917304979E+02  0.12147897309E+02  0.34153899330E+02  0.00000000000E+00 0.  1.
</event>
<event>
 8    1  0.1229038E-006  0.9118800E+02  0.7816164E-02  0.1184000E+00
        -11   -1    0    0    0    0  0.00000000000E+00  0.00000000000E+00  0.45593999997E+02  0.45594000000E+02  0.51100000000E-03 0.  1.
         11   -1    0    0    0    0 -0.00000000000E+00 -0.00000000000E+00 -0.45593999997E+02  0.45594000000E+02  0.51100000000E-03 0. -1.
         23    2    1    2    0    0  0.22204460493E-15  0.00000000000E+00  0.00000000000E+00  0.91188000000E+02  0.91188000000E+02 0.  0.
    9900012    2    3    3    0    0  0.11726112611E+01  0.22240355904E+02 -0.29321878113E+02  0.54367068671E+02  0.39999964648E+02 0.  0.
        -12    1    3    3    0    0 -0.11726112611E+01 -0.22240355904E+02  0.29321878113E+02  0.36820931329E+02  0.00000000000E+00 0.  1.
         11    1    4    4    0    0 -0.97823191379E+01  0.13248990110E+02 -0.18307431825E+02  0.24625019126E+02  0.51100000000E-03 0. -1.
        -11    1    4    4    0    0  0.18480433386E+02  0.52064159020E+01 -0.78829346520E+01  0.20755091994E+02  0.51100000000E-03 0.  1.
         12    1    4    4    0    0 -0.75255029873E+01  0.37849498919E+01 -0.31315116359E+01  0.89869575509E+01  0.00000000000E+00 0. -1.
</event>
<event>
 8    1  0.1229038E-006  0.9118800E+02  0.7816164E-02  0.1184000E+00
        -11   -1    0    0    0    0  0.00000000000E+00  0.00000000000E+00  0.45593999997E+02  0.45594000000E+02  0.51100000000E-03 0.  1.
         11   -1    0    0    0    0 -0.00000000000E+00 -0.00000000000E+00 -0.45593999997E+02  0.45594000000E+02  0.51100000000E-03 0. -1.
         23    2    1    2    0    0 -0.71054273576E-14  0.17763568394E-14 -0.53290705182E-14  0.91188000000E+02  0.91188000000E+02 0.  0.
    9900012    2    3    3    0    0 -0.33458331087E+02  0.52056428328E+01  0.14464730841E+02  0.54366985963E+02  0.39999776099E+02 0.  0.
         12    1    3    3    0    0  0.33458331087E+02 -0.52056428328E+01 -0.14464730841E+02  0.36821014037E+02  0.00000000000E+00 0. -1.
         11    1    4    4    0    0 -0.20921282664E+02  0.19705827406E+01  0.78185864085E+01  0.22421274681E+02  0.51100000000E-03 0.  1.
        -11    1    4    4    0    0  0.30530247969E+01  0.96901497682E+01 -0.51179628402E+01  0.11376005751E+02  0.51100000000E-03 0. -1.
        -12    1    4    4    0    0 -0.15590073220E+02 -0.64550896760E+01  0.11764107272E+02  0.20569705532E+02  0.00000000000E+00 0.  1.
</event>
<event>
 8    1  0.1229038E-006  0.9118800E+02  0.7816164E-02  0.1184000E+00
        -11   -1    0    0    0    0  0.00000000000E+00  0.00000000000E+00  0.45593999997E+02  0.45594000000E+02  0.51100000000E-03 0. -1.
         11   -1    0    0    0    0 -0.00000000000E+00 -0.00000000000E+00 -0.45593999997E+02  0.45594000000E+02  0.51100000000E-03 0.  1.
         23    2    1    2    0    0  0.88817841970E-15 -0.71054273576E-14  0.00000000000E+00  0.91188000000E+02  0.91188000000E+02 0.  0.
    9900012    2    3    3    0    0  0.52312915449E+01  0.35011875415E+02 -0.10128271658E+02  0.54367085860E+02  0.40000003835E+02 0.  0.
         12    1    3    3    0    0 -0.52312915449E+01 -0.35011875415E+02  0.10128271658E+02  0.36820914140E+02  0.00000000000E+00 0. -1.
         11    1    4    4    0    0  0.60053941977E+01 -0.51438094767E+01  0.26703913147E+01  0.83459286743E+01  0.51100000000E-03 0. -1.
        -11    1    4    4    0    0 -0.73618589432E+01  0.67083383630E+01 -0.13008344281E+01  0.10044448276E+02  0.51100000000E-03 0.  1.
        -12    1    4    4    0    0  0.65877562904E+01  0.33447346529E+02 -0.11497828544E+02  0.35976708910E+02  0.00000000000E+00 0.  1.
</event>
<event>
 8    1  0.1229038E-006  0.9118800E+02  0.7816164E-02  0.1184000E+00
        -11   -1    0    0    0    0  0.00000000000E+00  0.00000000000E+00  0.45593999997E+02  0.45594000000E+02  0.51100000000E-03 0.  1.
         11   -1    0    0    0    0 -0.00000000000E+00 -0.00000000000E+00 -0.45593999997E+02  0.45594000000E+02  0.51100000000E-03 0. -1.
         23    2    1    2    0    0  0.35527136788E-14  0.88817841970E-15 -0.35527136788E-14  0.91188000000E+02  0.91188000000E+02 0.  0.
    9900012    2    3    3    0    0  0.24680282877E+02 -0.75714259410E+01  0.26255232080E+02  0.54367081146E+02  0.39999993089E+02 0.  0.
         12    1    3    3    0    0 -0.24680282877E+02  0.75714259410E+01 -0.26255232080E+02  0.36820918854E+02  0.00000000000E+00 0. -1.
         11    1    4    4    0    0  0.58659071843E+00  0.41995324785E+01  0.93916883122E+00  0.43430634423E+01  0.51100000000E-03 0. -1.
        -11    1    4    4    0    0  0.24792818157E+02 -0.15794216585E+02  0.31196689997E+02  0.42864607507E+02  0.51100000000E-03 0.  1.
        -12    1    4    4    0    0 -0.69912599834E+00  0.40232581651E+01 -0.58806267480E+01  0.71594101973E+01  0.00000000000E+00 0.  1.
</event>
<event>
 8    1  0.1229038E-006  0.9118800E+02  0.7816164E-02  0.1184000E+00
        -11   -1    0    0    0    0  0.00000000000E+00  0.00000000000E+00  0.45593999997E+02  0.45594000000E+02  0.51100000000E-03 0.  1.
         11   -1    0    0    0    0 -0.00000000000E+00 -0.00000000000E+00 -0.45593999997E+02  0.45594000000E+02  0.51100000000E-03 0. -1.
         23    2    1    2    0    0  0.71054273576E-14  0.00000000000E+00 -0.66613381478E-15  0.91188000000E+02  0.91188000000E+02 0.  0.
    9900012    2    3    3    0    0  0.36034927026E+02 -0.74703146712E+01 -0.12078320625E+01  0.54367076256E+02  0.39999981941E+02 0.  0.
        -12    1    3    3    0    0 -0.36034927026E+02  0.74703146712E+01  0.12078320625E+01  0.36820923744E+02  0.00000000000E+00 0.  1.
         11    1    4    4    0    0  0.28192570551E+02 -0.18161109962E+02 -0.61180062199E+01  0.34089249767E+02  0.51100000000E-03 0. -1.
        -11    1    4    4    0    0 -0.41836769189E+01  0.20033621544E+01  0.24290660339E+01  0.52361220900E+01  0.51100000000E-03 0.  1.
        -12    1    4    4    0    0  0.12026033394E+02  0.86874331365E+01  0.24811081235E+01  0.15041704399E+02  0.00000000000E+00 0.  1.
</event>
<event>
 8    1  0.1229038E-006  0.9118800E+02  0.7816164E-02  0.1184000E+00
        -11   -1    0    0    0    0  0.00000000000E+00  0.00000000000E+00  0.45593999997E+02  0.45594000000E+02  0.51100000000E-03 0.  1.
         11   -1    0    0    0    0 -0.00000000000E+00 -0.00000000000E+00 -0.45593999997E+02  0.45594000000E+02  0.51100000000E-03 0. -1.
         23    2    1    2    0    0  0.00000000000E+00  0.00000000000E+00  0.17763568394E-14  0.91188000000E+02  0.91188000000E+02 0.  0.
    9900012    2    3    3    0    0  0.31740723326E+02  0.14918696515E+02  0.11213355162E+02  0.54367077184E+02  0.39999984057E+02 0.  0.
         12    1    3    3    0    0 -0.31740723326E+02 -0.14918696515E+02 -0.11213355162E+02  0.36820922816E+02  0.00000000000E+00 0. -1.
         11    1    4    4    0    0  0.10610980644E+02  0.12045144617E+02  0.22989655192E+02  0.28039305719E+02  0.51100000000E-03 0. -1.
        -11    1    4    4    0    0  0.75083550346E+01  0.56064271823E+01 -0.27712664632E+01  0.97717623358E+01  0.51100000000E-03 0.  1.
         12    1    4    4    0    0  0.13621387647E+02 -0.27328752840E+01 -0.90050335670E+01  0.16556009130E+02  0.00000000000E+00 0. -1.
</event>
<event>
 8    1  0.1229038E-006  0.9118800E+02  0.7816164E-02  0.1184000E+00
        -11   -1    0    0    0    0  0.00000000000E+00  0.00000000000E+00  0.45593999997E+02  0.45594000000E+02  0.51100000000E-03 0. -1.
         11   -1    0    0    0    0 -0.00000000000E+00 -0.00000000000E+00 -0.45593999997E+02  0.45594000000E+02  0.51100000000E-03 0.  1.
         23    2    1    2    0    0  0.00000000000E+00 -0.35527136788E-14  0.17763568394E-14  0.91188000000E+02  0.91188000000E+02 0.  0.
    9900012    2    3    3    0    0  0.26468154761E+02 -0.21471597805E+02  0.13935079336E+02  0.54367093373E+02  0.40000020962E+02 0.  0.
         12    1    3    3    0    0 -0.26468154761E+02  0.21471597805E+02 -0.13935079336E+02  0.36820906627E+02  0.00000000000E+00 0. -1.
         11    1    4    4    0    0  0.18844091122E+02 -0.33836162145E+01  0.10945884893E+02  0.22053594384E+02  0.51100000000E-03 0. -1.
        -11    1    4    4    0    0  0.12424094584E+02 -0.10694495115E+01  0.68310192676E+01  0.14218462399E+02  0.51100000000E-03 0.  1.
        -12    1    4    4    0    0 -0.48000309456E+01 -0.17018532079E+02 -0.38418248246E+01  0.18095036590E+02  0.00000000000E+00 0.  1.
</event>
<event>
 8    1  0.1229038E-006  0.9118800E+02  0.7816164E-02  0.1184000E+00
        -11   -1    0    0    0    0  0.00000000000E+00  0.00000000000E+00  0.45593999997E+02  0.45594000000E+02  0.51100000000E-03 0. -1.
         11   -1    0    0    0    0 -0.00000000000E+00 -0.00000000000E+00 -0.45593999997E+02  0.45594000000E+02  0.51100000000E-03 0.  1.
         23    2    1    2    0    0  0.00000000000E+00  0.00000000000E+00  0.00000000000E+00  0.91188000000E+02  0.91188000000E+02 0.  0.
    9900012    2    3    3    0    0  0.23301276805E+01  0.11428109889E+02 -0.34924899851E+02  0.54367084473E+02  0.40000000673E+02 0.  0.
         12    1    3    3    0    0 -0.23301276805E+01 -0.11428109889E+02  0.34924899851E+02  0.36820915527E+02  0.00000000000E+00 0. -1.
         11    1    4    4    0    0 -0.38185233900E+01 -0.11296866525E+02 -0.11198019818E+02  0.16358360623E+02  0.51100000000E-03 0. -1.
        -11    1    4    4    0    0  0.35269393375E+00  0.19044598216E+02 -0.76490423282E+01  0.20526299301E+02  0.51100000000E-03 0.  1.
         12    1    4    4    0    0  0.57959571368E+01  0.36803781983E+01 -0.16077837705E+02  0.17482424548E+02  0.00000000000E+00 0. -1.
</event>
<event>
 8    1  0.1229038E-006  0.9118800E+02  0.7816164E-02  0.1184000E+00
        -11   -1    0    0    0    0  0.00000000000E+00  0.00000000000E+00  0.45593999997E+02  0.45594000000E+02  0.51100000000E-03 0. -1.
         11   -1    0    0    0    0 -0.00000000000E+00 -0.00000000000E+00 -0.45593999997E+02  0.45594000000E+02  0.51100000000E-03 0.  1.
         23    2    1    2    0    0  0.00000000000E+00 -0.22204460493E-15  0.00000000000E+00  0.91188000000E+02  0.91188000000E+02 0.  0.
    9900012    2    3    3    0    0  0.17595367832E+02 -0.83324735409E+00  0.32334027953E+02  0.54367073424E+02  0.39999975484E+02 0.  0.
        -12    1    3    3    0    0 -0.17595367832E+02  0.83324735409E+00 -0.32334027953E+02  0.36820926576E+02  0.00000000000E+00 0.  1.
         11    1    4    4    0    0  0.87228191720E+01  0.53301918605E+01  0.13327298560E+02  0.16796291458E+02  0.51100000000E-03 0. -1.
        -11    1    4    4    0    0  0.92724697535E+01  0.40633255655E+01 -0.51333156077E+01  0.11350781443E+02  0.51100000000E-03 0.  1.
         12    1    4    4    0    0 -0.39992109383E+00 -0.10226764780E+02  0.24140045001E+02  0.26220000522E+02  0.00000000000E+00 0. -1.
</event>
<event>
 8    1  0.1229038E-006  0.9118800E+02  0.7816164E-02  0.1184000E+00
        -11   -1    0    0    0    0  0.00000000000E+00  0.00000000000E+00  0.45593999997E+02  0.45594000000E+02  0.51100000000E-03 0. -1.
         11   -1    0    0    0    0 -0.00000000000E+00 -0.00000000000E+00 -0.45593999997E+02  0.45594000000E+02  0.51100000000E-03 0.  1.
         23    2    1    2    0    0 -0.17763568394E-14 -0.71054273576E-14 -0.11102230246E-14  0.91188000000E+02  0.91188000000E+02 0.  0.
    9900012    2    3    3    0    0 -0.61639002952E+01  0.36280186167E+02 -0.12383522588E+01  0.54367094369E+02  0.40000023234E+02 0.  0.
        -12    1    3    3    0    0  0.61639002952E+01 -0.36280186167E+02  0.12383522588E+01  0.36820905631E+02  0.00000000000E+00 0.  1.
         11    1    4    4    0    0  0.41158294120E+01  0.10083301335E+02 -0.80725641528E+01  0.13556522778E+02  0.51100000000E-03 0. -1.
        -11    1    4    4    0    0  0.84183937067E+01  0.12819777819E+02 -0.32963090246E+01  0.15686991725E+02  0.51100000000E-03 0.  1.
         12    1    4    4    0    0 -0.18698123414E+02  0.13377107013E+02  0.10130520919E+02  0.25123579867E+02  0.00000000000E+00 0. -1.
</event>
<event>
 8    1  0.1229038E-006  0.9118800E+02  0.7816164E-02  0.1184000E+00
        -11   -1    0    0    0    0  0.00000000000E+00  0.00000000000E+00  0.45593999997E+02  0.45594000000E+02  0.51100000000E-03 0. -1.
         11   -1    0    0    0    0 -0.00000000000E+00 -0.00000000000E+00 -0.45593999997E+02  0.45594000000E+02  0.51100000000E-03 0.  1.
         23    2    1    2    0    0 -0.44408920985E-15  0.35527136788E-14  0.00000000000E+00  0.91188000000E+02  0.91188000000E+02 0.  0.
    9900012    2    3    3    0    0  0.21549089223E+01  0.27997566807E+02  0.23817439072E+02  0.54367112130E+02  0.40000063723E+02 0.  0.
        -12    1    3    3    0    0 -0.21549089223E+01 -0.27997566807E+02 -0.23817439072E+02  0.36820887870E+02  0.00000000000E+00 0.  1.
         11    1    4    4    0    0  0.21324191038E+01  0.15264416837E+02  0.24614563034E+02  0.29041803425E+02  0.51100000000E-03 0. -1.
        -11    1    4    4    0    0 -0.69078647399E+01 -0.32600178857E+01  0.13718695080E+01  0.77606918563E+01  0.51100000000E-03 0.  1.
        -12    1    4    4    0    0  0.69303545585E+01  0.15993167856E+02 -0.21689934695E+01  0.17564616849E+02  0.00000000000E+00 0.  1.
</event>
<event>
 8    1  0.1229038E-006  0.9118800E+02  0.7816164E-02  0.1184000E+00
        -11   -1    0    0    0    0  0.00000000000E+00  0.00000000000E+00  0.45593999997E+02  0.45594000000E+02  0.51100000000E-03 0.  1.
         11   -1    0    0    0    0 -0.00000000000E+00 -0.00000000000E+00 -0.45593999997E+02  0.45594000000E+02  0.51100000000E-03 0. -1.
         23    2    1    2    0    0  0.00000000000E+00  0.00000000000E+00  0.00000000000E+00  0.91188000000E+02  0.91188000000E+02 0.  0.
    9900012    2    3    3    0    0  0.93221436816E+01  0.14300646442E+02 -0.32624648995E+02  0.54367101402E+02  0.40000039267E+02 0.  0.
        -12    1    3    3    0    0 -0.93221436816E+01 -0.14300646442E+02  0.32624648995E+02  0.36820898598E+02  0.00000000000E+00 0.  1.
         11    1    4    4    0    0  0.73834512340E+01 -0.12432037257E+02 -0.10749500252E+02  0.18017287765E+02  0.51100000000E-03 0. -1.
        -11    1    4    4    0    0 -0.26254558598E+01  0.33406351261E+01 -0.72020871966E+01  0.83619926912E+01  0.51100000000E-03 0.  1.
         12    1    4    4    0    0  0.45641483074E+01  0.23392048572E+02 -0.14673061547E+02  0.27987820947E+02  0.00000000000E+00 0. -1.
</event>
<event>
 8    1  0.1229038E-006  0.9118800E+02  0.7816164E-02  0.1184000E+00
        -11   -1    0    0    0    0  0.00000000000E+00  0.00000000000E+00  0.45593999997E+02  0.45594000000E+02  0.51100000000E-03 0.  1.
         11   -1    0    0    0    0 -0.00000000000E+00 -0.00000000000E+00 -0.45593999997E+02  0.45594000000E+02  0.51100000000E-03 0. -1.
         23    2    1    2    0    0  0.00000000000E+00  0.44408920985E-15 -0.35527136788E-14  0.91188000000E+02  0.91188000000E+02 0.  0.
    9900012    2    3    3    0    0 -0.23821635817E+02 -0.21386310080E+01 -0.27995159270E+02  0.54367176840E+02  0.40000211242E+02 0.  0.
        -12    1    3    3    0    0  0.23821635817E+02  0.21386310080E+01  0.27995159270E+02  0.36820823160E+02  0.00000000000E+00 0.  1.
         11    1    4    4    0    0 -0.39801194262E+01  0.11893648795E+01 -0.13521391894E+02  0.14145104400E+02  0.51100000000E-03 0. -1.
        -11    1    4    4    0    0 -0.63791357481E+01  0.11122435654E+02 -0.15894324431E+02  0.20421349053E+02  0.51100000000E-03 0.  1.
        -12    1    4    4    0    0 -0.13462380643E+02 -0.14450431542E+02  0.14205570547E+01  0.19800723387E+02  0.00000000000E+00 0.  1.
</event>
<event>
 8    1  0.1229038E-006  0.9118800E+02  0.7816164E-02  0.1184000E+00
        -11   -1    0    0    0    0  0.00000000000E+00  0.00000000000E+00  0.45593999997E+02  0.45594000000E+02  0.51100000000E-03 0.  1.
         11   -1    0    0    0    0 -0.00000000000E+00 -0.00000000000E+00 -0.45593999997E+02  0.45594000000E+02  0.51100000000E-03 0. -1.
         23    2    1    2    0    0 -0.35527136788E-14  0.00000000000E+00  0.00000000000E+00  0.91188000000E+02  0.91188000000E+02 0.  0.
    9900012    2    3    3    0    0  0.27946601634E+02 -0.23543369165E+02  0.45249807392E+01  0.54367106132E+02  0.40000050048E+02 0.  0.
        -12    1    3    3    0    0 -0.27946601634E+02  0.23543369165E+02 -0.45249807392E+01  0.36820893868E+02  0.00000000000E+00 0.  1.
         11    1    4    4    0    0  0.10418640333E+02 -0.20894969163E+02  0.76526438279E+01  0.24570526257E+02  0.51100000000E-03 0. -1.
        -11    1    4    4    0    0  0.17796732012E+02  0.74545849782E+01 -0.28182684967E+00  0.19296992878E+02  0.51100000000E-03 0.  1.
        -12    1    4    4    0    0 -0.26877071049E+00 -0.10102984981E+02 -0.28458362391E+01  0.10499586997E+02  0.00000000000E+00 0.  1.
</event>
<event>
 8    1  0.1229038E-006  0.9118800E+02  0.7816164E-02  0.1184000E+00
        -11   -1    0    0    0    0  0.00000000000E+00  0.00000000000E+00  0.45593999997E+02  0.45594000000E+02  0.51100000000E-03 0. -1.
         11   -1    0    0    0    0 -0.00000000000E+00 -0.00000000000E+00 -0.45593999997E+02  0.45594000000E+02  0.51100000000E-03 0.  1.
         23    2    1    2    0    0  0.00000000000E+00  0.17763568394E-14  0.00000000000E+00  0.91188000000E+02  0.91188000000E+02 0.  0.
    9900012    2    3    3    0    0 -0.25556940690E+02  0.92534799499E+01  0.24839394456E+02  0.54367087117E+02  0.40000006701E+02 0.  0.
        -12    1    3    3    0    0  0.25556940690E+02 -0.92534799499E+01 -0.24839394456E+02  0.36820912883E+02  0.00000000000E+00 0.  1.
         11    1    4    4    0    0 -0.32096683670E+02  0.29886361404E+00  0.21298173346E+02  0.38521404572E+02  0.51100000000E-03 0. -1.
        -11    1    4    4    0    0 -0.71160270648E-01  0.40923532482E+01 -0.32239546302E+01  0.52102113787E+01  0.51100000000E-03 0.  1.
         12    1    4    4    0    0  0.66109032511E+01  0.48622630877E+01  0.67651757400E+01  0.10635471166E+02  0.00000000000E+00 0. -1.
</event>
<event>
 8    1  0.1229038E-006  0.9118800E+02  0.7816164E-02  0.1184000E+00
        -11   -1    0    0    0    0  0.00000000000E+00  0.00000000000E+00  0.45593999997E+02  0.45594000000E+02  0.51100000000E-03 0.  1.
         11   -1    0    0    0    0 -0.00000000000E+00 -0.00000000000E+00 -0.45593999997E+02  0.45594000000E+02  0.51100000000E-03 0. -1.
         23    2    1    2    0    0  0.00000000000E+00  0.00000000000E+00  0.00000000000E+00  0.91188000000E+02  0.91188000000E+02 0.  0.
    9900012    2    3    3    0    0 -0.26236021870E+02 -0.14059852759E+02  0.21673963315E+02  0.54367231554E+02  0.40000335972E+02 0.  0.
         12    1    3    3    0    0  0.26236021870E+02  0.14059852759E+02 -0.21673963315E+02  0.36820768446E+02  0.00000000000E+00 0. -1.
         11    1    4    4    0    0  0.37698087562E+00  0.84656144406E+01  0.32552228636E+01  0.90777320180E+01  0.51100000000E-03 0. -1.
        -11    1    4    4    0    0 -0.16225961255E+02  0.20016392144E+00  0.53173798554E+01  0.17076194337E+02  0.51100000000E-03 0.  1.
        -12    1    4    4    0    0 -0.10387041491E+02 -0.22725631121E+02  0.13101360596E+02  0.28213305199E+02  0.00000000000E+00 0.  1.
</event>
<event>
 8    1  0.1229038E-006  0.9118800E+02  0.7816164E-02  0.1184000E+00
        -11   -1    0    0    0    0  0.00000000000E+00  0.00000000000E+00  0.45593999997E+02  0.45594000000E+02  0.51100000000E-03 0.  1.
         11   -1    0    0    0    0 -0.00000000000E+00 -0.00000000000E+00 -0.45593999997E+02  0.45594000000E+02  0.51100000000E-03 0. -1.
         23    2    1    2    0    0  0.00000000000E+00  0.00000000000E+00 -0.88817841970E-15  0.91188000000E+02  0.91188000000E+02 0.  0.
    9900012    2    3    3    0    0  0.29594530455E+02  0.21067472321E+02 -0.60087686543E+01  0.54367083070E+02  0.39999997475E+02 0.  0.
        -12    1    3    3    0    0 -0.29594530455E+02 -0.21067472321E+02  0.60087686543E+01  0.36820916930E+02  0.00000000000E+00 0.  1.
         11    1    4    4    0    0  0.30068259748E+02  0.15565596277E+02 -0.14002665122E+02  0.36639632402E+02  0.51100000000E-03 0. -1.
        -11    1    4    4    0    0  0.45472919113E+01  0.83693442922E+01  0.70924729852E+01  0.11875477292E+02  0.51100000000E-03 0.  1.
        -12    1    4    4    0    0 -0.50210212052E+01 -0.28674682484E+01  0.90142348299E+00  0.58519733761E+01  0.00000000000E+00 0.  1.
</event>
<event>
 8    1  0.1229038E-006  0.9118800E+02  0.7816164E-02  0.1184000E+00
        -11   -1    0    0    0    0  0.00000000000E+00  0.00000000000E+00  0.45593999997E+02  0.45594000000E+02  0.51100000000E-03 0.  1.
         11   -1    0    0    0    0 -0.00000000000E+00 -0.00000000000E+00 -0.45593999997E+02  0.45594000000E+02  0.51100000000E-03 0. -1.
         23    2    1    2    0    0  0.00000000000E+00  0.66613381478E-15  0.17763568394E-14  0.91188000000E+02  0.91188000000E+02 0.  0.
    9900012    2    3    3    0    0  0.36326095697E+02  0.86105321070E+00  0.59542806013E+01  0.54367080692E+02  0.39999992053E+02 0.  0.
        -12    1    3    3    0    0 -0.36326095697E+02 -0.86105321070E+00 -0.59542806013E+01  0.36820919308E+02  0.00000000000E+00 0.  1.
         11    1    4    4    0    0  0.26538666788E+01 -0.85933830664E+01 -0.63942036555E+01  0.11035174739E+02  0.51100000000E-03 0. -1.
        -11    1    4    4    0    0  0.13696319294E+01  0.71424036176E+00  0.96348846673E+01  0.97579215886E+01  0.51100000000E-03 0.  1.
         12    1    4    4    0    0  0.32302597089E+02  0.87401959154E+01  0.27135995896E+01  0.33573984364E+02  0.00000000000E+00 0. -1.
</event>
<event>
 8    1  0.1229038E-006  0.9118800E+02  0.7816164E-02  0.1184000E+00
        -11   -1    0    0    0    0  0.00000000000E+00  0.00000000000E+00  0.45593999997E+02  0.45594000000E+02  0.51100000000E-03 0.  1.
         11   -1    0    0    0    0 -0.00000000000E+00 -0.00000000000E+00 -0.45593999997E+02  0.45594000000E+02  0.51100000000E-03 0. -1.
         23    2    1    2    0    0  0.99920072216E-15  0.71054273576E-14 -0.35527136788E-14  0.91188000000E+02  0.91188000000E+02 0.  0.
    9900012    2    3    3    0    0  0.61989599607E+00  0.32739931340E+02 -0.16837234996E+02  0.54367083967E+02  0.39999999519E+02 0.  0.
        -12    1    3    3    0    0 -0.61989599607E+00 -0.32739931340E+02  0.16837234996E+02  0.36820916033E+02  0.00000000000E+00 0.  1.
         11    1    4    4    0    0  0.62768459689E+01  0.15420743681E+01 -0.13017830210E+02  0.14534121656E+02  0.51100000000E-03 0. -1.
        -11    1    4    4    0    0  0.60875084217E+01  0.50629552748E+01  0.55705968252E+01  0.96810549089E+01  0.51100000000E-03 0.  1.
        -12    1    4    4    0    0 -0.11744458395E+02  0.26134901698E+02 -0.93900016113E+01  0.30151907402E+02  0.00000000000E+00 0.  1.
</event>
<event>
 8    1  0.1229038E-006  0.9118800E+02  0.7816164E-02  0.1184000E+00
        -11   -1    0    0    0    0  0.00000000000E+00  0.00000000000E+00  0.45593999997E+02  0.45594000000E+02  0.51100000000E-03 0.  1.
         11   -1    0    0    0    0 -0.00000000000E+00 -0.00000000000E+00 -0.45593999997E+02  0.45594000000E+02  0.51100000000E-03 0. -1.
         23    2    1    2    0    0  0.44408920985E-15 -0.35527136788E-14  0.00000000000E+00  0.91188000000E+02  0.91188000000E+02 0.  0.
    9900012    2    3    3    0    0  0.39421820123E+01  0.16774283156E+02 -0.32540097756E+02  0.54367145361E+02  0.40000139478E+02 0.  0.
        -12    1    3    3    0    0 -0.39421820123E+01 -0.16774283156E+02  0.32540097756E+02  0.36820854639E+02  0.00000000000E+00 0.  1.
         11    1    4    4    0    0  0.41825807200E+00  0.10606606132E+02 -0.18589607284E+02  0.21406740356E+02  0.51100000000E-03 0. -1.
        -11    1    4    4    0    0 -0.22939312195E+01  0.51406939935E+01 -0.22150073970E+02  0.22854203822E+02  0.51100000000E-03 0.  1.
        -12    1    4    4    0    0  0.58178551597E+01  0.10269830306E+01  0.81995834980E+01  0.10106201183E+02  0.00000000000E+00 0.  1.
</event>
<event>
 8    1  0.1229038E-006  0.9118800E+02  0.7816164E-02  0.1184000E+00
        -11   -1    0    0    0    0  0.00000000000E+00  0.00000000000E+00  0.45593999997E+02  0.45594000000E+02  0.51100000000E-03 0. -1.
         11   -1    0    0    0    0 -0.00000000000E+00 -0.00000000000E+00 -0.45593999997E+02  0.45594000000E+02  0.51100000000E-03 0.  1.
         23    2    1    2    0    0  0.00000000000E+00  0.00000000000E+00  0.88817841970E-15  0.91188000000E+02  0.91188000000E+02 0.  0.
    9900012    2    3    3    0    0 -0.34770445824E+02 -0.11224992632E+02 -0.45601806569E+01  0.54367087328E+02  0.40000007182E+02 0.  0.
        -12    1    3    3    0    0  0.34770445824E+02  0.11224992632E+02  0.45601806569E+01  0.36820912672E+02  0.00000000000E+00 0.  1.
         11    1    4    4    0    0 -0.17532730213E+01 -0.99156139205E+01  0.84759653734E+01  0.13161890251E+02  0.51100000000E-03 0. -1.
        -11    1    4    4    0    0 -0.97902539224E+01  0.51623817988E+01  0.39053939977E+01  0.11736752542E+02  0.51100000000E-03 0.  1.
         12    1    4    4    0    0 -0.23226918880E+02 -0.64717605102E+01 -0.16941540028E+02  0.29468444535E+02  0.00000000000E+00 0. -1.
</event>
<event>
 8    1  0.1229038E-006  0.9118800E+02  0.7816164E-02  0.1184000E+00
        -11   -1    0    0    0    0  0.00000000000E+00  0.00000000000E+00  0.45593999997E+02  0.45594000000E+02  0.51100000000E-03 0.  1.
         11   -1    0    0    0    0 -0.00000000000E+00 -0.00000000000E+00 -0.45593999997E+02  0.45594000000E+02  0.51100000000E-03 0. -1.
         23    2    1    2    0    0  0.00000000000E+00  0.00000000000E+00  0.00000000000E+00  0.91188000000E+02  0.91188000000E+02 0.  0.
    9900012    2    3    3    0    0  0.81908423295E+01 -0.97581226728E+01  0.34546633436E+02  0.54367072012E+02  0.39999972266E+02 0.  0.
         12    1    3    3    0    0 -0.81908423295E+01  0.97581226728E+01 -0.34546633436E+02  0.36820927988E+02  0.00000000000E+00 0. -1.
         11    1    4    4    0    0 -0.33812451059E+01  0.16575650400E+01 -0.62155543144E+01  0.72672867030E+01  0.51100000000E-03 0. -1.
        -11    1    4    4    0    0  0.10927852212E+01 -0.87370846960E+01  0.59021484050E+01  0.10600291722E+02  0.51100000000E-03 0.  1.
        -12    1    4    4    0    0  0.10479302214E+02 -0.26786030167E+01  0.34860039345E+02  0.36499493587E+02  0.00000000000E+00 0.  1.
</event>
<event>
 8    1  0.1229038E-006  0.9118800E+02  0.7816164E-02  0.1184000E+00
        -11   -1    0    0    0    0  0.00000000000E+00  0.00000000000E+00  0.45593999997E+02  0.45594000000E+02  0.51100000000E-03 0.  1.
         11   -1    0    0    0    0 -0.00000000000E+00 -0.00000000000E+00 -0.45593999997E+02  0.45594000000E+02  0.51100000000E-03 0. -1.
         23    2    1    2    0    0  0.88817841970E-15 -0.17763568394E-14 -0.71054273576E-14  0.91188000000E+02  0.91188000000E+02 0.  0.
    9900012    2    3    3    0    0 -0.41197811123E+01 -0.38037638417E+01 -0.36391458792E+02  0.54367088974E+02  0.40000010934E+02 0.  0.
        -12    1    3    3    0    0  0.41197811123E+01  0.38037638417E+01  0.36391458792E+02  0.36820911026E+02  0.00000000000E+00 0.  1.
         11    1    4    4    0    0  0.64433921598E+01  0.27552760703E+01 -0.89968547453E+01  0.11404045086E+02  0.51100000000E-03 0. -1.
        -11    1    4    4    0    0  0.79181739735E+01  0.57608985081E+01 -0.36526717781E+01  0.10451193333E+02  0.51100000000E-03 0.  1.
         12    1    4    4    0    0 -0.18481347246E+02 -0.12319938420E+02 -0.23741932269E+02  0.32511850555E+02  0.00000000000E+00 0. -1.
</event>
<event>
 8    1  0.1229038E-006  0.9118800E+02  0.7816164E-02  0.1184000E+00
        -11   -1    0    0    0    0  0.00000000000E+00  0.00000000000E+00  0.45593999997E+02  0.45594000000E+02  0.51100000000E-03 0.  1.
         11   -1    0    0    0    0 -0.00000000000E+00 -0.00000000000E+00 -0.45593999997E+02  0.45594000000E+02  0.51100000000E-03 0. -1.
         23    2    1    2    0    0  0.00000000000E+00  0.00000000000E+00 -0.35527136788E-14  0.91188000000E+02  0.91188000000E+02 0.  0.
    9900012    2    3    3    0    0 -0.76330668421E+01 -0.17294399525E+02  0.31597799086E+02  0.54367070199E+02  0.39999968133E+02 0.  0.
         12    1    3    3    0    0  0.76330668421E+01  0.17294399525E+02 -0.31597799086E+02  0.36820929801E+02  0.00000000000E+00 0. -1.
         11    1    4    4    0    0  0.43481030688E+00 -0.21799289058E+01 -0.16581468596E+01  0.27731933410E+01  0.51100000000E-03 0. -1.
        -11    1    4    4    0    0 -0.84943067762E+01 -0.10250591729E+01  0.36197013473E+02  0.37194458976E+02  0.51100000000E-03 0.  1.
        -12    1    4    4    0    0  0.42642962725E+00 -0.14089411447E+02 -0.29410675277E+01  0.14399417882E+02  0.00000000000E+00 0.  1.
</event>
<event>
 8    1  0.1229038E-006  0.9118800E+02  0.7816164E-02  0.1184000E+00
        -11   -1    0    0    0    0  0.00000000000E+00  0.00000000000E+00  0.45593999997E+02  0.45594000000E+02  0.51100000000E-03 0. -1.
         11   -1    0    0    0    0 -0.00000000000E+00 -0.00000000000E+00 -0.45593999997E+02  0.45594000000E+02  0.51100000000E-03 0.  1.
         23    2    1    2    0    0  0.17763568394E-14  0.00000000000E+00 -0.17763568394E-14  0.91188000000E+02  0.91188000000E+02 0.  0.
    9900012    2    3    3    0    0 -0.43551133980E+01  0.33672822429E+02  0.14246196084E+02  0.54367080866E+02  0.39999992449E+02 0.  0.
         12    1    3    3    0    0  0.43551133980E+01 -0.33672822429E+02 -0.14246196084E+02  0.36820919134E+02  0.00000000000E+00 0. -1.
         11    1    4    4    0    0  0.88922591822E+01  0.60387667480E+01  0.90625550096E+01  0.14059476547E+02  0.51100000000E-03 0. -1.
        -11    1    4    4    0    0 -0.13096633833E+02  0.17158377065E+02 -0.83920158983E+01  0.23159396632E+02  0.51100000000E-03 0.  1.
         12    1    4    4    0    0 -0.15073874672E+00  0.10475678616E+02  0.13575656973E+02  0.17148207687E+02  0.00000000000E+00 0. -1.
</event>
<event>
 8    1  0.1229038E-006  0.9118800E+02  0.7816164E-02  0.1184000E+00
        -11   -1    0    0    0    0  0.00000000000E+00  0.00000000000E+00  0.45593999997E+02  0.45594000000E+02  0.51100000000E-03 0.  1.
         11   -1    0    0    0    0 -0.00000000000E+00 -0.00000000000E+00 -0.45593999997E+02  0.45594000000E+02  0.51100000000E-03 0. -1.
         23    2    1    2    0    0  0.00000000000E+00  0.00000000000E+00  0.88817841970E-15  0.91188000000E+02  0.91188000000E+02 0.  0.
    9900012    2    3    3    0    0  0.35033948783E+02  0.97203580841E+01 -0.58240625755E+01  0.54367046271E+02  0.39999913585E+02 0.  0.
        -12    1    3    3    0    0 -0.35033948783E+02 -0.97203580841E+01  0.58240625755E+01  0.36820953729E+02  0.00000000000E+00 0.  1.
         11    1    4    4    0    0  0.13669401832E+02 -0.13905504539E+02  0.28064302362E+01  0.19700041976E+02  0.51100000000E-03 0. -1.
        -11    1    4    4    0    0  0.20325009102E+02  0.19338983286E+02 -0.10390636335E+02  0.29917680278E+02  0.51100000000E-03 0.  1.
        -12    1    4    4    0    0  0.10395378487E+01  0.42868793372E+01  0.17601435234E+01  0.47493240165E+01  0.00000000000E+00 0.  1.
</event>
<event>
 8    1  0.1229038E-006  0.9118800E+02  0.7816164E-02  0.1184000E+00
        -11   -1    0    0    0    0  0.00000000000E+00  0.00000000000E+00  0.45593999997E+02  0.45594000000E+02  0.51100000000E-03 0.  1.
         11   -1    0    0    0    0 -0.00000000000E+00 -0.00000000000E+00 -0.45593999997E+02  0.45594000000E+02  0.51100000000E-03 0. -1.
         23    2    1    2    0    0  0.00000000000E+00  0.00000000000E+00  0.22204460493E-15  0.91188000000E+02  0.91188000000E+02 0.  0.
    9900012    2    3    3    0    0  0.15954796594E+02 -0.33141796252E+02  0.16869355491E+01  0.54367082783E+02  0.39999996820E+02 0.  0.
         12    1    3    3    0    0 -0.15954796594E+02  0.33141796252E+02 -0.16869355491E+01  0.36820917217E+02  0.00000000000E+00 0. -1.
         11    1    4    4    0    0 -0.24331127334E+01  0.56284531163E+01 -0.12568490027E+01  0.62593283771E+01  0.51100000000E-03 0. -1.
        -11    1    4    4    0    0  0.13395833731E+01  0.10675546070E+01 -0.38800687545E+01  0.42413547662E+01  0.51100000000E-03 0.  1.
         12    1    4    4    0    0  0.17048325954E+02 -0.39837803975E+02  0.68238533063E+01  0.43866399640E+02  0.00000000000E+00 0. -1.
</event>
<event>
 8    1  0.1229038E-006  0.9118800E+02  0.7816164E-02  0.1184000E+00
        -11   -1    0    0    0    0  0.00000000000E+00  0.00000000000E+00  0.45593999997E+02  0.45594000000E+02  0.51100000000E-03 0. -1.
         11   -1    0    0    0    0 -0.00000000000E+00 -0.00000000000E+00 -0.45593999997E+02  0.45594000000E+02  0.51100000000E-03 0.  1.
         23    2    1    2    0    0 -0.35527136788E-14  0.00000000000E+00  0.00000000000E+00  0.91188000000E+02  0.91188000000E+02 0.  0.
    9900012    2    3    3    0    0  0.21555458528E+02 -0.29149409947E+02  0.64385194873E+01  0.54367076250E+02  0.39999981927E+02 0.  0.
         12    1    3    3    0    0 -0.21555458528E+02  0.29149409947E+02 -0.64385194873E+01  0.36820923750E+02  0.00000000000E+00 0. -1.
         11    1    4    4    0    0  0.17916709073E+01 -0.23391424661E+02  0.10116176391E+02  0.25548108684E+02  0.51100000000E-03 0. -1.
        -11    1    4    4    0    0  0.14836734223E+02 -0.12843986112E+02 -0.45498026034E+01  0.20144412765E+02  0.51100000000E-03 0.  1.
         12    1    4    4    0    0  0.49270533972E+01  0.70860008251E+01  0.87214569925E+00  0.86745548008E+01  0.00000000000E+00 0. -1.
</event>
<event>
 8    1  0.1229038E-006  0.9118800E+02  0.7816164E-02  0.1184000E+00
        -11   -1    0    0    0    0  0.00000000000E+00  0.00000000000E+00  0.45593999997E+02  0.45594000000E+02  0.51100000000E-03 0. -1.
         11   -1    0    0    0    0 -0.00000000000E+00 -0.00000000000E+00 -0.45593999997E+02  0.45594000000E+02  0.51100000000E-03 0.  1.
         23    2    1    2    0    0  0.00000000000E+00  0.22204460493E-14  0.00000000000E+00  0.91188000000E+02  0.91188000000E+02 0.  0.
    9900012    2    3    3    0    0 -0.23489087648E+02 -0.38540095564E+01 -0.28092538172E+02  0.54367063983E+02  0.39999953962E+02 0.  0.
         12    1    3    3    0    0  0.23489087648E+02  0.38540095564E+01  0.28092538172E+02  0.36820936017E+02  0.00000000000E+00 0. -1.
         11    1    4    4    0    0 -0.20652012666E+02  0.72473632232E+01 -0.22505213128E+02  0.31392905553E+02  0.51100000000E-03 0. -1.
        -11    1    4    4    0    0 -0.53547024055E+01 -0.15790659537E+02 -0.26138889172E+01  0.16877505206E+02  0.51100000000E-03 0.  1.
         12    1    4    4    0    0  0.25176274237E+01  0.46892867570E+01 -0.29734361270E+01  0.60966532241E+01  0.00000000000E+00 0. -1.
</event>
<event>
 8    1  0.1229038E-006  0.9118800E+02  0.7816164E-02  0.1184000E+00
        -11   -1    0    0    0    0  0.00000000000E+00  0.00000000000E+00  0.45593999997E+02  0.45594000000E+02  0.51100000000E-03 0.  1.
         11   -1    0    0    0    0 -0.00000000000E+00 -0.00000000000E+00 -0.45593999997E+02  0.45594000000E+02  0.51100000000E-03 0. -1.
         23    2    1    2    0    0 -0.71054273576E-14  0.00000000000E+00  0.00000000000E+00  0.91188000000E+02  0.91188000000E+02 0.  0.
    9900012    2    3    3    0    0  0.33281605642E+02 -0.10912069301E+02  0.11359588156E+02  0.54367098685E+02  0.40000033073E+02 0.  0.
         12    1    3    3    0    0 -0.33281605642E+02  0.10912069301E+02 -0.11359588156E+02  0.36820901315E+02  0.00000000000E+00 0. -1.
         11    1    4    4    0    0  0.53561049036E+01  0.46456756528E+01 -0.70470927478E+01  0.99965833396E+01  0.51100000000E-03 0. -1.
        -11    1    4    4    0    0  0.12812012222E+00  0.10575320822E+01  0.11126917203E+02  0.11177793860E+02  0.51100000000E-03 0.  1.
         12    1    4    4    0    0  0.27797380616E+02 -0.16615277035E+02  0.72797637009E+01  0.33192721486E+02  0.00000000000E+00 0. -1.
</event>
<event>
 8    1  0.1229038E-006  0.9118800E+02  0.7816164E-02  0.1184000E+00
        -11   -1    0    0    0    0  0.00000000000E+00  0.00000000000E+00  0.45593999997E+02  0.45594000000E+02  0.51100000000E-03 0. -1.
         11   -1    0    0    0    0 -0.00000000000E+00 -0.00000000000E+00 -0.45593999997E+02  0.45594000000E+02  0.51100000000E-03 0.  1.
         23    2    1    2    0    0  0.00000000000E+00 -0.17763568394E-14  0.00000000000E+00  0.91188000000E+02  0.91188000000E+02 0.  0.
    9900012    2    3    3    0    0  0.15883401372E+02  0.11919937567E+02 -0.31006649236E+02  0.54367086818E+02  0.40000006018E+02 0.  0.
         12    1    3    3    0    0 -0.15883401372E+02 -0.11919937567E+02  0.31006649236E+02  0.36820913182E+02  0.00000000000E+00 0. -1.
         11    1    4    4    0    0  0.34202965045E+01  0.14870383138E+02 -0.16150149561E+02  0.22218326984E+02  0.51100000000E-03 0. -1.
        -11    1    4    4    0    0  0.15445627240E+01 -0.63647198875E+01 -0.18909879128E+02  0.20011967973E+02  0.51100000000E-03 0.  1.
        -12    1    4    4    0    0  0.10918542144E+02  0.34142743161E+01  0.40533794540E+01  0.12136791860E+02  0.00000000000E+00 0.  1.
</event>
<event>
 8    1  0.1229038E-006  0.9118800E+02  0.7816164E-02  0.1184000E+00
        -11   -1    0    0    0    0  0.00000000000E+00  0.00000000000E+00  0.45593999997E+02  0.45594000000E+02  0.51100000000E-03 0. -1.
         11   -1    0    0    0    0 -0.00000000000E+00 -0.00000000000E+00 -0.45593999997E+02  0.45594000000E+02  0.51100000000E-03 0.  1.
         23    2    1    2    0    0  0.17763568394E-14  0.35527136788E-14  0.00000000000E+00  0.91188000000E+02  0.91188000000E+02 0.  0.
    9900012    2    3    3    0    0 -0.15980657315E+02 -0.25791921031E+02  0.20860856497E+02  0.54367082949E+02  0.39999997199E+02 0.  0.
        -12    1    3    3    0    0  0.15980657315E+02  0.25791921031E+02 -0.20860856497E+02  0.36820917051E+02  0.00000000000E+00 0.  1.
         11    1    4    4    0    0 -0.55665785502E+01 -0.21387920813E+02  0.19847190780E+02  0.29704224204E+02  0.51100000000E-03 0. -1.
        -11    1    4    4    0    0 -0.10193013670E+02 -0.12700066128E+02 -0.13183783858E+00  0.16285164685E+02  0.51100000000E-03 0.  1.
         12    1    4    4    0    0 -0.22106509482E+00  0.82960659106E+01  0.11455035558E+01  0.83776940601E+01  0.00000000000E+00 0. -1.
</event>
<event>
 8    1  0.1229038E-006  0.9118800E+02  0.7816164E-02  0.1184000E+00
        -11   -1    0    0    0    0  0.00000000000E+00  0.00000000000E+00  0.45593999997E+02  0.45594000000E+02  0.51100000000E-03 0. -1.
         11   -1    0    0    0    0 -0.00000000000E+00 -0.00000000000E+00 -0.45593999997E+02  0.45594000000E+02  0.51100000000E-03 0.  1.
         23    2    1    2    0    0  0.00000000000E+00  0.00000000000E+00  0.00000000000E+00  0.91188000000E+02  0.91188000000E+02 0.  0.
    9900012    2    3    3    0    0  0.10568335820E+02  0.21089170753E+02 -0.28272690241E+02  0.54366975319E+02  0.39999751834E+02 0.  0.
         12    1    3    3    0    0 -0.10568335820E+02 -0.21089170753E+02  0.28272690241E+02  0.36821024681E+02  0.00000000000E+00 0. -1.
         11    1    4    4    0    0  0.48189522956E+01  0.14809511861E+01 -0.45651067225E+01  0.68011555850E+01  0.51100000000E-03 0. -1.
        -11    1    4    4    0    0 -0.12841497792E+02  0.61520791385E+01  0.44838600291E+00  0.14246164170E+02  0.51100000000E-03 0.  1.
        -12    1    4    4    0    0  0.18590881317E+02  0.13456140429E+02 -0.24155969522E+02  0.33319655564E+02  0.00000000000E+00 0.  1.
</event>
<event>
 8    1  0.1229038E-006  0.9118800E+02  0.7816164E-02  0.1184000E+00
        -11   -1    0    0    0    0  0.00000000000E+00  0.00000000000E+00  0.45593999997E+02  0.45594000000E+02  0.51100000000E-03 0.  1.
         11   -1    0    0    0    0 -0.00000000000E+00 -0.00000000000E+00 -0.45593999997E+02  0.45594000000E+02  0.51100000000E-03 0. -1.
         23    2    1    2    0    0  0.00000000000E+00  0.00000000000E+00  0.00000000000E+00  0.91188000000E+02  0.91188000000E+02 0.  0.
    9900012    2    3    3    0    0  0.33369753447E+02  0.49924743675E+01 -0.14741677885E+02  0.54367050633E+02  0.39999923528E+02 0.  0.
        -12    1    3    3    0    0 -0.33369753447E+02 -0.49924743675E+01  0.14741677885E+02  0.36820949367E+02  0.00000000000E+00 0.  1.
         11    1    4    4    0    0  0.12593448339E+02  0.59928241559E+00 -0.10530008304E+02  0.16426659905E+02  0.51100000000E-03 0. -1.
        -11    1    4    4    0    0 -0.41583002170E+01  0.89283183228E+01 -0.75062622118E+01  0.12383468877E+02  0.51100000000E-03 0.  1.
        -12    1    4    4    0    0  0.24934605325E+02 -0.45351263709E+01  0.32945926308E+01  0.25556921852E+02  0.00000000000E+00 0.  1.
</event>
<event>
 8    1  0.1229038E-006  0.9118800E+02  0.7816164E-02  0.1184000E+00
        -11   -1    0    0    0    0  0.00000000000E+00  0.00000000000E+00  0.45593999997E+02  0.45594000000E+02  0.51100000000E-03 0.  1.
         11   -1    0    0    0    0 -0.00000000000E+00 -0.00000000000E+00 -0.45593999997E+02  0.45594000000E+02  0.51100000000E-03 0. -1.
         23    2    1    2    0    0  0.00000000000E+00  0.00000000000E+00  0.44408920985E-15  0.91188000000E+02  0.91188000000E+02 0.  0.
    9900012    2    3    3    0    0  0.32448672501E+02  0.17032782321E+02  0.35704098717E+01  0.54367084105E+02  0.39999999834E+02 0.  0.
        -12    1    3    3    0    0 -0.32448672501E+02 -0.17032782321E+02 -0.35704098717E+01  0.36820915895E+02  0.00000000000E+00 0.  1.
         11    1    4    4    0    0  0.37156089115E+02  0.84017792176E+01  0.71672662194E+01  0.38762540650E+02  0.51100000000E-03 0. -1.
        -11    1    4    4    0    0 -0.14159549744E+01  0.47707617923E+01  0.40580318394E+01  0.64212708430E+01  0.51100000000E-03 0.  1.
        -12    1    4    4    0    0 -0.32914616391E+01  0.38602413111E+01 -0.76548881871E+01  0.91832726116E+01  0.00000000000E+00 0.  1.
</event>
<event>
 8    1  0.1229038E-006  0.9118800E+02  0.7816164E-02  0.1184000E+00
        -11   -1    0    0    0    0  0.00000000000E+00  0.00000000000E+00  0.45593999997E+02  0.45594000000E+02  0.51100000000E-03 0. -1.
         11   -1    0    0    0    0 -0.00000000000E+00 -0.00000000000E+00 -0.45593999997E+02  0.45594000000E+02  0.51100000000E-03 0.  1.
         23    2    1    2    0    0  0.88817841970E-15 -0.35527136788E-14  0.35527136788E-14  0.91188000000E+02  0.91188000000E+02 0.  0.
    9900012    2    3    3    0    0  0.46865469772E+01 -0.20371588220E+02 -0.30311955719E+02  0.54367082185E+02  0.39999995458E+02 0.  0.
         12    1    3    3    0    0 -0.46865469772E+01  0.20371588220E+02  0.30311955719E+02  0.36820917815E+02  0.00000000000E+00 0. -1.
         11    1    4    4    0    0  0.66518907054E+01 -0.22453551994E+02 -0.14650853386E+02  0.27623489141E+02  0.51100000000E-03 0. -1.
        -11    1    4    4    0    0  0.53826579018E+01  0.62294293700E+01 -0.16321271147E+02  0.18280117299E+02  0.51100000000E-03 0.  1.
         12    1    4    4    0    0 -0.73480016300E+01 -0.41474655955E+01  0.66016881410E+00  0.84634757449E+01  0.00000000000E+00 0. -1.
</event>
<event>
 8    1  0.1229038E-006  0.9118800E+02  0.7816164E-02  0.1184000E+00
        -11   -1    0    0    0    0  0.00000000000E+00  0.00000000000E+00  0.45593999997E+02  0.45594000000E+02  0.51100000000E-03 0. -1.
         11   -1    0    0    0    0 -0.00000000000E+00 -0.00000000000E+00 -0.45593999997E+02  0.45594000000E+02  0.51100000000E-03 0.  1.
         23    2    1    2    0    0  0.00000000000E+00 -0.35527136788E-14  0.17763568394E-14  0.91188000000E+02  0.91188000000E+02 0.  0.
    9900012    2    3    3    0    0 -0.20204017250E+02 -0.29701313662E+02  0.80876903194E+01  0.54367067354E+02  0.39999961646E+02 0.  0.
        -12    1    3    3    0    0  0.20204017250E+02  0.29701313662E+02 -0.80876903194E+01  0.36820932646E+02  0.00000000000E+00 0.  1.
         11    1    4    4    0    0 -0.11414767768E+02 -0.21518896612E+02  0.12821529356E+02  0.27527285552E+02  0.51100000000E-03 0. -1.
        -11    1    4    4    0    0  0.18876406141E+01 -0.32941526211E+01 -0.12298646667E+02  0.12871337875E+02  0.51100000000E-03 0.  1.
        -12    1    4    4    0    0 -0.10676890096E+02 -0.48882644286E+01  0.75648076301E+01  0.13968443926E+02  0.00000000000E+00 0.  1.
</event>
<event>
 8    1  0.1229038E-006  0.9118800E+02  0.7816164E-02  0.1184000E+00
        -11   -1    0    0    0    0  0.00000000000E+00  0.00000000000E+00  0.45593999997E+02  0.45594000000E+02  0.51100000000E-03 0. -1.
         11   -1    0    0    0    0 -0.00000000000E+00 -0.00000000000E+00 -0.45593999997E+02  0.45594000000E+02  0.51100000000E-03 0.  1.
         23    2    1    2    0    0  0.00000000000E+00 -0.53290705182E-14 -0.88817841970E-15  0.91188000000E+02  0.91188000000E+02 0.  0.
    9900012    2    3    3    0    0  0.34028652553E+02 -0.12407038147E+02 -0.66254572227E+01  0.54367075601E+02  0.39999980449E+02 0.  0.
         12    1    3    3    0    0 -0.34028652553E+02  0.12407038147E+02  0.66254572227E+01  0.36820924399E+02  0.00000000000E+00 0. -1.
         11    1    4    4    0    0  0.15334458810E+01  0.70609723896E+00 -0.36624132614E+01  0.40327782903E+01  0.51100000000E-03 0. -1.
        -11    1    4    4    0    0  0.11393273220E+02  0.61761816841E+01  0.12350110185E+02  0.17901874670E+02  0.51100000000E-03 0.  1.
        -12    1    4    4    0    0  0.21101933452E+02 -0.19289317070E+02 -0.15313154147E+02  0.32432422641E+02  0.00000000000E+00 0.  1.
</event>
<event>
 8    1  0.1229038E-006  0.9118800E+02  0.7816164E-02  0.1184000E+00
        -11   -1    0    0    0    0  0.00000000000E+00  0.00000000000E+00  0.45593999997E+02  0.45594000000E+02  0.51100000000E-03 0. -1.
         11   -1    0    0    0    0 -0.00000000000E+00 -0.00000000000E+00 -0.45593999997E+02  0.45594000000E+02  0.51100000000E-03 0.  1.
         23    2    1    2    0    0  0.00000000000E+00  0.00000000000E+00  0.88817841970E-15  0.91188000000E+02  0.91188000000E+02 0.  0.
    9900012    2    3    3    0    0 -0.20731893589E+02  0.29534733760E+02 -0.73259824851E+01  0.54367055831E+02  0.39999935379E+02 0.  0.
        -12    1    3    3    0    0  0.20731893589E+02 -0.29534733760E+02  0.73259824851E+01  0.36820944169E+02  0.00000000000E+00 0.  1.
         11    1    4    4    0    0 -0.92420441256E+01  0.21708217030E+02 -0.13522889010E+02  0.27194311789E+02  0.51100000000E-03 0. -1.
        -11    1    4    4    0    0 -0.16278914121E+02  0.44505300403E+01  0.10523969629E+02  0.19888795832E+02  0.51100000000E-03 0.  1.
        -12    1    4    4    0    0  0.47890646576E+01  0.33759866901E+01 -0.43270631050E+01  0.72839482110E+01  0.00000000000E+00 0.  1.
</event>
<event>
 8    1  0.1229038E-006  0.9118800E+02  0.7816164E-02  0.1184000E+00
        -11   -1    0    0    0    0  0.00000000000E+00  0.00000000000E+00  0.45593999997E+02  0.45594000000E+02  0.51100000000E-03 0.  1.
         11   -1    0    0    0    0 -0.00000000000E+00 -0.00000000000E+00 -0.45593999997E+02  0.45594000000E+02  0.51100000000E-03 0. -1.
         23    2    1    2    0    0  0.00000000000E+00  0.22204460493E-14  0.00000000000E+00  0.91188000000E+02  0.91188000000E+02 0.  0.
    9900012    2    3    3    0    0 -0.27887968920E+02  0.31880167546E+01 -0.23830174726E+02  0.54367088974E+02  0.40000010934E+02 0.  0.
        -12    1    3    3    0    0  0.27887968920E+02 -0.31880167546E+01  0.23830174726E+02  0.36820911026E+02  0.00000000000E+00 0.  1.
         11    1    4    4    0    0 -0.16513255867E+02  0.11265332464E+02 -0.20068330196E+02  0.28325486968E+02  0.51100000000E-03 0. -1.
        -11    1    4    4    0    0  0.15723176520E+01 -0.72607476507E+01  0.62071532282E+01  0.96808775793E+01  0.51100000000E-03 0.  1.
        -12    1    4    4    0    0 -0.12947030705E+02 -0.81656805829E+00 -0.99689977578E+01  0.16360724427E+02  0.00000000000E+00 0.  1.
</event>
<event>
 8    1  0.1229038E-006  0.9118800E+02  0.7816164E-02  0.1184000E+00
        -11   -1    0    0    0    0  0.00000000000E+00  0.00000000000E+00  0.45593999997E+02  0.45594000000E+02  0.51100000000E-03 0.  1.
         11   -1    0    0    0    0 -0.00000000000E+00 -0.00000000000E+00 -0.45593999997E+02  0.45594000000E+02  0.51100000000E-03 0. -1.
         23    2    1    2    0    0 -0.35527136788E-14  0.00000000000E+00  0.00000000000E+00  0.91188000000E+02  0.91188000000E+02 0.  0.
    9900012    2    3    3    0    0  0.23403042739E+02 -0.16776883264E+02  0.22948077590E+02  0.54367075425E+02  0.39999980046E+02 0.  0.
         12    1    3    3    0    0 -0.23403042739E+02  0.16776883264E+02 -0.22948077590E+02  0.36820924575E+02  0.00000000000E+00 0. -1.
         11    1    4    4    0    0 -0.12103155511E+01 -0.85824678870E+01  0.11372025767E+02  0.14298482055E+02  0.51100000000E-03 0. -1.
        -11    1    4    4    0    0  0.21053489694E+02 -0.11352173061E+02 -0.35778047169E+01  0.24185159672E+02  0.51100000000E-03 0.  1.
        -12    1    4    4    0    0  0.35598685960E+01  0.31577576837E+01  0.15153856540E+02  0.15883433698E+02  0.00000000000E+00 0.  1.
</event>
<event>
 8    1  0.1229038E-006  0.9118800E+02  0.7816164E-02  0.1184000E+00
        -11   -1    0    0    0    0  0.00000000000E+00  0.00000000000E+00  0.45593999997E+02  0.45594000000E+02  0.51100000000E-03 0.  1.
         11   -1    0    0    0    0 -0.00000000000E+00 -0.00000000000E+00 -0.45593999997E+02  0.45594000000E+02  0.51100000000E-03 0. -1.
         23    2    1    2    0    0  0.35527136788E-14  0.00000000000E+00  0.35527136788E-14  0.91188000000E+02  0.91188000000E+02 0.  0.
    9900012    2    3    3    0    0 -0.24780449913E+02 -0.11322665802E+02 -0.24769053274E+02  0.54367089381E+02  0.40000011861E+02 0.  0.
        -12    1    3    3    0    0  0.24780449913E+02  0.11322665802E+02  0.24769053274E+02  0.36820910619E+02  0.00000000000E+00 0.  1.
         11    1    4    4    0    0  0.11190222923E+01  0.28909983011E+01 -0.15317486888E+02  0.15628035285E+02  0.51100000000E-03 0.  1.
        -11    1    4    4    0    0 -0.16396250876E+02  0.22387758265E+01  0.18187198294E+01  0.16648029976E+02  0.51100000000E-03 0. -1.
         12    1    4    4    0    0 -0.95032213290E+01 -0.16452439930E+02 -0.11270286215E+02  0.22091024119E+02  0.00000000000E+00 0. -1.
</event>
<event>
 8    1  0.1229038E-006  0.9118800E+02  0.7816164E-02  0.1184000E+00
        -11   -1    0    0    0    0  0.00000000000E+00  0.00000000000E+00  0.45593999997E+02  0.45594000000E+02  0.51100000000E-03 0. -1.
         11   -1    0    0    0    0 -0.00000000000E+00 -0.00000000000E+00 -0.45593999997E+02  0.45594000000E+02  0.51100000000E-03 0.  1.
         23    2    1    2    0    0 -0.26645352591E-14  0.00000000000E+00 -0.35527136788E-14  0.91188000000E+02  0.91188000000E+02 0.  0.
    9900012    2    3    3    0    0 -0.29166574136E+01  0.35015226442E+02  0.11009392385E+02  0.54367086188E+02  0.40000004582E+02 0.  0.
         12    1    3    3    0    0  0.29166574136E+01 -0.35015226442E+02 -0.11009392385E+02  0.36820913812E+02  0.00000000000E+00 0. -1.
         11    1    4    4    0    0  0.70970319611E+01  0.16030032149E+02  0.97392085871E+01  0.20054475249E+02  0.51100000000E-03 0. -1.
        -11    1    4    4    0    0 -0.12636999678E+02  0.12979437155E+02 -0.10429094340E+02  0.20902764380E+02  0.51100000000E-03 0.  1.
        -12    1    4    4    0    0  0.26233103035E+01  0.60057571378E+01  0.11699278138E+02  0.13409846558E+02  0.00000000000E+00 0.  1.
</event>
<event>
 8    1  0.1229038E-006  0.9118800E+02  0.7816164E-02  0.1184000E+00
        -11   -1    0    0    0    0  0.00000000000E+00  0.00000000000E+00  0.45593999997E+02  0.45594000000E+02  0.51100000000E-03 0.  1.
         11   -1    0    0    0    0 -0.00000000000E+00 -0.00000000000E+00 -0.45593999997E+02  0.45594000000E+02  0.51100000000E-03 0. -1.
         23    2    1    2    0    0  0.00000000000E+00  0.00000000000E+00 -0.88817841970E-15  0.91188000000E+02  0.91188000000E+02 0.  0.
    9900012    2    3    3    0    0 -0.24227292122E+02 -0.26864394365E+02  0.68642705556E+01  0.54367142074E+02  0.40000131987E+02 0.  0.
        -12    1    3    3    0    0  0.24227292122E+02  0.26864394365E+02 -0.68642705556E+01  0.36820857926E+02  0.00000000000E+00 0.  1.
         11    1    4    4    0    0  0.69934597427E+01  0.14791371782E-01  0.10053440714E+01  0.70653672884E+01  0.51100000000E-03 0.  1.
        -11    1    4    4    0    0 -0.23546405631E+02 -0.54548292124E+01  0.35090952564E+01  0.24423393082E+02  0.51100000000E-03 0. -1.
        -12    1    4    4    0    0 -0.76743462332E+01 -0.21424356524E+02  0.23498312279E+01  0.22878381703E+02  0.00000000000E+00 0.  1.
</event>
<event>
 8    1  0.1229038E-006  0.9118800E+02  0.7816164E-02  0.1184000E+00
        -11   -1    0    0    0    0  0.00000000000E+00  0.00000000000E+00  0.45593999997E+02  0.45594000000E+02  0.51100000000E-03 0. -1.
         11   -1    0    0    0    0 -0.00000000000E+00 -0.00000000000E+00 -0.45593999997E+02  0.45594000000E+02  0.51100000000E-03 0.  1.
         23    2    1    2    0    0  0.00000000000E+00  0.26645352591E-14  0.00000000000E+00  0.91188000000E+02  0.91188000000E+02 0.  0.
    9900012    2    3    3    0    0 -0.15814230062E+01 -0.76561153355E+01 -0.35981440455E+02  0.54367067666E+02  0.39999962358E+02 0.  0.
         12    1    3    3    0    0  0.15814230062E+01  0.76561153355E+01  0.35981440455E+02  0.36820932334E+02  0.00000000000E+00 0. -1.
         11    1    4    4    0    0  0.12311792747E+01  0.56691745368E+01  0.18992901659E+01  0.61043136986E+01  0.51100000000E-03 0. -1.
        -11    1    4    4    0    0 -0.10874702251E+02 -0.17641551603E+02 -0.27368075840E+02  0.34329215946E+02  0.51100000000E-03 0.  1.
         12    1    4    4    0    0  0.80620999697E+01  0.43162617312E+01 -0.10512654781E+02  0.13933538022E+02  0.00000000000E+00 0. -1.
</event>
<event>
 8    1  0.1229038E-006  0.9118800E+02  0.7816164E-02  0.1184000E+00
        -11   -1    0    0    0    0  0.00000000000E+00  0.00000000000E+00  0.45593999997E+02  0.45594000000E+02  0.51100000000E-03 0.  1.
         11   -1    0    0    0    0 -0.00000000000E+00 -0.00000000000E+00 -0.45593999997E+02  0.45594000000E+02  0.51100000000E-03 0. -1.
         23    2    1    2    0    0  0.22204460493E-15  0.88817841970E-15 -0.71054273576E-14  0.91188000000E+02  0.91188000000E+02 0.  0.
    9900012    2    3    3    0    0  0.94881063639E+00 -0.52707612901E+01  0.36429349944E+02  0.54367099637E+02  0.40000035242E+02 0.  0.
         12    1    3    3    0    0 -0.94881063639E+00  0.52707612901E+01 -0.36429349944E+02  0.36820900363E+02  0.00000000000E+00 0. -1.
         11    1    4    4    0    0 -0.41696531056E+01  0.42939366548E+01  0.21385074335E+01  0.63558723493E+01  0.51100000000E-03 0. -1.
        -11    1    4    4    0    0  0.14442599028E+02 -0.16213107222E+02  0.25996078216E+02  0.33871073135E+02  0.51100000000E-03 0.  1.
        -12    1    4    4    0    0 -0.93241352858E+01  0.66484092773E+01  0.82947642951E+01  0.14140154153E+02  0.00000000000E+00 0.  1.
</event>
<event>
 8    1  0.1229038E-006  0.9118800E+02  0.7816164E-02  0.1184000E+00
        -11   -1    0    0    0    0  0.00000000000E+00  0.00000000000E+00  0.45593999997E+02  0.45594000000E+02  0.51100000000E-03 0.  1.
         11   -1    0    0    0    0 -0.00000000000E+00 -0.00000000000E+00 -0.45593999997E+02  0.45594000000E+02  0.51100000000E-03 0. -1.
         23    2    1    2    0    0 -0.17763568394E-14 -0.35527136788E-14  0.00000000000E+00  0.91188000000E+02  0.91188000000E+02 0.  0.
    9900012    2    3    3    0    0  0.14932722897E+02 -0.24907515948E+02  0.22636444943E+02  0.54367092848E+02  0.40000019767E+02 0.  0.
         12    1    3    3    0    0 -0.14932722897E+02  0.24907515948E+02 -0.22636444943E+02  0.36820907152E+02  0.00000000000E+00 0. -1.
         11    1    4    4    0    0  0.69738021597E+01 -0.21137553935E+02  0.12234352117E+02  0.25399005391E+02  0.51100000000E-03 0.  1.
        -11    1    4    4    0    0  0.93296986635E+01 -0.10148329947E+02  0.15459795562E+02  0.20713212135E+02  0.51100000000E-03 0. -1.
         12    1    4    4    0    0 -0.13707779257E+01  0.63783679344E+01 -0.50577027353E+01  0.82548753223E+01  0.00000000000E+00 0. -1.
</event>
<event>
 8    1  0.1229038E-006  0.9118800E+02  0.7816164E-02  0.1184000E+00
        -11   -1    0    0    0    0  0.00000000000E+00  0.00000000000E+00  0.45593999997E+02  0.45594000000E+02  0.51100000000E-03 0. -1.
         11   -1    0    0    0    0 -0.00000000000E+00 -0.00000000000E+00 -0.45593999997E+02  0.45594000000E+02  0.51100000000E-03 0.  1.
         23    2    1    2    0    0  0.88817841970E-15  0.00000000000E+00  0.00000000000E+00  0.91188000000E+02  0.91188000000E+02 0.  0.
    9900012    2    3    3    0    0 -0.38015245392E+01 -0.76314194538E+01  0.35820249890E+02  0.54367075868E+02  0.39999981057E+02 0.  0.
        -12    1    3    3    0    0  0.38015245392E+01  0.76314194538E+01 -0.35820249890E+02  0.36820924132E+02  0.00000000000E+00 0.  1.
         11    1    4    4    0    0 -0.20361621712E+02  0.27619140791E+01  0.21068378392E+02  0.29429583355E+02  0.51100000000E-03 0. -1.
        -11    1    4    4    0    0  0.28579952330E+01 -0.40246873670E+01  0.28234465777E+01  0.56866594757E+01  0.51100000000E-03 0.  1.
         12    1    4    4    0    0  0.13702101940E+02 -0.63686461660E+01  0.11928424921E+02  0.19250833038E+02  0.00000000000E+00 0. -1.
</event>
<event>
 8    1  0.1229038E-006  0.9118800E+02  0.7816164E-02  0.1184000E+00
        -11   -1    0    0    0    0  0.00000000000E+00  0.00000000000E+00  0.45593999997E+02  0.45594000000E+02  0.51100000000E-03 0.  1.
         11   -1    0    0    0    0 -0.00000000000E+00 -0.00000000000E+00 -0.45593999997E+02  0.45594000000E+02  0.51100000000E-03 0. -1.
         23    2    1    2    0    0  0.00000000000E+00 -0.17763568394E-14  0.00000000000E+00  0.91188000000E+02  0.91188000000E+02 0.  0.
    9900012    2    3    3    0    0  0.16271348704E+02  0.25291873715E+01  0.32933669256E+02  0.54367080021E+02  0.39999990525E+02 0.  0.
         12    1    3    3    0    0 -0.16271348704E+02 -0.25291873715E+01 -0.32933669256E+02  0.36820919979E+02  0.00000000000E+00 0. -1.
         11    1    4    4    0    0 -0.35283611293E+00  0.17420624738E+02  0.14212463732E+02  0.22485479429E+02  0.51100000000E-03 0.  1.
        -11    1    4    4    0    0  0.46648040060E+01 -0.99536838966E+01  0.27579010769E+01  0.11333235996E+02  0.51100000000E-03 0. -1.
        -12    1    4    4    0    0  0.11959380811E+02 -0.49377534695E+01  0.15963304447E+02  0.20548364596E+02  0.00000000000E+00 0.  1.
</event>
<event>
 8    1  0.1229038E-006  0.9118800E+02  0.7816164E-02  0.1184000E+00
        -11   -1    0    0    0    0  0.00000000000E+00  0.00000000000E+00  0.45593999997E+02  0.45594000000E+02  0.51100000000E-03 0.  1.
         11   -1    0    0    0    0 -0.00000000000E+00 -0.00000000000E+00 -0.45593999997E+02  0.45594000000E+02  0.51100000000E-03 0. -1.
         23    2    1    2    0    0  0.00000000000E+00 -0.35527136788E-14 -0.35527136788E-14  0.91188000000E+02  0.91188000000E+02 0.  0.
    9900012    2    3    3    0    0 -0.94351093741E+01 -0.18068683547E+02 -0.30663985106E+02  0.54367101089E+02  0.40000038554E+02 0.  0.
        -12    1    3    3    0    0  0.94351093741E+01  0.18068683547E+02  0.30663985106E+02  0.36820898911E+02  0.00000000000E+00 0.  1.
         11    1    4    4    0    0  0.56682924043E+01 -0.68339407709E+01  0.10781465095E+01  0.89439748098E+01  0.51100000000E-03 0. -1.
        -11    1    4    4    0    0 -0.15143469750E+02 -0.14180850759E+02 -0.92097334021E+01  0.22698907329E+02  0.51100000000E-03 0.  1.
        -12    1    4    4    0    0  0.40067971548E-01  0.29461079833E+01 -0.22532398213E+02  0.22724218951E+02  0.00000000000E+00 0.  1.
</event>
<event>
 8    1  0.1229038E-006  0.9118800E+02  0.7816164E-02  0.1184000E+00
        -11   -1    0    0    0    0  0.00000000000E+00  0.00000000000E+00  0.45593999997E+02  0.45594000000E+02  0.51100000000E-03 0. -1.
         11   -1    0    0    0    0 -0.00000000000E+00 -0.00000000000E+00 -0.45593999997E+02  0.45594000000E+02  0.51100000000E-03 0.  1.
         23    2    1    2    0    0  0.35527136788E-14  0.00000000000E+00 -0.17763568394E-14  0.91188000000E+02  0.91188000000E+02 0.  0.
    9900012    2    3    3    0    0  0.24627312910E+02  0.24151435115E+02  0.12883491586E+02  0.54367072326E+02  0.39999972982E+02 0.  0.
        -12    1    3    3    0    0 -0.24627312910E+02 -0.24151435115E+02 -0.12883491586E+02  0.36820927674E+02  0.00000000000E+00 0.  1.
         11    1    4    4    0    0  0.73985655373E+01 -0.91144607745E+01  0.73067523327E+01  0.13827537638E+02  0.51100000000E-03 0. -1.
        -11    1    4    4    0    0  0.48127752938E+01  0.17692977268E+02 -0.34753463460E+01  0.18662322554E+02  0.51100000000E-03 0.  1.
         12    1    4    4    0    0  0.12415972079E+02  0.15572918622E+02  0.90520855998E+01  0.21877212134E+02  0.00000000000E+00 0. -1.
</event>
<event>
 8    1  0.1229038E-006  0.9118800E+02  0.7816164E-02  0.1184000E+00
        -11   -1    0    0    0    0  0.00000000000E+00  0.00000000000E+00  0.45593999997E+02  0.45594000000E+02  0.51100000000E-03 0.  1.
         11   -1    0    0    0    0 -0.00000000000E+00 -0.00000000000E+00 -0.45593999997E+02  0.45594000000E+02  0.51100000000E-03 0. -1.
         23    2    1    2    0    0  0.00000000000E+00  0.00000000000E+00  0.00000000000E+00  0.91188000000E+02  0.91188000000E+02 0.  0.
    9900012    2    3    3    0    0 -0.22145294714E+02 -0.28918438735E+02 -0.53933883925E+01  0.54367098121E+02  0.40000031786E+02 0.  0.
         12    1    3    3    0    0  0.22145294714E+02  0.28918438735E+02  0.53933883925E+01  0.36820901879E+02  0.00000000000E+00 0. -1.
         11    1    4    4    0    0  0.23833484162E+01 -0.15882562069E+02 -0.63160410758E+01  0.17257708500E+02  0.51100000000E-03 0. -1.
        -11    1    4    4    0    0 -0.15102502572E+02  0.38445136360E+01  0.66519621670E+01  0.16944452484E+02  0.51100000000E-03 0.  1.
        -12    1    4    4    0    0 -0.94261405579E+01 -0.16880390302E+02 -0.57293094837E+01  0.20164937137E+02  0.00000000000E+00 0.  1.
</event>
<event>
 8    1  0.1229038E-006  0.9118800E+02  0.7816164E-02  0.1184000E+00
        -11   -1    0    0    0    0  0.00000000000E+00  0.00000000000E+00  0.45593999997E+02  0.45594000000E+02  0.51100000000E-03 0.  1.
         11   -1    0    0    0    0 -0.00000000000E+00 -0.00000000000E+00 -0.45593999997E+02  0.45594000000E+02  0.51100000000E-03 0. -1.
         23    2    1    2    0    0  0.00000000000E+00  0.00000000000E+00  0.00000000000E+00  0.91188000000E+02  0.91188000000E+02 0.  0.
    9900012    2    3    3    0    0 -0.25886964179E+02 -0.20117572608E+02  0.16760990485E+02  0.54367048843E+02  0.39999919447E+02 0.  0.
         12    1    3    3    0    0  0.25886964179E+02  0.20117572608E+02 -0.16760990485E+02  0.36820951157E+02  0.00000000000E+00 0. -1.
         11    1    4    4    0    0 -0.11708951352E+02 -0.56879878330E+00 -0.31535276230E+01  0.12139514428E+02  0.51100000000E-03 0. -1.
        -11    1    4    4    0    0 -0.20770729887E+01 -0.22065114699E+02  0.20021741002E+02  0.29867266897E+02  0.51100000000E-03 0.  1.
        -12    1    4    4    0    0 -0.12100939839E+02  0.25163408738E+01 -0.10722289404E+00  0.12360267519E+02  0.00000000000E+00 0.  1.
</event>
<event>
 8    1  0.1229038E-006  0.9118800E+02  0.7816164E-02  0.1184000E+00
        -11   -1    0    0    0    0  0.00000000000E+00  0.00000000000E+00  0.45593999997E+02  0.45594000000E+02  0.51100000000E-03 0. -1.
         11   -1    0    0    0    0 -0.00000000000E+00 -0.00000000000E+00 -0.45593999997E+02  0.45594000000E+02  0.51100000000E-03 0.  1.
         23    2    1    2    0    0  0.17763568394E-14  0.00000000000E+00  0.17763568394E-14  0.91188000000E+02  0.91188000000E+02 0.  0.
    9900012    2    3    3    0    0  0.15904459246E+02 -0.32456215214E+02  0.70299216792E+01  0.54367115590E+02  0.40000071610E+02 0.  0.
         12    1    3    3    0    0 -0.15904459246E+02  0.32456215214E+02 -0.70299216792E+01  0.36820884410E+02  0.00000000000E+00 0. -1.
         11    1    4    4    0    0  0.86564088002E+01 -0.24732025529E+02  0.19038245905E+02  0.32389215913E+02  0.51100000000E-03 0. -1.
        -11    1    4    4    0    0  0.86017576297E+01 -0.17555631581E+01 -0.32084599714E+00  0.87849404515E+01  0.51100000000E-03 0.  1.
         12    1    4    4    0    0 -0.13537071841E+01 -0.59686265275E+01 -0.11687478229E+02  0.13192959225E+02  0.00000000000E+00 0. -1.
</event>
<event>
 8    1  0.1229038E-006  0.9118800E+02  0.7816164E-02  0.1184000E+00
        -11   -1    0    0    0    0  0.00000000000E+00  0.00000000000E+00  0.45593999997E+02  0.45594000000E+02  0.51100000000E-03 0.  1.
         11   -1    0    0    0    0 -0.00000000000E+00 -0.00000000000E+00 -0.45593999997E+02  0.45594000000E+02  0.51100000000E-03 0. -1.
         23    2    1    2    0    0 -0.35527136788E-14  0.00000000000E+00  0.35527136788E-14  0.91188000000E+02  0.91188000000E+02 0.  0.
    9900012    2    3    3    0    0 -0.19744019873E+02 -0.92746884005E+00  0.31065779115E+02  0.54367229351E+02  0.40000330949E+02 0.  0.
         12    1    3    3    0    0  0.19744019873E+02  0.92746884005E+00 -0.31065779115E+02  0.36820770649E+02  0.00000000000E+00 0. -1.
         11    1    4    4    0    0  0.51690176649E+00 -0.24601985234E+00  0.44969356731E+01  0.45332266558E+01  0.51100000000E-03 0. -1.
        -11    1    4    4    0    0 -0.29019614946E+01  0.25449271801E+00  0.31601917700E+02  0.31735900013E+02  0.51100000000E-03 0.  1.
         12    1    4    4    0    0 -0.17358960145E+02 -0.93594170572E+00 -0.50330742581E+01  0.18098102681E+02  0.00000000000E+00 0. -1.
</event>
<event>
 8    1  0.1229038E-006  0.9118800E+02  0.7816164E-02  0.1184000E+00
        -11   -1    0    0    0    0  0.00000000000E+00  0.00000000000E+00  0.45593999997E+02  0.45594000000E+02  0.51100000000E-03 0. -1.
         11   -1    0    0    0    0 -0.00000000000E+00 -0.00000000000E+00 -0.45593999997E+02  0.45594000000E+02  0.51100000000E-03 0.  1.
         23    2    1    2    0    0 -0.88817841970E-15 -0.44408920985E-15  0.71054273576E-14  0.91188000000E+02  0.91188000000E+02 0.  0.
    9900012    2    3    3    0    0  0.30890655455E+01  0.17610905438E+01 -0.36648752428E+02  0.54367152368E+02  0.40000155453E+02 0.  0.
         12    1    3    3    0    0 -0.30890655455E+01 -0.17610905438E+01  0.36648752428E+02  0.36820847632E+02  0.00000000000E+00 0. -1.
         11    1    4    4    0    0 -0.23506124376E+01  0.37780136537E+01  0.20464969389E+01  0.48976439214E+01  0.51100000000E-03 0.  1.
        -11    1    4    4    0    0 -0.54298540041E+01  0.71439082931E+01 -0.32928552949E+02  0.34129288592E+02  0.51100000000E-03 0. -1.
        -12    1    4    4    0    0  0.10869531987E+02 -0.91608314030E+01 -0.57666964172E+01  0.15340219854E+02  0.00000000000E+00 0.  1.
</event>
<event>
 8    1  0.1229038E-006  0.9118800E+02  0.7816164E-02  0.1184000E+00
        -11   -1    0    0    0    0  0.00000000000E+00  0.00000000000E+00  0.45593999997E+02  0.45594000000E+02  0.51100000000E-03 0. -1.
         11   -1    0    0    0    0 -0.00000000000E+00 -0.00000000000E+00 -0.45593999997E+02  0.45594000000E+02  0.51100000000E-03 0.  1.
         23    2    1    2    0    0  0.35527136788E-14  0.88817841970E-15  0.35527136788E-14  0.91188000000E+02  0.91188000000E+02 0.  0.
    9900012    2    3    3    0    0 -0.23660415864E+02  0.51731749355E+01 -0.27734656562E+02  0.54366970786E+02  0.39999741500E+02 0.  0.
         12    1    3    3    0    0  0.23660415864E+02 -0.51731749355E+01  0.27734656562E+02  0.36821029214E+02  0.00000000000E+00 0. -1.
         11    1    4    4    0    0 -0.96513499923E+01  0.16342648563E+02  0.22767249313E+01  0.19115810090E+02  0.51100000000E-03 0. -1.
        -11    1    4    4    0    0 -0.77561778049E+01 -0.58353820035E+01 -0.20492847820E+02  0.22675246179E+02  0.51100000000E-03 0.  1.
         12    1    4    4    0    0 -0.62528880668E+01 -0.53340916241E+01 -0.95185336736E+01  0.12575914517E+02  0.00000000000E+00 0. -1.
</event>
<event>
 8    1  0.1229038E-006  0.9118800E+02  0.7816164E-02  0.1184000E+00
        -11   -1    0    0    0    0  0.00000000000E+00  0.00000000000E+00  0.45593999997E+02  0.45594000000E+02  0.51100000000E-03 0.  1.
         11   -1    0    0    0    0 -0.00000000000E+00 -0.00000000000E+00 -0.45593999997E+02  0.45594000000E+02  0.51100000000E-03 0. -1.
         23    2    1    2    0    0  0.71054273576E-14  0.00000000000E+00  0.00000000000E+00  0.91188000000E+02  0.91188000000E+02 0.  0.
    9900012    2    3    3    0    0 -0.29646851925E+02  0.19514896656E+02  0.97986687395E+01  0.54367069409E+02  0.39999966331E+02 0.  0.
         12    1    3    3    0    0  0.29646851925E+02 -0.19514896656E+02 -0.97986687395E+01  0.36820930591E+02  0.00000000000E+00 0. -1.
         11    1    4    4    0    0  0.40810118263E+01  0.12840656044E+02 -0.98332784109E+00  0.13509405578E+02  0.51100000000E-03 0. -1.
        -11    1    4    4    0    0 -0.23300653453E+02  0.10790225092E+02  0.13931278199E+02  0.29213522920E+02  0.51100000000E-03 0.  1.
         12    1    4    4    0    0 -0.10427210298E+02 -0.41159844800E+01 -0.31492816186E+01  0.11644140911E+02  0.00000000000E+00 0. -1.
</event>
<event>
 8    1  0.1229038E-006  0.9118800E+02  0.7816164E-02  0.1184000E+00
        -11   -1    0    0    0    0  0.00000000000E+00  0.00000000000E+00  0.45593999997E+02  0.45594000000E+02  0.51100000000E-03 0.  1.
         11   -1    0    0    0    0 -0.00000000000E+00 -0.00000000000E+00 -0.45593999997E+02  0.45594000000E+02  0.51100000000E-03 0. -1.
         23    2    1    2    0    0  0.17763568394E-14  0.00000000000E+00  0.17763568394E-14  0.91188000000E+02  0.91188000000E+02 0.  0.
    9900012    2    3    3    0    0 -0.83674907192E+01 -0.33596124841E+02 -0.12532543167E+02  0.54367093663E+02  0.40000021623E+02 0.  0.
         12    1    3    3    0    0  0.83674907192E+01  0.33596124841E+02  0.12532543167E+02  0.36820906337E+02  0.00000000000E+00 0. -1.
         11    1    4    4    0    0 -0.48030932539E+01 -0.33981894484E+02 -0.11527625970E+02  0.36203936503E+02  0.51100000000E-03 0.  1.
        -11    1    4    4    0    0 -0.66964140691E+01 -0.63304949604E+01 -0.41578806415E+01  0.10109653778E+02  0.51100000000E-03 0. -1.
         12    1    4    4    0    0  0.31320166038E+01  0.67162646033E+01  0.31529634454E+01  0.80535033815E+01  0.00000000000E+00 0. -1.
</event>
<event>
 8    1  0.1229038E-006  0.9118800E+02  0.7816164E-02  0.1184000E+00
        -11   -1    0    0    0    0  0.00000000000E+00  0.00000000000E+00  0.45593999997E+02  0.45594000000E+02  0.51100000000E-03 0.  1.
         11   -1    0    0    0    0 -0.00000000000E+00 -0.00000000000E+00 -0.45593999997E+02  0.45594000000E+02  0.51100000000E-03 0. -1.
         23    2    1    2    0    0  0.00000000000E+00 -0.35527136788E-14  0.35527136788E-14  0.91188000000E+02  0.91188000000E+02 0.  0.
    9900012    2    3    3    0    0 -0.14564878786E+02  0.16304675353E+02 -0.29627693036E+02  0.54367104750E+02  0.40000046898E+02 0.  0.
        -12    1    3    3    0    0  0.14564878786E+02 -0.16304675353E+02  0.29627693036E+02  0.36820895250E+02  0.00000000000E+00 0.  1.
         11    1    4    4    0    0 -0.12503032600E+02  0.83325883935E+01 -0.88828826001E+01  0.17454611342E+02  0.51100000000E-03 0. -1.
        -11    1    4    4    0    0  0.45522081166E+01 -0.36576699082E+01  0.51367920338E+01  0.77773890576E+01  0.51100000000E-03 0.  1.
        -12    1    4    4    0    0 -0.66140543019E+01  0.11629756868E+02 -0.25881602469E+02  0.29135104350E+02  0.00000000000E+00 0.  1.
</event>
<event>
 8    1  0.1229038E-006  0.9118800E+02  0.7816164E-02  0.1184000E+00
        -11   -1    0    0    0    0  0.00000000000E+00  0.00000000000E+00  0.45593999997E+02  0.45594000000E+02  0.51100000000E-03 0.  1.
         11   -1    0    0    0    0 -0.00000000000E+00 -0.00000000000E+00 -0.45593999997E+02  0.45594000000E+02  0.51100000000E-03 0. -1.
         23    2    1    2    0    0 -0.17763568394E-14  0.35527136788E-14  0.00000000000E+00  0.91188000000E+02  0.91188000000E+02 0.  0.
    9900012    2    3    3    0    0 -0.10994510509E+02  0.11118907139E+02  0.33335741077E+02  0.54367068582E+02  0.39999964447E+02 0.  0.
         12    1    3    3    0    0  0.10994510509E+02 -0.11118907139E+02 -0.33335741077E+02  0.36820931418E+02  0.00000000000E+00 0. -1.
         11    1    4    4    0    0 -0.37462346798E+00  0.27645404674E+01 -0.54489757614E+01  0.61216308161E+01  0.51100000000E-03 0. -1.
        -11    1    4    4    0    0 -0.86305017339E+01  0.17390630985E+02  0.27237428290E+02  0.33448424572E+02  0.51100000000E-03 0.  1.
         12    1    4    4    0    0 -0.19893853071E+01 -0.90362643133E+01  0.11547288548E+02  0.14797013194E+02  0.00000000000E+00 0. -1.
</event>
<event>
 8    1  0.1229038E-006  0.9118800E+02  0.7816164E-02  0.1184000E+00
        -11   -1    0    0    0    0  0.00000000000E+00  0.00000000000E+00  0.45593999997E+02  0.45594000000E+02  0.51100000000E-03 0.  1.
         11   -1    0    0    0    0 -0.00000000000E+00 -0.00000000000E+00 -0.45593999997E+02  0.45594000000E+02  0.51100000000E-03 0. -1.
         23    2    1    2    0    0  0.00000000000E+00  0.00000000000E+00  0.00000000000E+00  0.91188000000E+02  0.91188000000E+02 0.  0.
    9900012    2    3    3    0    0 -0.12300737915E+02 -0.33714232817E+02  0.82354329949E+01  0.54367081974E+02  0.39999994976E+02 0.  0.
         12    1    3    3    0    0  0.12300737915E+02  0.33714232817E+02 -0.82354329949E+01  0.36820918026E+02  0.00000000000E+00 0. -1.
         11    1    4    4    0    0  0.11095479024E+01 -0.15447332810E+02 -0.11149490221E+01  0.15527211568E+02  0.51100000000E-03 0. -1.
        -11    1    4    4    0    0 -0.76767779243E+00  0.15109862735E+01  0.14673022039E+02  0.14770578348E+02  0.51100000000E-03 0.  1.
        -12    1    4    4    0    0 -0.12642608025E+02 -0.19777886280E+02 -0.53226400217E+01  0.24069292058E+02  0.00000000000E+00 0.  1.
</event>
<event>
 8    1  0.1229038E-006  0.9118800E+02  0.7816164E-02  0.1184000E+00
        -11   -1    0    0    0    0  0.00000000000E+00  0.00000000000E+00  0.45593999997E+02  0.45594000000E+02  0.51100000000E-03 0.  1.
         11   -1    0    0    0    0 -0.00000000000E+00 -0.00000000000E+00 -0.45593999997E+02  0.45594000000E+02  0.51100000000E-03 0. -1.
         23    2    1    2    0    0 -0.58113236445E-15  0.00000000000E+00  0.71054273576E-14  0.91188000000E+02  0.91188000000E+02 0.  0.
    9900012    2    3    3    0    0  0.81224472797E-02 -0.54906564493E+01  0.36409225535E+02  0.54367094548E+02  0.40000023642E+02 0.  0.
         12    1    3    3    0    0 -0.81224472797E-02  0.54906564493E+01 -0.36409225535E+02  0.36820905452E+02  0.00000000000E+00 0. -1.
         11    1    4    4    0    0  0.53515829546E+01 -0.90091698651E+01 -0.19002990486E+01  0.10649681616E+02  0.51100000000E-03 0. -1.
        -11    1    4    4    0    0  0.63651668082E+00 -0.40587715903E+01 -0.10396244111E+00  0.41096944847E+01  0.51100000000E-03 0.  1.
        -12    1    4    4    0    0 -0.59799771882E+01  0.75772850061E+01  0.38413487025E+02  0.39607718448E+02  0.00000000000E+00 0.  1.
</event>
<event>
 8    1  0.1229038E-006  0.9118800E+02  0.7816164E-02  0.1184000E+00
        -11   -1    0    0    0    0  0.00000000000E+00  0.00000000000E+00  0.45593999997E+02  0.45594000000E+02  0.51100000000E-03 0.  1.
         11   -1    0    0    0    0 -0.00000000000E+00 -0.00000000000E+00 -0.45593999997E+02  0.45594000000E+02  0.51100000000E-03 0. -1.
         23    2    1    2    0    0  0.17763568394E-14 -0.17763568394E-14 -0.71054273576E-14  0.91188000000E+02  0.91188000000E+02 0.  0.
    9900012    2    3    3    0    0  0.12403762178E+02 -0.10175231500E+02 -0.33141987319E+02  0.54367082362E+02  0.39999995860E+02 0.  0.
        -12    1    3    3    0    0 -0.12403762178E+02  0.10175231500E+02  0.33141987319E+02  0.36820917638E+02  0.00000000000E+00 0.  1.
         11    1    4    4    0    0  0.33903009569E+01  0.81170452300E+01 -0.54926921576E+01  0.10370642759E+02  0.51100000000E-03 0. -1.
        -11    1    4    4    0    0  0.18581762300E+02 -0.12399544166E+02 -0.14198832885E+02  0.26469556877E+02  0.51100000000E-03 0.  1.
         12    1    4    4    0    0 -0.95683010789E+01 -0.58927325633E+01 -0.13450462277E+02  0.17526882725E+02  0.00000000000E+00 0. -1.
</event>
<event>
 8    1  0.1229038E-006  0.9118800E+02  0.7816164E-02  0.1184000E+00
        -11   -1    0    0    0    0  0.00000000000E+00  0.00000000000E+00  0.45593999997E+02  0.45594000000E+02  0.51100000000E-03 0.  1.
         11   -1    0    0    0    0 -0.00000000000E+00 -0.00000000000E+00 -0.45593999997E+02  0.45594000000E+02  0.51100000000E-03 0. -1.
         23    2    1    2    0    0  0.00000000000E+00  0.00000000000E+00  0.00000000000E+00  0.91188000000E+02  0.91188000000E+02 0.  0.
    9900012    2    3    3    0    0  0.27222783919E+02  0.18360513334E+02  0.16661045122E+02  0.54367097801E+02  0.40000031057E+02 0.  0.
         12    1    3    3    0    0 -0.27222783919E+02 -0.18360513334E+02 -0.16661045122E+02  0.36820902199E+02  0.00000000000E+00 0. -1.
         11    1    4    4    0    0 -0.62051317192E+01  0.95680451411E+01  0.10962610092E+01  0.11456567371E+02  0.51100000000E-03 0. -1.
        -11    1    4    4    0    0  0.21599269118E+02 -0.25895023859E+01  0.15113856008E+02  0.26488914525E+02  0.51100000000E-03 0.  1.
         12    1    4    4    0    0  0.11828646521E+02  0.11381970578E+02  0.45092810515E+00  0.16421615904E+02  0.00000000000E+00 0. -1.
</event>
<event>
 8    1  0.1229038E-006  0.9118800E+02  0.7816164E-02  0.1184000E+00
        -11   -1    0    0    0    0  0.00000000000E+00  0.00000000000E+00  0.45593999997E+02  0.45594000000E+02  0.51100000000E-03 0. -1.
         11   -1    0    0    0    0 -0.00000000000E+00 -0.00000000000E+00 -0.45593999997E+02  0.45594000000E+02  0.51100000000E-03 0.  1.
         23    2    1    2    0    0  0.00000000000E+00  0.00000000000E+00  0.00000000000E+00  0.91188000000E+02  0.91188000000E+02 0.  0.
    9900012    2    3    3    0    0 -0.31181208310E+02 -0.63428851153E+01 -0.18527827140E+02  0.54367077662E+02  0.39999985147E+02 0.  0.
         12    1    3    3    0    0  0.31181208310E+02  0.63428851153E+01  0.18527827140E+02  0.36820922338E+02  0.00000000000E+00 0. -1.
         11    1    4    4    0    0  0.13484058078E+01  0.15678773580E+01  0.36114997879E+01  0.41616545522E+01  0.51100000000E-03 0. -1.
        -11    1    4    4    0    0 -0.17656615656E+02 -0.65562708785E+01 -0.28345690971E+02  0.34032616137E+02  0.51100000000E-03 0.  1.
        -12    1    4    4    0    0 -0.14872998462E+02 -0.13544915947E+01  0.62063640435E+01  0.16172806973E+02  0.00000000000E+00 0.  1.
</event>
<event>
 8    1  0.1229038E-006  0.9118800E+02  0.7816164E-02  0.1184000E+00
        -11   -1    0    0    0    0  0.00000000000E+00  0.00000000000E+00  0.45593999997E+02  0.45594000000E+02  0.51100000000E-03 0.  1.
         11   -1    0    0    0    0 -0.00000000000E+00 -0.00000000000E+00 -0.45593999997E+02  0.45594000000E+02  0.51100000000E-03 0. -1.
         23    2    1    2    0    0  0.00000000000E+00  0.13322676296E-14  0.00000000000E+00  0.91188000000E+02  0.91188000000E+02 0.  0.
    9900012    2    3    3    0    0 -0.91508344797E+01 -0.26369701173E+01  0.35568070864E+02  0.54367094959E+02  0.40000024578E+02 0.  0.
         12    1    3    3    0    0  0.91508344797E+01  0.26369701173E+01 -0.35568070864E+02  0.36820905041E+02  0.00000000000E+00 0. -1.
         11    1    4    4    0    0  0.67261467318E+01 -0.47000569178E+00  0.18238158111E+02  0.19444597367E+02  0.51100000000E-03 0. -1.
        -11    1    4    4    0    0  0.89088006185E+00 -0.10741037518E+02  0.10034501622E+02  0.14725989859E+02  0.51100000000E-03 0.  1.
         12    1    4    4    0    0 -0.16767861273E+02  0.85740730924E+01  0.72954111300E+01  0.20196507734E+02  0.00000000000E+00 0. -1.
</event>
<event>
 8    1  0.1229038E-006  0.9118800E+02  0.7816164E-02  0.1184000E+00
        -11   -1    0    0    0    0  0.00000000000E+00  0.00000000000E+00  0.45593999997E+02  0.45594000000E+02  0.51100000000E-03 0. -1.
         11   -1    0    0    0    0 -0.00000000000E+00 -0.00000000000E+00 -0.45593999997E+02  0.45594000000E+02  0.51100000000E-03 0.  1.
         23    2    1    2    0    0  0.17763568394E-14  0.00000000000E+00 -0.35527136788E-14  0.91188000000E+02  0.91188000000E+02 0.  0.
    9900012    2    3    3    0    0 -0.11954766729E+02 -0.23782947192E+02  0.25440850950E+02  0.54367055936E+02  0.39999935617E+02 0.  0.
        -12    1    3    3    0    0  0.11954766729E+02  0.23782947192E+02 -0.25440850950E+02  0.36820944064E+02  0.00000000000E+00 0.  1.
         11    1    4    4    0    0 -0.16523889989E+02 -0.24683992411E+02  0.23178190105E+02  0.37677140530E+02  0.51100000000E-03 0. -1.
        -11    1    4    4    0    0 -0.23137256314E+01  0.27136523438E+00 -0.56930552630E+01  0.61512473431E+01  0.51100000000E-03 0.  1.
        -12    1    4    4    0    0  0.68828488911E+01  0.62967998520E+00  0.79557161082E+01  0.10538668063E+02  0.00000000000E+00 0.  1.
</event>
<event>
 8    1  0.1229038E-006  0.9118800E+02  0.7816164E-02  0.1184000E+00
        -11   -1    0    0    0    0  0.00000000000E+00  0.00000000000E+00  0.45593999997E+02  0.45594000000E+02  0.51100000000E-03 0.  1.
         11   -1    0    0    0    0 -0.00000000000E+00 -0.00000000000E+00 -0.45593999997E+02  0.45594000000E+02  0.51100000000E-03 0. -1.
         23    2    1    2    0    0  0.00000000000E+00 -0.35527136788E-14 -0.17763568394E-14  0.91188000000E+02  0.91188000000E+02 0.  0.
    9900012    2    3    3    0    0  0.11675969618E+02  0.31515239938E+02  0.15041297533E+02  0.54367092266E+02  0.40000018439E+02 0.  0.
         12    1    3    3    0    0 -0.11675969618E+02 -0.31515239938E+02 -0.15041297533E+02  0.36820907734E+02  0.00000000000E+00 0. -1.
         11    1    4    4    0    0  0.12413420692E+02  0.22005546264E+02 -0.18642010082E+01  0.25334015183E+02  0.51100000000E-03 0. -1.
        -11    1    4    4    0    0  0.52487311534E+01  0.13572839601E+02  0.55625977861E+01  0.15579269814E+02  0.51100000000E-03 0.  1.
        -12    1    4    4    0    0 -0.59861822279E+01 -0.40631459265E+01  0.11342900755E+02  0.13453807269E+02  0.00000000000E+00 0.  1.
</event>
<event>
 8    1  0.1229038E-006  0.9118800E+02  0.7816164E-02  0.1184000E+00
        -11   -1    0    0    0    0  0.00000000000E+00  0.00000000000E+00  0.45593999997E+02  0.45594000000E+02  0.51100000000E-03 0.  1.
         11   -1    0    0    0    0 -0.00000000000E+00 -0.00000000000E+00 -0.45593999997E+02  0.45594000000E+02  0.51100000000E-03 0. -1.
         23    2    1    2    0    0  0.88817841970E-15 -0.71054273576E-14  0.00000000000E+00  0.91188000000E+02  0.91188000000E+02 0.  0.
    9900012    2    3    3    0    0  0.56455565711E+01  0.18631485881E+02  0.31253376095E+02  0.54367107935E+02  0.40000054159E+02 0.  0.
         12    1    3    3    0    0 -0.56455565711E+01 -0.18631485881E+02 -0.31253376095E+02  0.36820892065E+02  0.00000000000E+00 0. -1.
         11    1    4    4    0    0 -0.28791119637E+01 -0.14048785004E+01  0.13299880501E+02  0.13680270133E+02  0.51100000000E-03 0. -1.
        -11    1    4    4    0    0 -0.88698650421E+01  0.10218977120E+02  0.15480083812E+02  0.20560520284E+02  0.51100000000E-03 0.  1.
         12    1    4    4    0    0  0.17394533577E+02  0.98173872615E+01  0.24734117818E+01  0.20126317518E+02  0.00000000000E+00 0. -1.
</event>
<event>
 8    1  0.1229038E-006  0.9118800E+02  0.7816164E-02  0.1184000E+00
        -11   -1    0    0    0    0  0.00000000000E+00  0.00000000000E+00  0.45593999997E+02  0.45594000000E+02  0.51100000000E-03 0.  1.
         11   -1    0    0    0    0 -0.00000000000E+00 -0.00000000000E+00 -0.45593999997E+02  0.45594000000E+02  0.51100000000E-03 0. -1.
         23    2    1    2    0    0  0.35527136788E-14 -0.44408920985E-15 -0.35527136788E-14  0.91188000000E+02  0.91188000000E+02 0.  0.
    9900012    2    3    3    0    0  0.28528207411E+02 -0.30464282507E+01 -0.23079006566E+02  0.54367083563E+02  0.39999998600E+02 0.  0.
        -12    1    3    3    0    0 -0.28528207411E+02  0.30464282507E+01  0.23079006566E+02  0.36820916437E+02  0.00000000000E+00 0.  1.
         11    1    4    4    0    0 -0.59945904069E+01 -0.63889293891E-01 -0.15056103239E+02  0.16205722476E+02  0.51100000000E-03 0. -1.
        -11    1    4    4    0    0  0.19131027063E+01  0.31375624535E+01  0.93981656156E+00  0.37930878641E+01  0.51100000000E-03 0.  1.
        -12    1    4    4    0    0  0.32609695111E+02 -0.61201014104E+01 -0.89627198890E+01  0.34368273223E+02  0.00000000000E+00 0.  1.
</event>
<event>
 8    1  0.1229038E-006  0.9118800E+02  0.7816164E-02  0.1184000E+00
        -11   -1    0    0    0    0  0.00000000000E+00  0.00000000000E+00  0.45593999997E+02  0.45594000000E+02  0.51100000000E-03 0. -1.
         11   -1    0    0    0    0 -0.00000000000E+00 -0.00000000000E+00 -0.45593999997E+02  0.45594000000E+02  0.51100000000E-03 0.  1.
         23    2    1    2    0    0  0.17763568394E-14  0.00000000000E+00  0.00000000000E+00  0.91188000000E+02  0.91188000000E+02 0.  0.
    9900012    2    3    3    0    0  0.11955004596E+02  0.20158438407E+02 -0.28398843774E+02  0.54367094231E+02  0.40000022919E+02 0.  0.
         12    1    3    3    0    0 -0.11955004596E+02 -0.20158438407E+02  0.28398843774E+02  0.36820905769E+02  0.00000000000E+00 0. -1.
         11    1    4    4    0    0  0.19518265082E+02 -0.24591211258E+01 -0.47279048566E+01  0.20232721841E+02  0.51100000000E-03 0. -1.
        -11    1    4    4    0    0 -0.10923502103E+01  0.12259586668E+02 -0.10573704150E+02  0.16226333966E+02  0.51100000000E-03 0.  1.
        -12    1    4    4    0    0 -0.64709102749E+01  0.10357972865E+02 -0.13097234768E+02  0.17908038424E+02  0.00000000000E+00 0.  1.
</event>
<event>
 8    1  0.1229038E-006  0.9118800E+02  0.7816164E-02  0.1184000E+00
        -11   -1    0    0    0    0  0.00000000000E+00  0.00000000000E+00  0.45593999997E+02  0.45594000000E+02  0.51100000000E-03 0. -1.
         11   -1    0    0    0    0 -0.00000000000E+00 -0.00000000000E+00 -0.45593999997E+02  0.45594000000E+02  0.51100000000E-03 0.  1.
         23    2    1    2    0    0 -0.35527136788E-14 -0.19984014443E-14  0.00000000000E+00  0.91188000000E+02  0.91188000000E+02 0.  0.
    9900012    2    3    3    0    0 -0.25029807807E+02 -0.13500706328E+01  0.26971594290E+02  0.54367070244E+02  0.39999968236E+02 0.  0.
        -12    1    3    3    0    0  0.25029807807E+02  0.13500706328E+01 -0.26971594290E+02  0.36820929756E+02  0.00000000000E+00 0.  1.
         11    1    4    4    0    0 -0.97503075207E+01  0.41400309729E+01  0.16146393848E+02  0.19310991372E+02  0.51100000000E-03 0. -1.
        -11    1    4    4    0    0  0.42450288267E+01  0.60327842645E+01 -0.35758659383E+01  0.81976565670E+01  0.51100000000E-03 0.  1.
        -12    1    4    4    0    0 -0.19524529113E+02 -0.11522885870E+02  0.14401066380E+02  0.26858422305E+02  0.00000000000E+00 0.  1.
</event>
<event>
 8    1  0.1229038E-006  0.9118800E+02  0.7816164E-02  0.1184000E+00
        -11   -1    0    0    0    0  0.00000000000E+00  0.00000000000E+00  0.45593999997E+02  0.45594000000E+02  0.51100000000E-03 0. -1.
         11   -1    0    0    0    0 -0.00000000000E+00 -0.00000000000E+00 -0.45593999997E+02  0.45594000000E+02  0.51100000000E-03 0.  1.
         23    2    1    2    0    0  0.00000000000E+00  0.00000000000E+00 -0.88817841970E-15  0.91188000000E+02  0.91188000000E+02 0.  0.
    9900012    2    3    3    0    0 -0.42671182109E+01  0.36273148307E+02 -0.46722596082E+01  0.54367087521E+02  0.40000007622E+02 0.  0.
         12    1    3    3    0    0  0.42671182109E+01 -0.36273148307E+02  0.46722596082E+01  0.36820912479E+02  0.00000000000E+00 0. -1.
         11    1    4    4    0    0  0.13355436789E+02  0.11006968961E+02 -0.11542416856E+02  0.20802606680E+02  0.51100000000E-03 0. -1.
        -11    1    4    4    0    0 -0.34273296318E+01  0.14849545582E+02  0.35280048410E+01  0.15642966817E+02  0.51100000000E-03 0.  1.
        -12    1    4    4    0    0 -0.14195225368E+02  0.10416633763E+02  0.33421524069E+01  0.17921514024E+02  0.00000000000E+00 0.  1.
</event>
<event>
 8    1  0.1229038E-006  0.9118800E+02  0.7816164E-02  0.1184000E+00
        -11   -1    0    0    0    0  0.00000000000E+00  0.00000000000E+00  0.45593999997E+02  0.45594000000E+02  0.51100000000E-03 0.  1.
         11   -1    0    0    0    0 -0.00000000000E+00 -0.00000000000E+00 -0.45593999997E+02  0.45594000000E+02  0.51100000000E-03 0. -1.
         23    2    1    2    0    0  0.00000000000E+00  0.00000000000E+00  0.00000000000E+00  0.91188000000E+02  0.91188000000E+02 0.  0.
    9900012    2    3    3    0    0 -0.25794295472E+02 -0.24983603903E+02 -0.81396310007E+01  0.54367085621E+02  0.40000003291E+02 0.  0.
        -12    1    3    3    0    0  0.25794295472E+02  0.24983603903E+02  0.81396310007E+01  0.36820914379E+02  0.00000000000E+00 0.  1.
         11    1    4    4    0    0 -0.14993869228E+02 -0.20028514518E+02 -0.18714720737E+02  0.31244171948E+02  0.51100000000E-03 0. -1.
        -11    1    4    4    0    0 -0.57027612432E+01  0.60861574173E+01  0.34312125038E+01  0.90186483140E+01  0.51100000000E-03 0.  1.
         12    1    4    4    0    0 -0.50976650007E+01 -0.11041246802E+02  0.71438772324E+01  0.14104265359E+02  0.00000000000E+00 0. -1.
</event>
<event>
 8    1  0.1229038E-006  0.9118800E+02  0.7816164E-02  0.1184000E+00
        -11   -1    0    0    0    0  0.00000000000E+00  0.00000000000E+00  0.45593999997E+02  0.45594000000E+02  0.51100000000E-03 0. -1.
         11   -1    0    0    0    0 -0.00000000000E+00 -0.00000000000E+00 -0.45593999997E+02  0.45594000000E+02  0.51100000000E-03 0.  1.
         23    2    1    2    0    0 -0.22204460493E-15 -0.17763568394E-14 -0.71054273576E-14  0.91188000000E+02  0.91188000000E+02 0.  0.
    9900012    2    3    3    0    0 -0.19748728051E+01 -0.10928906945E+02 -0.35106122605E+02  0.54367068806E+02  0.39999964957E+02 0.  0.
         12    1    3    3    0    0  0.19748728051E+01  0.10928906945E+02  0.35106122605E+02  0.36820931194E+02  0.00000000000E+00 0. -1.
         11    1    4    4    0    0 -0.52543727978E+01 -0.60154023742E+00  0.38579197189E+01  0.65462836002E+01  0.51100000000E-03 0. -1.
        -11    1    4    4    0    0 -0.91838596491E+01 -0.11419481614E+02 -0.25719790409E+02  0.29601612411E+02  0.51100000000E-03 0.  1.
         12    1    4    4    0    0  0.12463359642E+02  0.10921149068E+01 -0.13244251915E+02  0.18219172795E+02  0.00000000000E+00 0. -1.
</event>
<event>
 8    1  0.1229038E-006  0.9118800E+02  0.7816164E-02  0.1184000E+00
        -11   -1    0    0    0    0  0.00000000000E+00  0.00000000000E+00  0.45593999997E+02  0.45594000000E+02  0.51100000000E-03 0.  1.
         11   -1    0    0    0    0 -0.00000000000E+00 -0.00000000000E+00 -0.45593999997E+02  0.45594000000E+02  0.51100000000E-03 0. -1.
         23    2    1    2    0    0 -0.35527136788E-14 -0.88817841970E-15  0.35527136788E-14  0.91188000000E+02  0.91188000000E+02 0.  0.
    9900012    2    3    3    0    0  0.23708547717E+02 -0.63866156568E+01  0.27438958127E+02  0.54367075005E+02  0.39999979089E+02 0.  0.
         12    1    3    3    0    0 -0.23708547717E+02  0.63866156568E+01 -0.27438958127E+02  0.36820924995E+02  0.00000000000E+00 0. -1.
         11    1    4    4    0    0 -0.28988303538E+01  0.70448905638E+01  0.18676635816E+01  0.78435876990E+01  0.51100000000E-03 0. -1.
        -11    1    4    4    0    0  0.22572905179E+02 -0.76464522957E+01  0.44356189762E+01  0.24242091430E+02  0.51100000000E-03 0.  1.
        -12    1    4    4    0    0  0.40344728923E+01 -0.57850539250E+01  0.21135675569E+02  0.22281395876E+02  0.00000000000E+00 0.  1.
</event>
<event>
 8    1  0.1229038E-006  0.9118800E+02  0.7816164E-02  0.1184000E+00
        -11   -1    0    0    0    0  0.00000000000E+00  0.00000000000E+00  0.45593999997E+02  0.45594000000E+02  0.51100000000E-03 0. -1.
         11   -1    0    0    0    0 -0.00000000000E+00 -0.00000000000E+00 -0.45593999997E+02  0.45594000000E+02  0.51100000000E-03 0.  1.
         23    2    1    2    0    0 -0.35527136788E-14  0.00000000000E+00 -0.35527136788E-14  0.91188000000E+02  0.91188000000E+02 0.  0.
    9900012    2    3    3    0    0 -0.19157720115E+02  0.24236434173E+02  0.20033905339E+02  0.54367077353E+02  0.39999984442E+02 0.  0.
        -12    1    3    3    0    0  0.19157720115E+02 -0.24236434173E+02 -0.20033905339E+02  0.36820922647E+02  0.00000000000E+00 0.  1.
         11    1    4    4    0    0  0.99790017720E+01  0.62408901541E+01  0.55067486191E+00  0.11782717401E+02  0.51100000000E-03 0. -1.
        -11    1    4    4    0    0 -0.16942632841E+02  0.81672976383E+01  0.16961447024E+01  0.18884768079E+02  0.51100000000E-03 0.  1.
        -12    1    4    4    0    0 -0.12194089046E+02  0.98282463806E+01  0.17787085775E+02  0.23699591873E+02  0.00000000000E+00 0.  1.
</event>
<event>
 8    1  0.1229038E-006  0.9118800E+02  0.7816164E-02  0.1184000E+00
        -11   -1    0    0    0    0  0.00000000000E+00  0.00000000000E+00  0.45593999997E+02  0.45594000000E+02  0.51100000000E-03 0.  1.
         11   -1    0    0    0    0 -0.00000000000E+00 -0.00000000000E+00 -0.45593999997E+02  0.45594000000E+02  0.51100000000E-03 0. -1.
         23    2    1    2    0    0 -0.17763568394E-14  0.88817841970E-15  0.71054273576E-14  0.91188000000E+02  0.91188000000E+02 0.  0.
    9900012    2    3    3    0    0 -0.11389936982E+02  0.71320638991E+01  0.34280850692E+02  0.54367167254E+02  0.40000189389E+02 0.  0.
         12    1    3    3    0    0  0.11389936982E+02 -0.71320638991E+01 -0.34280850692E+02  0.36820832746E+02  0.00000000000E+00 0. -1.
         11    1    4    4    0    0  0.81165277607E+01  0.17268872835E+01  0.17357566896E+02  0.19239160361E+02  0.51100000000E-03 0. -1.
        -11    1    4    4    0    0 -0.68327119516E+01  0.67433817879E+01  0.19852250195E+02  0.22051552975E+02  0.51100000000E-03 0.  1.
         12    1    4    4    0    0 -0.12673752791E+02 -0.13382051723E+01 -0.29289663996E+01  0.13076453918E+02  0.00000000000E+00 0. -1.
</event>
<event>
 8    1  0.1229038E-006  0.9118800E+02  0.7816164E-02  0.1184000E+00
        -11   -1    0    0    0    0  0.00000000000E+00  0.00000000000E+00  0.45593999997E+02  0.45594000000E+02  0.51100000000E-03 0. -1.
         11   -1    0    0    0    0 -0.00000000000E+00 -0.00000000000E+00 -0.45593999997E+02  0.45594000000E+02  0.51100000000E-03 0.  1.
         23    2    1    2    0    0  0.00000000000E+00  0.00000000000E+00  0.00000000000E+00  0.91188000000E+02  0.91188000000E+02 0.  0.
    9900012    2    3    3    0    0 -0.17634079512E+02 -0.22908053015E+02 -0.22804403766E+02  0.54367075456E+02  0.39999980117E+02 0.  0.
         12    1    3    3    0    0  0.17634079512E+02  0.22908053015E+02  0.22804403766E+02  0.36820924544E+02  0.00000000000E+00 0. -1.
         11    1    4    4    0    0  0.32311840396E+01  0.22232480569E+01 -0.10173450852E+02  0.10903324480E+02  0.51100000000E-03 0. -1.
        -11    1    4    4    0    0 -0.12812680141E+02  0.37410764306E+00 -0.10612650940E+02  0.16641306715E+02  0.51100000000E-03 0.  1.
        -12    1    4    4    0    0 -0.80525834103E+01 -0.25505408715E+02 -0.20183019731E+01  0.26822444261E+02  0.00000000000E+00 0.  1.
</event>
<event>
 8    1  0.1229038E-006  0.9118800E+02  0.7816164E-02  0.1184000E+00
        -11   -1    0    0    0    0  0.00000000000E+00  0.00000000000E+00  0.45593999997E+02  0.45594000000E+02  0.51100000000E-03 0.  1.
         11   -1    0    0    0    0 -0.00000000000E+00 -0.00000000000E+00 -0.45593999997E+02  0.45594000000E+02  0.51100000000E-03 0. -1.
         23    2    1    2    0    0  0.00000000000E+00  0.00000000000E+00  0.00000000000E+00  0.91188000000E+02  0.91188000000E+02 0.  0.
    9900012    2    3    3    0    0 -0.97933304597E+01  0.31661988815E+02 -0.16043348045E+02  0.54367083747E+02  0.39999999018E+02 0.  0.
        -12    1    3    3    0    0  0.97933304597E+01 -0.31661988815E+02  0.16043348045E+02  0.36820916253E+02  0.00000000000E+00 0.  1.
         11    1    4    4    0    0 -0.80593139389E+01  0.19400378849E+02 -0.19862731158E+02  0.28911162723E+02  0.51100000000E-03 0. -1.
        -11    1    4    4    0    0  0.76490418504E+01  0.86452490019E+01 -0.45153297558E+01  0.12395014102E+02  0.51100000000E-03 0.  1.
         12    1    4    4    0    0 -0.93830583713E+01  0.36163609639E+01  0.83347128685E+01  0.13060906922E+02  0.00000000000E+00 0. -1.
</event>
<event>
 8    1  0.1229038E-006  0.9118800E+02  0.7816164E-02  0.1184000E+00
        -11   -1    0    0    0    0  0.00000000000E+00  0.00000000000E+00  0.45593999997E+02  0.45594000000E+02  0.51100000000E-03 0. -1.
         11   -1    0    0    0    0 -0.00000000000E+00 -0.00000000000E+00 -0.45593999997E+02  0.45594000000E+02  0.51100000000E-03 0.  1.
         23    2    1    2    0    0  0.00000000000E+00  0.88817841970E-15 -0.35527136788E-14  0.91188000000E+02  0.91188000000E+02 0.  0.
    9900012    2    3    3    0    0  0.29148549106E+02  0.61200838653E+01  0.21649064068E+02  0.54367145630E+02  0.40000140094E+02 0.  0.
        -12    1    3    3    0    0 -0.29148549106E+02 -0.61200838653E+01 -0.21649064068E+02  0.36820854370E+02  0.00000000000E+00 0.  1.
         11    1    4    4    0    0  0.70040965395E+00  0.25630856708E+01  0.18132203094E+02  0.18325849807E+02  0.51100000000E-03 0. -1.
        -11    1    4    4    0    0  0.19944818881E+02 -0.76410508867E+01 -0.67497801636E+00  0.21369067701E+02  0.51100000000E-03 0.  1.
        -12    1    4    4    0    0  0.85033205712E+01  0.11198049081E+02  0.41918389901E+01  0.14672228123E+02  0.00000000000E+00 0.  1.
</event>
<event>
 8    1  0.1229038E-006  0.9118800E+02  0.7816164E-02  0.1184000E+00
        -11   -1    0    0    0    0  0.00000000000E+00  0.00000000000E+00  0.45593999997E+02  0.45594000000E+02  0.51100000000E-03 0. -1.
         11   -1    0    0    0    0 -0.00000000000E+00 -0.00000000000E+00 -0.45593999997E+02  0.45594000000E+02  0.51100000000E-03 0.  1.
         23    2    1    2    0    0 -0.35527136788E-14  0.44408920985E-15 -0.35527136788E-14  0.91188000000E+02  0.91188000000E+02 0.  0.
    9900012    2    3    3    0    0 -0.24547327189E+02 -0.28508041370E+01 -0.27296226953E+02  0.54367049955E+02  0.39999921983E+02 0.  0.
         12    1    3    3    0    0  0.24547327189E+02  0.28508041370E+01  0.27296226953E+02  0.36820950045E+02  0.00000000000E+00 0. -1.
         11    1    4    4    0    0 -0.40848592421E+01 -0.11819203228E+02 -0.11136482347E+02  0.16745174806E+02  0.51100000000E-03 0. -1.
        -11    1    4    4    0    0 -0.97219814515E+01 -0.65436390494E+01  0.14560201818E+01  0.11809154516E+02  0.51100000000E-03 0.  1.
        -12    1    4    4    0    0 -0.10740486495E+02  0.15512038140E+02 -0.17615764788E+02  0.25812720633E+02  0.00000000000E+00 0.  1.
</event>
<event>
 8    1  0.1229038E-006  0.9118800E+02  0.7816164E-02  0.1184000E+00
        -11   -1    0    0    0    0  0.00000000000E+00  0.00000000000E+00  0.45593999997E+02  0.45594000000E+02  0.51100000000E-03 0.  1.
         11   -1    0    0    0    0 -0.00000000000E+00 -0.00000000000E+00 -0.45593999997E+02  0.45594000000E+02  0.51100000000E-03 0. -1.
         23    2    1    2    0    0  0.49960036108E-15  0.00000000000E+00 -0.44408920985E-15  0.91188000000E+02  0.91188000000E+02 0.  0.
    9900012    2    3    3    0    0  0.25694380511E+00 -0.36788258830E+02 -0.15281584253E+01  0.54367119022E+02  0.40000079434E+02 0.  0.
        -12    1    3    3    0    0 -0.25694380511E+00  0.36788258830E+02  0.15281584253E+01  0.36820880978E+02  0.00000000000E+00 0.  1.
         11    1    4    4    0    0 -0.12719130709E+01  0.11362613290E+01 -0.97009978735E+00  0.19621280606E+01  0.51100000000E-03 0. -1.
        -11    1    4    4    0    0 -0.96616963377E+01 -0.18522397515E+02  0.14487544102E+02  0.25422755952E+02  0.51100000000E-03 0.  1.
         12    1    4    4    0    0  0.11190553214E+02 -0.19402122643E+02 -0.15045602739E+02  0.26982235009E+02  0.00000000000E+00 0. -1.
</event>
<event>
 8    1  0.1229038E-006  0.9118800E+02  0.7816164E-02  0.1184000E+00
        -11   -1    0    0    0    0  0.00000000000E+00  0.00000000000E+00  0.45593999997E+02  0.45594000000E+02  0.51100000000E-03 0.  1.
         11   -1    0    0    0    0 -0.00000000000E+00 -0.00000000000E+00 -0.45593999997E+02  0.45594000000E+02  0.51100000000E-03 0. -1.
         23    2    1    2    0    0  0.71054273576E-14 -0.88817841970E-15 -0.33306690739E-15  0.91188000000E+02  0.91188000000E+02 0.  0.
    9900012    2    3    3    0    0 -0.36423538725E+02  0.53795015532E+01  0.40819937720E+00  0.54367084246E+02  0.40000000155E+02 0.  0.
         12    1    3    3    0    0  0.36423538725E+02 -0.53795015532E+01 -0.40819937720E+00  0.36820915754E+02  0.00000000000E+00 0. -1.
         11    1    4    4    0    0 -0.85505372349E+00 -0.64904785334E+01 -0.83960267821E+01  0.10646628314E+02  0.51100000000E-03 0. -1.
        -11    1    4    4    0    0 -0.12125304342E+02  0.73804524035E+01 -0.62399265990E+01  0.15505830106E+02  0.51100000000E-03 0.  1.
        -12    1    4    4    0    0 -0.23443180660E+02  0.44895276830E+01  0.15044152758E+02  0.28214625826E+02  0.00000000000E+00 0.  1.
</event>
<event>
 8    1  0.1229038E-006  0.9118800E+02  0.7816164E-02  0.1184000E+00
        -11   -1    0    0    0    0  0.00000000000E+00  0.00000000000E+00  0.45593999997E+02  0.45594000000E+02  0.51100000000E-03 0.  1.
         11   -1    0    0    0    0 -0.00000000000E+00 -0.00000000000E+00 -0.45593999997E+02  0.45594000000E+02  0.51100000000E-03 0. -1.
         23    2    1    2    0    0  0.44408920985E-15  0.00000000000E+00  0.17763568394E-14  0.91188000000E+02  0.91188000000E+02 0.  0.
    9900012    2    3    3    0    0  0.30965299276E+01  0.33574353842E+02 -0.14797114893E+02  0.54367077379E+02  0.39999984500E+02 0.  0.
        -12    1    3    3    0    0 -0.30965299276E+01 -0.33574353842E+02  0.14797114893E+02  0.36820922621E+02  0.00000000000E+00 0.  1.
         11    1    4    4    0    0  0.57794456267E+01 -0.24912445348E+01 -0.89456850936E+00  0.63567715205E+01  0.51100000000E-03 0.  1.
        -11    1    4    4    0    0  0.50202764438E+01  0.30585592580E+02 -0.19882810334E+02  0.36824011135E+02  0.51100000000E-03 0. -1.
        -12    1    4    4    0    0 -0.77031921429E+01  0.54800057976E+01  0.59802639501E+01  0.11186294724E+02  0.00000000000E+00 0.  1.
</event>
<event>
 8    1  0.1229038E-006  0.9118800E+02  0.7816164E-02  0.1184000E+00
        -11   -1    0    0    0    0  0.00000000000E+00  0.00000000000E+00  0.45593999997E+02  0.45594000000E+02  0.51100000000E-03 0.  1.
         11   -1    0    0    0    0 -0.00000000000E+00 -0.00000000000E+00 -0.45593999997E+02  0.45594000000E+02  0.51100000000E-03 0. -1.
         23    2    1    2    0    0  0.00000000000E+00  0.00000000000E+00  0.35527136788E-14  0.91188000000E+02  0.91188000000E+02 0.  0.
    9900012    2    3    3    0    0  0.28342047494E+02 -0.12071627253E+02  0.20168822382E+02  0.54367119552E+02  0.40000080642E+02 0.  0.
        -12    1    3    3    0    0 -0.28342047494E+02  0.12071627253E+02 -0.20168822382E+02  0.36820880448E+02  0.00000000000E+00 0.  1.
         11    1    4    4    0    0  0.86712433700E+01  0.51595993555E+01  0.52557768140E+01  0.11376955536E+02  0.51100000000E-03 0. -1.
        -11    1    4    4    0    0  0.25788926899E+02 -0.20111293268E+02  0.87817750101E+01  0.33862256867E+02  0.51100000000E-03 0.  1.
        -12    1    4    4    0    0 -0.61181227754E+01  0.28800666598E+01  0.61312705582E+01  0.91279071488E+01  0.00000000000E+00 0.  1.
</event>
<event>
 8    1  0.1229038E-006  0.9118800E+02  0.7816164E-02  0.1184000E+00
        -11   -1    0    0    0    0  0.00000000000E+00  0.00000000000E+00  0.45593999997E+02  0.45594000000E+02  0.51100000000E-03 0.  1.
         11   -1    0    0    0    0 -0.00000000000E+00 -0.00000000000E+00 -0.45593999997E+02  0.45594000000E+02  0.51100000000E-03 0. -1.
         23    2    1    2    0    0  0.35527136788E-14  0.35527136788E-14  0.00000000000E+00  0.91188000000E+02  0.91188000000E+02 0.  0.
    9900012    2    3    3    0    0  0.19483428767E+02  0.24158433633E+02 -0.19812763800E+02  0.54367088529E+02  0.40000009920E+02 0.  0.
        -12    1    3    3    0    0 -0.19483428767E+02 -0.24158433633E+02  0.19812763800E+02  0.36820911471E+02  0.00000000000E+00 0.  1.
         11    1    4    4    0    0 -0.36531205490E+01  0.11652669497E+01 -0.15034013290E+02  0.15515305111E+02  0.51100000000E-03 0. -1.
        -11    1    4    4    0    0  0.49368113902E+01  0.11302050380E+02  0.70413048154E+01  0.14201704942E+02  0.51100000000E-03 0.  1.
         12    1    4    4    0    0  0.18199737926E+02  0.11691116304E+02 -0.11820055325E+02  0.24650078477E+02  0.00000000000E+00 0. -1.
</event>
<event>
 8    1  0.1229038E-006  0.9118800E+02  0.7816164E-02  0.1184000E+00
        -11   -1    0    0    0    0  0.00000000000E+00  0.00000000000E+00  0.45593999997E+02  0.45594000000E+02  0.51100000000E-03 0. -1.
         11   -1    0    0    0    0 -0.00000000000E+00 -0.00000000000E+00 -0.45593999997E+02  0.45594000000E+02  0.51100000000E-03 0.  1.
         23    2    1    2    0    0  0.00000000000E+00  0.00000000000E+00  0.00000000000E+00  0.91188000000E+02  0.91188000000E+02 0.  0.
    9900012    2    3    3    0    0  0.25878215889E+02 -0.14225278258E+02  0.21994072496E+02  0.54367084421E+02  0.40000000555E+02 0.  0.
        -12    1    3    3    0    0 -0.25878215889E+02  0.14225278258E+02 -0.21994072496E+02  0.36820915579E+02  0.00000000000E+00 0.  1.
         11    1    4    4    0    0  0.95822314710E+01  0.73124702585E+01  0.14600095037E+02  0.18932885585E+02  0.51100000000E-03 0. -1.
        -11    1    4    4    0    0  0.20325553111E+00 -0.92706544053E+01  0.11514245969E+02  0.14783917154E+02  0.51100000000E-03 0.  1.
        -12    1    4    4    0    0  0.16092728887E+02 -0.12267094111E+02 -0.41202685100E+01  0.20650281682E+02  0.00000000000E+00 0.  1.
</event>
<event>
 8    1  0.1229038E-006  0.9118800E+02  0.7816164E-02  0.1184000E+00
        -11   -1    0    0    0    0  0.00000000000E+00  0.00000000000E+00  0.45593999997E+02  0.45594000000E+02  0.51100000000E-03 0.  1.
         11   -1    0    0    0    0 -0.00000000000E+00 -0.00000000000E+00 -0.45593999997E+02  0.45594000000E+02  0.51100000000E-03 0. -1.
         23    2    1    2    0    0  0.00000000000E+00  0.35527136788E-14  0.00000000000E+00  0.91188000000E+02  0.91188000000E+02 0.  0.
    9900012    2    3    3    0    0  0.12437046420E+02  0.29269952512E+02 -0.18557170871E+02  0.54367097860E+02  0.40000031190E+02 0.  0.
        -12    1    3    3    0    0 -0.12437046420E+02 -0.29269952512E+02  0.18557170871E+02  0.36820902140E+02  0.00000000000E+00 0.  1.
         11    1    4    4    0    0  0.10985857525E+02  0.10855857138E+02  0.17680469286E+01  0.15545568177E+02  0.51100000000E-03 0. -1.
        -11    1    4    4    0    0  0.11884524135E+02  0.57212053384E+01 -0.67500916651E+00  0.13207185244E+02  0.51100000000E-03 0.  1.
        -12    1    4    4    0    0 -0.10433335240E+02  0.12692890036E+02 -0.19650208633E+02  0.25614344438E+02  0.00000000000E+00 0.  1.
</event>
<event>
 8    1  0.1229038E-006  0.9118800E+02  0.7816164E-02  0.1184000E+00
        -11   -1    0    0    0    0  0.00000000000E+00  0.00000000000E+00  0.45593999997E+02  0.45594000000E+02  0.51100000000E-03 0.  1.
         11   -1    0    0    0    0 -0.00000000000E+00 -0.00000000000E+00 -0.45593999997E+02  0.45594000000E+02  0.51100000000E-03 0. -1.
         23    2    1    2    0    0  0.00000000000E+00  0.00000000000E+00  0.00000000000E+00  0.91188000000E+02  0.91188000000E+02 0.  0.
    9900012    2    3    3    0    0  0.29140608003E+02 -0.17375089027E+02 -0.14307715570E+02  0.54367089117E+02  0.40000011259E+02 0.  0.
        -12    1    3    3    0    0 -0.29140608003E+02  0.17375089027E+02  0.14307715570E+02  0.36820910883E+02  0.00000000000E+00 0.  1.
         11    1    4    4    0    0 -0.13072642353E+01 -0.38777292994E+01  0.30531213291E+01  0.51056120507E+01  0.51100000000E-03 0. -1.
        -11    1    4    4    0    0  0.16758775485E+02 -0.17632210352E+02  0.28617874775E+01  0.24493697669E+02  0.51100000000E-03 0.  1.
         12    1    4    4    0    0  0.13689096753E+02  0.41348506246E+01 -0.20222624376E+02  0.24767779397E+02  0.00000000000E+00 0. -1.
</event>
<event>
 8    1  0.1229038E-006  0.9118800E+02  0.7816164E-02  0.1184000E+00
        -11   -1    0    0    0    0  0.00000000000E+00  0.00000000000E+00  0.45593999997E+02  0.45594000000E+02  0.51100000000E-03 0. -1.
         11   -1    0    0    0    0 -0.00000000000E+00 -0.00000000000E+00 -0.45593999997E+02  0.45594000000E+02  0.51100000000E-03 0.  1.
         23    2    1    2    0    0  0.35527136788E-14  0.88817841970E-15  0.00000000000E+00  0.91188000000E+02  0.91188000000E+02 0.  0.
    9900012    2    3    3    0    0 -0.30059905680E+02 -0.64691759409E+01  0.20256656041E+02  0.54367078219E+02  0.39999986416E+02 0.  0.
         12    1    3    3    0    0  0.30059905680E+02  0.64691759409E+01 -0.20256656041E+02  0.36820921781E+02  0.00000000000E+00 0. -1.
         11    1    4    4    0    0 -0.14248478554E+02  0.63745622447E+01  0.15766896508E+02  0.22186689945E+02  0.51100000000E-03 0. -1.
        -11    1    4    4    0    0  0.22599284101E+01  0.31163071341E+01 -0.49651826668E+01  0.62826495803E+01  0.51100000000E-03 0.  1.
         12    1    4    4    0    0 -0.18071355536E+02 -0.15960045320E+02  0.94549421989E+01  0.25897738694E+02  0.00000000000E+00 0. -1.
</event>
<event>
 8    1  0.1229038E-006  0.9118800E+02  0.7816164E-02  0.1184000E+00
        -11   -1    0    0    0    0  0.00000000000E+00  0.00000000000E+00  0.45593999997E+02  0.45594000000E+02  0.51100000000E-03 0.  1.
         11   -1    0    0    0    0 -0.00000000000E+00 -0.00000000000E+00 -0.45593999997E+02  0.45594000000E+02  0.51100000000E-03 0. -1.
         23    2    1    2    0    0  0.71054273576E-14  0.17763568394E-14  0.00000000000E+00  0.91188000000E+02  0.91188000000E+02 0.  0.
    9900012    2    3    3    0    0  0.33694516881E+02  0.90758003750E+01  0.11751283317E+02  0.54367037494E+02  0.39999893574E+02 0.  0.
         12    1    3    3    0    0 -0.33694516881E+02 -0.90758003750E+01 -0.11751283317E+02  0.36820962506E+02  0.00000000000E+00 0. -1.
         11    1    4    4    0    0  0.10863943550E+02  0.22844962283E+01 -0.31168465160E+01  0.11530781627E+02  0.51100000000E-03 0. -1.
        -11    1    4    4    0    0  0.89657894367E+01 -0.85575387940E+01  0.18063829506E+02  0.21907048799E+02  0.51100000000E-03 0.  1.
        -12    1    4    4    0    0  0.13864783894E+02  0.15348842941E+02 -0.31956996724E+01  0.20929207067E+02  0.00000000000E+00 0.  1.
</event>
<event>
 8    1  0.1229038E-006  0.9118800E+02  0.7816164E-02  0.1184000E+00
        -11   -1    0    0    0    0  0.00000000000E+00  0.00000000000E+00  0.45593999997E+02  0.45594000000E+02  0.51100000000E-03 0.  1.
         11   -1    0    0    0    0 -0.00000000000E+00 -0.00000000000E+00 -0.45593999997E+02  0.45594000000E+02  0.51100000000E-03 0. -1.
         23    2    1    2    0    0 -0.88817841970E-15  0.71054273576E-14  0.88817841970E-15  0.91188000000E+02  0.91188000000E+02 0.  0.
    9900012    2    3    3    0    0  0.27202756661E+01 -0.36340758675E+02 -0.52658610924E+01  0.54367082931E+02  0.39999997158E+02 0.  0.
        -12    1    3    3    0    0 -0.27202756661E+01  0.36340758675E+02  0.52658610924E+01  0.36820917069E+02  0.00000000000E+00 0.  1.
         11    1    4    4    0    0 -0.77429270108E+01 -0.11879588578E+02  0.95877413041E+01  0.17117310742E+02  0.51100000000E-03 0. -1.
        -11    1    4    4    0    0 -0.35008625181E+01  0.15963044137E+01  0.59509318380E+00  0.38933741549E+01  0.51100000000E-03 0.  1.
         12    1    4    4    0    0  0.13964065195E+02 -0.26057474511E+02 -0.15448695580E+02  0.33356398034E+02  0.00000000000E+00 0. -1.
</event>
<event>
 8    1  0.1229038E-006  0.9118800E+02  0.7816164E-02  0.1184000E+00
        -11   -1    0    0    0    0  0.00000000000E+00  0.00000000000E+00  0.45593999997E+02  0.45594000000E+02  0.51100000000E-03 0.  1.
         11   -1    0    0    0    0 -0.00000000000E+00 -0.00000000000E+00 -0.45593999997E+02  0.45594000000E+02  0.51100000000E-03 0. -1.
         23    2    1    2    0    0 -0.35527136788E-14  0.00000000000E+00  0.00000000000E+00  0.91188000000E+02  0.91188000000E+02 0.  0.
    9900012    2    3    3    0    0 -0.23796416914E+02 -0.20842027149E+02  0.18844639021E+02  0.54367082393E+02  0.39999995930E+02 0.  0.
        -12    1    3    3    0    0  0.23796416914E+02  0.20842027149E+02 -0.18844639021E+02  0.36820917607E+02  0.00000000000E+00 0.  1.
         11    1    4    4    0    0 -0.12895006775E+02  0.34448322032E+01  0.10908428405E+02  0.17237803780E+02  0.51100000000E-03 0. -1.
        -11    1    4    4    0    0 -0.54291701397E+01 -0.12374183499E+02 -0.86073347544E+01  0.16021314475E+02  0.51100000000E-03 0.  1.
        -12    1    4    4    0    0 -0.54722399992E+01 -0.11912675853E+02  0.16543545371E+02  0.21107964137E+02  0.00000000000E+00 0.  1.
</event>
<event>
 8    1  0.1229038E-006  0.9118800E+02  0.7816164E-02  0.1184000E+00
        -11   -1    0    0    0    0  0.00000000000E+00  0.00000000000E+00  0.45593999997E+02  0.45594000000E+02  0.51100000000E-03 0.  1.
         11   -1    0    0    0    0 -0.00000000000E+00 -0.00000000000E+00 -0.45593999997E+02  0.45594000000E+02  0.51100000000E-03 0. -1.
         23    2    1    2    0    0  0.00000000000E+00  0.35527136788E-14  0.00000000000E+00  0.91188000000E+02  0.91188000000E+02 0.  0.
    9900012    2    3    3    0    0 -0.23680617280E+02  0.27443980788E+02  0.64680871688E+01  0.54367083826E+02  0.39999999199E+02 0.  0.
         12    1    3    3    0    0  0.23680617280E+02 -0.27443980788E+02 -0.64680871688E+01  0.36820916174E+02  0.00000000000E+00 0. -1.
         11    1    4    4    0    0 -0.16976943420E+02  0.31330755934E+02  0.44190222954E+01  0.35907668173E+02  0.51100000000E-03 0. -1.
        -11    1    4    4    0    0 -0.11070668679E+02  0.17541257155E+01  0.14095461868E+01  0.11297056375E+02  0.51100000000E-03 0.  1.
         12    1    4    4    0    0  0.43669948187E+01 -0.56409008619E+01  0.63951868652E+00  0.71623592783E+01  0.00000000000E+00 0. -1.
</event>
<event>
 8    1  0.1229038E-006  0.9118800E+02  0.7816164E-02  0.1184000E+00
        -11   -1    0    0    0    0  0.00000000000E+00  0.00000000000E+00  0.45593999997E+02  0.45594000000E+02  0.51100000000E-03 0. -1.
         11   -1    0    0    0    0 -0.00000000000E+00 -0.00000000000E+00 -0.45593999997E+02  0.45594000000E+02  0.51100000000E-03 0.  1.
         23    2    1    2    0    0  0.00000000000E+00 -0.15543122345E-14  0.00000000000E+00  0.91188000000E+02  0.91188000000E+02 0.  0.
    9900012    2    3    3    0    0  0.23273502829E+02  0.13617777154E+01  0.28500317770E+02  0.54367102599E+02  0.40000041994E+02 0.  0.
        -12    1    3    3    0    0 -0.23273502829E+02 -0.13617777154E+01 -0.28500317770E+02  0.36820897401E+02  0.00000000000E+00 0.  1.
         11    1    4    4    0    0  0.14355144087E+02 -0.16964383035E+02  0.74761660911E+01  0.23446823094E+02  0.51100000000E-03 0. -1.
        -11    1    4    4    0    0 -0.15689500503E+01  0.68839763689E+01  0.53215913270E+01  0.88413839087E+01  0.51100000000E-03 0.  1.
         12    1    4    4    0    0  0.10487308792E+02  0.11442184382E+02  0.15702560351E+02  0.22078895596E+02  0.00000000000E+00 0. -1.
</event>
<event>
 8    1  0.1229038E-006  0.9118800E+02  0.7816164E-02  0.1184000E+00
        -11   -1    0    0    0    0  0.00000000000E+00  0.00000000000E+00  0.45593999997E+02  0.45594000000E+02  0.51100000000E-03 0. -1.
         11   -1    0    0    0    0 -0.00000000000E+00 -0.00000000000E+00 -0.45593999997E+02  0.45594000000E+02  0.51100000000E-03 0.  1.
         23    2    1    2    0    0  0.00000000000E+00  0.35527136788E-14 -0.35527136788E-14  0.91188000000E+02  0.91188000000E+02 0.  0.
    9900012    2    3    3    0    0  0.28774312579E+01 -0.18812860061E+02  0.31521053483E+02  0.54367080308E+02  0.39999991177E+02 0.  0.
        -12    1    3    3    0    0 -0.28774312579E+01  0.18812860061E+02 -0.31521053483E+02  0.36820919692E+02  0.00000000000E+00 0.  1.
         11    1    4    4    0    0  0.79484612992E+00 -0.94536867167E+01 -0.65637161873E+01  0.11536305447E+02  0.51100000000E-03 0. -1.
        -11    1    4    4    0    0  0.34739395907E+01  0.26471462007E+01  0.23435317518E+02  0.23838828552E+02  0.51100000000E-03 0.  1.
         12    1    4    4    0    0 -0.13913544627E+01 -0.12006319544E+02  0.14649452153E+02  0.18991946309E+02  0.00000000000E+00 0. -1.
</event>
<event>
 8    1  0.1229038E-006  0.9118800E+02  0.7816164E-02  0.1184000E+00
        -11   -1    0    0    0    0  0.00000000000E+00  0.00000000000E+00  0.45593999997E+02  0.45594000000E+02  0.51100000000E-03 0.  1.
         11   -1    0    0    0    0 -0.00000000000E+00 -0.00000000000E+00 -0.45593999997E+02  0.45594000000E+02  0.51100000000E-03 0. -1.
         23    2    1    2    0    0  0.35527136788E-14  0.00000000000E+00  0.00000000000E+00  0.91188000000E+02  0.91188000000E+02 0.  0.
    9900012    2    3    3    0    0  0.17560156056E+02 -0.87579665051E+01 -0.31156358498E+02  0.54367085660E+02  0.40000003379E+02 0.  0.
        -12    1    3    3    0    0 -0.17560156056E+02  0.87579665051E+01  0.31156358498E+02  0.36820914340E+02  0.00000000000E+00 0.  1.
         11    1    4    4    0    0  0.19709940888E+02 -0.13494174408E+02 -0.28769326632E+02  0.37393163384E+02  0.51100000000E-03 0. -1.
        -11    1    4    4    0    0 -0.89689021092E+01  0.40313742521E+01 -0.23854472223E+01  0.10118475286E+02  0.51100000000E-03 0.  1.
         12    1    4    4    0    0  0.68191172773E+01  0.70483365079E+00 -0.15846434177E-02  0.68554469897E+01  0.00000000000E+00 0. -1.
</event>
<event>
 8    1  0.1229038E-006  0.9118800E+02  0.7816164E-02  0.1184000E+00
        -11   -1    0    0    0    0  0.00000000000E+00  0.00000000000E+00  0.45593999997E+02  0.45594000000E+02  0.51100000000E-03 0.  1.
         11   -1    0    0    0    0 -0.00000000000E+00 -0.00000000000E+00 -0.45593999997E+02  0.45594000000E+02  0.51100000000E-03 0. -1.
         23    2    1    2    0    0  0.00000000000E+00 -0.35527136788E-14 -0.88817841970E-15  0.91188000000E+02  0.91188000000E+02 0.  0.
    9900012    2    3    3    0    0 -0.19576670573E+02 -0.30451049627E+02 -0.67280297008E+01  0.54367097815E+02  0.40000031088E+02 0.  0.
        -12    1    3    3    0    0  0.19576670573E+02  0.30451049627E+02  0.67280297008E+01  0.36820902185E+02  0.00000000000E+00 0.  1.
         11    1    4    4    0    0 -0.27076902392E+01 -0.29869994220E+02  0.52373084323E+00  0.29997040444E+02  0.51100000000E-03 0. -1.
        -11    1    4    4    0    0 -0.31978005259E+01  0.61306514612E+01  0.10985185555E+01  0.70012540891E+01  0.51100000000E-03 0.  1.
         12    1    4    4    0    0 -0.13671179807E+02 -0.67117068681E+01 -0.83502790995E+01  0.17368803282E+02  0.00000000000E+00 0. -1.
</event>
<event>
 8    1  0.1229038E-006  0.9118800E+02  0.7816164E-02  0.1184000E+00
        -11   -1    0    0    0    0  0.00000000000E+00  0.00000000000E+00  0.45593999997E+02  0.45594000000E+02  0.51100000000E-03 0. -1.
         11   -1    0    0    0    0 -0.00000000000E+00 -0.00000000000E+00 -0.45593999997E+02  0.45594000000E+02  0.51100000000E-03 0.  1.
         23    2    1    2    0    0 -0.35527136788E-14  0.35527136788E-14 -0.26645352591E-14  0.91188000000E+02  0.91188000000E+02 0.  0.
    9900012    2    3    3    0    0 -0.21224760862E+02  0.29734898660E+02  0.45952559749E+01  0.54367203574E+02  0.40000272187E+02 0.  0.
         12    1    3    3    0    0  0.21224760862E+02 -0.29734898660E+02 -0.45952559749E+01  0.36820796426E+02  0.00000000000E+00 0. -1.
         11    1    4    4    0    0 -0.14917817050E+02  0.16928108011E+02  0.18966385912E+02  0.29475852849E+02  0.51100000000E-03 0. -1.
        -11    1    4    4    0    0 -0.98813164482E+01  0.52115636415E+01 -0.11466406725E+02  0.16008725551E+02  0.51100000000E-03 0.  1.
         12    1    4    4    0    0  0.35743726364E+01  0.75952270074E+01 -0.29047232118E+01  0.88826251736E+01  0.00000000000E+00 0. -1.
</event>
<event>
 8    1  0.1229038E-006  0.9118800E+02  0.7816164E-02  0.1184000E+00
        -11   -1    0    0    0    0  0.00000000000E+00  0.00000000000E+00  0.45593999997E+02  0.45594000000E+02  0.51100000000E-03 0.  1.
         11   -1    0    0    0    0 -0.00000000000E+00 -0.00000000000E+00 -0.45593999997E+02  0.45594000000E+02  0.51100000000E-03 0. -1.
         23    2    1    2    0    0  0.00000000000E+00  0.00000000000E+00 -0.35527136788E-14  0.91188000000E+02  0.91188000000E+02 0.  0.
    9900012    2    3    3    0    0  0.20319215132E+02  0.39145554590E+01  0.30456291699E+02  0.54367082683E+02  0.39999996592E+02 0.  0.
         12    1    3    3    0    0 -0.20319215132E+02 -0.39145554590E+01 -0.30456291699E+02  0.36820917317E+02  0.00000000000E+00 0. -1.
         11    1    4    4    0    0  0.25261930148E+02  0.80851053189E+01  0.10753699048E+02  0.28621252353E+02  0.51100000000E-03 0.  1.
        -11    1    4    4    0    0 -0.60814676207E+01  0.79431720873E+00  0.19720305457E+02  0.20652012876E+02  0.51100000000E-03 0. -1.
        -12    1    4    4    0    0  0.11387526052E+01 -0.49648670686E+01 -0.17712805582E-01  0.50938174534E+01  0.00000000000E+00 0.  1.
</event>
<event>
 8    1  0.1229038E-006  0.9118800E+02  0.7816164E-02  0.1184000E+00
        -11   -1    0    0    0    0  0.00000000000E+00  0.00000000000E+00  0.45593999997E+02  0.45594000000E+02  0.51100000000E-03 0. -1.
         11   -1    0    0    0    0 -0.00000000000E+00 -0.00000000000E+00 -0.45593999997E+02  0.45594000000E+02  0.51100000000E-03 0.  1.
         23    2    1    2    0    0  0.00000000000E+00 -0.35527136788E-14  0.71054273576E-14  0.91188000000E+02  0.91188000000E+02 0.  0.
    9900012    2    3    3    0    0  0.13966009814E+02  0.17611909990E+02  0.29164224806E+02  0.54367071004E+02  0.39999969967E+02 0.  0.
        -12    1    3    3    0    0 -0.13966009814E+02 -0.17611909990E+02 -0.29164224806E+02  0.36820928996E+02  0.00000000000E+00 0.  1.
         11    1    4    4    0    0  0.40566420966E+01  0.24802923280E+01  0.26353910697E+02  0.26779410084E+02  0.51100000000E-03 0. -1.
        -11    1    4    4    0    0 -0.37941108193E+01 -0.25352816507E+01  0.25504718870E+01  0.52276033768E+01  0.51100000000E-03 0.  1.
        -12    1    4    4    0    0  0.13703478537E+02  0.17666899313E+02  0.25984222165E+00  0.22360057543E+02  0.00000000000E+00 0.  1.
</event>
<event>
 8    1  0.1229038E-006  0.9118800E+02  0.7816164E-02  0.1184000E+00
        -11   -1    0    0    0    0  0.00000000000E+00  0.00000000000E+00  0.45593999997E+02  0.45594000000E+02  0.51100000000E-03 0.  1.
         11   -1    0    0    0    0 -0.00000000000E+00 -0.00000000000E+00 -0.45593999997E+02  0.45594000000E+02  0.51100000000E-03 0. -1.
         23    2    1    2    0    0  0.00000000000E+00  0.00000000000E+00 -0.17763568394E-14  0.91188000000E+02  0.91188000000E+02 0.  0.
    9900012    2    3    3    0    0 -0.11371013783E+02 -0.32995505464E+02 -0.11737853514E+02  0.54367074694E+02  0.39999978380E+02 0.  0.
        -12    1    3    3    0    0  0.11371013783E+02  0.32995505464E+02  0.11737853514E+02  0.36820925306E+02  0.00000000000E+00 0.  1.
         11    1    4    4    0    0 -0.95186553304E+01 -0.44589725150E+01 -0.31767996308E+01  0.10980860228E+02  0.51100000000E-03 0. -1.
        -11    1    4    4    0    0 -0.12846619213E+02 -0.14711224834E+02  0.60671821216E+01  0.20451563766E+02  0.51100000000E-03 0.  1.
         12    1    4    4    0    0  0.10994260760E+02 -0.13825308115E+02 -0.14628236005E+02  0.22934650701E+02  0.00000000000E+00 0. -1.
</event>
<event>
 8    1  0.1229038E-006  0.9118800E+02  0.7816164E-02  0.1184000E+00
        -11   -1    0    0    0    0  0.00000000000E+00  0.00000000000E+00  0.45593999997E+02  0.45594000000E+02  0.51100000000E-03 0. -1.
         11   -1    0    0    0    0 -0.00000000000E+00 -0.00000000000E+00 -0.45593999997E+02  0.45594000000E+02  0.51100000000E-03 0.  1.
         23    2    1    2    0    0  0.17763568394E-14  0.00000000000E+00 -0.35527136788E-14  0.91188000000E+02  0.91188000000E+02 0.  0.
    9900012    2    3    3    0    0  0.11079621317E+02 -0.18426586704E+02 -0.29891193924E+02  0.54367074152E+02  0.39999977144E+02 0.  0.
         12    1    3    3    0    0 -0.11079621317E+02  0.18426586704E+02  0.29891193924E+02  0.36820925848E+02  0.00000000000E+00 0. -1.
         11    1    4    4    0    0  0.60544930748E+01 -0.12591223929E+02 -0.39964913205E+01  0.14531612077E+02  0.51100000000E-03 0. -1.
        -11    1    4    4    0    0  0.78282329635E+01 -0.17018539613E+02 -0.15552020148E+02  0.24347017330E+02  0.51100000000E-03 0.  1.
         12    1    4    4    0    0 -0.28031047211E+01  0.11183176838E+02 -0.10342682455E+02  0.15488444746E+02  0.00000000000E+00 0. -1.
</event>
<event>
 8    1  0.1229038E-006  0.9118800E+02  0.7816164E-02  0.1184000E+00
        -11   -1    0    0    0    0  0.00000000000E+00  0.00000000000E+00  0.45593999997E+02  0.45594000000E+02  0.51100000000E-03 0.  1.
         11   -1    0    0    0    0 -0.00000000000E+00 -0.00000000000E+00 -0.45593999997E+02  0.45594000000E+02  0.51100000000E-03 0. -1.
         23    2    1    2    0    0 -0.35527136788E-14 -0.35527136788E-14  0.35527136788E-14  0.91188000000E+02  0.91188000000E+02 0.  0.
    9900012    2    3    3    0    0 -0.22358216715E+02 -0.23352136544E+02  0.17622943832E+02  0.54367078159E+02  0.39999986280E+02 0.  0.
         12    1    3    3    0    0  0.22358216715E+02  0.23352136544E+02 -0.17622943832E+02  0.36820921841E+02  0.00000000000E+00 0. -1.
         11    1    4    4    0    0 -0.56623322700E+01 -0.15988799632E+01  0.68037743805E+01  0.89949858229E+01  0.51100000000E-03 0. -1.
        -11    1    4    4    0    0 -0.53191121927E+01 -0.13518041978E+02  0.22717469805E+02  0.26965048637E+02  0.51100000000E-03 0.  1.
         12    1    4    4    0    0 -0.11376772253E+02 -0.82352146036E+01 -0.11898300353E+02  0.18407043699E+02  0.00000000000E+00 0. -1.
</event>
<event>
 8    1  0.1229038E-006  0.9118800E+02  0.7816164E-02  0.1184000E+00
        -11   -1    0    0    0    0  0.00000000000E+00  0.00000000000E+00  0.45593999997E+02  0.45594000000E+02  0.51100000000E-03 0.  1.
         11   -1    0    0    0    0 -0.00000000000E+00 -0.00000000000E+00 -0.45593999997E+02  0.45594000000E+02  0.51100000000E-03 0. -1.
         23    2    1    2    0    0  0.71054273576E-14 -0.35527136788E-14  0.00000000000E+00  0.91188000000E+02  0.91188000000E+02 0.  0.
    9900012    2    3    3    0    0 -0.25528692481E+02  0.17679659957E+02  0.19786228146E+02  0.54367090991E+02  0.40000015532E+02 0.  0.
         12    1    3    3    0    0  0.25528692481E+02 -0.17679659957E+02 -0.19786228146E+02  0.36820909009E+02  0.00000000000E+00 0. -1.
         11    1    4    4    0    0 -0.76024989919E+00  0.55977789679E+01 -0.15167256140E+01  0.58492363717E+01  0.51100000000E-03 0. -1.
        -11    1    4    4    0    0  0.25042269080E+01  0.99734931729E+00  0.18778122813E+02  0.18970602382E+02  0.51100000000E-03 0.  1.
         12    1    4    4    0    0 -0.27272669490E+02  0.11084531672E+02  0.25248309471E+01  0.29547252238E+02  0.00000000000E+00 0. -1.
</event>
<event>
 8    1  0.1229038E-006  0.9118800E+02  0.7816164E-02  0.1184000E+00
        -11   -1    0    0    0    0  0.00000000000E+00  0.00000000000E+00  0.45593999997E+02  0.45594000000E+02  0.51100000000E-03 0. -1.
         11   -1    0    0    0    0 -0.00000000000E+00 -0.00000000000E+00 -0.45593999997E+02  0.45594000000E+02  0.51100000000E-03 0.  1.
         23    2    1    2    0    0  0.44408920985E-15 -0.17763568394E-14 -0.71054273576E-14  0.91188000000E+02  0.91188000000E+02 0.  0.
    9900012    2    3    3    0    0 -0.35118315158E+01  0.81412719219E+01  0.35737478041E+02  0.54367073805E+02  0.39999976354E+02 0.  0.
        -12    1    3    3    0    0  0.35118315158E+01 -0.81412719219E+01 -0.35737478041E+02  0.36820926195E+02  0.00000000000E+00 0.  1.
         11    1    4    4    0    0 -0.44379662044E+01  0.12310406907E+02 -0.18182430380E+01  0.13211649037E+02  0.51100000000E-03 0. -1.
        -11    1    4    4    0    0 -0.34194558654E+01 -0.69006699877E+00  0.31681680650E+00  0.35027480681E+01  0.51100000000E-03 0.  1.
         12    1    4    4    0    0  0.43455905541E+01 -0.34790679867E+01  0.37238904272E+02  0.37652676701E+02  0.00000000000E+00 0. -1.
</event>
<event>
 8    1  0.1229038E-006  0.9118800E+02  0.7816164E-02  0.1184000E+00
        -11   -1    0    0    0    0  0.00000000000E+00  0.00000000000E+00  0.45593999997E+02  0.45594000000E+02  0.51100000000E-03 0. -1.
         11   -1    0    0    0    0 -0.00000000000E+00 -0.00000000000E+00 -0.45593999997E+02  0.45594000000E+02  0.51100000000E-03 0.  1.
         23    2    1    2    0    0  0.00000000000E+00 -0.88817841970E-15  0.00000000000E+00  0.91188000000E+02  0.91188000000E+02 0.  0.
    9900012    2    3    3    0    0  0.16630868688E+02  0.56318767244E+01  0.32364731351E+02  0.54367086593E+02  0.40000005505E+02 0.  0.
        -12    1    3    3    0    0 -0.16630868688E+02 -0.56318767244E+01 -0.32364731351E+02  0.36820913407E+02  0.00000000000E+00 0.  1.
         11    1    4    4    0    0  0.14114523024E+02 -0.10585063608E+02  0.17793476715E+02  0.25057357116E+02  0.51100000000E-03 0.  1.
        -11    1    4    4    0    0  0.90152205280E+01  0.43330349534E+01  0.11827179808E+02  0.15489724838E+02  0.51100000000E-03 0. -1.
        -12    1    4    4    0    0 -0.64988748643E+01  0.11883905379E+02  0.27440748273E+01  0.13820004638E+02  0.00000000000E+00 0.  1.
</event>
<event>
 8    1  0.1229038E-006  0.9118800E+02  0.7816164E-02  0.1184000E+00
        -11   -1    0    0    0    0  0.00000000000E+00  0.00000000000E+00  0.45593999997E+02  0.45594000000E+02  0.51100000000E-03 0. -1.
         11   -1    0    0    0    0 -0.00000000000E+00 -0.00000000000E+00 -0.45593999997E+02  0.45594000000E+02  0.51100000000E-03 0.  1.
         23    2    1    2    0    0  0.00000000000E+00  0.00000000000E+00  0.00000000000E+00  0.91188000000E+02  0.91188000000E+02 0.  0.
    9900012    2    3    3    0    0  0.44542745733E+01 -0.34684249422E+02 -0.11530059366E+02  0.54367082183E+02  0.39999995452E+02 0.  0.
         12    1    3    3    0    0 -0.44542745733E+01  0.34684249422E+02  0.11530059366E+02  0.36820917817E+02  0.00000000000E+00 0. -1.
         11    1    4    4    0    0 -0.15920372631E+01 -0.30241048225E+01  0.48574064644E+01  0.59392078972E+01  0.51100000000E-03 0. -1.
        -11    1    4    4    0    0  0.13526506316E+02 -0.10230145234E+02 -0.19129558525E+02  0.25564863666E+02  0.51100000000E-03 0.  1.
         12    1    4    4    0    0 -0.74801944796E+01 -0.21429999366E+02  0.27420926944E+01  0.22863010620E+02  0.00000000000E+00 0. -1.
</event>
<event>
 8    1  0.1229038E-006  0.9118800E+02  0.7816164E-02  0.1184000E+00
        -11   -1    0    0    0    0  0.00000000000E+00  0.00000000000E+00  0.45593999997E+02  0.45594000000E+02  0.51100000000E-03 0.  1.
         11   -1    0    0    0    0 -0.00000000000E+00 -0.00000000000E+00 -0.45593999997E+02  0.45594000000E+02  0.51100000000E-03 0. -1.
         23    2    1    2    0    0  0.00000000000E+00  0.00000000000E+00  0.00000000000E+00  0.91188000000E+02  0.91188000000E+02 0.  0.
    9900012    2    3    3    0    0  0.85217888291E+01  0.21548596812E+02 -0.28614980092E+02  0.54367082099E+02  0.39999995261E+02 0.  0.
        -12    1    3    3    0    0 -0.85217888291E+01 -0.21548596812E+02  0.28614980092E+02  0.36820917901E+02  0.00000000000E+00 0.  1.
         11    1    4    4    0    0  0.67573461420E+00  0.29726903858E+02 -0.21478297866E+02  0.36680549474E+02  0.51100000000E-03 0. -1.
        -11    1    4    4    0    0  0.56571100676E+01 -0.47817635919E+01  0.20200842840E+01  0.76778185796E+01  0.51100000000E-03 0.  1.
         12    1    4    4    0    0  0.21889441473E+01 -0.33965434538E+01 -0.91567665102E+01  0.10008714045E+02  0.00000000000E+00 0. -1.
</event>
<event>
 8    1  0.1229038E-006  0.9118800E+02  0.7816164E-02  0.1184000E+00
        -11   -1    0    0    0    0  0.00000000000E+00  0.00000000000E+00  0.45593999997E+02  0.45594000000E+02  0.51100000000E-03 0. -1.
         11   -1    0    0    0    0 -0.00000000000E+00 -0.00000000000E+00 -0.45593999997E+02  0.45594000000E+02  0.51100000000E-03 0.  1.
         23    2    1    2    0    0 -0.35527136788E-14  0.00000000000E+00  0.35527136788E-14  0.91188000000E+02  0.91188000000E+02 0.  0.
    9900012    2    3    3    0    0  0.29673437379E+02 -0.87084270462E+01 -0.19985755705E+02  0.54367081780E+02  0.39999994533E+02 0.  0.
         12    1    3    3    0    0 -0.29673437379E+02  0.87084270462E+01  0.19985755705E+02  0.36820918220E+02  0.00000000000E+00 0. -1.
         11    1    4    4    0    0  0.20124877649E+02 -0.24311347158E+01 -0.18683973871E+02  0.27568315079E+02  0.51100000000E-03 0. -1.
        -11    1    4    4    0    0  0.35598347069E+01  0.89401677537E+01  0.26370738822E+01  0.99776340645E+01  0.51100000000E-03 0.  1.
         12    1    4    4    0    0  0.59887250228E+01 -0.15217460084E+02 -0.39388557154E+01  0.16821132636E+02  0.00000000000E+00 0. -1.
</event>
<event>
 8    1  0.1229038E-006  0.9118800E+02  0.7816164E-02  0.1184000E+00
        -11   -1    0    0    0    0  0.00000000000E+00  0.00000000000E+00  0.45593999997E+02  0.45594000000E+02  0.51100000000E-03 0. -1.
         11   -1    0    0    0    0 -0.00000000000E+00 -0.00000000000E+00 -0.45593999997E+02  0.45594000000E+02  0.51100000000E-03 0.  1.
         23    2    1    2    0    0 -0.71054273576E-14  0.00000000000E+00  0.44408920985E-15  0.91188000000E+02  0.91188000000E+02 0.  0.
    9900012    2    3    3    0    0  0.36157707515E+02  0.62786232912E+01  0.29966620257E+01  0.54367069723E+02  0.39999967047E+02 0.  0.
         12    1    3    3    0    0 -0.36157707515E+02 -0.62786232912E+01 -0.29966620257E+01  0.36820930277E+02  0.00000000000E+00 0. -1.
         11    1    4    4    0    0  0.13378251987E+02  0.87595975593E+01  0.21129522354E+01  0.16129871142E+02  0.51100000000E-03 0. -1.
        -11    1    4    4    0    0  0.25201421724E+02  0.59082266933E+01 -0.66270084221E+01  0.26719581592E+02  0.51100000000E-03 0.  1.
         12    1    4    4    0    0 -0.24219661962E+01 -0.83892009615E+01  0.75107182125E+01  0.11517616989E+02  0.00000000000E+00 0. -1.
</event>
<event>
 8    1  0.1229038E-006  0.9118800E+02  0.7816164E-02  0.1184000E+00
        -11   -1    0    0    0    0  0.00000000000E+00  0.00000000000E+00  0.45593999997E+02  0.45594000000E+02  0.51100000000E-03 0.  1.
         11   -1    0    0    0    0 -0.00000000000E+00 -0.00000000000E+00 -0.45593999997E+02  0.45594000000E+02  0.51100000000E-03 0. -1.
         23    2    1    2    0    0  0.00000000000E+00  0.00000000000E+00 -0.17763568394E-14  0.91188000000E+02  0.91188000000E+02 0.  0.
    9900012    2    3    3    0    0 -0.16514619679E+02 -0.32161946510E+02  0.69759184667E+01  0.54366988269E+02  0.39999781356E+02 0.  0.
        -12    1    3    3    0    0  0.16514619679E+02  0.32161946510E+02 -0.69759184667E+01  0.36821011731E+02  0.00000000000E+00 0.  1.
         11    1    4    4    0    0 -0.82447598164E+01  0.97541747699E+00 -0.59576318817E+01  0.10218653609E+02  0.51100000000E-03 0. -1.
        -11    1    4    4    0    0 -0.15249433157E+01 -0.52696197062E+01 -0.72447564261E+01  0.90874000627E+01  0.51100000000E-03 0.  1.
        -12    1    4    4    0    0 -0.67449165473E+01 -0.27867744281E+02  0.20178306774E+02  0.35060934597E+02  0.00000000000E+00 0.  1.
</event>
<event>
 8    1  0.1229038E-006  0.9118800E+02  0.7816164E-02  0.1184000E+00
        -11   -1    0    0    0    0  0.00000000000E+00  0.00000000000E+00  0.45593999997E+02  0.45594000000E+02  0.51100000000E-03 0. -1.
         11   -1    0    0    0    0 -0.00000000000E+00 -0.00000000000E+00 -0.45593999997E+02  0.45594000000E+02  0.51100000000E-03 0.  1.
         23    2    1    2    0    0  0.35527136788E-14  0.00000000000E+00 -0.35527136788E-14  0.91188000000E+02  0.91188000000E+02 0.  0.
    9900012    2    3    3    0    0  0.24231408480E+02 -0.21509219052E+02  0.17492067113E+02  0.54367081040E+02  0.39999992847E+02 0.  0.
         12    1    3    3    0    0 -0.24231408480E+02  0.21509219052E+02 -0.17492067113E+02  0.36820918960E+02  0.00000000000E+00 0. -1.
         11    1    4    4    0    0  0.90163377207E+01  0.27488564823E+01  0.21285406033E+02  0.23279155228E+02  0.51100000000E-03 0. -1.
        -11    1    4    4    0    0  0.10597341684E+02 -0.10527625013E+02  0.27564142836E+01  0.15189876864E+02  0.51100000000E-03 0.  1.
         12    1    4    4    0    0  0.46177290757E+01 -0.13730450521E+02 -0.65497532042E+01  0.15898048949E+02  0.00000000000E+00 0. -1.
</event>
<event>
 8    1  0.1229038E-006  0.9118800E+02  0.7816164E-02  0.1184000E+00
        -11   -1    0    0    0    0  0.00000000000E+00  0.00000000000E+00  0.45593999997E+02  0.45594000000E+02  0.51100000000E-03 0.  1.
         11   -1    0    0    0    0 -0.00000000000E+00 -0.00000000000E+00 -0.45593999997E+02  0.45594000000E+02  0.51100000000E-03 0. -1.
         23    2    1    2    0    0  0.00000000000E+00  0.00000000000E+00  0.00000000000E+00  0.91188000000E+02  0.91188000000E+02 0.  0.
    9900012    2    3    3    0    0  0.24206248000E+02  0.26388652179E+02  0.85718451570E+01  0.54367082908E+02  0.39999997106E+02 0.  0.
        -12    1    3    3    0    0 -0.24206248000E+02 -0.26388652179E+02 -0.85718451570E+01  0.36820917092E+02  0.00000000000E+00 0.  1.
         11    1    4    4    0    0  0.77797158064E+01  0.26646931763E+02  0.70145500334E+01  0.28631920349E+02  0.51100000000E-03 0. -1.
        -11    1    4    4    0    0  0.68175033287E+01  0.89652723866E+01  0.44414145811E+01  0.12107048540E+02  0.51100000000E-03 0.  1.
         12    1    4    4    0    0  0.96090288654E+01 -0.92235519710E+01 -0.28841194575E+01  0.13628114020E+02  0.00000000000E+00 0. -1.
</event>
<event>
 8    1  0.1229038E-006  0.9118800E+02  0.7816164E-02  0.1184000E+00
        -11   -1    0    0    0    0  0.00000000000E+00  0.00000000000E+00  0.45593999997E+02  0.45594000000E+02  0.51100000000E-03 0.  1.
         11   -1    0    0    0    0 -0.00000000000E+00 -0.00000000000E+00 -0.45593999997E+02  0.45594000000E+02  0.51100000000E-03 0. -1.
         23    2    1    2    0    0 -0.35527136788E-14 -0.71054273576E-14 -0.17763568394E-14  0.91188000000E+02  0.91188000000E+02 0.  0.
    9900012    2    3    3    0    0  0.17472728424E+02  0.29888896220E+02  0.12535695070E+02  0.54367000466E+02  0.39999809161E+02 0.  0.
         12    1    3    3    0    0 -0.17472728424E+02 -0.29888896220E+02 -0.12535695070E+02  0.36820999534E+02  0.00000000000E+00 0. -1.
         11    1    4    4    0    0 -0.61232903349E+01  0.28369785448E+01  0.12214872860E+01  0.68582186637E+01  0.51100000000E-03 0. -1.
        -11    1    4    4    0    0  0.71238270785E+01  0.84971795271E+01 -0.98997485616E+01  0.14864588592E+02  0.51100000000E-03 0.  1.
        -12    1    4    4    0    0  0.16472191680E+02  0.18554738148E+02  0.21213956346E+02  0.32644193210E+02  0.00000000000E+00 0.  1.
</event>
<event>
 8    1  0.1229038E-006  0.9118800E+02  0.7816164E-02  0.1184000E+00
        -11   -1    0    0    0    0  0.00000000000E+00  0.00000000000E+00  0.45593999997E+02  0.45594000000E+02  0.51100000000E-03 0.  1.
         11   -1    0    0    0    0 -0.00000000000E+00 -0.00000000000E+00 -0.45593999997E+02  0.45594000000E+02  0.51100000000E-03 0. -1.
         23    2    1    2    0    0  0.00000000000E+00  0.00000000000E+00  0.00000000000E+00  0.91188000000E+02  0.91188000000E+02 0.  0.
    9900012    2    3    3    0    0  0.32302772747E+02 -0.91506117056E+01 -0.15118781960E+02  0.54367076740E+02  0.39999983045E+02 0.  0.
        -12    1    3    3    0    0 -0.32302772747E+02  0.91506117056E+01  0.15118781960E+02  0.36820923260E+02  0.00000000000E+00 0.  1.
         11    1    4    4    0    0  0.13940128944E+02 -0.18765005663E+02 -0.14647268172E+02  0.27586139594E+02  0.51100000000E-03 0. -1.
        -11    1    4    4    0    0  0.48957359380E+00 -0.36984378742E+01 -0.23604849857E+01  0.44147496692E+01  0.51100000000E-03 0.  1.
        -12    1    4    4    0    0  0.17873070209E+02  0.13312831832E+02  0.18889711985E+01  0.22366187478E+02  0.00000000000E+00 0.  1.
</event>
<event>
 8    1  0.1229038E-006  0.9118800E+02  0.7816164E-02  0.1184000E+00
        -11   -1    0    0    0    0  0.00000000000E+00  0.00000000000E+00  0.45593999997E+02  0.45594000000E+02  0.51100000000E-03 0.  1.
         11   -1    0    0    0    0 -0.00000000000E+00 -0.00000000000E+00 -0.45593999997E+02  0.45594000000E+02  0.51100000000E-03 0. -1.
         23    2    1    2    0    0 -0.35527136788E-14  0.17763568394E-14  0.00000000000E+00  0.91188000000E+02  0.91188000000E+02 0.  0.
    9900012    2    3    3    0    0  0.27894552889E+02  0.10117089595E+02  0.21801434323E+02  0.54367297654E+02  0.40000486659E+02 0.  0.
         12    1    3    3    0    0 -0.27894552889E+02 -0.10117089595E+02 -0.21801434323E+02  0.36820702346E+02  0.00000000000E+00 0. -1.
         11    1    4    4    0    0 -0.59935289254E+01  0.29076684254E+01 -0.61756926760E+01  0.90838375668E+01  0.51100000000E-03 0. -1.
        -11    1    4    4    0    0  0.12425322863E+02  0.26260123007E+01  0.54091035246E+01  0.13803731020E+02  0.51100000000E-03 0.  1.
         12    1    4    4    0    0  0.21462758951E+02  0.45834088691E+01  0.22568023474E+02  0.31479729067E+02  0.00000000000E+00 0. -1.
</event>
<event>
 8    1  0.1229038E-006  0.9118800E+02  0.7816164E-02  0.1184000E+00
        -11   -1    0    0    0    0  0.00000000000E+00  0.00000000000E+00  0.45593999997E+02  0.45594000000E+02  0.51100000000E-03 0. -1.
         11   -1    0    0    0    0 -0.00000000000E+00 -0.00000000000E+00 -0.45593999997E+02  0.45594000000E+02  0.51100000000E-03 0.  1.
         23    2    1    2    0    0  0.00000000000E+00  0.35527136788E-14 -0.35527136788E-14  0.91188000000E+02  0.91188000000E+02 0.  0.
    9900012    2    3    3    0    0  0.95868628831E+01  0.27338229887E+02 -0.22726212582E+02  0.54367251887E+02  0.40000382325E+02 0.  0.
        -12    1    3    3    0    0 -0.95868628831E+01 -0.27338229887E+02  0.22726212582E+02  0.36820748113E+02  0.00000000000E+00 0.  1.
         11    1    4    4    0    0  0.72854699441E+01  0.40597304907E+01  0.47782163217E+01  0.96120151603E+01  0.51100000000E-03 0. -1.
        -11    1    4    4    0    0  0.87659866380E+01 -0.13158273504E+00 -0.15158323423E+02  0.17510985266E+02  0.51100000000E-03 0.  1.
        -12    1    4    4    0    0 -0.64645936991E+01  0.23410082131E+02 -0.12346105481E+02  0.27244251460E+02  0.00000000000E+00 0.  1.
</event>
<event>
 8    1  0.1229038E-006  0.9118800E+02  0.7816164E-02  0.1184000E+00
        -11   -1    0    0    0    0  0.00000000000E+00  0.00000000000E+00  0.45593999997E+02  0.45594000000E+02  0.51100000000E-03 0.  1.
         11   -1    0    0    0    0 -0.00000000000E+00 -0.00000000000E+00 -0.45593999997E+02  0.45594000000E+02  0.51100000000E-03 0. -1.
         23    2    1    2    0    0 -0.35527136788E-14  0.00000000000E+00  0.00000000000E+00  0.91188000000E+02  0.91188000000E+02 0.  0.
    9900012    2    3    3    0    0 -0.28245992513E+02  0.12988172587E+02  0.19729452522E+02  0.54367081801E+02  0.39999994582E+02 0.  0.
         12    1    3    3    0    0  0.28245992513E+02 -0.12988172587E+02 -0.19729452522E+02  0.36820918199E+02  0.00000000000E+00 0. -1.
         11    1    4    4    0    0 -0.22902273856E+01 -0.23967339768E+01  0.13729147826E+01  0.35880873031E+01  0.51100000000E-03 0. -1.
        -11    1    4    4    0    0  0.58476986188E+01  0.13666717867E+02  0.97824312413E+01  0.17795244243E+02  0.51100000000E-03 0.  1.
        -12    1    4    4    0    0 -0.31803463747E+02  0.17181886962E+01  0.85741064977E+01  0.32983750255E+02  0.00000000000E+00 0.  1.
</event>
<event>
 8    1  0.1229038E-006  0.9118800E+02  0.7816164E-02  0.1184000E+00
        -11   -1    0    0    0    0  0.00000000000E+00  0.00000000000E+00  0.45593999997E+02  0.45594000000E+02  0.51100000000E-03 0. -1.
         11   -1    0    0    0    0 -0.00000000000E+00 -0.00000000000E+00 -0.45593999997E+02  0.45594000000E+02  0.51100000000E-03 0.  1.
         23    2    1    2    0    0 -0.17763568394E-14 -0.35527136788E-14  0.35527136788E-14  0.91188000000E+02  0.91188000000E+02 0.  0.
    9900012    2    3    3    0    0 -0.11895578263E+02 -0.24855917327E+02  0.24422494429E+02  0.54367086887E+02  0.40000006175E+02 0.  0.
        -12    1    3    3    0    0  0.11895578263E+02  0.24855917327E+02 -0.24422494429E+02  0.36820913113E+02  0.00000000000E+00 0.  1.
         11    1    4    4    0    0 -0.62576977299E+01 -0.18359113425E+02  0.23178369617E+01  0.19534282558E+02  0.51100000000E-03 0. -1.
        -11    1    4    4    0    0 -0.48584381170E+01 -0.41209494475E+01 -0.46968007075E+01  0.79149594081E+01  0.51100000000E-03 0.  1.
         12    1    4    4    0    0 -0.77944241628E+00 -0.23758544548E+01  0.26801458175E+02  0.26917844920E+02  0.00000000000E+00 0. -1.
</event>
<event>
 8    1  0.1229038E-006  0.9118800E+02  0.7816164E-02  0.1184000E+00
        -11   -1    0    0    0    0  0.00000000000E+00  0.00000000000E+00  0.45593999997E+02  0.45594000000E+02  0.51100000000E-03 0.  1.
         11   -1    0    0    0    0 -0.00000000000E+00 -0.00000000000E+00 -0.45593999997E+02  0.45594000000E+02  0.51100000000E-03 0. -1.
         23    2    1    2    0    0  0.00000000000E+00  0.00000000000E+00  0.00000000000E+00  0.91188000000E+02  0.91188000000E+02 0.  0.
    9900012    2    3    3    0    0 -0.12985069525E+02 -0.85197846568E+01  0.33385330372E+02  0.54367094997E+02  0.40000024664E+02 0.  0.
         12    1    3    3    0    0  0.12985069525E+02  0.85197846568E+01 -0.33385330372E+02  0.36820905003E+02  0.00000000000E+00 0. -1.
         11    1    4    4    0    0 -0.65656713828E+01 -0.78440312914E+01  0.10496888661E+02  0.14656791581E+02  0.51100000000E-03 0. -1.
        -11    1    4    4    0    0  0.80188129078E+01  0.22885634644E+01  0.23522904101E+02  0.24957281518E+02  0.51100000000E-03 0.  1.
        -12    1    4    4    0    0 -0.14438211050E+02 -0.29643168298E+01 -0.63446238968E+00  0.14753021898E+02  0.00000000000E+00 0.  1.
</event>
<event>
 8    1  0.1229038E-006  0.9118800E+02  0.7816164E-02  0.1184000E+00
        -11   -1    0    0    0    0  0.00000000000E+00  0.00000000000E+00  0.45593999997E+02  0.45594000000E+02  0.51100000000E-03 0. -1.
         11   -1    0    0    0    0 -0.00000000000E+00 -0.00000000000E+00 -0.45593999997E+02  0.45594000000E+02  0.51100000000E-03 0.  1.
         23    2    1    2    0    0 -0.44408920985E-15  0.00000000000E+00  0.00000000000E+00  0.91188000000E+02  0.91188000000E+02 0.  0.
    9900012    2    3    3    0    0  0.23804857041E+01 -0.35357600158E+02 -0.99976766381E+01  0.54367080141E+02  0.39999990797E+02 0.  0.
         12    1    3    3    0    0 -0.23804857041E+01  0.35357600158E+02  0.99976766381E+01  0.36820919859E+02  0.00000000000E+00 0. -1.
         11    1    4    4    0    0  0.41341762309E+01  0.47988386909E+01  0.11110928702E+01  0.64307692787E+01  0.51100000000E-03 0. -1.
        -11    1    4    4    0    0 -0.23132944792E+01 -0.31157277915E+02 -0.18472002696E+02  0.36295208806E+02  0.51100000000E-03 0.  1.
        -12    1    4    4    0    0  0.55960395242E+00 -0.89991609338E+01  0.73632331882E+01  0.11641102056E+02  0.00000000000E+00 0.  1.
</event>
<event>
 8    1  0.1229038E-006  0.9118800E+02  0.7816164E-02  0.1184000E+00
        -11   -1    0    0    0    0  0.00000000000E+00  0.00000000000E+00  0.45593999997E+02  0.45594000000E+02  0.51100000000E-03 0. -1.
         11   -1    0    0    0    0 -0.00000000000E+00 -0.00000000000E+00 -0.45593999997E+02  0.45594000000E+02  0.51100000000E-03 0.  1.
         23    2    1    2    0    0  0.00000000000E+00  0.00000000000E+00  0.00000000000E+00  0.91188000000E+02  0.91188000000E+02 0.  0.
    9900012    2    3    3    0    0 -0.33143280824E+02  0.10984642724E+02  0.11689185288E+02  0.54367129665E+02  0.40000103697E+02 0.  0.
        -12    1    3    3    0    0  0.33143280824E+02 -0.10984642724E+02 -0.11689185288E+02  0.36820870335E+02  0.00000000000E+00 0.  1.
         11    1    4    4    0    0 -0.21589252769E+01 -0.20287797610E+01  0.28627782904E+01  0.41197579384E+01  0.51100000000E-03 0. -1.
        -11    1    4    4    0    0  0.19066736730E+01 -0.25354810700E+01 -0.91377401655E+01  0.96727640488E+01  0.51100000000E-03 0.  1.
         12    1    4    4    0    0 -0.32891029220E+02  0.15548903555E+02  0.17964147163E+02  0.40574607678E+02  0.00000000000E+00 0. -1.
</event>
<event>
 8    1  0.1229038E-006  0.9118800E+02  0.7816164E-02  0.1184000E+00
        -11   -1    0    0    0    0  0.00000000000E+00  0.00000000000E+00  0.45593999997E+02  0.45594000000E+02  0.51100000000E-03 0.  1.
         11   -1    0    0    0    0 -0.00000000000E+00 -0.00000000000E+00 -0.45593999997E+02  0.45594000000E+02  0.51100000000E-03 0. -1.
         23    2    1    2    0    0  0.17763568394E-14 -0.35527136788E-14  0.00000000000E+00  0.91188000000E+02  0.91188000000E+02 0.  0.
    9900012    2    3    3    0    0  0.10995390749E+02 -0.15319368587E+02  0.31625909527E+02  0.54367084408E+02  0.40000000524E+02 0.  0.
         12    1    3    3    0    0 -0.10995390749E+02  0.15319368587E+02 -0.31625909527E+02  0.36820915592E+02  0.00000000000E+00 0. -1.
         11    1    4    4    0    0  0.24960256505E+01  0.11197112645E+02  0.20430324914E+02  0.23430826959E+02  0.51100000000E-03 0. -1.
        -11    1    4    4    0    0  0.95347861259E+01 -0.21446121988E+02  0.77395671272E+01  0.24713340413E+02  0.51100000000E-03 0.  1.
         12    1    4    4    0    0 -0.10354210279E+01 -0.50703592435E+01  0.34560174856E+01  0.62229170350E+01  0.00000000000E+00 0. -1.
</event>
<event>
 8    1  0.1229038E-006  0.9118800E+02  0.7816164E-02  0.1184000E+00
        -11   -1    0    0    0    0  0.00000000000E+00  0.00000000000E+00  0.45593999997E+02  0.45594000000E+02  0.51100000000E-03 0.  1.
         11   -1    0    0    0    0 -0.00000000000E+00 -0.00000000000E+00 -0.45593999997E+02  0.45594000000E+02  0.51100000000E-03 0. -1.
         23    2    1    2    0    0  0.00000000000E+00  0.00000000000E+00  0.00000000000E+00  0.91188000000E+02  0.91188000000E+02 0.  0.
    9900012    2    3    3    0    0  0.15997833955E+02 -0.14067970042E+02 -0.30032307718E+02  0.54367109473E+02  0.40000057665E+02 0.  0.
        -12    1    3    3    0    0 -0.15997833955E+02  0.14067970042E+02  0.30032307718E+02  0.36820890527E+02  0.00000000000E+00 0.  1.
         11    1    4    4    0    0  0.60262964420E+01 -0.16932888029E+02 -0.26099455448E+02  0.31689438631E+02  0.51100000000E-03 0. -1.
        -11    1    4    4    0    0  0.64175271596E+01  0.11090332072E+02 -0.47833690299E+01  0.13677015020E+02  0.51100000000E-03 0.  1.
        -12    1    4    4    0    0  0.35540103533E+01 -0.82254140853E+01  0.85051675940E+00  0.90006558219E+01  0.00000000000E+00 0.  1.
</event>
<event>
 8    1  0.1229038E-006  0.9118800E+02  0.7816164E-02  0.1184000E+00
        -11   -1    0    0    0    0  0.00000000000E+00  0.00000000000E+00  0.45593999997E+02  0.45594000000E+02  0.51100000000E-03 0.  1.
         11   -1    0    0    0    0 -0.00000000000E+00 -0.00000000000E+00 -0.45593999997E+02  0.45594000000E+02  0.51100000000E-03 0. -1.
         23    2    1    2    0    0  0.00000000000E+00  0.35527136788E-14 -0.35527136788E-14  0.91188000000E+02  0.91188000000E+02 0.  0.
    9900012    2    3    3    0    0  0.25635558480E+02  0.18752720341E+02 -0.18626144674E+02  0.54367086863E+02  0.40000006122E+02 0.  0.
        -12    1    3    3    0    0 -0.25635558480E+02 -0.18752720341E+02  0.18626144674E+02  0.36820913137E+02  0.00000000000E+00 0.  1.
         11    1    4    4    0    0  0.30958981037E+01 -0.82439456589E+01 -0.82963033052E+00  0.88450840495E+01  0.51100000000E-03 0. -1.
        -11    1    4    4    0    0  0.27127808803E+01  0.16766267075E+02 -0.23155250996E-02  0.16984313273E+02  0.51100000000E-03 0.  1.
         12    1    4    4    0    0  0.19826879496E+02  0.10230398925E+02 -0.17794198819E+02  0.28537689541E+02  0.00000000000E+00 0. -1.
</event>
<event>
 8    1  0.1229038E-006  0.9118800E+02  0.7816164E-02  0.1184000E+00
        -11   -1    0    0    0    0  0.00000000000E+00  0.00000000000E+00  0.45593999997E+02  0.45594000000E+02  0.51100000000E-03 0.  1.
         11   -1    0    0    0    0 -0.00000000000E+00 -0.00000000000E+00 -0.45593999997E+02  0.45594000000E+02  0.51100000000E-03 0. -1.
         23    2    1    2    0    0  0.00000000000E+00  0.00000000000E+00  0.00000000000E+00  0.91188000000E+02  0.91188000000E+02 0.  0.
    9900012    2    3    3    0    0 -0.21567189237E+02 -0.24803213081E+02  0.16596806970E+02  0.54366850747E+02  0.39999467844E+02 0.  0.
         12    1    3    3    0    0  0.21567189237E+02  0.24803213081E+02 -0.16596806970E+02  0.36821149253E+02  0.00000000000E+00 0. -1.
         11    1    4    4    0    0 -0.17623109406E+02  0.35275441662E+01  0.41829616165E+01  0.18453040972E+02  0.51100000000E-03 0. -1.
        -11    1    4    4    0    0 -0.91328439904E+01 -0.15511769141E+02  0.10791983828E+01  0.18032983409E+02  0.51100000000E-03 0.  1.
         12    1    4    4    0    0  0.51887641592E+01 -0.12818988106E+02  0.11334646971E+02  0.17880826366E+02  0.00000000000E+00 0. -1.
</event>
<event>
 8    1  0.1229038E-006  0.9118800E+02  0.7816164E-02  0.1184000E+00
        -11   -1    0    0    0    0  0.00000000000E+00  0.00000000000E+00  0.45593999997E+02  0.45594000000E+02  0.51100000000E-03 0.  1.
         11   -1    0    0    0    0 -0.00000000000E+00 -0.00000000000E+00 -0.45593999997E+02  0.45594000000E+02  0.51100000000E-03 0. -1.
         23    2    1    2    0    0 -0.17763568394E-14  0.17763568394E-14  0.00000000000E+00  0.91188000000E+02  0.91188000000E+02 0.  0.
    9900012    2    3    3    0    0 -0.11281469009E+02 -0.55591889013E+01  0.34606395866E+02  0.54367098883E+02  0.40000033523E+02 0.  0.
         12    1    3    3    0    0  0.11281469009E+02  0.55591889013E+01 -0.34606395866E+02  0.36820901117E+02  0.00000000000E+00 0. -1.
         11    1    4    4    0    0  0.46903887372E+01 -0.82964881853E+00 -0.26179401119E+01  0.54352253273E+01  0.51100000000E-03 0. -1.
        -11    1    4    4    0    0 -0.12390599728E+02  0.84170083549E+01  0.87051970881E+01  0.17324937168E+02  0.51100000000E-03 0.  1.
         12    1    4    4    0    0 -0.35812580185E+01 -0.13146548438E+02  0.28519138890E+02  0.31606936388E+02  0.00000000000E+00 0. -1.
</event>
<event>
 8    1  0.1229038E-006  0.9118800E+02  0.7816164E-02  0.1184000E+00
        -11   -1    0    0    0    0  0.00000000000E+00  0.00000000000E+00  0.45593999997E+02  0.45594000000E+02  0.51100000000E-03 0. -1.
         11   -1    0    0    0    0 -0.00000000000E+00 -0.00000000000E+00 -0.45593999997E+02  0.45594000000E+02  0.51100000000E-03 0.  1.
         23    2    1    2    0    0  0.17208456882E-14  0.00000000000E+00  0.88817841970E-15  0.91188000000E+02  0.91188000000E+02 0.  0.
    9900012    2    3    3    0    0 -0.26097294932E+00  0.36376569051E+02 -0.56970619963E+01  0.54367090204E+02  0.40000013739E+02 0.  0.
         12    1    3    3    0    0  0.26097294932E+00 -0.36376569051E+02  0.56970619963E+01  0.36820909796E+02  0.00000000000E+00 0. -1.
         11    1    4    4    0    0  0.10072795548E+02  0.25068525707E+01 -0.16675964399E+01  0.10513153576E+02  0.51100000000E-03 0. -1.
        -11    1    4    4    0    0  0.24452810312E+01  0.29137366437E+02  0.11834763572E+01  0.29263734191E+02  0.51100000000E-03 0.  1.
        -12    1    4    4    0    0 -0.12779049529E+02  0.47323500427E+01 -0.52129419136E+01  0.14590202438E+02  0.00000000000E+00 0.  1.
</event>
<event>
 8    1  0.1229038E-006  0.9118800E+02  0.7816164E-02  0.1184000E+00
        -11   -1    0    0    0    0  0.00000000000E+00  0.00000000000E+00  0.45593999997E+02  0.45594000000E+02  0.51100000000E-03 0. -1.
         11   -1    0    0    0    0 -0.00000000000E+00 -0.00000000000E+00 -0.45593999997E+02  0.45594000000E+02  0.51100000000E-03 0.  1.
         23    2    1    2    0    0  0.71054273576E-14 -0.17763568394E-14  0.00000000000E+00  0.91188000000E+02  0.91188000000E+02 0.  0.
    9900012    2    3    3    0    0  0.34471585330E+02  0.11064426097E+02  0.67132542202E+01  0.54367088791E+02  0.40000010517E+02 0.  0.
        -12    1    3    3    0    0 -0.34471585330E+02 -0.11064426097E+02 -0.67132542202E+01  0.36820911209E+02  0.00000000000E+00 0.  1.
         11    1    4    4    0    0  0.31410488784E+01  0.20822892938E+01  0.50177448033E+01  0.62753390293E+01  0.51100000000E-03 0. -1.
        -11    1    4    4    0    0  0.18941308486E+02  0.20291229651E+02 -0.77776236208E+01  0.28827046282E+02  0.51100000000E-03 0.  1.
         12    1    4    4    0    0  0.12389227965E+02 -0.11309092847E+02  0.94731330377E+01  0.19264703480E+02  0.00000000000E+00 0. -1.
</event>
<event>
 8    1  0.1229038E-006  0.9118800E+02  0.7816164E-02  0.1184000E+00
        -11   -1    0    0    0    0  0.00000000000E+00  0.00000000000E+00  0.45593999997E+02  0.45594000000E+02  0.51100000000E-03 0. -1.
         11   -1    0    0    0    0 -0.00000000000E+00 -0.00000000000E+00 -0.45593999997E+02  0.45594000000E+02  0.51100000000E-03 0.  1.
         23    2    1    2    0    0  0.35527136788E-14  0.00000000000E+00  0.00000000000E+00  0.91188000000E+02  0.91188000000E+02 0.  0.
    9900012    2    3    3    0    0  0.25346205779E+02  0.20805540876E+02  0.16747516884E+02  0.54367082028E+02  0.39999995099E+02 0.  0.
        -12    1    3    3    0    0 -0.25346205779E+02 -0.20805540876E+02 -0.16747516884E+02  0.36820917972E+02  0.00000000000E+00 0.  1.
         11    1    4    4    0    0  0.15392853546E+02  0.15469634945E+02  0.26408716154E+02  0.34258865054E+02  0.51100000000E-03 0. -1.
        -11    1    4    4    0    0  0.17546129913E+01  0.85778817518E+01 -0.39629074543E+01  0.96105857183E+01  0.51100000000E-03 0.  1.
         12    1    4    4    0    0  0.81987392412E+01 -0.32419758212E+01 -0.56982918153E+01  0.10497631256E+02  0.00000000000E+00 0. -1.
</event>
<event>
 8    1  0.1229038E-006  0.9118800E+02  0.7816164E-02  0.1184000E+00
        -11   -1    0    0    0    0  0.00000000000E+00  0.00000000000E+00  0.45593999997E+02  0.45594000000E+02  0.51100000000E-03 0. -1.
         11   -1    0    0    0    0 -0.00000000000E+00 -0.00000000000E+00 -0.45593999997E+02  0.45594000000E+02  0.51100000000E-03 0.  1.
         23    2    1    2    0    0 -0.35527136788E-14  0.35527136788E-14  0.00000000000E+00  0.91188000000E+02  0.91188000000E+02 0.  0.
    9900012    2    3    3    0    0  0.27961830498E+02 -0.20256467665E+02  0.12790327183E+02  0.54367069587E+02  0.39999966737E+02 0.  0.
        -12    1    3    3    0    0 -0.27961830498E+02  0.20256467665E+02 -0.12790327183E+02  0.36820930413E+02  0.00000000000E+00 0.  1.
         11    1    4    4    0    0  0.55584393410E+01 -0.21198437327E+02  0.10764722959E+02  0.24416167874E+02  0.51100000000E-03 0. -1.
        -11    1    4    4    0    0 -0.22035973203E+01 -0.35541808982E+00 -0.40027628598E+01  0.45830419965E+01  0.51100000000E-03 0.  1.
         12    1    4    4    0    0  0.24606988477E+02  0.12973877515E+01  0.60283670836E+01  0.25367859716E+02  0.00000000000E+00 0. -1.
</event>
<event>
 8    1  0.1229038E-006  0.9118800E+02  0.7816164E-02  0.1184000E+00
        -11   -1    0    0    0    0  0.00000000000E+00  0.00000000000E+00  0.45593999997E+02  0.45594000000E+02  0.51100000000E-03 0. -1.
         11   -1    0    0    0    0 -0.00000000000E+00 -0.00000000000E+00 -0.45593999997E+02  0.45594000000E+02  0.51100000000E-03 0.  1.
         23    2    1    2    0    0  0.00000000000E+00  0.00000000000E+00 -0.17763568394E-14  0.91188000000E+02  0.91188000000E+02 0.  0.
    9900012    2    3    3    0    0 -0.28705075113E+02  0.18739427538E+02  0.13439960596E+02  0.54367081727E+02  0.39999994413E+02 0.  0.
        -12    1    3    3    0    0  0.28705075113E+02 -0.18739427538E+02 -0.13439960596E+02  0.36820918273E+02  0.00000000000E+00 0.  1.
         11    1    4    4    0    0 -0.28484765662E+01  0.13096239876E+02  0.10776146904E+02  0.17197402711E+02  0.51100000000E-03 0. -1.
        -11    1    4    4    0    0 -0.24629539781E+02 -0.58950435923E+01  0.33516026614E+01  0.25546017487E+02  0.51100000000E-03 0.  1.
        -12    1    4    4    0    0 -0.12270587650E+01  0.11538231253E+02 -0.68778896907E+00  0.11623661529E+02  0.00000000000E+00 0.  1.
</event>
<event>
 8    1  0.1229038E-006  0.9118800E+02  0.7816164E-02  0.1184000E+00
        -11   -1    0    0    0    0  0.00000000000E+00  0.00000000000E+00  0.45593999997E+02  0.45594000000E+02  0.51100000000E-03 0. -1.
         11   -1    0    0    0    0 -0.00000000000E+00 -0.00000000000E+00 -0.45593999997E+02  0.45594000000E+02  0.51100000000E-03 0.  1.
         23    2    1    2    0    0  0.71054273576E-14  0.35527136788E-14 -0.11102230246E-15  0.91188000000E+02  0.91188000000E+02 0.  0.
    9900012    2    3    3    0    0  0.29118952369E+02  0.22529876566E+02 -0.51954075810E+00  0.54367100395E+02  0.40000036970E+02 0.  0.
         12    1    3    3    0    0 -0.29118952369E+02 -0.22529876566E+02  0.51954075810E+00  0.36820899605E+02  0.00000000000E+00 0. -1.
         11    1    4    4    0    0 -0.41521116569E+01 -0.36368976305E+01  0.38453151437E+01  0.67270724986E+01  0.51100000000E-03 0. -1.
        -11    1    4    4    0    0 -0.20258507828E+01  0.53379229442E+01 -0.33984772142E+01  0.66443314479E+01  0.51100000000E-03 0.  1.
        -12    1    4    4    0    0  0.35296914808E+02  0.20828851253E+02 -0.96637868760E+00  0.40995696448E+02  0.00000000000E+00 0.  1.
</event>
<event>
 8    1  0.1229038E-006  0.9118800E+02  0.7816164E-02  0.1184000E+00
        -11   -1    0    0    0    0  0.00000000000E+00  0.00000000000E+00  0.45593999997E+02  0.45594000000E+02  0.51100000000E-03 0.  1.
         11   -1    0    0    0    0 -0.00000000000E+00 -0.00000000000E+00 -0.45593999997E+02  0.45594000000E+02  0.51100000000E-03 0. -1.
         23    2    1    2    0    0  0.35527136788E-14  0.00000000000E+00  0.00000000000E+00  0.91188000000E+02  0.91188000000E+02 0.  0.
    9900012    2    3    3    0    0  0.16976753625E+02 -0.23886140949E+02 -0.22293973361E+02  0.54367093693E+02  0.40000021691E+02 0.  0.
         12    1    3    3    0    0 -0.16976753625E+02  0.23886140949E+02  0.22293973361E+02  0.36820906307E+02  0.00000000000E+00 0. -1.
         11    1    4    4    0    0 -0.41002492321E+01 -0.23390333895E+01 -0.86443156134E+01  0.98492290890E+01  0.51100000000E-03 0. -1.
        -11    1    4    4    0    0  0.92009948738E+01 -0.27564899621E+02 -0.93871561995E+01  0.30538511744E+02  0.51100000000E-03 0.  1.
        -12    1    4    4    0    0  0.11876007984E+02  0.60177920614E+01 -0.42625015477E+01  0.13979352859E+02  0.00000000000E+00 0.  1.
</event>
<event>
 8    1  0.1229038E-006  0.9118800E+02  0.7816164E-02  0.1184000E+00
        -11   -1    0    0    0    0  0.00000000000E+00  0.00000000000E+00  0.45593999997E+02  0.45594000000E+02  0.51100000000E-03 0.  1.
         11   -1    0    0    0    0 -0.00000000000E+00 -0.00000000000E+00 -0.45593999997E+02  0.45594000000E+02  0.51100000000E-03 0. -1.
         23    2    1    2    0    0 -0.88817841970E-15  0.00000000000E+00 -0.88817841970E-15  0.91188000000E+02  0.91188000000E+02 0.  0.
    9900012    2    3    3    0    0  0.59936610416E+01 -0.35692391779E+02 -0.67756771769E+01  0.54367073819E+02  0.39999976386E+02 0.  0.
        -12    1    3    3    0    0 -0.59936610416E+01  0.35692391779E+02  0.67756771769E+01  0.36820926181E+02  0.00000000000E+00 0.  1.
         11    1    4    4    0    0 -0.58044919145E+01  0.27100831406E+01 -0.87296820289E+01  0.10827928038E+02  0.51100000000E-03 0. -1.
        -11    1    4    4    0    0  0.10118223437E+02 -0.35997624120E+02 -0.32830522855E+01  0.37536459880E+02  0.51100000000E-03 0.  1.
        -12    1    4    4    0    0  0.16799295194E+01 -0.24048508001E+01  0.52370571374E+01  0.60026859006E+01  0.00000000000E+00 0.  1.
</event>
<event>
 8    1  0.1229038E-006  0.9118800E+02  0.7816164E-02  0.1184000E+00
        -11   -1    0    0    0    0  0.00000000000E+00  0.00000000000E+00  0.45593999997E+02  0.45594000000E+02  0.51100000000E-03 0.  1.
         11   -1    0    0    0    0 -0.00000000000E+00 -0.00000000000E+00 -0.45593999997E+02  0.45594000000E+02  0.51100000000E-03 0. -1.
         23    2    1    2    0    0  0.00000000000E+00 -0.44408920985E-15  0.00000000000E+00  0.91188000000E+02  0.91188000000E+02 0.  0.
    9900012    2    3    3    0    0  0.41971749613E+01 -0.31400671332E+01 -0.36445888105E+02  0.54367094810E+02  0.40000024239E+02 0.  0.
        -12    1    3    3    0    0 -0.41971749613E+01  0.31400671332E+01  0.36445888105E+02  0.36820905190E+02  0.00000000000E+00 0.  1.
         11    1    4    4    0    0  0.95014253332E+01 -0.88508136412E+01 -0.37625528827E+02  0.39803195918E+02  0.51100000000E-03 0. -1.
        -11    1    4    4    0    0 -0.55576374743E+00 -0.33234955982E+01  0.26043627087E+01  0.42587793690E+01  0.51100000000E-03 0.  1.
        -12    1    4    4    0    0 -0.47484866245E+01  0.90342421062E+01 -0.14247219863E+01  0.10305119524E+02  0.00000000000E+00 0.  1.
</event>
<event>
 8    1  0.1229038E-006  0.9118800E+02  0.7816164E-02  0.1184000E+00
        -11   -1    0    0    0    0  0.00000000000E+00  0.00000000000E+00  0.45593999997E+02  0.45594000000E+02  0.51100000000E-03 0.  1.
         11   -1    0    0    0    0 -0.00000000000E+00 -0.00000000000E+00 -0.45593999997E+02  0.45594000000E+02  0.51100000000E-03 0. -1.
         23    2    1    2    0    0 -0.17763568394E-14 -0.35527136788E-14 -0.71054273576E-14  0.91188000000E+02  0.91188000000E+02 0.  0.
    9900012    2    3    3    0    0  0.68314783860E+01  0.88565738249E+01  0.35080933372E+02  0.54367083619E+02  0.39999998727E+02 0.  0.
         12    1    3    3    0    0 -0.68314783860E+01 -0.88565738249E+01 -0.35080933372E+02  0.36820916381E+02  0.00000000000E+00 0. -1.
         11    1    4    4    0    0  0.17234818476E+02  0.54219207365E+01  0.56578644182E+01  0.18932713023E+02  0.51100000000E-03 0. -1.
        -11    1    4    4    0    0  0.16321612240E+01 -0.96149819818E+00  0.18501133580E+02  0.18597859368E+02  0.51100000000E-03 0.  1.
        -12    1    4    4    0    0 -0.12035501315E+02  0.43961512865E+01  0.10921935374E+02  0.16836511228E+02  0.00000000000E+00 0.  1.
</event>
<event>
 8    1  0.1229038E-006  0.9118800E+02  0.7816164E-02  0.1184000E+00
        -11   -1    0    0    0    0  0.00000000000E+00  0.00000000000E+00  0.45593999997E+02  0.45594000000E+02  0.51100000000E-03 0. -1.
         11   -1    0    0    0    0 -0.00000000000E+00 -0.00000000000E+00 -0.45593999997E+02  0.45594000000E+02  0.51100000000E-03 0.  1.
         23    2    1    2    0    0  0.35527136788E-14  0.35527136788E-14  0.44408920985E-15  0.91188000000E+02  0.91188000000E+02 0.  0.
    9900012    2    3    3    0    0 -0.28621313441E+02 -0.23045673181E+02 -0.23442353286E+01  0.54367108176E+02  0.40000054709E+02 0.  0.
        -12    1    3    3    0    0  0.28621313441E+02  0.23045673181E+02  0.23442353286E+01  0.36820891824E+02  0.00000000000E+00 0.  1.
         11    1    4    4    0    0 -0.15710848482E+02 -0.33373071551E+01 -0.35508221432E+01  0.16449216311E+02  0.51100000000E-03 0. -1.
        -11    1    4    4    0    0  0.39639200435E+01  0.54287552226E+01  0.34567714864E+01  0.75586582637E+01  0.51100000000E-03 0.  1.
        -12    1    4    4    0    0 -0.16874385002E+02 -0.25137121248E+02 -0.22501846717E+01  0.30359233602E+02  0.00000000000E+00 0.  1.
</event>
<event>
 8    1  0.1229038E-006  0.9118800E+02  0.7816164E-02  0.1184000E+00
        -11   -1    0    0    0    0  0.00000000000E+00  0.00000000000E+00  0.45593999997E+02  0.45594000000E+02  0.51100000000E-03 0. -1.
         11   -1    0    0    0    0 -0.00000000000E+00 -0.00000000000E+00 -0.45593999997E+02  0.45594000000E+02  0.51100000000E-03 0.  1.
         23    2    1    2    0    0  0.00000000000E+00  0.00000000000E+00  0.00000000000E+00  0.91188000000E+02  0.91188000000E+02 0.  0.
    9900012    2    3    3    0    0  0.12267934689E+02 -0.23486882379E+02  0.25566564852E+02  0.54367012727E+02  0.39999837113E+02 0.  0.
        -12    1    3    3    0    0 -0.12267934689E+02  0.23486882379E+02 -0.25566564852E+02  0.36820987273E+02  0.00000000000E+00 0.  1.
         11    1    4    4    0    0  0.35260072051E+01 -0.11296790797E+02 -0.41102435342E+01  0.12527741668E+02  0.51100000000E-03 0. -1.
        -11    1    4    4    0    0 -0.53281810814E+01  0.49742814328E+01  0.68931375717E+01  0.10032364390E+02  0.51100000000E-03 0.  1.
         12    1    4    4    0    0  0.14070108565E+02 -0.17164373015E+02  0.22783670815E+02  0.31806906669E+02  0.00000000000E+00 0. -1.
</event>
<event>
 8    1  0.1229038E-006  0.9118800E+02  0.7816164E-02  0.1184000E+00
        -11   -1    0    0    0    0  0.00000000000E+00  0.00000000000E+00  0.45593999997E+02  0.45594000000E+02  0.51100000000E-03 0. -1.
         11   -1    0    0    0    0 -0.00000000000E+00 -0.00000000000E+00 -0.45593999997E+02  0.45594000000E+02  0.51100000000E-03 0.  1.
         23    2    1    2    0    0  0.00000000000E+00 -0.35527136788E-14 -0.17763568394E-14  0.91188000000E+02  0.91188000000E+02 0.  0.
    9900012    2    3    3    0    0 -0.29771353784E+02  0.18010185604E+02  0.12044897622E+02  0.54367084064E+02  0.39999999741E+02 0.  0.
        -12    1    3    3    0    0  0.29771353784E+02 -0.18010185604E+02 -0.12044897622E+02  0.36820915936E+02  0.00000000000E+00 0.  1.
         11    1    4    4    0    0 -0.19660133216E+02  0.45904643660E+01  0.16189303516E+01  0.20253743775E+02  0.51100000000E-03 0. -1.
        -11    1    4    4    0    0 -0.54598551174E+01 -0.56911613427E+01 -0.48064668860E+01  0.92358789251E+01  0.51100000000E-03 0.  1.
         12    1    4    4    0    0 -0.46513654509E+01  0.19110882581E+02  0.15232434157E+02  0.24877461364E+02  0.00000000000E+00 0. -1.
</event>
<event>
 8    1  0.1229038E-006  0.9118800E+02  0.7816164E-02  0.1184000E+00
        -11   -1    0    0    0    0  0.00000000000E+00  0.00000000000E+00  0.45593999997E+02  0.45594000000E+02  0.51100000000E-03 0.  1.
         11   -1    0    0    0    0 -0.00000000000E+00 -0.00000000000E+00 -0.45593999997E+02  0.45594000000E+02  0.51100000000E-03 0. -1.
         23    2    1    2    0    0  0.00000000000E+00  0.00000000000E+00  0.00000000000E+00  0.91188000000E+02  0.91188000000E+02 0.  0.
    9900012    2    3    3    0    0  0.62491774748E+01 -0.12910355147E+02 -0.33912442026E+02  0.54367038398E+02  0.39999895635E+02 0.  0.
        -12    1    3    3    0    0 -0.62491774748E+01  0.12910355147E+02  0.33912442026E+02  0.36820961602E+02  0.00000000000E+00 0.  1.
         11    1    4    4    0    0  0.11448926070E+02  0.39607954014E+00 -0.36871489349E+02  0.38610121915E+02  0.51100000000E-03 0. -1.
        -11    1    4    4    0    0 -0.59652436681E+01 -0.74248518596E+01  0.14227686935E+01  0.96299962707E+01  0.51100000000E-03 0.  1.
         12    1    4    4    0    0  0.76549507257E+00 -0.58815828274E+01  0.15362786293E+01  0.61269202124E+01  0.00000000000E+00 0. -1.
</event>
<event>
 8    1  0.1229038E-006  0.9118800E+02  0.7816164E-02  0.1184000E+00
        -11   -1    0    0    0    0  0.00000000000E+00  0.00000000000E+00  0.45593999997E+02  0.45594000000E+02  0.51100000000E-03 0.  1.
         11   -1    0    0    0    0 -0.00000000000E+00 -0.00000000000E+00 -0.45593999997E+02  0.45594000000E+02  0.51100000000E-03 0. -1.
         23    2    1    2    0    0 -0.35527136788E-14 -0.17763568394E-14  0.00000000000E+00  0.91188000000E+02  0.91188000000E+02 0.  0.
    9900012    2    3    3    0    0  0.19113202924E+02 -0.94450277204E+01  0.30020926979E+02  0.54367093828E+02  0.40000021999E+02 0.  0.
         12    1    3    3    0    0 -0.19113202924E+02  0.94450277204E+01 -0.30020926979E+02  0.36820906172E+02  0.00000000000E+00 0. -1.
         11    1    4    4    0    0  0.17292619405E+01 -0.14910886821E+02  0.20710339155E+02  0.25578175088E+02  0.51100000000E-03 0. -1.
        -11    1    4    4    0    0 -0.41363640570E+01 -0.27683575572E+00  0.42718995447E+01  0.59527532814E+01  0.51100000000E-03 0.  1.
         12    1    4    4    0    0  0.21520305040E+02  0.57426948568E+01  0.50386882800E+01  0.22836165458E+02  0.00000000000E+00 0. -1.
</event>
<event>
 8    1  0.1229038E-006  0.9118800E+02  0.7816164E-02  0.1184000E+00
        -11   -1    0    0    0    0  0.00000000000E+00  0.00000000000E+00  0.45593999997E+02  0.45594000000E+02  0.51100000000E-03 0. -1.
         11   -1    0    0    0    0 -0.00000000000E+00 -0.00000000000E+00 -0.45593999997E+02  0.45594000000E+02  0.51100000000E-03 0.  1.
         23    2    1    2    0    0  0.00000000000E+00  0.71054273576E-14  0.00000000000E+00  0.91188000000E+02  0.91188000000E+02 0.  0.
    9900012    2    3    3    0    0  0.32418506016E+01 -0.35543622066E+02 -0.90511428213E+01  0.54367056893E+02  0.39999937799E+02 0.  0.
         12    1    3    3    0    0 -0.32418506016E+01  0.35543622066E+02  0.90511428213E+01  0.36820943107E+02  0.00000000000E+00 0. -1.
         11    1    4    4    0    0 -0.49962047191E+01 -0.39677234791E+01 -0.90669800173E+01  0.11086704564E+02  0.51100000000E-03 0. -1.
        -11    1    4    4    0    0 -0.42379959379E+01 -0.25780825541E+02 -0.80436594575E+01  0.27337008485E+02  0.51100000000E-03 0.  1.
         12    1    4    4    0    0  0.12476051259E+02 -0.57950730459E+01  0.80594966534E+01  0.15943343844E+02  0.00000000000E+00 0. -1.
</event>
<event>
 8    1  0.1229038E-006  0.9118800E+02  0.7816164E-02  0.1184000E+00
        -11   -1    0    0    0    0  0.00000000000E+00  0.00000000000E+00  0.45593999997E+02  0.45594000000E+02  0.51100000000E-03 0. -1.
         11   -1    0    0    0    0 -0.00000000000E+00 -0.00000000000E+00 -0.45593999997E+02  0.45594000000E+02  0.51100000000E-03 0.  1.
         23    2    1    2    0    0  0.35527136788E-14  0.35527136788E-14  0.00000000000E+00  0.91188000000E+02  0.91188000000E+02 0.  0.
    9900012    2    3    3    0    0 -0.26099630384E+02  0.22139496349E+02 -0.13580582223E+02  0.54367079068E+02  0.39999988351E+02 0.  0.
         12    1    3    3    0    0  0.26099630384E+02 -0.22139496349E+02  0.13580582223E+02  0.36820920932E+02  0.00000000000E+00 0. -1.
         11    1    4    4    0    0 -0.30116446977E+01 -0.44494569414E+01  0.50791694799E+01  0.73936211510E+01  0.51100000000E-03 0. -1.
        -11    1    4    4    0    0 -0.16643525917E+02  0.14800599354E+02  0.19648608929E+01  0.22359011042E+02  0.51100000000E-03 0.  1.
         12    1    4    4    0    0 -0.64444597700E+01  0.11788353936E+02 -0.20624612595E+02  0.24614446875E+02  0.00000000000E+00 0. -1.
</event>
<event>
 8    1  0.1229038E-006  0.9118800E+02  0.7816164E-02  0.1184000E+00
        -11   -1    0    0    0    0  0.00000000000E+00  0.00000000000E+00  0.45593999997E+02  0.45594000000E+02  0.51100000000E-03 0.  1.
         11   -1    0    0    0    0 -0.00000000000E+00 -0.00000000000E+00 -0.45593999997E+02  0.45594000000E+02  0.51100000000E-03 0. -1.
         23    2    1    2    0    0  0.00000000000E+00  0.00000000000E+00 -0.35527136788E-14  0.91188000000E+02  0.91188000000E+02 0.  0.
    9900012    2    3    3    0    0 -0.11633673639E+02 -0.32349444049E+02 -0.13189059250E+02  0.54367079635E+02  0.39999989644E+02 0.  0.
        -12    1    3    3    0    0  0.11633673639E+02  0.32349444049E+02  0.13189059250E+02  0.36820920365E+02  0.00000000000E+00 0.  1.
         11    1    4    4    0    0 -0.53748704265E+01 -0.17067792953E+02 -0.40513397963E+01  0.18346992745E+02  0.51100000000E-03 0. -1.
        -11    1    4    4    0    0  0.53971656795E+01 -0.16011641220E+02 -0.15318153205E+02  0.22806750531E+02  0.51100000000E-03 0.  1.
        -12    1    4    4    0    0 -0.11655968891E+02  0.72999012342E+00  0.61804337514E+01  0.13213336359E+02  0.00000000000E+00 0.  1.
</event>
<event>
 8    1  0.1229038E-006  0.9118800E+02  0.7816164E-02  0.1184000E+00
        -11   -1    0    0    0    0  0.00000000000E+00  0.00000000000E+00  0.45593999997E+02  0.45594000000E+02  0.51100000000E-03 0. -1.
         11   -1    0    0    0    0 -0.00000000000E+00 -0.00000000000E+00 -0.45593999997E+02  0.45594000000E+02  0.51100000000E-03 0.  1.
         23    2    1    2    0    0  0.35527136788E-14  0.00000000000E+00  0.35527136788E-14  0.91188000000E+02  0.91188000000E+02 0.  0.
    9900012    2    3    3    0    0  0.22514341139E+02  0.15827106245E+02  0.24461946402E+02  0.54367086502E+02  0.40000005299E+02 0.  0.
        -12    1    3    3    0    0 -0.22514341139E+02 -0.15827106245E+02 -0.24461946402E+02  0.36820913498E+02  0.00000000000E+00 0.  1.
         11    1    4    4    0    0  0.21322788640E+02  0.92838490337E+01  0.17956373155E+02  0.29381669547E+02  0.51100000000E-03 0. -1.
        -11    1    4    4    0    0  0.51285364398E+01  0.71746744113E+01 -0.67737947247E+01  0.11120347753E+02  0.51100000000E-03 0.  1.
        -12    1    4    4    0    0 -0.39369839400E+01 -0.63141719989E+00  0.13279367972E+02  0.13865069201E+02  0.00000000000E+00 0.  1.
</event>
<event>
 8    1  0.1229038E-006  0.9118800E+02  0.7816164E-02  0.1184000E+00
        -11   -1    0    0    0    0  0.00000000000E+00  0.00000000000E+00  0.45593999997E+02  0.45594000000E+02  0.51100000000E-03 0.  1.
         11   -1    0    0    0    0 -0.00000000000E+00 -0.00000000000E+00 -0.45593999997E+02  0.45594000000E+02  0.51100000000E-03 0. -1.
         23    2    1    2    0    0  0.26645352591E-14  0.00000000000E+00  0.00000000000E+00  0.91188000000E+02  0.91188000000E+02 0.  0.
    9900012    2    3    3    0    0 -0.39263790167E+01 -0.24678273521E+02 -0.27043419215E+02  0.54367079873E+02  0.39999990187E+02 0.  0.
        -12    1    3    3    0    0  0.39263790167E+01  0.24678273521E+02  0.27043419215E+02  0.36820920127E+02  0.00000000000E+00 0.  1.
         11    1    4    4    0    0 -0.22971086648E+01 -0.18349001864E+02 -0.50634691398E+01  0.19172931378E+02  0.51100000000E-03 0. -1.
        -11    1    4    4    0    0  0.12200791645E+02 -0.42521788496E+01 -0.14169038254E+02  0.19175557020E+02  0.51100000000E-03 0.  1.
        -12    1    4    4    0    0 -0.13830061997E+02 -0.20770928075E+01 -0.78109118212E+01  0.16018591475E+02  0.00000000000E+00 0.  1.
</event>
<event>
 8    1  0.1229038E-006  0.9118800E+02  0.7816164E-02  0.1184000E+00
        -11   -1    0    0    0    0  0.00000000000E+00  0.00000000000E+00  0.45593999997E+02  0.45594000000E+02  0.51100000000E-03 0.  1.
         11   -1    0    0    0    0 -0.00000000000E+00 -0.00000000000E+00 -0.45593999997E+02  0.45594000000E+02  0.51100000000E-03 0. -1.
         23    2    1    2    0    0 -0.35527136788E-14 -0.17763568394E-14  0.00000000000E+00  0.91188000000E+02  0.91188000000E+02 0.  0.
    9900012    2    3    3    0    0 -0.16759385014E+02  0.87370669139E+01  0.31600113954E+02  0.54367074887E+02  0.39999978820E+02 0.  0.
         12    1    3    3    0    0  0.16759385014E+02 -0.87370669139E+01 -0.31600113954E+02  0.36820925113E+02  0.00000000000E+00 0. -1.
         11    1    4    4    0    0  0.33762456525E+01  0.19973263394E+02  0.17395096748E+02  0.26700555732E+02  0.51100000000E-03 0. -1.
        -11    1    4    4    0    0 -0.17653219449E+02 -0.86626867277E+01  0.13893907806E+02  0.24077353938E+02  0.51100000000E-03 0.  1.
         12    1    4    4    0    0 -0.24824112171E+01 -0.25735097520E+01  0.31110939955E+00  0.35891652168E+01  0.00000000000E+00 0. -1.
</event>
<event>
 8    1  0.1229038E-006  0.9118800E+02  0.7816164E-02  0.1184000E+00
        -11   -1    0    0    0    0  0.00000000000E+00  0.00000000000E+00  0.45593999997E+02  0.45594000000E+02  0.51100000000E-03 0. -1.
         11   -1    0    0    0    0 -0.00000000000E+00 -0.00000000000E+00 -0.45593999997E+02  0.45594000000E+02  0.51100000000E-03 0.  1.
         23    2    1    2    0    0 -0.35527136788E-14  0.35527136788E-14  0.00000000000E+00  0.91188000000E+02  0.91188000000E+02 0.  0.
    9900012    2    3    3    0    0  0.30741213606E+02  0.18597537889E+02  0.80554224008E+01  0.54367075792E+02  0.39999980883E+02 0.  0.
        -12    1    3    3    0    0 -0.30741213606E+02 -0.18597537889E+02 -0.80554224008E+01  0.36820924208E+02  0.00000000000E+00 0.  1.
         11    1    4    4    0    0  0.18383641310E+02  0.56050917523E+01  0.80010908618E+01  0.20818087727E+02  0.51100000000E-03 0. -1.
        -11    1    4    4    0    0 -0.16795279345E+01  0.18414656549E+02  0.43554958485E+00  0.18496218359E+02  0.51100000000E-03 0.  1.
        -12    1    4    4    0    0  0.14037100230E+02 -0.54222104115E+01 -0.38121804594E+00  0.15052769706E+02  0.00000000000E+00 0.  1.
</event>
<event>
 8    1  0.1229038E-006  0.9118800E+02  0.7816164E-02  0.1184000E+00
        -11   -1    0    0    0    0  0.00000000000E+00  0.00000000000E+00  0.45593999997E+02  0.45594000000E+02  0.51100000000E-03 0. -1.
         11   -1    0    0    0    0 -0.00000000000E+00 -0.00000000000E+00 -0.45593999997E+02  0.45594000000E+02  0.51100000000E-03 0.  1.
         23    2    1    2    0    0  0.00000000000E+00  0.00000000000E+00  0.00000000000E+00  0.91188000000E+02  0.91188000000E+02 0.  0.
    9900012    2    3    3    0    0  0.13674210139E+02 -0.50206747127E+01  0.33816988810E+02  0.54367082988E+02  0.39999997287E+02 0.  0.
        -12    1    3    3    0    0 -0.13674210139E+02  0.50206747127E+01 -0.33816988810E+02  0.36820917012E+02  0.00000000000E+00 0.  1.
         11    1    4    4    0    0  0.14156942286E+02 -0.42870085115E+01  0.33311321851E+02  0.36447793083E+02  0.51100000000E-03 0. -1.
        -11    1    4    4    0    0 -0.19736952975E+01 -0.56323215651E+01 -0.67682965513E+01  0.90237662762E+01  0.51100000000E-03 0.  1.
        -12    1    4    4    0    0  0.14909631502E+01  0.48986553639E+01  0.72739635097E+01  0.88955236288E+01  0.00000000000E+00 0.  1.
</event>
<event>
 8    1  0.1229038E-006  0.9118800E+02  0.7816164E-02  0.1184000E+00
        -11   -1    0    0    0    0  0.00000000000E+00  0.00000000000E+00  0.45593999997E+02  0.45594000000E+02  0.51100000000E-03 0.  1.
         11   -1    0    0    0    0 -0.00000000000E+00 -0.00000000000E+00 -0.45593999997E+02  0.45594000000E+02  0.51100000000E-03 0. -1.
         23    2    1    2    0    0 -0.88817841970E-15  0.35527136788E-14  0.35527136788E-14  0.91188000000E+02  0.91188000000E+02 0.  0.
    9900012    2    3    3    0    0 -0.52716858079E+01 -0.22550203556E+02 -0.28626778330E+02  0.54366881206E+02  0.39999537283E+02 0.  0.
        -12    1    3    3    0    0  0.52716858079E+01  0.22550203556E+02  0.28626778330E+02  0.36821118794E+02  0.00000000000E+00 0.  1.
         11    1    4    4    0    0 -0.11755778315E+02 -0.19815588979E+02 -0.26763135440E+02  0.35314604758E+02  0.51100000000E-03 0. -1.
        -11    1    4    4    0    0  0.13091886629E+01 -0.75186516431E+01 -0.69808558588E+01  0.10342941858E+02  0.51100000000E-03 0.  1.
        -12    1    4    4    0    0  0.51749038446E+01  0.47840370660E+01  0.51172129685E+01  0.87093345908E+01  0.00000000000E+00 0.  1.
</event>
<event>
 8    1  0.1229038E-006  0.9118800E+02  0.7816164E-02  0.1184000E+00
        -11   -1    0    0    0    0  0.00000000000E+00  0.00000000000E+00  0.45593999997E+02  0.45594000000E+02  0.51100000000E-03 0. -1.
         11   -1    0    0    0    0 -0.00000000000E+00 -0.00000000000E+00 -0.45593999997E+02  0.45594000000E+02  0.51100000000E-03 0.  1.
         23    2    1    2    0    0  0.00000000000E+00  0.71054273576E-14  0.35527136788E-14  0.91188000000E+02  0.91188000000E+02 0.  0.
    9900012    2    3    3    0    0 -0.45901241656E+01 -0.21308084345E+02 -0.29676189908E+02  0.54367082768E+02  0.39999996787E+02 0.  0.
         12    1    3    3    0    0  0.45901241656E+01  0.21308084345E+02  0.29676189908E+02  0.36820917232E+02  0.00000000000E+00 0. -1.
         11    1    4    4    0    0  0.28744875098E+01 -0.23252050510E+02 -0.44549178672E+01  0.23848832777E+02  0.51100000000E-03 0. -1.
        -11    1    4    4    0    0 -0.45529733431E+01 -0.10241811507E+01  0.28487781310E+00  0.46754324851E+01  0.51100000000E-03 0.  1.
        -12    1    4    4    0    0 -0.29116383323E+01  0.29681473154E+01 -0.25506149854E+02  0.25842817506E+02  0.00000000000E+00 0.  1.
</event>
<event>
 8    1  0.1229038E-006  0.9118800E+02  0.7816164E-02  0.1184000E+00
        -11   -1    0    0    0    0  0.00000000000E+00  0.00000000000E+00  0.45593999997E+02  0.45594000000E+02  0.51100000000E-03 0.  1.
         11   -1    0    0    0    0 -0.00000000000E+00 -0.00000000000E+00 -0.45593999997E+02  0.45594000000E+02  0.51100000000E-03 0. -1.
         23    2    1    2    0    0 -0.35527136788E-14 -0.88817841970E-15  0.00000000000E+00  0.91188000000E+02  0.91188000000E+02 0.  0.
    9900012    2    3    3    0    0 -0.31595732657E+02 -0.78304998521E+01  0.17209697049E+02  0.54367072220E+02  0.39999972740E+02 0.  0.
         12    1    3    3    0    0  0.31595732657E+02  0.78304998521E+01 -0.17209697049E+02  0.36820927780E+02  0.00000000000E+00 0. -1.
         11    1    4    4    0    0 -0.83629433130E+01  0.72323819716E+01  0.13629864497E+02  0.17550480800E+02  0.51100000000E-03 0. -1.
        -11    1    4    4    0    0 -0.78014620099E+01 -0.20734783944E+01  0.12404763691E+02  0.14800009616E+02  0.51100000000E-03 0.  1.
         12    1    4    4    0    0 -0.15431327334E+02 -0.12989403429E+02 -0.88249311389E+01  0.22016581804E+02  0.00000000000E+00 0. -1.
</event>
<event>
 8    1  0.1229038E-006  0.9118800E+02  0.7816164E-02  0.1184000E+00
        -11   -1    0    0    0    0  0.00000000000E+00  0.00000000000E+00  0.45593999997E+02  0.45594000000E+02  0.51100000000E-03 0.  1.
         11   -1    0    0    0    0 -0.00000000000E+00 -0.00000000000E+00 -0.45593999997E+02  0.45594000000E+02  0.51100000000E-03 0. -1.
         23    2    1    2    0    0  0.00000000000E+00  0.17763568394E-14  0.00000000000E+00  0.91188000000E+02  0.91188000000E+02 0.  0.
    9900012    2    3    3    0    0 -0.32996480621E+02  0.10215141034E+02 -0.12753862241E+02  0.54367111339E+02  0.40000061920E+02 0.  0.
        -12    1    3    3    0    0  0.32996480621E+02 -0.10215141034E+02  0.12753862241E+02  0.36820888661E+02  0.00000000000E+00 0.  1.
         11    1    4    4    0    0 -0.12381468705E+02 -0.16281699592E+00 -0.99566487960E+01  0.15889056994E+02  0.51100000000E-03 0. -1.
        -11    1    4    4    0    0 -0.71383432042E+01 -0.10994700509E+02 -0.10653336694E+01  0.13151970159E+02  0.51100000000E-03 0.  1.
         12    1    4    4    0    0 -0.13476668712E+02  0.21372658539E+02 -0.17318797755E+01  0.25326084186E+02  0.00000000000E+00 0. -1.
</event>
<event>
 8    1  0.1229038E-006  0.9118800E+02  0.7816164E-02  0.1184000E+00
        -11   -1    0    0    0    0  0.00000000000E+00  0.00000000000E+00  0.45593999997E+02  0.45594000000E+02  0.51100000000E-03 0.  1.
         11   -1    0    0    0    0 -0.00000000000E+00 -0.00000000000E+00 -0.45593999997E+02  0.45594000000E+02  0.51100000000E-03 0. -1.
         23    2    1    2    0    0 -0.35527136788E-14  0.35527136788E-14  0.00000000000E+00  0.91188000000E+02  0.91188000000E+02 0.  0.
    9900012    2    3    3    0    0 -0.27000380044E+02  0.23121172788E+02  0.96005595217E+01  0.54367083434E+02  0.39999998305E+02 0.  0.
         12    1    3    3    0    0  0.27000380044E+02 -0.23121172788E+02 -0.96005595217E+01  0.36820916566E+02  0.00000000000E+00 0. -1.
         11    1    4    4    0    0  0.81290209796E+01  0.62813263953E+00 -0.15912870338E+01  0.83070889838E+01  0.51100000000E-03 0. -1.
        -11    1    4    4    0    0 -0.68351545928E+01  0.46277089723E+01 -0.41607401795E+01  0.92437431673E+01  0.51100000000E-03 0.  1.
        -12    1    4    4    0    0 -0.28294246431E+02  0.17865331176E+02  0.15352586735E+02  0.36816251283E+02  0.00000000000E+00 0.  1.
</event>
<event>
 8    1  0.1229038E-006  0.9118800E+02  0.7816164E-02  0.1184000E+00
        -11   -1    0    0    0    0  0.00000000000E+00  0.00000000000E+00  0.45593999997E+02  0.45594000000E+02  0.51100000000E-03 0.  1.
         11   -1    0    0    0    0 -0.00000000000E+00 -0.00000000000E+00 -0.45593999997E+02  0.45594000000E+02  0.51100000000E-03 0. -1.
         23    2    1    2    0    0 -0.13322676296E-14  0.88817841970E-15 -0.71054273576E-14  0.91188000000E+02  0.91188000000E+02 0.  0.
    9900012    2    3    3    0    0  0.31551489780E+01 -0.72462729190E+01  0.35962700595E+02  0.54367091940E+02  0.40000017696E+02 0.  0.
         12    1    3    3    0    0 -0.31551489780E+01  0.72462729190E+01 -0.35962700595E+02  0.36820908060E+02  0.00000000000E+00 0. -1.
         11    1    4    4    0    0 -0.90794489568E+01  0.10283062931E+00  0.80006666923E+01  0.12101968240E+02  0.51100000000E-03 0. -1.
        -11    1    4    4    0    0 -0.26978861030E+01 -0.46553537827E+01  0.26478054535E+02  0.27019220575E+02  0.51100000000E-03 0.  1.
         12    1    4    4    0    0  0.14932484038E+02 -0.26937497656E+01  0.14839793674E+01  0.15245903125E+02  0.00000000000E+00 0. -1.
</event>
<event>
 8    1  0.1229038E-006  0.9118800E+02  0.7816164E-02  0.1184000E+00
        -11   -1    0    0    0    0  0.00000000000E+00  0.00000000000E+00  0.45593999997E+02  0.45594000000E+02  0.51100000000E-03 0.  1.
         11   -1    0    0    0    0 -0.00000000000E+00 -0.00000000000E+00 -0.45593999997E+02  0.45594000000E+02  0.51100000000E-03 0. -1.
         23    2    1    2    0    0 -0.17763568394E-14  0.88817841970E-15  0.00000000000E+00  0.91188000000E+02  0.91188000000E+02 0.  0.
    9900012    2    3    3    0    0  0.78872486310E+01  0.73123947703E+01  0.35215058290E+02  0.54367080150E+02  0.39999990818E+02 0.  0.
         12    1    3    3    0    0 -0.78872486310E+01 -0.73123947703E+01 -0.35215058290E+02  0.36820919850E+02  0.00000000000E+00 0. -1.
         11    1    4    4    0    0  0.11653417202E+02  0.33628746395E+01 -0.76512414673E+00  0.12153043798E+02  0.51100000000E-03 0. -1.
        -11    1    4    4    0    0 -0.34197099009E+01 -0.21149589358E+01  0.35914939462E+02  0.36139318531E+02  0.51100000000E-03 0.  1.
        -12    1    4    4    0    0 -0.34645867053E+00  0.60644790666E+01  0.65242974796E-01  0.60747178211E+01  0.00000000000E+00 0.  1.
</event>
<event>
 8    1  0.1229038E-006  0.9118800E+02  0.7816164E-02  0.1184000E+00
        -11   -1    0    0    0    0  0.00000000000E+00  0.00000000000E+00  0.45593999997E+02  0.45594000000E+02  0.51100000000E-03 0.  1.
         11   -1    0    0    0    0 -0.00000000000E+00 -0.00000000000E+00 -0.45593999997E+02  0.45594000000E+02  0.51100000000E-03 0. -1.
         23    2    1    2    0    0  0.00000000000E+00 -0.17763568394E-14  0.00000000000E+00  0.91188000000E+02  0.91188000000E+02 0.  0.
    9900012    2    3    3    0    0  0.10157689597E+02 -0.13350920126E+02  0.32777337223E+02  0.54367087985E+02  0.40000008679E+02 0.  0.
         12    1    3    3    0    0 -0.10157689597E+02  0.13350920126E+02 -0.32777337223E+02  0.36820912015E+02  0.00000000000E+00 0. -1.
         11    1    4    4    0    0  0.24869486840E+01 -0.52363592859E+01 -0.17391369517E+01  0.60521872018E+01  0.51100000000E-03 0. -1.
        -11    1    4    4    0    0  0.18217478664E+02  0.28572637610E+01  0.21145841225E+02  0.28056854536E+02  0.51100000000E-03 0.  1.
         12    1    4    4    0    0 -0.10546737751E+02 -0.10971824601E+02  0.13370632950E+02  0.20258046247E+02  0.00000000000E+00 0. -1.
</event>
<event>
 8    1  0.1229038E-006  0.9118800E+02  0.7816164E-02  0.1184000E+00
        -11   -1    0    0    0    0  0.00000000000E+00  0.00000000000E+00  0.45593999997E+02  0.45594000000E+02  0.51100000000E-03 0.  1.
         11   -1    0    0    0    0 -0.00000000000E+00 -0.00000000000E+00 -0.45593999997E+02  0.45594000000E+02  0.51100000000E-03 0. -1.
         23    2    1    2    0    0  0.35527136788E-14  0.00000000000E+00  0.00000000000E+00  0.91188000000E+02  0.91188000000E+02 0.  0.
    9900012    2    3    3    0    0 -0.20666160288E+02  0.24341965823E+02 -0.18334542488E+02  0.54367123728E+02  0.40000090163E+02 0.  0.
        -12    1    3    3    0    0  0.20666160288E+02 -0.24341965823E+02  0.18334542488E+02  0.36820876272E+02  0.00000000000E+00 0.  1.
         11    1    4    4    0    0  0.36389150077E+01  0.26541575009E+01 -0.74424360600E+01  0.86992016439E+01  0.51100000000E-03 0. -1.
        -11    1    4    4    0    0 -0.39833816167E+00 -0.43882497348E+01 -0.92587700629E+01  0.10253791122E+02  0.51100000000E-03 0.  1.
        -12    1    4    4    0    0 -0.23906737134E+02  0.26076058056E+02 -0.16333363652E+01  0.35414130963E+02  0.00000000000E+00 0.  1.
</event>
<event>
 8    1  0.1229038E-006  0.9118800E+02  0.7816164E-02  0.1184000E+00
        -11   -1    0    0    0    0  0.00000000000E+00  0.00000000000E+00  0.45593999997E+02  0.45594000000E+02  0.51100000000E-03 0. -1.
         11   -1    0    0    0    0 -0.00000000000E+00 -0.00000000000E+00 -0.45593999997E+02  0.45594000000E+02  0.51100000000E-03 0.  1.
         23    2    1    2    0    0 -0.35527136788E-14  0.00000000000E+00  0.88817841970E-15  0.91188000000E+02  0.91188000000E+02 0.  0.
    9900012    2    3    3    0    0 -0.31387892169E+02 -0.18551253569E+02  0.51411388011E+01  0.54367080783E+02  0.39999992261E+02 0.  0.
         12    1    3    3    0    0  0.31387892169E+02  0.18551253569E+02 -0.51411388011E+01  0.36820919217E+02  0.00000000000E+00 0. -1.
         11    1    4    4    0    0 -0.78233835132E+01 -0.11688732713E+02  0.14167126579E+02  0.19963448544E+02  0.51100000000E-03 0. -1.
        -11    1    4    4    0    0 -0.24988142524E+02 -0.12018337161E+02 -0.64573301807E+01  0.28470068638E+02  0.51100000000E-03 0.  1.
        -12    1    4    4    0    0  0.14236338681E+01  0.51558163046E+01 -0.25686575970E+01  0.59335636011E+01  0.00000000000E+00 0.  1.
</event>
<event>
 8    1  0.1229038E-006  0.9118800E+02  0.7816164E-02  0.1184000E+00
        -11   -1    0    0    0    0  0.00000000000E+00  0.00000000000E+00  0.45593999997E+02  0.45594000000E+02  0.51100000000E-03 0. -1.
         11   -1    0    0    0    0 -0.00000000000E+00 -0.00000000000E+00 -0.45593999997E+02  0.45594000000E+02  0.51100000000E-03 0.  1.
         23    2    1    2    0    0 -0.35527136788E-14  0.44408920985E-15  0.71054273576E-14  0.91188000000E+02  0.91188000000E+02 0.  0.
    9900012    2    3    3    0    0  0.29556383010E+02 -0.33914613270E+01  0.21695567194E+02  0.54367089875E+02  0.40000012987E+02 0.  0.
        -12    1    3    3    0    0 -0.29556383010E+02  0.33914613270E+01 -0.21695567194E+02  0.36820910125E+02  0.00000000000E+00 0.  1.
         11    1    4    4    0    0  0.19728893677E+02 -0.65165583448E+01  0.25508418593E+02  0.32899455888E+02  0.51100000000E-03 0. -1.
        -11    1    4    4    0    0 -0.18089635594E+01  0.97197887324E+00  0.58435182361E+01  0.61938516067E+01  0.51100000000E-03 0.  1.
        -12    1    4    4    0    0  0.11636452893E+02  0.21531181445E+01 -0.96563696345E+01  0.15273782380E+02  0.00000000000E+00 0.  1.
</event>
<event>
 8    1  0.1229038E-006  0.9118800E+02  0.7816164E-02  0.1184000E+00
        -11   -1    0    0    0    0  0.00000000000E+00  0.00000000000E+00  0.45593999997E+02  0.45594000000E+02  0.51100000000E-03 0. -1.
         11   -1    0    0    0    0 -0.00000000000E+00 -0.00000000000E+00 -0.45593999997E+02  0.45594000000E+02  0.51100000000E-03 0.  1.
         23    2    1    2    0    0  0.00000000000E+00 -0.13322676296E-14  0.71054273576E-14  0.91188000000E+02  0.91188000000E+02 0.  0.
    9900012    2    3    3    0    0 -0.72836382330E+01 -0.39794784345E+01 -0.35873283314E+02  0.54367080807E+02  0.39999992316E+02 0.  0.
         12    1    3    3    0    0  0.72836382330E+01  0.39794784345E+01  0.35873283314E+02  0.36820919193E+02  0.00000000000E+00 0. -1.
         11    1    4    4    0    0 -0.44815329096E+01  0.13105459593E+02 -0.50784293276E+01  0.14752208413E+02  0.51100000000E-03 0. -1.
        -11    1    4    4    0    0  0.35387179515E+01 -0.85425940929E+01 -0.27913596344E+01  0.96586814548E+01  0.51100000000E-03 0.  1.
        -12    1    4    4    0    0 -0.63408232749E+01 -0.85423439343E+01 -0.28003494352E+02  0.29956190939E+02  0.00000000000E+00 0.  1.
</event>
<event>
 8    1  0.1229038E-006  0.9118800E+02  0.7816164E-02  0.1184000E+00
        -11   -1    0    0    0    0  0.00000000000E+00  0.00000000000E+00  0.45593999997E+02  0.45594000000E+02  0.51100000000E-03 0.  1.
         11   -1    0    0    0    0 -0.00000000000E+00 -0.00000000000E+00 -0.45593999997E+02  0.45594000000E+02  0.51100000000E-03 0. -1.
         23    2    1    2    0    0  0.00000000000E+00 -0.11102230246E-14 -0.10658141036E-13  0.91188000000E+02  0.91188000000E+02 0.  0.
    9900012    2    3    3    0    0  0.18172225899E+02  0.16444368582E+01  0.31981978392E+02  0.54367069695E+02  0.39999966983E+02 0.  0.
         12    1    3    3    0    0 -0.18172225899E+02 -0.16444368582E+01 -0.31981978392E+02  0.36820930305E+02  0.00000000000E+00 0. -1.
         11    1    4    4    0    0  0.15227640103E+02  0.26617405993E+01  0.42290818718E+01  0.16026572305E+02  0.51100000000E-03 0.  1.
        -11    1    4    4    0    0 -0.69631655977E+01 -0.59151084617E+01  0.75455959407E+00  0.91675265855E+01  0.51100000000E-03 0. -1.
         12    1    4    4    0    0  0.99077513938E+01  0.48978047206E+01  0.26998336926E+02  0.29172970804E+02  0.00000000000E+00 0. -1.
</event>
<event>
 8    1  0.1229038E-006  0.9118800E+02  0.7816164E-02  0.1184000E+00
        -11   -1    0    0    0    0  0.00000000000E+00  0.00000000000E+00  0.45593999997E+02  0.45594000000E+02  0.51100000000E-03 0.  1.
         11   -1    0    0    0    0 -0.00000000000E+00 -0.00000000000E+00 -0.45593999997E+02  0.45594000000E+02  0.51100000000E-03 0. -1.
         23    2    1    2    0    0  0.00000000000E+00  0.00000000000E+00  0.35527136788E-14  0.91188000000E+02  0.91188000000E+02 0.  0.
    9900012    2    3    3    0    0 -0.22678287704E+02  0.10788566442E+02  0.26927342556E+02  0.54367086429E+02  0.40000005132E+02 0.  0.
         12    1    3    3    0    0  0.22678287704E+02 -0.10788566442E+02 -0.26927342556E+02  0.36820913571E+02  0.00000000000E+00 0. -1.
         11    1    4    4    0    0 -0.61769508156E+01  0.14729718947E+00  0.16610915466E+02  0.17722836418E+02  0.51100000000E-03 0. -1.
        -11    1    4    4    0    0  0.13188517695E-01 -0.91847757950E+01  0.11272829223E+01  0.92537045224E+01  0.51100000000E-03 0.  1.
        -12    1    4    4    0    0 -0.16514525407E+02  0.19826045047E+02  0.91891441681E+01  0.27390545488E+02  0.00000000000E+00 0.  1.
</event>
<event>
 8    1  0.1229038E-006  0.9118800E+02  0.7816164E-02  0.1184000E+00
        -11   -1    0    0    0    0  0.00000000000E+00  0.00000000000E+00  0.45593999997E+02  0.45594000000E+02  0.51100000000E-03 0. -1.
         11   -1    0    0    0    0 -0.00000000000E+00 -0.00000000000E+00 -0.45593999997E+02  0.45594000000E+02  0.51100000000E-03 0.  1.
         23    2    1    2    0    0  0.00000000000E+00  0.71054273576E-14  0.00000000000E+00  0.91188000000E+02  0.91188000000E+02 0.  0.
    9900012    2    3    3    0    0 -0.28172153818E+02  0.20363635774E+02 -0.12142153204E+02  0.54367084787E+02  0.40000001388E+02 0.  0.
         12    1    3    3    0    0  0.28172153818E+02 -0.20363635774E+02  0.12142153204E+02  0.36820915213E+02  0.00000000000E+00 0. -1.
         11    1    4    4    0    0  0.23073805788E+01 -0.32054163027E+01 -0.24596567019E+01  0.46528066971E+01  0.51100000000E-03 0. -1.
        -11    1    4    4    0    0 -0.22760171402E+00 -0.52510794082E+01 -0.56827364430E+01  0.77407448758E+01  0.51100000000E-03 0.  1.
        -12    1    4    4    0    0 -0.30251932683E+02  0.28820131485E+02 -0.39997600592E+01  0.41973533214E+02  0.00000000000E+00 0.  1.
</event>
<event>
 8    1  0.1229038E-006  0.9118800E+02  0.7816164E-02  0.1184000E+00
        -11   -1    0    0    0    0  0.00000000000E+00  0.00000000000E+00  0.45593999997E+02  0.45594000000E+02  0.51100000000E-03 0.  1.
         11   -1    0    0    0    0 -0.00000000000E+00 -0.00000000000E+00 -0.45593999997E+02  0.45594000000E+02  0.51100000000E-03 0. -1.
         23    2    1    2    0    0  0.00000000000E+00  0.17763568394E-14  0.44408920985E-15  0.91188000000E+02  0.91188000000E+02 0.  0.
    9900012    2    3    3    0    0  0.35119412676E+02  0.10762505517E+02 -0.25643266042E+01  0.54367076021E+02  0.39999981406E+02 0.  0.
         12    1    3    3    0    0 -0.35119412676E+02 -0.10762505517E+02  0.25643266042E+01  0.36820923979E+02  0.00000000000E+00 0. -1.
         11    1    4    4    0    0  0.13323183026E+02  0.45094593989E+01 -0.16872624268E+02  0.21966517247E+02  0.51100000000E-03 0. -1.
        -11    1    4    4    0    0  0.87287306706E+01 -0.46227616076E+01  0.11515790835E+02  0.15171489802E+02  0.51100000000E-03 0.  1.
         12    1    4    4    0    0  0.13067498980E+02  0.10875807725E+02  0.27925068285E+01  0.17229068972E+02  0.00000000000E+00 0. -1.
</event>
<event>
 8    1  0.1229038E-006  0.9118800E+02  0.7816164E-02  0.1184000E+00
        -11   -1    0    0    0    0  0.00000000000E+00  0.00000000000E+00  0.45593999997E+02  0.45594000000E+02  0.51100000000E-03 0. -1.
         11   -1    0    0    0    0 -0.00000000000E+00 -0.00000000000E+00 -0.45593999997E+02  0.45594000000E+02  0.51100000000E-03 0.  1.
         23    2    1    2    0    0 -0.88817841970E-15  0.00000000000E+00  0.00000000000E+00  0.91188000000E+02  0.91188000000E+02 0.  0.
    9900012    2    3    3    0    0 -0.78549189508E+01 -0.22979402640E+02 -0.27677194822E+02  0.54367084603E+02  0.40000000970E+02 0.  0.
         12    1    3    3    0    0  0.78549189508E+01  0.22979402640E+02  0.27677194822E+02  0.36820915397E+02  0.00000000000E+00 0. -1.
         11    1    4    4    0    0 -0.61966153867E+01  0.36696447946E+01 -0.68209881649E+00  0.72339197000E+01  0.51100000000E-03 0. -1.
        -11    1    4    4    0    0 -0.82252576658E+01  0.11112886938E+01 -0.68841068834E+00  0.83284894049E+01  0.51100000000E-03 0.  1.
        -12    1    4    4    0    0  0.65669541017E+01 -0.27760336128E+02 -0.26306685318E+02  0.38804675498E+02  0.00000000000E+00 0.  1.
</event>
<event>
 8    1  0.1229038E-006  0.9118800E+02  0.7816164E-02  0.1184000E+00
        -11   -1    0    0    0    0  0.00000000000E+00  0.00000000000E+00  0.45593999997E+02  0.45594000000E+02  0.51100000000E-03 0.  1.
         11   -1    0    0    0    0 -0.00000000000E+00 -0.00000000000E+00 -0.45593999997E+02  0.45594000000E+02  0.51100000000E-03 0. -1.
         23    2    1    2    0    0  0.44408920985E-15  0.00000000000E+00 -0.17763568394E-14  0.91188000000E+02  0.91188000000E+02 0.  0.
    9900012    2    3    3    0    0  0.29856710659E+01  0.33878131012E+02  0.14111616914E+02  0.54367085773E+02  0.40000003637E+02 0.  0.
         12    1    3    3    0    0 -0.29856710659E+01 -0.33878131012E+02 -0.14111616914E+02  0.36820914227E+02  0.00000000000E+00 0. -1.
         11    1    4    4    0    0 -0.78921073994E+01  0.89961788989E+01  0.71215969918E+01  0.13926009405E+02  0.51100000000E-03 0. -1.
        -11    1    4    4    0    0 -0.76606131278E+01  0.11933035197E+02  0.10382639404E+02  0.17575025569E+02  0.51100000000E-03 0.  1.
         12    1    4    4    0    0  0.18538391593E+02  0.12948916916E+02 -0.33926194824E+01  0.22866050798E+02  0.00000000000E+00 0. -1.
</event>
<event>
 8    1  0.1229038E-006  0.9118800E+02  0.7816164E-02  0.1184000E+00
        -11   -1    0    0    0    0  0.00000000000E+00  0.00000000000E+00  0.45593999997E+02  0.45594000000E+02  0.51100000000E-03 0.  1.
         11   -1    0    0    0    0 -0.00000000000E+00 -0.00000000000E+00 -0.45593999997E+02  0.45594000000E+02  0.51100000000E-03 0. -1.
         23    2    1    2    0    0 -0.17763568394E-14 -0.35527136788E-14  0.00000000000E+00  0.91188000000E+02  0.91188000000E+02 0.  0.
    9900012    2    3    3    0    0  0.46822421042E+01  0.26255026889E+02  0.25387583729E+02  0.54367092411E+02  0.40000018770E+02 0.  0.
         12    1    3    3    0    0 -0.46822421042E+01 -0.26255026889E+02 -0.25387583729E+02  0.36820907589E+02  0.00000000000E+00 0. -1.
         11    1    4    4    0    0  0.13351094618E+02 -0.22856091240E+01  0.72680275899E+01  0.15372051323E+02  0.51100000000E-03 0. -1.
        -11    1    4    4    0    0 -0.57357812782E+01  0.17837493096E+02  0.20364094225E+02  0.27672579943E+02  0.51100000000E-03 0.  1.
         12    1    4    4    0    0 -0.29330712361E+01  0.10703142917E+02 -0.22445380859E+01  0.11322461145E+02  0.00000000000E+00 0. -1.
</event>
<event>
 8    1  0.1229038E-006  0.9118800E+02  0.7816164E-02  0.1184000E+00
        -11   -1    0    0    0    0  0.00000000000E+00  0.00000000000E+00  0.45593999997E+02  0.45594000000E+02  0.51100000000E-03 0.  1.
         11   -1    0    0    0    0 -0.00000000000E+00 -0.00000000000E+00 -0.45593999997E+02  0.45594000000E+02  0.51100000000E-03 0. -1.
         23    2    1    2    0    0  0.00000000000E+00  0.00000000000E+00  0.00000000000E+00  0.91188000000E+02  0.91188000000E+02 0.  0.
    9900012    2    3    3    0    0 -0.33024462298E+01 -0.73493855562E+01 -0.35928535764E+02  0.54367091520E+02  0.40000016739E+02 0.  0.
        -12    1    3    3    0    0  0.33024462298E+01  0.73493855562E+01  0.35928535764E+02  0.36820908480E+02  0.00000000000E+00 0.  1.
         11    1    4    4    0    0 -0.63438070513E+00 -0.22091057232E+02 -0.11158422148E+02  0.24757375338E+02  0.51100000000E-03 0.  1.
        -11    1    4    4    0    0 -0.20246526333E+01  0.12748039146E+02 -0.15820181806E+02  0.20417881207E+02  0.51100000000E-03 0. -1.
        -12    1    4    4    0    0 -0.64341289140E+00  0.19936325299E+01 -0.89499318099E+01  0.91918349754E+01  0.00000000000E+00 0.  1.
</event>
<event>
 8    1  0.1229038E-006  0.9118800E+02  0.7816164E-02  0.1184000E+00
        -11   -1    0    0    0    0  0.00000000000E+00  0.00000000000E+00  0.45593999997E+02  0.45594000000E+02  0.51100000000E-03 0.  1.
         11   -1    0    0    0    0 -0.00000000000E+00 -0.00000000000E+00 -0.45593999997E+02  0.45594000000E+02  0.51100000000E-03 0. -1.
         23    2    1    2    0    0 -0.35527136788E-14  0.00000000000E+00  0.00000000000E+00  0.91188000000E+02  0.91188000000E+02 0.  0.
    9900012    2    3    3    0    0 -0.23671105213E+02  0.23128970442E+02 -0.16140297644E+02  0.54367086055E+02  0.40000004279E+02 0.  0.
         12    1    3    3    0    0  0.23671105213E+02 -0.23128970442E+02  0.16140297644E+02  0.36820913945E+02  0.00000000000E+00 0. -1.
         11    1    4    4    0    0  0.36681689141E+01  0.67273144781E+01 -0.16640357315E+02  0.18319762966E+02  0.51100000000E-03 0. -1.
        -11    1    4    4    0    0 -0.26253954204E+02  0.13995428280E+02  0.56288210619E+01  0.30279130617E+02  0.51100000000E-03 0.  1.
        -12    1    4    4    0    0 -0.10853199227E+01  0.24062276840E+01 -0.51287613905E+01  0.57681924727E+01  0.00000000000E+00 0.  1.
</event>
<event>
 8    1  0.1229038E-006  0.9118800E+02  0.7816164E-02  0.1184000E+00
        -11   -1    0    0    0    0  0.00000000000E+00  0.00000000000E+00  0.45593999997E+02  0.45594000000E+02  0.51100000000E-03 0.  1.
         11   -1    0    0    0    0 -0.00000000000E+00 -0.00000000000E+00 -0.45593999997E+02  0.45594000000E+02  0.51100000000E-03 0. -1.
         23    2    1    2    0    0  0.00000000000E+00  0.00000000000E+00 -0.88817841970E-15  0.91188000000E+02  0.91188000000E+02 0.  0.
    9900012    2    3    3    0    0  0.62212179616E+01  0.36149905081E+02 -0.32030888886E+01  0.54367096036E+02  0.40000027033E+02 0.  0.
        -12    1    3    3    0    0 -0.62212179616E+01 -0.36149905081E+02  0.32030888886E+01  0.36820903964E+02  0.00000000000E+00 0.  1.
         11    1    4    4    0    0 -0.10180369864E+01 -0.70009125779E+00 -0.27933994137E+01  0.30544406395E+01  0.51100000000E-03 0. -1.
        -11    1    4    4    0    0 -0.22096068317E+01 -0.27795660391E+00 -0.11272969923E+02  0.11490843022E+02  0.51100000000E-03 0.  1.
         12    1    4    4    0    0  0.94488617797E+01  0.37127952943E+02  0.10863280448E+02  0.39821812374E+02  0.00000000000E+00 0. -1.
</event>
<event>
 8    1  0.1229038E-006  0.9118800E+02  0.7816164E-02  0.1184000E+00
        -11   -1    0    0    0    0  0.00000000000E+00  0.00000000000E+00  0.45593999997E+02  0.45594000000E+02  0.51100000000E-03 0. -1.
         11   -1    0    0    0    0 -0.00000000000E+00 -0.00000000000E+00 -0.45593999997E+02  0.45594000000E+02  0.51100000000E-03 0.  1.
         23    2    1    2    0    0  0.17763568394E-14  0.00000000000E+00  0.71054273576E-14  0.91188000000E+02  0.91188000000E+02 0.  0.
    9900012    2    3    3    0    0  0.97213717590E+01 -0.13038801611E+02  0.33034296087E+02  0.54367080208E+02  0.39999990951E+02 0.  0.
        -12    1    3    3    0    0 -0.97213717590E+01  0.13038801611E+02 -0.33034296087E+02  0.36820919792E+02  0.00000000000E+00 0.  1.
         11    1    4    4    0    0  0.12204619992E+01  0.98375290324E+00  0.34376309579E+01  0.37781747088E+01  0.51100000000E-03 0. -1.
        -11    1    4    4    0    0 -0.20700865126E+01 -0.10312218740E+02 -0.67882286542E+01  0.12518273125E+02  0.51100000000E-03 0.  1.
        -12    1    4    4    0    0  0.10570996272E+02 -0.37103357738E+01  0.36384893784E+02  0.38070632374E+02  0.00000000000E+00 0.  1.
</event>
<event>
 8    1  0.1229038E-006  0.9118800E+02  0.7816164E-02  0.1184000E+00
        -11   -1    0    0    0    0  0.00000000000E+00  0.00000000000E+00  0.45593999997E+02  0.45594000000E+02  0.51100000000E-03 0. -1.
         11   -1    0    0    0    0 -0.00000000000E+00 -0.00000000000E+00 -0.45593999997E+02  0.45594000000E+02  0.51100000000E-03 0.  1.
         23    2    1    2    0    0 -0.71054273576E-14 -0.88817841970E-15  0.00000000000E+00  0.91188000000E+02  0.91188000000E+02 0.  0.
    9900012    2    3    3    0    0  0.35239341467E+02 -0.70775315546E+01  0.79920795694E+01  0.54367136678E+02  0.40000119685E+02 0.  0.
         12    1    3    3    0    0 -0.35239341467E+02  0.70775315546E+01 -0.79920795694E+01  0.36820863322E+02  0.00000000000E+00 0. -1.
         11    1    4    4    0    0 -0.14388415927E+01 -0.24052609616E+01  0.88410442407E+01  0.92746756789E+01  0.51100000000E-03 0. -1.
        -11    1    4    4    0    0 -0.29381137062E+01  0.31211082033E+01 -0.19333810461E+01  0.47023176304E+01  0.51100000000E-03 0.  1.
        -12    1    4    4    0    0  0.39616296766E+02 -0.77933787962E+01  0.10844163748E+01  0.40390143369E+02  0.00000000000E+00 0.  1.
</event>
<event>
 8    1  0.1229038E-006  0.9118800E+02  0.7816164E-02  0.1184000E+00
        -11   -1    0    0    0    0  0.00000000000E+00  0.00000000000E+00  0.45593999997E+02  0.45594000000E+02  0.51100000000E-03 0.  1.
         11   -1    0    0    0    0 -0.00000000000E+00 -0.00000000000E+00 -0.45593999997E+02  0.45594000000E+02  0.51100000000E-03 0. -1.
         23    2    1    2    0    0  0.00000000000E+00  0.17763568394E-14  0.00000000000E+00  0.91188000000E+02  0.91188000000E+02 0.  0.
    9900012    2    3    3    0    0 -0.32392040154E+02 -0.93877604393E+01 -0.14778584607E+02  0.54367070159E+02  0.39999968041E+02 0.  0.
        -12    1    3    3    0    0  0.32392040154E+02  0.93877604393E+01  0.14778584607E+02  0.36820929841E+02  0.00000000000E+00 0.  1.
         11    1    4    4    0    0 -0.43581024425E+01 -0.32899068758E+01 -0.19301045998E+02  0.20058587215E+02  0.51100000000E-03 0. -1.
        -11    1    4    4    0    0 -0.29981564344E+01  0.52213366018E+01 -0.14457423277E+01  0.61920488575E+01  0.51100000000E-03 0.  1.
        -12    1    4    4    0    0 -0.25035781277E+02 -0.11319190165E+02  0.59682037193E+01  0.28116434087E+02  0.00000000000E+00 0.  1.
</event>
<event>
 8    1  0.1229038E-006  0.9118800E+02  0.7816164E-02  0.1184000E+00
        -11   -1    0    0    0    0  0.00000000000E+00  0.00000000000E+00  0.45593999997E+02  0.45594000000E+02  0.51100000000E-03 0.  1.
         11   -1    0    0    0    0 -0.00000000000E+00 -0.00000000000E+00 -0.45593999997E+02  0.45594000000E+02  0.51100000000E-03 0. -1.
         23    2    1    2    0    0  0.00000000000E+00 -0.17763568394E-14  0.35527136788E-14  0.91188000000E+02  0.91188000000E+02 0.  0.
    9900012    2    3    3    0    0 -0.23446231513E+02  0.92288915322E+01 -0.26849467888E+02  0.54366917222E+02  0.39999619390E+02 0.  0.
        -12    1    3    3    0    0  0.23446231513E+02 -0.92288915322E+01  0.26849467888E+02  0.36821082778E+02  0.00000000000E+00 0.  1.
         11    1    4    4    0    0 -0.26601077181E+02  0.14137534153E+02 -0.28558047037E+02  0.41509628159E+02  0.51100000000E-03 0. -1.
        -11    1    4    4    0    0  0.48788823151E+01  0.10328789723E+01 -0.22934469427E+01  0.54891010881E+01  0.51100000000E-03 0.  1.
         12    1    4    4    0    0 -0.17240366466E+01 -0.59415215926E+01  0.40020260914E+01  0.73681879747E+01  0.00000000000E+00 0. -1.
</event>
<event>
 8    1  0.1229038E-006  0.9118800E+02  0.7816164E-02  0.1184000E+00
        -11   -1    0    0    0    0  0.00000000000E+00  0.00000000000E+00  0.45593999997E+02  0.45594000000E+02  0.51100000000E-03 0.  1.
         11   -1    0    0    0    0 -0.00000000000E+00 -0.00000000000E+00 -0.45593999997E+02  0.45594000000E+02  0.51100000000E-03 0. -1.
         23    2    1    2    0    0 -0.17763568394E-14  0.00000000000E+00  0.00000000000E+00  0.91188000000E+02  0.91188000000E+02 0.  0.
    9900012    2    3    3    0    0 -0.11365845574E+02  0.21318218216E+02  0.27787251728E+02  0.54367078880E+02  0.39999987924E+02 0.  0.
         12    1    3    3    0    0  0.11365845574E+02 -0.21318218216E+02 -0.27787251728E+02  0.36820921120E+02  0.00000000000E+00 0. -1.
         11    1    4    4    0    0 -0.11698473603E+02  0.14575227627E+02  0.20727605892E+02  0.27909231292E+02  0.51100000000E-03 0. -1.
        -11    1    4    4    0    0  0.33484075604E+01  0.15499535526E+02  0.66277556759E+01  0.17186465031E+02  0.51100000000E-03 0.  1.
        -12    1    4    4    0    0 -0.30157795311E+01 -0.87565449370E+01  0.43189016017E+00  0.92713825573E+01  0.00000000000E+00 0.  1.
</event>
<event>
 8    1  0.1229038E-006  0.9118800E+02  0.7816164E-02  0.1184000E+00
        -11   -1    0    0    0    0  0.00000000000E+00  0.00000000000E+00  0.45593999997E+02  0.45594000000E+02  0.51100000000E-03 0. -1.
         11   -1    0    0    0    0 -0.00000000000E+00 -0.00000000000E+00 -0.45593999997E+02  0.45594000000E+02  0.51100000000E-03 0.  1.
         23    2    1    2    0    0  0.00000000000E+00  0.00000000000E+00 -0.35527136788E-14  0.91188000000E+02  0.91188000000E+02 0.  0.
    9900012    2    3    3    0    0 -0.88319844309E+01  0.29621540359E+02 -0.20008510494E+02  0.54367080751E+02  0.39999992187E+02 0.  0.
         12    1    3    3    0    0  0.88319844309E+01 -0.29621540359E+02  0.20008510494E+02  0.36820919249E+02  0.00000000000E+00 0. -1.
         11    1    4    4    0    0 -0.49788586213E+01  0.16554576696E+02  0.49839652659E+01  0.17991190977E+02  0.51100000000E-03 0.  1.
        -11    1    4    4    0    0  0.17915898310E+01  0.47254697481E+01  0.35054728065E+01  0.61504632607E+01  0.51100000000E-03 0. -1.
        -12    1    4    4    0    0 -0.56447156406E+01  0.83414939147E+01 -0.28497948566E+02  0.30225426513E+02  0.00000000000E+00 0.  1.
</event>
<event>
 8    1  0.1229038E-006  0.9118800E+02  0.7816164E-02  0.1184000E+00
        -11   -1    0    0    0    0  0.00000000000E+00  0.00000000000E+00  0.45593999997E+02  0.45594000000E+02  0.51100000000E-03 0. -1.
         11   -1    0    0    0    0 -0.00000000000E+00 -0.00000000000E+00 -0.45593999997E+02  0.45594000000E+02  0.51100000000E-03 0.  1.
         23    2    1    2    0    0  0.00000000000E+00  0.17763568394E-14  0.00000000000E+00  0.91188000000E+02  0.91188000000E+02 0.  0.
    9900012    2    3    3    0    0 -0.32976501629E+02  0.11269163577E+02 -0.11888480631E+02  0.54367086389E+02  0.40000005042E+02 0.  0.
         12    1    3    3    0    0  0.32976501629E+02 -0.11269163577E+02  0.11888480631E+02  0.36820913611E+02  0.00000000000E+00 0. -1.
         11    1    4    4    0    0 -0.80783345492E+01  0.10448411449E+02 -0.26410151040E+01  0.13468621011E+02  0.51100000000E-03 0. -1.
        -11    1    4    4    0    0 -0.73593891871E+01 -0.64071045654E+01  0.99314924609E+01  0.13922863961E+02  0.51100000000E-03 0.  1.
        -12    1    4    4    0    0 -0.17538777892E+02  0.72278566938E+01 -0.19178957988E+02  0.26975601418E+02  0.00000000000E+00 0.  1.
</event>
<event>
 8    1  0.1229038E-006  0.9118800E+02  0.7816164E-02  0.1184000E+00
        -11   -1    0    0    0    0  0.00000000000E+00  0.00000000000E+00  0.45593999997E+02  0.45594000000E+02  0.51100000000E-03 0. -1.
         11   -1    0    0    0    0 -0.00000000000E+00 -0.00000000000E+00 -0.45593999997E+02  0.45594000000E+02  0.51100000000E-03 0.  1.
         23    2    1    2    0    0  0.00000000000E+00  0.00000000000E+00 -0.63837823916E-15  0.91188000000E+02  0.91188000000E+02 0.  0.
    9900012    2    3    3    0    0  0.36764347825E+02 -0.20357412353E+01  0.13739972548E+00  0.54367076708E+02  0.39999982972E+02 0.  0.
         12    1    3    3    0    0 -0.36764347825E+02  0.20357412353E+01 -0.13739972548E+00  0.36820923292E+02  0.00000000000E+00 0. -1.
         11    1    4    4    0    0 -0.23282922941E+01 -0.18330840481E+01 -0.83256145218E+01  0.88372506788E+01  0.51100000000E-03 0. -1.
        -11    1    4    4    0    0  0.19864840646E+02  0.20712747104E+01  0.15125713348E+02  0.25053727814E+02  0.51100000000E-03 0.  1.
        -12    1    4    4    0    0  0.19227799473E+02 -0.22739318976E+01 -0.66626991002E+01  0.20476098216E+02  0.00000000000E+00 0.  1.
</event>
<event>
 8    1  0.1229038E-006  0.9118800E+02  0.7816164E-02  0.1184000E+00
        -11   -1    0    0    0    0  0.00000000000E+00  0.00000000000E+00  0.45593999997E+02  0.45594000000E+02  0.51100000000E-03 0.  1.
         11   -1    0    0    0    0 -0.00000000000E+00 -0.00000000000E+00 -0.45593999997E+02  0.45594000000E+02  0.51100000000E-03 0. -1.
         23    2    1    2    0    0  0.00000000000E+00 -0.44408920985E-15  0.00000000000E+00  0.91188000000E+02  0.91188000000E+02 0.  0.
    9900012    2    3    3    0    0 -0.23083892426E+02 -0.37601698745E+01  0.28438962618E+02  0.54367087983E+02  0.40000008674E+02 0.  0.
         12    1    3    3    0    0  0.23083892426E+02  0.37601698745E+01 -0.28438962618E+02  0.36820912017E+02  0.00000000000E+00 0. -1.
         11    1    4    4    0    0 -0.47916240382E+01  0.75521618834E+01  0.28112473541E+02  0.29500948779E+02  0.51100000000E-03 0. -1.
        -11    1    4    4    0    0 -0.11653507294E+00  0.21786543926E+01  0.46259552198E+00  0.22302713430E+01  0.51100000000E-03 0.  1.
         12    1    4    4    0    0 -0.18175733315E+02 -0.13490986150E+02 -0.13610644494E+00  0.22635867861E+02  0.00000000000E+00 0. -1.
</event>
<event>
 8    1  0.1229038E-006  0.9118800E+02  0.7816164E-02  0.1184000E+00
        -11   -1    0    0    0    0  0.00000000000E+00  0.00000000000E+00  0.45593999997E+02  0.45594000000E+02  0.51100000000E-03 0. -1.
         11   -1    0    0    0    0 -0.00000000000E+00 -0.00000000000E+00 -0.45593999997E+02  0.45594000000E+02  0.51100000000E-03 0.  1.
         23    2    1    2    0    0  0.00000000000E+00  0.00000000000E+00  0.88817841970E-15  0.91188000000E+02  0.91188000000E+02 0.  0.
    9900012    2    3    3    0    0 -0.33553599889E+02  0.14900733665E+02  0.28113172430E+01  0.54367089719E+02  0.40000012633E+02 0.  0.
        -12    1    3    3    0    0  0.33553599889E+02 -0.14900733665E+02 -0.28113172430E+01  0.36820910281E+02  0.00000000000E+00 0.  1.
         11    1    4    4    0    0 -0.90699780266E+01  0.15668103954E+02 -0.10544112371E+01  0.18134656496E+02  0.51100000000E-03 0. -1.
        -11    1    4    4    0    0 -0.14990789819E+01 -0.99138995904E+01 -0.31665086652E+01  0.10514723975E+02  0.51100000000E-03 0.  1.
        -12    1    4    4    0    0 -0.22984542881E+02  0.91465293011E+01  0.70322371452E+01  0.25717709248E+02  0.00000000000E+00 0.  1.
</event>
<event>
 8    1  0.1229038E-006  0.9118800E+02  0.7816164E-02  0.1184000E+00
        -11   -1    0    0    0    0  0.00000000000E+00  0.00000000000E+00  0.45593999997E+02  0.45594000000E+02  0.51100000000E-03 0.  1.
         11   -1    0    0    0    0 -0.00000000000E+00 -0.00000000000E+00 -0.45593999997E+02  0.45594000000E+02  0.51100000000E-03 0. -1.
         23    2    1    2    0    0 -0.17763568394E-14  0.00000000000E+00 -0.35527136788E-14  0.91188000000E+02  0.91188000000E+02 0.  0.
    9900012    2    3    3    0    0  0.15710262867E+02 -0.16069309741E+02  0.29167526997E+02  0.54367086024E+02  0.40000004209E+02 0.  0.
         12    1    3    3    0    0 -0.15710262867E+02  0.16069309741E+02 -0.29167526997E+02  0.36820913976E+02  0.00000000000E+00 0. -1.
         11    1    4    4    0    0  0.14152969939E+02 -0.27259826878E+02  0.28836561276E+02  0.42130179041E+02  0.51100000000E-03 0. -1.
        -11    1    4    4    0    0  0.15029046337E+01  0.60507604879E+00  0.31940200053E+00  0.16513198545E+01  0.51100000000E-03 0.  1.
         12    1    4    4    0    0  0.54388293574E-01  0.10585441089E+02  0.11563720381E-01  0.10585587128E+02  0.00000000000E+00 0. -1.
</event>
<event>
 8    1  0.1229038E-006  0.9118800E+02  0.7816164E-02  0.1184000E+00
        -11   -1    0    0    0    0  0.00000000000E+00  0.00000000000E+00  0.45593999997E+02  0.45594000000E+02  0.51100000000E-03 0. -1.
         11   -1    0    0    0    0 -0.00000000000E+00 -0.00000000000E+00 -0.45593999997E+02  0.45594000000E+02  0.51100000000E-03 0.  1.
         23    2    1    2    0    0  0.00000000000E+00  0.00000000000E+00  0.00000000000E+00  0.91188000000E+02  0.91188000000E+02 0.  0.
    9900012    2    3    3    0    0  0.34362481216E+02  0.12090503834E+02 -0.53684529577E+01  0.54367072724E+02  0.39999973890E+02 0.  0.
         12    1    3    3    0    0 -0.34362481216E+02 -0.12090503834E+02  0.53684529577E+01  0.36820927276E+02  0.00000000000E+00 0. -1.
         11    1    4    4    0    0  0.12859592247E+01 -0.11244937622E+01 -0.93230621763E+00  0.19461172866E+01  0.51100000000E-03 0. -1.
        -11    1    4    4    0    0  0.41768120011E+02  0.11406494847E+02 -0.46031906375E+01  0.43541627648E+02  0.51100000000E-03 0.  1.
        -12    1    4    4    0    0 -0.86915980199E+01  0.18085027494E+01  0.16704389740E+00  0.88793277897E+01  0.00000000000E+00 0.  1.
</event>
<event>
 8    1  0.1229038E-006  0.9118800E+02  0.7816164E-02  0.1184000E+00
        -11   -1    0    0    0    0  0.00000000000E+00  0.00000000000E+00  0.45593999997E+02  0.45594000000E+02  0.51100000000E-03 0.  1.
         11   -1    0    0    0    0 -0.00000000000E+00 -0.00000000000E+00 -0.45593999997E+02  0.45594000000E+02  0.51100000000E-03 0. -1.
         23    2    1    2    0    0  0.00000000000E+00  0.22204460493E-14 -0.71054273576E-14  0.91188000000E+02  0.91188000000E+02 0.  0.
    9900012    2    3    3    0    0 -0.46145473612E+01  0.22680305100E+01 -0.36460168096E+02  0.54367056675E+02  0.39999937301E+02 0.  0.
        -12    1    3    3    0    0  0.46145473612E+01 -0.22680305100E+01  0.36460168096E+02  0.36820943325E+02  0.00000000000E+00 0.  1.
         11    1    4    4    0    0 -0.50267536086E+01  0.64193910599E+01 -0.29077831426E+02  0.30199289960E+02  0.51100000000E-03 0. -1.
        -11    1    4    4    0    0 -0.95764358556E+01 -0.73444959640E+01 -0.63317007185E+01  0.13628652865E+02  0.51100000000E-03 0.  1.
        -12    1    4    4    0    0  0.99886421029E+01  0.31931354141E+01 -0.10506359523E+01  0.10539113850E+02  0.00000000000E+00 0.  1.
</event>
<event>
 8    1  0.1229038E-006  0.9118800E+02  0.7816164E-02  0.1184000E+00
        -11   -1    0    0    0    0  0.00000000000E+00  0.00000000000E+00  0.45593999997E+02  0.45594000000E+02  0.51100000000E-03 0.  1.
         11   -1    0    0    0    0 -0.00000000000E+00 -0.00000000000E+00 -0.45593999997E+02  0.45594000000E+02  0.51100000000E-03 0. -1.
         23    2    1    2    0    0  0.35527136788E-14  0.17763568394E-14  0.71054273576E-14  0.91188000000E+02  0.91188000000E+02 0.  0.
    9900012    2    3    3    0    0  0.31096183579E+02  0.69757775569E+01  0.18443060005E+02  0.54367074318E+02  0.39999977524E+02 0.  0.
         12    1    3    3    0    0 -0.31096183579E+02 -0.69757775569E+01 -0.18443060005E+02  0.36820925682E+02  0.00000000000E+00 0. -1.
         11    1    4    4    0    0  0.83482169025E+01 -0.34699896934E+01  0.51343300722E+01  0.10396869696E+02  0.51100000000E-03 0. -1.
        -11    1    4    4    0    0  0.25320710455E+02  0.64355092030E+01  0.21936680619E+02  0.34114104319E+02  0.51100000000E-03 0.  1.
         12    1    4    4    0    0 -0.25727437780E+01  0.40102580473E+01 -0.86279506864E+01  0.98561003039E+01  0.00000000000E+00 0. -1.
</event>
<event>
 8    1  0.1229038E-006  0.9118800E+02  0.7816164E-02  0.1184000E+00
        -11   -1    0    0    0    0  0.00000000000E+00  0.00000000000E+00  0.45593999997E+02  0.45594000000E+02  0.51100000000E-03 0.  1.
         11   -1    0    0    0    0 -0.00000000000E+00 -0.00000000000E+00 -0.45593999997E+02  0.45594000000E+02  0.51100000000E-03 0. -1.
         23    2    1    2    0    0 -0.17763568394E-14 -0.71054273576E-14 -0.35527136788E-14  0.91188000000E+02  0.91188000000E+02 0.  0.
    9900012    2    3    3    0    0 -0.12092495870E+02  0.32989545993E+02  0.11011064600E+02  0.54367052907E+02  0.39999928712E+02 0.  0.
         12    1    3    3    0    0  0.12092495870E+02 -0.32989545993E+02 -0.11011064600E+02  0.36820947093E+02  0.00000000000E+00 0. -1.
         11    1    4    4    0    0  0.74250473330E+01  0.22081086926E+01 -0.74655713332E+01  0.10758337580E+02  0.51100000000E-03 0. -1.
        -11    1    4    4    0    0  0.12328038501E+01  0.10087154045E+02  0.55448725671E+01  0.11576532042E+02  0.51100000000E-03 0.  1.
        -12    1    4    4    0    0 -0.20750347053E+02  0.20694283256E+02  0.12931763366E+02  0.32032183285E+02  0.00000000000E+00 0.  1.
</event>
<event>
 8    1  0.1229038E-006  0.9118800E+02  0.7816164E-02  0.1184000E+00
        -11   -1    0    0    0    0  0.00000000000E+00  0.00000000000E+00  0.45593999997E+02  0.45594000000E+02  0.51100000000E-03 0.  1.
         11   -1    0    0    0    0 -0.00000000000E+00 -0.00000000000E+00 -0.45593999997E+02  0.45594000000E+02  0.51100000000E-03 0. -1.
         23    2    1    2    0    0 -0.35527136788E-14  0.00000000000E+00  0.17763568394E-14  0.91188000000E+02  0.91188000000E+02 0.  0.
    9900012    2    3    3    0    0 -0.30162004981E+02 -0.15606119147E+02  0.14229607264E+02  0.54367092594E+02  0.40000019187E+02 0.  0.
         12    1    3    3    0    0  0.30162004981E+02  0.15606119147E+02 -0.14229607264E+02  0.36820907406E+02  0.00000000000E+00 0. -1.
         11    1    4    4    0    0 -0.17149348696E+02 -0.16725574661E+02  0.57287239671E+01  0.24630535662E+02  0.51100000000E-03 0. -1.
        -11    1    4    4    0    0 -0.12390636255E+02  0.51685827002E+01  0.16185099960E+02  0.21028541911E+02  0.51100000000E-03 0.  1.
         12    1    4    4    0    0 -0.62202002989E+00 -0.40491271855E+01 -0.76842166631E+01  0.87080150211E+01  0.00000000000E+00 0. -1.
</event>
<event>
 8    1  0.1229038E-006  0.9118800E+02  0.7816164E-02  0.1184000E+00
        -11   -1    0    0    0    0  0.00000000000E+00  0.00000000000E+00  0.45593999997E+02  0.45594000000E+02  0.51100000000E-03 0. -1.
         11   -1    0    0    0    0 -0.00000000000E+00 -0.00000000000E+00 -0.45593999997E+02  0.45594000000E+02  0.51100000000E-03 0.  1.
         23    2    1    2    0    0  0.35527136788E-14  0.88817841970E-15 -0.35527136788E-14  0.91188000000E+02  0.91188000000E+02 0.  0.
    9900012    2    3    3    0    0  0.27931394483E+02  0.59413695466E+01 -0.23244733959E+02  0.54367077596E+02  0.39999984996E+02 0.  0.
         12    1    3    3    0    0 -0.27931394483E+02 -0.59413695466E+01  0.23244733959E+02  0.36820922404E+02  0.00000000000E+00 0. -1.
         11    1    4    4    0    0  0.18664783404E+02  0.10129527536E+02 -0.10298384589E+02  0.23601656574E+02  0.51100000000E-03 0. -1.
        -11    1    4    4    0    0  0.17993769305E+02 -0.18773855480E+01 -0.50798767203E+01  0.18791100501E+02  0.51100000000E-03 0.  1.
         12    1    4    4    0    0 -0.87271582262E+01 -0.23107724413E+01 -0.78664726500E+01  0.11974320521E+02  0.00000000000E+00 0. -1.
</event>
<event>
 8    1  0.1229038E-006  0.9118800E+02  0.7816164E-02  0.1184000E+00
        -11   -1    0    0    0    0  0.00000000000E+00  0.00000000000E+00  0.45593999997E+02  0.45594000000E+02  0.51100000000E-03 0.  1.
         11   -1    0    0    0    0 -0.00000000000E+00 -0.00000000000E+00 -0.45593999997E+02  0.45594000000E+02  0.51100000000E-03 0. -1.
         23    2    1    2    0    0  0.00000000000E+00 -0.35527136788E-14  0.00000000000E+00  0.91188000000E+02  0.91188000000E+02 0.  0.
    9900012    2    3    3    0    0  0.54157674486E+01 -0.26744144263E+02 -0.24722447915E+02  0.54367092620E+02  0.40000019246E+02 0.  0.
        -12    1    3    3    0    0 -0.54157674486E+01  0.26744144263E+02  0.24722447915E+02  0.36820907380E+02  0.00000000000E+00 0.  1.
         11    1    4    4    0    0  0.98124867355E+01 -0.23572903476E+02 -0.13178369440E+02  0.28733884102E+02  0.51100000000E-03 0. -1.
        -11    1    4    4    0    0 -0.48153596785E+01 -0.98113988851E+01  0.14594665578E+01  0.11026390153E+02  0.51100000000E-03 0.  1.
        -12    1    4    4    0    0  0.41864039155E+00  0.66401580980E+01 -0.13003545032E+02  0.14606818365E+02  0.00000000000E+00 0.  1.
</event>
<event>
 8    1  0.1229038E-006  0.9118800E+02  0.7816164E-02  0.1184000E+00
        -11   -1    0    0    0    0  0.00000000000E+00  0.00000000000E+00  0.45593999997E+02  0.45594000000E+02  0.51100000000E-03 0. -1.
         11   -1    0    0    0    0 -0.00000000000E+00 -0.00000000000E+00 -0.45593999997E+02  0.45594000000E+02  0.51100000000E-03 0.  1.
         23    2    1    2    0    0  0.00000000000E+00  0.00000000000E+00 -0.35527136788E-14  0.91188000000E+02  0.91188000000E+02 0.  0.
    9900012    2    3    3    0    0 -0.20521055569E+01 -0.25476271296E+02 -0.26505256825E+02  0.54367079646E+02  0.39999989669E+02 0.  0.
         12    1    3    3    0    0  0.20521055569E+01  0.25476271296E+02  0.26505256825E+02  0.36820920354E+02  0.00000000000E+00 0. -1.
         11    1    4    4    0    0 -0.74652694312E+01  0.29015644609E+01 -0.77684941504E+00  0.80469136491E+01  0.51100000000E-03 0. -1.
        -11    1    4    4    0    0  0.13626084912E+02 -0.12243825644E+02 -0.20465365388E+02  0.27466573086E+02  0.51100000000E-03 0.  1.
         12    1    4    4    0    0 -0.82129210373E+01 -0.16134010113E+02 -0.52630420226E+01  0.18853592910E+02  0.00000000000E+00 0. -1.
</event>
<event>
 8    1  0.1229038E-006  0.9118800E+02  0.7816164E-02  0.1184000E+00
        -11   -1    0    0    0    0  0.00000000000E+00  0.00000000000E+00  0.45593999997E+02  0.45594000000E+02  0.51100000000E-03 0.  1.
         11   -1    0    0    0    0 -0.00000000000E+00 -0.00000000000E+00 -0.45593999997E+02  0.45594000000E+02  0.51100000000E-03 0. -1.
         23    2    1    2    0    0  0.17763568394E-14  0.00000000000E+00 -0.35527136788E-14  0.91188000000E+02  0.91188000000E+02 0.  0.
    9900012    2    3    3    0    0 -0.97988417535E+01  0.19907044255E+02  0.29384927369E+02  0.54367059393E+02  0.39999943498E+02 0.  0.
         12    1    3    3    0    0  0.97988417535E+01 -0.19907044255E+02 -0.29384927369E+02  0.36820940607E+02  0.00000000000E+00 0. -1.
         11    1    4    4    0    0  0.52303703841E+01 -0.88091813415E+01  0.45419724718E+01  0.11206603609E+02  0.51100000000E-03 0. -1.
        -11    1    4    4    0    0 -0.32474623409E+01  0.10385997835E+02  0.11049844823E+01  0.10937822163E+02  0.51100000000E-03 0.  1.
         12    1    4    4    0    0 -0.11781749797E+02  0.18330227761E+02  0.23737970415E+02  0.32222633621E+02  0.00000000000E+00 0. -1.
</event>
<event>
 8    1  0.1229038E-006  0.9118800E+02  0.7816164E-02  0.1184000E+00
        -11   -1    0    0    0    0  0.00000000000E+00  0.00000000000E+00  0.45593999997E+02  0.45594000000E+02  0.51100000000E-03 0. -1.
         11   -1    0    0    0    0 -0.00000000000E+00 -0.00000000000E+00 -0.45593999997E+02  0.45594000000E+02  0.51100000000E-03 0.  1.
         23    2    1    2    0    0  0.00000000000E+00 -0.11102230246E-14  0.00000000000E+00  0.91188000000E+02  0.91188000000E+02 0.  0.
    9900012    2    3    3    0    0  0.19091555228E+02  0.18710651147E+01 -0.31429150367E+02  0.54367083954E+02  0.39999999489E+02 0.  0.
         12    1    3    3    0    0 -0.19091555228E+02 -0.18710651147E+01  0.31429150367E+02  0.36820916046E+02  0.00000000000E+00 0. -1.
         11    1    4    4    0    0  0.21201093767E+02 -0.34601598484E+01 -0.19239671045E+02  0.28837892178E+02  0.51100000000E-03 0. -1.
        -11    1    4    4    0    0  0.26962791495E+00  0.13560906878E+02 -0.94655275861E+01  0.16539864187E+02  0.51100000000E-03 0.  1.
        -12    1    4    4    0    0 -0.23791664545E+01 -0.82296819150E+01 -0.27239517365E+01  0.89893275890E+01  0.00000000000E+00 0.  1.
</event>
<event>
 8    1  0.1229038E-006  0.9118800E+02  0.7816164E-02  0.1184000E+00
        -11   -1    0    0    0    0  0.00000000000E+00  0.00000000000E+00  0.45593999997E+02  0.45594000000E+02  0.51100000000E-03 0.  1.
         11   -1    0    0    0    0 -0.00000000000E+00 -0.00000000000E+00 -0.45593999997E+02  0.45594000000E+02  0.51100000000E-03 0. -1.
         23    2    1    2    0    0  0.00000000000E+00  0.00000000000E+00 -0.35527136788E-14  0.91188000000E+02  0.91188000000E+02 0.  0.
    9900012    2    3    3    0    0  0.13413241887E+02  0.29448835460E+02 -0.17567900753E+02  0.54367080610E+02  0.39999991866E+02 0.  0.
         12    1    3    3    0    0 -0.13413241887E+02 -0.29448835460E+02  0.17567900753E+02  0.36820919390E+02  0.00000000000E+00 0. -1.
         11    1    4    4    0    0  0.32824235162E+01  0.77030056561E+01 -0.11536092270E+02  0.14254544026E+02  0.51100000000E-03 0. -1.
        -11    1    4    4    0    0 -0.57573675520E+01  0.22829357662E+02 -0.16824012401E+01  0.23604180278E+02  0.51100000000E-03 0.  1.
         12    1    4    4    0    0  0.15888185923E+02 -0.10835278581E+01 -0.43494072431E+01  0.16508356305E+02  0.00000000000E+00 0. -1.
</event>
<event>
 8    1  0.1229038E-006  0.9118800E+02  0.7816164E-02  0.1184000E+00
        -11   -1    0    0    0    0  0.00000000000E+00  0.00000000000E+00  0.45593999997E+02  0.45594000000E+02  0.51100000000E-03 0. -1.
         11   -1    0    0    0    0 -0.00000000000E+00 -0.00000000000E+00 -0.45593999997E+02  0.45594000000E+02  0.51100000000E-03 0.  1.
         23    2    1    2    0    0  0.00000000000E+00  0.00000000000E+00  0.00000000000E+00  0.91188000000E+02  0.91188000000E+02 0.  0.
    9900012    2    3    3    0    0  0.42011308853E+01  0.18581922642E+02 -0.31509412788E+02  0.54367076003E+02  0.39999981363E+02 0.  0.
         12    1    3    3    0    0 -0.42011308853E+01 -0.18581922642E+02  0.31509412788E+02  0.36820923997E+02  0.00000000000E+00 0. -1.
         11    1    4    4    0    0 -0.67544970594E+01  0.70779677165E+01 -0.18881531841E+02  0.21265773027E+02  0.51100000000E-03 0. -1.
        -11    1    4    4    0    0  0.42689679616E+01  0.61713730225E+01 -0.20280828229E+02  0.21624567657E+02  0.51100000000E-03 0.  1.
         12    1    4    4    0    0  0.66866599831E+01  0.53325819030E+01  0.76529472816E+01  0.11476735319E+02  0.00000000000E+00 0. -1.
</event>
<event>
 8    1  0.1229038E-006  0.9118800E+02  0.7816164E-02  0.1184000E+00
        -11   -1    0    0    0    0  0.00000000000E+00  0.00000000000E+00  0.45593999997E+02  0.45594000000E+02  0.51100000000E-03 0.  1.
         11   -1    0    0    0    0 -0.00000000000E+00 -0.00000000000E+00 -0.45593999997E+02  0.45594000000E+02  0.51100000000E-03 0. -1.
         23    2    1    2    0    0  0.35527136788E-14 -0.35527136788E-14  0.17763568394E-14  0.91188000000E+02  0.91188000000E+02 0.  0.
    9900012    2    3    3    0    0 -0.23340688833E+02 -0.27237943293E+02  0.83117709920E+01  0.54367097688E+02  0.40000030799E+02 0.  0.
         12    1    3    3    0    0  0.23340688833E+02  0.27237943293E+02 -0.83117709920E+01  0.36820902312E+02  0.00000000000E+00 0. -1.
         11    1    4    4    0    0 -0.96999644613E+01  0.37745751770E+01  0.55990111680E+01  0.11818868585E+02  0.51100000000E-03 0. -1.
        -11    1    4    4    0    0  0.10342325515E+01  0.37565326801E+01 -0.22259662334E+01  0.44873266742E+01  0.51100000000E-03 0.  1.
        -12    1    4    4    0    0 -0.14674956923E+02 -0.34769051150E+02  0.49387260574E+01  0.38060902428E+02  0.00000000000E+00 0.  1.
</event>
<event>
 8    1  0.1229038E-006  0.9118800E+02  0.7816164E-02  0.1184000E+00
        -11   -1    0    0    0    0  0.00000000000E+00  0.00000000000E+00  0.45593999997E+02  0.45594000000E+02  0.51100000000E-03 0.  1.
         11   -1    0    0    0    0 -0.00000000000E+00 -0.00000000000E+00 -0.45593999997E+02  0.45594000000E+02  0.51100000000E-03 0. -1.
         23    2    1    2    0    0  0.00000000000E+00  0.00000000000E+00  0.00000000000E+00  0.91188000000E+02  0.91188000000E+02 0.  0.
    9900012    2    3    3    0    0  0.25325369318E+02  0.98402670825E+01 -0.24851051742E+02  0.54367082574E+02  0.39999996344E+02 0.  0.
         12    1    3    3    0    0 -0.25325369318E+02 -0.98402670825E+01  0.24851051742E+02  0.36820917426E+02  0.00000000000E+00 0. -1.
         11    1    4    4    0    0  0.21257208917E+02  0.93327013738E+01 -0.30447418925E+02  0.38288556584E+02  0.51100000000E-03 0. -1.
        -11    1    4    4    0    0  0.88877455283E+01 -0.14158255222E+01  0.83937784954E+00  0.90388681769E+01  0.51100000000E-03 0.  1.
         12    1    4    4    0    0 -0.48195851264E+01  0.19233912308E+01  0.47569893326E+01  0.70396578133E+01  0.00000000000E+00 0. -1.
</event>
<event>
 8    1  0.1229038E-006  0.9118800E+02  0.7816164E-02  0.1184000E+00
        -11   -1    0    0    0    0  0.00000000000E+00  0.00000000000E+00  0.45593999997E+02  0.45594000000E+02  0.51100000000E-03 0.  1.
         11   -1    0    0    0    0 -0.00000000000E+00 -0.00000000000E+00 -0.45593999997E+02  0.45594000000E+02  0.51100000000E-03 0. -1.
         23    2    1    2    0    0  0.00000000000E+00  0.17763568394E-14 -0.71054273576E-14  0.91188000000E+02  0.91188000000E+02 0.  0.
    9900012    2    3    3    0    0 -0.11682354808E+02  0.56309386840E+01 -0.34461490312E+02  0.54367092911E+02  0.40000019908E+02 0.  0.
        -12    1    3    3    0    0  0.11682354808E+02 -0.56309386840E+01  0.34461490312E+02  0.36820907089E+02  0.00000000000E+00 0.  1.
         11    1    4    4    0    0  0.12420699908E+02 -0.41034285714E+01 -0.16385209276E+02  0.20966330044E+02  0.51100000000E-03 0. -1.
        -11    1    4    4    0    0 -0.83783210614E+00  0.97160200500E+00 -0.52924764072E+01  0.54457579707E+01  0.51100000000E-03 0.  1.
        -12    1    4    4    0    0 -0.23265222610E+02  0.87627652505E+01 -0.12783804629E+02  0.27955004895E+02  0.00000000000E+00 0.  1.
</event>
<event>
 8    1  0.1229038E-006  0.9118800E+02  0.7816164E-02  0.1184000E+00
        -11   -1    0    0    0    0  0.00000000000E+00  0.00000000000E+00  0.45593999997E+02  0.45594000000E+02  0.51100000000E-03 0. -1.
         11   -1    0    0    0    0 -0.00000000000E+00 -0.00000000000E+00 -0.45593999997E+02  0.45594000000E+02  0.51100000000E-03 0.  1.
         23    2    1    2    0    0 -0.71054273576E-14 -0.17763568394E-14  0.35527136788E-14  0.91188000000E+02  0.91188000000E+02 0.  0.
    9900012    2    3    3    0    0 -0.31284568484E+02 -0.12900421206E+02  0.14513269141E+02  0.54367081031E+02  0.39999992827E+02 0.  0.
        -12    1    3    3    0    0  0.31284568484E+02  0.12900421206E+02 -0.14513269141E+02  0.36820918969E+02  0.00000000000E+00 0.  1.
         11    1    4    4    0    0  0.15663048296E+01 -0.21878076860E+01 -0.10263790983E+01  0.28798033969E+01  0.51100000000E-03 0. -1.
        -11    1    4    4    0    0 -0.98280795528E+01  0.10264217596E+02  0.14531225038E+02  0.20324906197E+02  0.51100000000E-03 0.  1.
         12    1    4    4    0    0 -0.23022793761E+02 -0.20976831116E+02  0.10084232018E+01  0.31162371437E+02  0.00000000000E+00 0. -1.
</event>
<event>
 8    1  0.1229038E-006  0.9118800E+02  0.7816164E-02  0.1184000E+00
        -11   -1    0    0    0    0  0.00000000000E+00  0.00000000000E+00  0.45593999997E+02  0.45594000000E+02  0.51100000000E-03 0. -1.
         11   -1    0    0    0    0 -0.00000000000E+00 -0.00000000000E+00 -0.45593999997E+02  0.45594000000E+02  0.51100000000E-03 0.  1.
         23    2    1    2    0    0  0.00000000000E+00 -0.35527136788E-14  0.00000000000E+00  0.91188000000E+02  0.91188000000E+02 0.  0.
    9900012    2    3    3    0    0 -0.18181130706E+02 -0.31121662225E+02  0.75290657555E+01  0.54366834829E+02  0.39999431556E+02 0.  0.
        -12    1    3    3    0    0  0.18181130706E+02  0.31121662225E+02 -0.75290657555E+01  0.36821165171E+02  0.00000000000E+00 0.  1.
         11    1    4    4    0    0 -0.31177997879E+01 -0.22247598516E+02  0.14388531611E+02  0.26677821452E+02  0.51100000000E-03 0. -1.
        -11    1    4    4    0    0 -0.12310819527E+02 -0.90250395821E+00  0.48467990992E+01  0.13261306594E+02  0.51100000000E-03 0.  1.
         12    1    4    4    0    0 -0.27525113916E+01 -0.79715597509E+01 -0.11706264955E+02  0.14427706783E+02  0.00000000000E+00 0. -1.
</event>
<event>
 8    1  0.1229038E-006  0.9118800E+02  0.7816164E-02  0.1184000E+00
        -11   -1    0    0    0    0  0.00000000000E+00  0.00000000000E+00  0.45593999997E+02  0.45594000000E+02  0.51100000000E-03 0. -1.
         11   -1    0    0    0    0 -0.00000000000E+00 -0.00000000000E+00 -0.45593999997E+02  0.45594000000E+02  0.51100000000E-03 0.  1.
         23    2    1    2    0    0  0.13322676296E-14  0.00000000000E+00  0.35527136788E-14  0.91188000000E+02  0.91188000000E+02 0.  0.
    9900012    2    3    3    0    0 -0.11155263981E+01 -0.21631251834E+02  0.29776234779E+02  0.54367087292E+02  0.40000007100E+02 0.  0.
        -12    1    3    3    0    0  0.11155263981E+01  0.21631251834E+02 -0.29776234779E+02  0.36820912708E+02  0.00000000000E+00 0.  1.
         11    1    4    4    0    0 -0.17647048844E+01 -0.17269638248E+02  0.14952195162E+02  0.22911192221E+02  0.51100000000E-03 0. -1.
        -11    1    4    4    0    0 -0.82020799011E+01 -0.66674419083E+01 -0.33680642882E+01  0.11093816008E+02  0.51100000000E-03 0.  1.
         12    1    4    4    0    0  0.88512583874E+01  0.23058283229E+01  0.18192103905E+02  0.20362079063E+02  0.00000000000E+00 0. -1.
</event>
<event>
 8    1  0.1229038E-006  0.9118800E+02  0.7816164E-02  0.1184000E+00
        -11   -1    0    0    0    0  0.00000000000E+00  0.00000000000E+00  0.45593999997E+02  0.45594000000E+02  0.51100000000E-03 0. -1.
         11   -1    0    0    0    0 -0.00000000000E+00 -0.00000000000E+00 -0.45593999997E+02  0.45594000000E+02  0.51100000000E-03 0.  1.
         23    2    1    2    0    0  0.00000000000E+00  0.00000000000E+00  0.35527136788E-14  0.91188000000E+02  0.91188000000E+02 0.  0.
    9900012    2    3    3    0    0 -0.12808268095E+02 -0.33967225121E+02  0.61608011520E+01  0.54367087670E+02  0.40000007961E+02 0.  0.
        -12    1    3    3    0    0  0.12808268095E+02  0.33967225121E+02 -0.61608011520E+01  0.36820912330E+02  0.00000000000E+00 0.  1.
         11    1    4    4    0    0 -0.19349808315E+01 -0.60425430133E+01  0.96351930052E+01  0.11536612215E+02  0.51100000000E-03 0. -1.
        -11    1    4    4    0    0  0.96520702556E+00 -0.96728241354E+01 -0.15256225234E+02  0.18089985075E+02  0.51100000000E-03 0.  1.
        -12    1    4    4    0    0 -0.11838494289E+02 -0.18251857972E+02  0.11781833380E+02  0.24740490380E+02  0.00000000000E+00 0.  1.
</event>
<event>
 8    1  0.1229038E-006  0.9118800E+02  0.7816164E-02  0.1184000E+00
        -11   -1    0    0    0    0  0.00000000000E+00  0.00000000000E+00  0.45593999997E+02  0.45594000000E+02  0.51100000000E-03 0.  1.
         11   -1    0    0    0    0 -0.00000000000E+00 -0.00000000000E+00 -0.45593999997E+02  0.45594000000E+02  0.51100000000E-03 0. -1.
         23    2    1    2    0    0  0.00000000000E+00  0.71054273576E-14  0.17763568394E-14  0.91188000000E+02  0.91188000000E+02 0.  0.
    9900012    2    3    3    0    0 -0.45641222634E+01 -0.32951485465E+02 -0.15784453545E+02  0.54367074154E+02  0.39999977150E+02 0.  0.
        -12    1    3    3    0    0  0.45641222634E+01  0.32951485465E+02  0.15784453545E+02  0.36820925846E+02  0.00000000000E+00 0.  1.
         11    1    4    4    0    0 -0.23119340936E+01  0.59564446567E+01 -0.71836971324E+01  0.96140406153E+01  0.51100000000E-03 0. -1.
        -11    1    4    4    0    0  0.48884786349E+01 -0.10732734665E+01  0.92475555913E+00  0.50896279239E+01  0.51100000000E-03 0.  1.
        -12    1    4    4    0    0 -0.71406668047E+01 -0.37834656656E+02 -0.95255119718E+01  0.39663405615E+02  0.00000000000E+00 0.  1.
</event>
<event>
 8    1  0.1229038E-006  0.9118800E+02  0.7816164E-02  0.1184000E+00
        -11   -1    0    0    0    0  0.00000000000E+00  0.00000000000E+00  0.45593999997E+02  0.45594000000E+02  0.51100000000E-03 0.  1.
         11   -1    0    0    0    0 -0.00000000000E+00 -0.00000000000E+00 -0.45593999997E+02  0.45594000000E+02  0.51100000000E-03 0. -1.
         23    2    1    2    0    0  0.35527136788E-14  0.17763568394E-14  0.00000000000E+00  0.91188000000E+02  0.91188000000E+02 0.  0.
    9900012    2    3    3    0    0  0.30863913873E+02  0.10613844833E+02  0.17045571914E+02  0.54366995076E+02  0.39999796875E+02 0.  0.
         12    1    3    3    0    0 -0.30863913873E+02 -0.10613844833E+02 -0.17045571914E+02  0.36821004924E+02  0.00000000000E+00 0. -1.
         11    1    4    4    0    0  0.72868590316E+00  0.11306929616E+02 -0.34007022564E+01  0.11829725972E+02  0.51100000000E-03 0. -1.
        -11    1    4    4    0    0 -0.29086736931E+01 -0.26587678225E+01  0.38431961070E+01  0.55045059328E+01  0.51100000000E-03 0.  1.
        -12    1    4    4    0    0  0.33043901663E+02  0.19656830395E+01  0.16603078063E+02  0.37032763172E+02  0.00000000000E+00 0.  1.
</event>
<event>
 8    1  0.1229038E-006  0.9118800E+02  0.7816164E-02  0.1184000E+00
        -11   -1    0    0    0    0  0.00000000000E+00  0.00000000000E+00  0.45593999997E+02  0.45594000000E+02  0.51100000000E-03 0.  1.
         11   -1    0    0    0    0 -0.00000000000E+00 -0.00000000000E+00 -0.45593999997E+02  0.45594000000E+02  0.51100000000E-03 0. -1.
         23    2    1    2    0    0  0.88817841970E-15  0.71054273576E-14 -0.35527136788E-14  0.91188000000E+02  0.91188000000E+02 0.  0.
    9900012    2    3    3    0    0 -0.66455682477E+01  0.32409597449E+02 -0.16162733295E+02  0.54367088391E+02  0.40000009605E+02 0.  0.
        -12    1    3    3    0    0  0.66455682477E+01 -0.32409597449E+02  0.16162733295E+02  0.36820911609E+02  0.00000000000E+00 0.  1.
         11    1    4    4    0    0  0.27726547333E+00 -0.20581193444E+01 -0.56189817074E+01  0.59904663481E+01  0.51100000000E-03 0. -1.
        -11    1    4    4    0    0 -0.13772285502E+02  0.57838454424E+01 -0.11529999540E+02  0.18869806721E+02  0.51100000000E-03 0.  1.
         12    1    4    4    0    0  0.68494517805E+01  0.28683871351E+02  0.98624795283E+00  0.29506815322E+02  0.00000000000E+00 0. -1.
</event>
<event>
 8    1  0.1229038E-006  0.9118800E+02  0.7816164E-02  0.1184000E+00
        -11   -1    0    0    0    0  0.00000000000E+00  0.00000000000E+00  0.45593999997E+02  0.45594000000E+02  0.51100000000E-03 0. -1.
         11   -1    0    0    0    0 -0.00000000000E+00 -0.00000000000E+00 -0.45593999997E+02  0.45594000000E+02  0.51100000000E-03 0.  1.
         23    2    1    2    0    0  0.35527136788E-14  0.17763568394E-14  0.00000000000E+00  0.91188000000E+02  0.91188000000E+02 0.  0.
    9900012    2    3    3    0    0 -0.23217455650E+02 -0.11443492080E+02 -0.26187339855E+02  0.54367074883E+02  0.39999978810E+02 0.  0.
         12    1    3    3    0    0  0.23217455650E+02  0.11443492080E+02  0.26187339855E+02  0.36820925117E+02  0.00000000000E+00 0. -1.
         11    1    4    4    0    0 -0.61487712297E+01 -0.19129287173E+02 -0.21632540948E+02  0.29524631133E+02  0.51100000000E-03 0. -1.
        -11    1    4    4    0    0  0.57287635375E+00  0.33969614401E+00 -0.56614461173E+01  0.57004871008E+01  0.51100000000E-03 0.  1.
         12    1    4    4    0    0 -0.17641560774E+02  0.73460989490E+01  0.11066472110E+01  0.19141956649E+02  0.00000000000E+00 0. -1.
</event>
<event>
 8    1  0.1229038E-006  0.9118800E+02  0.7816164E-02  0.1184000E+00
        -11   -1    0    0    0    0  0.00000000000E+00  0.00000000000E+00  0.45593999997E+02  0.45594000000E+02  0.51100000000E-03 0.  1.
         11   -1    0    0    0    0 -0.00000000000E+00 -0.00000000000E+00 -0.45593999997E+02  0.45594000000E+02  0.51100000000E-03 0. -1.
         23    2    1    2    0    0 -0.71054273576E-14  0.00000000000E+00  0.33306690739E-15  0.91188000000E+02  0.91188000000E+02 0.  0.
    9900012    2    3    3    0    0  0.29935132828E+02  0.21432590955E+02  0.56054162979E+00  0.54367050265E+02  0.39999922689E+02 0.  0.
        -12    1    3    3    0    0 -0.29935132828E+02 -0.21432590955E+02 -0.56054162979E+00  0.36820949735E+02  0.00000000000E+00 0.  1.
         11    1    4    4    0    0 -0.89029759051E+00 -0.25841814085E+01 -0.24752657940E+01  0.36874875408E+01  0.51100000000E-03 0. -1.
        -11    1    4    4    0    0 -0.15431265937E+01 -0.52642855779E+01  0.43670350100E+01  0.70117713432E+01  0.51100000000E-03 0.  1.
         12    1    4    4    0    0  0.32368557012E+02  0.29281057941E+02 -0.13312275862E+01  0.43667791381E+02  0.00000000000E+00 0. -1.
</event>
<event>
 8    1  0.1229038E-006  0.9118800E+02  0.7816164E-02  0.1184000E+00
        -11   -1    0    0    0    0  0.00000000000E+00  0.00000000000E+00  0.45593999997E+02  0.45594000000E+02  0.51100000000E-03 0. -1.
         11   -1    0    0    0    0 -0.00000000000E+00 -0.00000000000E+00 -0.45593999997E+02  0.45594000000E+02  0.51100000000E-03 0.  1.
         23    2    1    2    0    0  0.17763568394E-14  0.15543122345E-14 -0.71054273576E-14  0.91188000000E+02  0.91188000000E+02 0.  0.
    9900012    2    3    3    0    0  0.76178300979E+01  0.15903713710E+01 -0.35989147416E+02  0.54367090882E+02  0.40000015284E+02 0.  0.
         12    1    3    3    0    0 -0.76178300979E+01 -0.15903713710E+01  0.35989147416E+02  0.36820909118E+02  0.00000000000E+00 0. -1.
         11    1    4    4    0    0  0.31258371218E+01 -0.15230293834E+01  0.72757324723E+00  0.35524413163E+01  0.51100000000E-03 0. -1.
        -11    1    4    4    0    0  0.19430054678E+01 -0.82507373982E+01  0.33312736072E+01  0.91075420377E+01  0.51100000000E-03 0.  1.
        -12    1    4    4    0    0  0.25489875083E+01  0.11364138153E+02 -0.40047994271E+02  0.41707107528E+02  0.00000000000E+00 0.  1.
</event>
<event>
 8    1  0.1229038E-006  0.9118800E+02  0.7816164E-02  0.1184000E+00
        -11   -1    0    0    0    0  0.00000000000E+00  0.00000000000E+00  0.45593999997E+02  0.45594000000E+02  0.51100000000E-03 0. -1.
         11   -1    0    0    0    0 -0.00000000000E+00 -0.00000000000E+00 -0.45593999997E+02  0.45594000000E+02  0.51100000000E-03 0.  1.
         23    2    1    2    0    0 -0.17763568394E-14  0.00000000000E+00  0.00000000000E+00  0.91188000000E+02  0.91188000000E+02 0.  0.
    9900012    2    3    3    0    0  0.12816604195E+02  0.20435228488E+02  0.27819372707E+02  0.54367062963E+02  0.39999951637E+02 0.  0.
        -12    1    3    3    0    0 -0.12816604195E+02 -0.20435228488E+02 -0.27819372707E+02  0.36820937037E+02  0.00000000000E+00 0.  1.
         11    1    4    4    0    0  0.34408410971E+01  0.21800162769E+02  0.19075971463E+02  0.29171547297E+02  0.51100000000E-03 0. -1.
        -11    1    4    4    0    0  0.90950841656E+01 -0.29527049533E+01  0.15520208241E+02  0.18229533363E+02  0.51100000000E-03 0.  1.
        -12    1    4    4    0    0  0.28067893185E+00  0.15877706728E+01 -0.67768069971E+01  0.69659823031E+01  0.00000000000E+00 0.  1.
</event>
<event>
 8    1  0.1229038E-006  0.9118800E+02  0.7816164E-02  0.1184000E+00
        -11   -1    0    0    0    0  0.00000000000E+00  0.00000000000E+00  0.45593999997E+02  0.45594000000E+02  0.51100000000E-03 0.  1.
         11   -1    0    0    0    0 -0.00000000000E+00 -0.00000000000E+00 -0.45593999997E+02  0.45594000000E+02  0.51100000000E-03 0. -1.
         23    2    1    2    0    0  0.00000000000E+00  0.17763568394E-14  0.00000000000E+00  0.91188000000E+02  0.91188000000E+02 0.  0.
    9900012    2    3    3    0    0  0.22950825530E+02 -0.13820489305E+02 -0.25259295337E+02  0.54367104872E+02  0.40000047176E+02 0.  0.
        -12    1    3    3    0    0 -0.22950825530E+02  0.13820489305E+02  0.25259295337E+02  0.36820895128E+02  0.00000000000E+00 0.  1.
         11    1    4    4    0    0  0.27750820636E+02 -0.10831399929E+02 -0.27478194593E+02  0.40527502375E+02  0.51100000000E-03 0. -1.
        -11    1    4    4    0    0  0.25618548040E+01  0.30581434658E+01  0.15806685621E+01  0.42911367792E+01  0.51100000000E-03 0.  1.
         12    1    4    4    0    0 -0.73618499103E+01 -0.60472328412E+01  0.63823069421E+00  0.95484657174E+01  0.00000000000E+00 0. -1.
</event>
<event>
 8    1  0.1229038E-006  0.9118800E+02  0.7816164E-02  0.1184000E+00
        -11   -1    0    0    0    0  0.00000000000E+00  0.00000000000E+00  0.45593999997E+02  0.45594000000E+02  0.51100000000E-03 0. -1.
         11   -1    0    0    0    0 -0.00000000000E+00 -0.00000000000E+00 -0.45593999997E+02  0.45594000000E+02  0.51100000000E-03 0.  1.
         23    2    1    2    0    0  0.00000000000E+00  0.88817841970E-15  0.00000000000E+00  0.91188000000E+02  0.91188000000E+02 0.  0.
    9900012    2    3    3    0    0 -0.27477900441E+02 -0.40013607190E+01  0.24181252587E+02  0.54367097283E+02  0.40000029875E+02 0.  0.
        -12    1    3    3    0    0  0.27477900441E+02  0.40013607190E+01 -0.24181252587E+02  0.36820902717E+02  0.00000000000E+00 0.  1.
         11    1    4    4    0    0 -0.28056065595E+02  0.13494358839E+01  0.62729732999E+01  0.28780444544E+02  0.51100000000E-03 0. -1.
        -11    1    4    4    0    0  0.27737862669E+01 -0.41683178931E+01 -0.20957400301E+01  0.54277887622E+01  0.51100000000E-03 0.  1.
         12    1    4    4    0    0 -0.21956211130E+01 -0.11824787098E+01  0.20004019317E+02  0.20158863976E+02  0.00000000000E+00 0. -1.
</event>
<event>
 8    1  0.1229038E-006  0.9118800E+02  0.7816164E-02  0.1184000E+00
        -11   -1    0    0    0    0  0.00000000000E+00  0.00000000000E+00  0.45593999997E+02  0.45594000000E+02  0.51100000000E-03 0. -1.
         11   -1    0    0    0    0 -0.00000000000E+00 -0.00000000000E+00 -0.45593999997E+02  0.45594000000E+02  0.51100000000E-03 0.  1.
         23    2    1    2    0    0  0.35527136788E-14  0.00000000000E+00  0.00000000000E+00  0.91188000000E+02  0.91188000000E+02 0.  0.
    9900012    2    3    3    0    0  0.25234495338E+02  0.12788002066E+02 -0.23568343262E+02  0.54367088062E+02  0.40000008856E+02 0.  0.
         12    1    3    3    0    0 -0.25234495338E+02 -0.12788002066E+02  0.23568343262E+02  0.36820911938E+02  0.00000000000E+00 0. -1.
         11    1    4    4    0    0  0.14738378037E+01 -0.34931737494E+01  0.57529570594E+00  0.38347654590E+01  0.51100000000E-03 0. -1.
        -11    1    4    4    0    0  0.63282616401E+01  0.23625362306E+02 -0.18879451748E+02  0.30897222173E+02  0.51100000000E-03 0.  1.
         12    1    4    4    0    0  0.17432395894E+02 -0.73441864905E+01 -0.52641872198E+01  0.19635100430E+02  0.00000000000E+00 0. -1.
</event>
<event>
 8    1  0.1229038E-006  0.9118800E+02  0.7816164E-02  0.1184000E+00
        -11   -1    0    0    0    0  0.00000000000E+00  0.00000000000E+00  0.45593999997E+02  0.45594000000E+02  0.51100000000E-03 0. -1.
         11   -1    0    0    0    0 -0.00000000000E+00 -0.00000000000E+00 -0.45593999997E+02  0.45594000000E+02  0.51100000000E-03 0.  1.
         23    2    1    2    0    0 -0.17763568394E-14  0.71054273576E-14  0.00000000000E+00  0.91188000000E+02  0.91188000000E+02 0.  0.
    9900012    2    3    3    0    0 -0.14028992633E+02  0.32517589756E+02  0.10078350688E+02  0.54367089766E+02  0.40000012739E+02 0.  0.
        -12    1    3    3    0    0  0.14028992633E+02 -0.32517589756E+02 -0.10078350688E+02  0.36820910234E+02  0.00000000000E+00 0.  1.
         11    1    4    4    0    0 -0.13360631804E+02  0.18846080295E+02  0.49502590669E+01  0.23625966431E+02  0.51100000000E-03 0. -1.
        -11    1    4    4    0    0 -0.72219629137E+01  0.11332655472E+02  0.14039802053E+02  0.19434553515E+02  0.51100000000E-03 0.  1.
        -12    1    4    4    0    0  0.65536020846E+01  0.23388539894E+01 -0.89117104321E+01  0.11306569820E+02  0.00000000000E+00 0.  1.
</event>
<event>
 8    1  0.1229038E-006  0.9118800E+02  0.7816164E-02  0.1184000E+00
        -11   -1    0    0    0    0  0.00000000000E+00  0.00000000000E+00  0.45593999997E+02  0.45594000000E+02  0.51100000000E-03 0. -1.
         11   -1    0    0    0    0 -0.00000000000E+00 -0.00000000000E+00 -0.45593999997E+02  0.45594000000E+02  0.51100000000E-03 0.  1.
         23    2    1    2    0    0  0.17763568394E-14 -0.71054273576E-14 -0.17763568394E-14  0.91188000000E+02  0.91188000000E+02 0.  0.
    9900012    2    3    3    0    0  0.53593045366E+01 -0.34390856295E+02  0.12013466218E+02  0.54367129391E+02  0.40000103073E+02 0.  0.
        -12    1    3    3    0    0 -0.53593045366E+01  0.34390856295E+02 -0.12013466218E+02  0.36820870609E+02  0.00000000000E+00 0.  1.
         11    1    4    4    0    0  0.10850273418E+02 -0.49391487290E+01  0.25166639739E+01  0.12184302246E+02  0.51100000000E-03 0. -1.
        -11    1    4    4    0    0  0.73870029725E+01 -0.98757994422E+01 -0.63733260110E+01  0.13882309327E+02  0.51100000000E-03 0.  1.
        -12    1    4    4    0    0 -0.12877971854E+02 -0.19575908124E+02  0.15870128255E+02  0.28300517818E+02  0.00000000000E+00 0.  1.
</event>
<event>
 8    1  0.1229038E-006  0.9118800E+02  0.7816164E-02  0.1184000E+00
        -11   -1    0    0    0    0  0.00000000000E+00  0.00000000000E+00  0.45593999997E+02  0.45594000000E+02  0.51100000000E-03 0. -1.
         11   -1    0    0    0    0 -0.00000000000E+00 -0.00000000000E+00 -0.45593999997E+02  0.45594000000E+02  0.51100000000E-03 0.  1.
         23    2    1    2    0    0 -0.88817841970E-15  0.00000000000E+00  0.35527136788E-14  0.91188000000E+02  0.91188000000E+02 0.  0.
    9900012    2    3    3    0    0 -0.31580982729E+01  0.22361372186E+02 -0.29082205606E+02  0.54367092438E+02  0.40000018831E+02 0.  0.
         12    1    3    3    0    0  0.31580982729E+01 -0.22361372186E+02  0.29082205606E+02  0.36820907562E+02  0.00000000000E+00 0. -1.
         11    1    4    4    0    0 -0.10396942037E+02  0.15375831100E+02 -0.83626538379E+01  0.20357960733E+02  0.51100000000E-03 0. -1.
        -11    1    4    4    0    0 -0.16361888561E+01  0.14950539627E+02 -0.11847469057E+02  0.19145711594E+02  0.51100000000E-03 0.  1.
         12    1    4    4    0    0  0.88750326199E+01 -0.79649985413E+01 -0.88720827113E+01  0.14863420111E+02  0.00000000000E+00 0. -1.
</event>
<event>
 8    1  0.1229038E-006  0.9118800E+02  0.7816164E-02  0.1184000E+00
        -11   -1    0    0    0    0  0.00000000000E+00  0.00000000000E+00  0.45593999997E+02  0.45594000000E+02  0.51100000000E-03 0. -1.
         11   -1    0    0    0    0 -0.00000000000E+00 -0.00000000000E+00 -0.45593999997E+02  0.45594000000E+02  0.51100000000E-03 0.  1.
         23    2    1    2    0    0  0.00000000000E+00  0.00000000000E+00  0.22204460493E-15  0.91188000000E+02  0.91188000000E+02 0.  0.
    9900012    2    3    3    0    0  0.24771742742E+02  0.27183032283E+02  0.17952323634E+01  0.54367090970E+02  0.40000015484E+02 0.  0.
        -12    1    3    3    0    0 -0.24771742742E+02 -0.27183032283E+02 -0.17952323634E+01  0.36820909030E+02  0.00000000000E+00 0.  1.
         11    1    4    4    0    0 -0.29354566846E+00  0.12984902088E+02  0.11352028906E+01  0.13037735124E+02  0.51100000000E-03 0. -1.
        -11    1    4    4    0    0  0.79052140648E+01  0.19439639845E+02  0.72680657541E+01  0.22208484568E+02  0.51100000000E-03 0.  1.
        -12    1    4    4    0    0  0.17160074345E+02 -0.52415096503E+01 -0.66080362813E+01  0.19120871278E+02  0.00000000000E+00 0.  1.
</event>
<event>
 8    1  0.1229038E-006  0.9118800E+02  0.7816164E-02  0.1184000E+00
        -11   -1    0    0    0    0  0.00000000000E+00  0.00000000000E+00  0.45593999997E+02  0.45594000000E+02  0.51100000000E-03 0.  1.
         11   -1    0    0    0    0 -0.00000000000E+00 -0.00000000000E+00 -0.45593999997E+02  0.45594000000E+02  0.51100000000E-03 0. -1.
         23    2    1    2    0    0  0.00000000000E+00  0.00000000000E+00  0.00000000000E+00  0.91188000000E+02  0.91188000000E+02 0.  0.
    9900012    2    3    3    0    0 -0.35278271595E+02 -0.85699958811E+01 -0.61465751452E+01  0.54367059461E+02  0.39999943654E+02 0.  0.
         12    1    3    3    0    0  0.35278271595E+02  0.85699958811E+01  0.61465751452E+01  0.36820940539E+02  0.00000000000E+00 0. -1.
         11    1    4    4    0    0 -0.60347724860E+01 -0.43849419059E+01 -0.85439754901E+01  0.11342209305E+02  0.51100000000E-03 0. -1.
        -11    1    4    4    0    0 -0.45028578742E+00  0.10258014285E+02 -0.21566354578E+01  0.10491934575E+02  0.51100000000E-03 0.  1.
        -12    1    4    4    0    0 -0.28793213321E+02 -0.14443068261E+02  0.45540358026E+01  0.32532915582E+02  0.00000000000E+00 0.  1.
</event>
<event>
 8    1  0.1229038E-006  0.9118800E+02  0.7816164E-02  0.1184000E+00
        -11   -1    0    0    0    0  0.00000000000E+00  0.00000000000E+00  0.45593999997E+02  0.45594000000E+02  0.51100000000E-03 0.  1.
         11   -1    0    0    0    0 -0.00000000000E+00 -0.00000000000E+00 -0.45593999997E+02  0.45594000000E+02  0.51100000000E-03 0. -1.
         23    2    1    2    0    0  0.00000000000E+00  0.35527136788E-14  0.35527136788E-14  0.91188000000E+02  0.91188000000E+02 0.  0.
    9900012    2    3    3    0    0 -0.13638669663E+02  0.28966207552E+02  0.18185846918E+02  0.54367088574E+02  0.40000010022E+02 0.  0.
         12    1    3    3    0    0  0.13638669663E+02 -0.28966207552E+02 -0.18185846918E+02  0.36820911426E+02  0.00000000000E+00 0. -1.
         11    1    4    4    0    0 -0.81017940487E+01  0.34124568057E+02  0.96707167734E+01  0.36381973216E+02  0.51100000000E-03 0. -1.
        -11    1    4    4    0    0  0.15322852591E+01  0.17049397691E+01  0.77734837288E+01  0.81044288679E+01  0.51100000000E-03 0.  1.
         12    1    4    4    0    0 -0.70691608737E+01 -0.68633002745E+01  0.74164641526E+00  0.98806864904E+01  0.00000000000E+00 0. -1.
</event>
<event>
 8    1  0.1229038E-006  0.9118800E+02  0.7816164E-02  0.1184000E+00
        -11   -1    0    0    0    0  0.00000000000E+00  0.00000000000E+00  0.45593999997E+02  0.45594000000E+02  0.51100000000E-03 0.  1.
         11   -1    0    0    0    0 -0.00000000000E+00 -0.00000000000E+00 -0.45593999997E+02  0.45594000000E+02  0.51100000000E-03 0. -1.
         23    2    1    2    0    0  0.00000000000E+00 -0.35527136788E-14  0.00000000000E+00  0.91188000000E+02  0.91188000000E+02 0.  0.
    9900012    2    3    3    0    0 -0.26440364783E+02 -0.20439532870E+02 -0.15456839837E+02  0.54367064494E+02  0.39999955127E+02 0.  0.
        -12    1    3    3    0    0  0.26440364783E+02  0.20439532870E+02  0.15456839837E+02  0.36820935506E+02  0.00000000000E+00 0.  1.
         11    1    4    4    0    0 -0.11288084042E+02 -0.21740456960E+02 -0.63635771541E+01  0.25309354489E+02  0.51100000000E-03 0. -1.
        -11    1    4    4    0    0 -0.54315496299E+01  0.72942903261E+01 -0.13946210916E+02  0.16649480530E+02  0.51100000000E-03 0.  1.
        -12    1    4    4    0    0 -0.97207311112E+01 -0.59933662356E+01  0.48529482325E+01  0.12408229476E+02  0.00000000000E+00 0.  1.
</event>
<event>
 8    1  0.1229038E-006  0.9118800E+02  0.7816164E-02  0.1184000E+00
        -11   -1    0    0    0    0  0.00000000000E+00  0.00000000000E+00  0.45593999997E+02  0.45594000000E+02  0.51100000000E-03 0.  1.
         11   -1    0    0    0    0 -0.00000000000E+00 -0.00000000000E+00 -0.45593999997E+02  0.45594000000E+02  0.51100000000E-03 0. -1.
         23    2    1    2    0    0  0.00000000000E+00  0.00000000000E+00  0.00000000000E+00  0.91188000000E+02  0.91188000000E+02 0.  0.
    9900012    2    3    3    0    0 -0.15791021239E+02  0.32052013460E+02  0.88934098302E+01  0.54367073110E+02  0.39999974769E+02 0.  0.
        -12    1    3    3    0    0  0.15791021239E+02 -0.32052013460E+02 -0.88934098302E+01  0.36820926890E+02  0.00000000000E+00 0.  1.
         11    1    4    4    0    0 -0.13606048269E+02  0.57520483048E+01  0.38159677672E+01  0.15256874498E+02  0.51100000000E-03 0. -1.
        -11    1    4    4    0    0 -0.63472851575E+01 -0.36986046267E+01  0.48876462681E+01  0.88236495487E+01  0.51100000000E-03 0.  1.
         12    1    4    4    0    0  0.41623121872E+01  0.29998569782E+02  0.18979579484E+00  0.30286549063E+02  0.00000000000E+00 0. -1.
</event>
<event>
 8    1  0.1229038E-006  0.9118800E+02  0.7816164E-02  0.1184000E+00
        -11   -1    0    0    0    0  0.00000000000E+00  0.00000000000E+00  0.45593999997E+02  0.45594000000E+02  0.51100000000E-03 0.  1.
         11   -1    0    0    0    0 -0.00000000000E+00 -0.00000000000E+00 -0.45593999997E+02  0.45594000000E+02  0.51100000000E-03 0. -1.
         23    2    1    2    0    0  0.00000000000E+00  0.00000000000E+00 -0.35527136788E-14  0.91188000000E+02  0.91188000000E+02 0.  0.
    9900012    2    3    3    0    0  0.82017085706E+01 -0.30916071790E+02  0.18240269743E+02  0.54367096173E+02  0.40000027344E+02 0.  0.
         12    1    3    3    0    0 -0.82017085706E+01  0.30916071790E+02 -0.18240269743E+02  0.36820903827E+02  0.00000000000E+00 0. -1.
         11    1    4    4    0    0  0.96712018249E+01 -0.43300333764E+01 -0.51098192154E+01  0.11763995344E+02  0.51100000000E-03 0. -1.
        -11    1    4    4    0    0  0.39312368456E+01 -0.32566989671E+00 -0.30427535225E+01  0.49818704598E+01  0.51100000000E-03 0.  1.
        -12    1    4    4    0    0 -0.54007300999E+01 -0.26260368516E+02  0.26392842481E+02  0.37621230369E+02  0.00000000000E+00 0.  1.
</event>
<event>
 8    1  0.1229038E-006  0.9118800E+02  0.7816164E-02  0.1184000E+00
        -11   -1    0    0    0    0  0.00000000000E+00  0.00000000000E+00  0.45593999997E+02  0.45594000000E+02  0.51100000000E-03 0. -1.
         11   -1    0    0    0    0 -0.00000000000E+00 -0.00000000000E+00 -0.45593999997E+02  0.45594000000E+02  0.51100000000E-03 0.  1.
         23    2    1    2    0    0  0.00000000000E+00  0.17763568394E-14  0.00000000000E+00  0.91188000000E+02  0.91188000000E+02 0.  0.
    9900012    2    3    3    0    0  0.33566312161E+02  0.14532721584E+02  0.42287484863E+01  0.54367087158E+02  0.40000006795E+02 0.  0.
         12    1    3    3    0    0 -0.33566312161E+02 -0.14532721584E+02 -0.42287484863E+01  0.36820912842E+02  0.00000000000E+00 0. -1.
         11    1    4    4    0    0 -0.37397678330E+01  0.22558335546E+00 -0.10156832076E+01  0.38817990589E+01  0.51100000000E-03 0. -1.
        -11    1    4    4    0    0  0.12196183460E+00  0.12531229411E+02  0.42925890865E+01  0.13246618685E+02  0.51100000000E-03 0.  1.
        -12    1    4    4    0    0  0.37184118160E+02  0.17759088169E+01  0.95184260738E+00  0.37238669415E+02  0.00000000000E+00 0.  1.
</event>
<event>
 8    1  0.1229038E-006  0.9118800E+02  0.7816164E-02  0.1184000E+00
        -11   -1    0    0    0    0  0.00000000000E+00  0.00000000000E+00  0.45593999997E+02  0.45594000000E+02  0.51100000000E-03 0.  1.
         11   -1    0    0    0    0 -0.00000000000E+00 -0.00000000000E+00 -0.45593999997E+02  0.45594000000E+02  0.51100000000E-03 0. -1.
         23    2    1    2    0    0  0.00000000000E+00  0.00000000000E+00  0.35527136788E-14  0.91188000000E+02  0.91188000000E+02 0.  0.
    9900012    2    3    3    0    0 -0.23852273498E+02 -0.61622697312E+01 -0.27365572378E+02  0.54367094649E+02  0.40000023872E+02 0.  0.
        -12    1    3    3    0    0  0.23852273498E+02  0.61622697312E+01  0.27365572378E+02  0.36820905351E+02  0.00000000000E+00 0.  1.
         11    1    4    4    0    0 -0.73424762467E+01 -0.11182172913E+02 -0.60374674661E+01  0.14676646830E+02  0.51100000000E-03 0. -1.
        -11    1    4    4    0    0 -0.24094447880E+02  0.40885197503E+00 -0.12401275194E+02  0.27101682702E+02  0.51100000000E-03 0.  1.
        -12    1    4    4    0    0  0.75846506283E+01  0.46110512071E+01 -0.89268297172E+01  0.12588765118E+02  0.00000000000E+00 0.  1.
</event>
<event>
 8    1  0.1229038E-006  0.9118800E+02  0.7816164E-02  0.1184000E+00
        -11   -1    0    0    0    0  0.00000000000E+00  0.00000000000E+00  0.45593999997E+02  0.45594000000E+02  0.51100000000E-03 0.  1.
         11   -1    0    0    0    0 -0.00000000000E+00 -0.00000000000E+00 -0.45593999997E+02  0.45594000000E+02  0.51100000000E-03 0. -1.
         23    2    1    2    0    0 -0.71054273576E-14 -0.35527136788E-14  0.17763568394E-14  0.91188000000E+02  0.91188000000E+02 0.  0.
    9900012    2    3    3    0    0 -0.33008830071E+02 -0.14282607533E+02  0.78870129834E+01  0.54367072331E+02  0.39999972994E+02 0.  0.
         12    1    3    3    0    0  0.33008830071E+02  0.14282607533E+02 -0.78870129834E+01  0.36820927669E+02  0.00000000000E+00 0. -1.
         11    1    4    4    0    0 -0.42311744096E+01  0.60529256256E+01  0.35244367402E+01  0.81830556707E+01  0.51100000000E-03 0. -1.
        -11    1    4    4    0    0  0.19265881961E+01 -0.29066199554E+01  0.98545730078E+01  0.10453362668E+02  0.51100000000E-03 0.  1.
        -12    1    4    4    0    0 -0.30704243857E+02 -0.17428913203E+02 -0.54919967645E+01  0.35730653993E+02  0.00000000000E+00 0.  1.
</event>
<event>
 8    1  0.1229038E-006  0.9118800E+02  0.7816164E-02  0.1184000E+00
        -11   -1    0    0    0    0  0.00000000000E+00  0.00000000000E+00  0.45593999997E+02  0.45594000000E+02  0.51100000000E-03 0. -1.
         11   -1    0    0    0    0 -0.00000000000E+00 -0.00000000000E+00 -0.45593999997E+02  0.45594000000E+02  0.51100000000E-03 0.  1.
         23    2    1    2    0    0  0.00000000000E+00 -0.19984014443E-14 -0.88817841970E-15  0.91188000000E+02  0.91188000000E+02 0.  0.
    9900012    2    3    3    0    0 -0.36716417174E+02  0.12843713023E+01  0.24566822168E+01  0.54367079490E+02  0.39999989313E+02 0.  0.
        -12    1    3    3    0    0  0.36716417174E+02 -0.12843713023E+01 -0.24566822168E+01  0.36820920510E+02  0.00000000000E+00 0.  1.
         11    1    4    4    0    0 -0.16098242584E+02 -0.17343295754E+02  0.63554968646E+01  0.24501748153E+02  0.51100000000E-03 0.  1.
        -11    1    4    4    0    0 -0.64968233986E+01  0.82868127629E+01  0.31583443039E+01  0.10993412529E+02  0.51100000000E-03 0. -1.
        -12    1    4    4    0    0 -0.14121351191E+02  0.10340854294E+02 -0.70571589518E+01  0.18871918807E+02  0.00000000000E+00 0.  1.
</event>
<event>
 8    1  0.1229038E-006  0.9118800E+02  0.7816164E-02  0.1184000E+00
        -11   -1    0    0    0    0  0.00000000000E+00  0.00000000000E+00  0.45593999997E+02  0.45594000000E+02  0.51100000000E-03 0. -1.
         11   -1    0    0    0    0 -0.00000000000E+00 -0.00000000000E+00 -0.45593999997E+02  0.45594000000E+02  0.51100000000E-03 0.  1.
         23    2    1    2    0    0  0.17763568394E-14  0.71054273576E-14  0.88817841970E-15  0.91188000000E+02  0.91188000000E+02 0.  0.
    9900012    2    3    3    0    0 -0.41183481521E+01 -0.36501802620E+02  0.25371109435E+01  0.54367091294E+02  0.40000016223E+02 0.  0.
        -12    1    3    3    0    0  0.41183481521E+01  0.36501802620E+02 -0.25371109435E+01  0.36820908706E+02  0.00000000000E+00 0.  1.
         11    1    4    4    0    0 -0.94560077616E+01 -0.10395726346E+01 -0.20693505174E-01  0.95130028137E+01  0.51100000000E-03 0. -1.
        -11    1    4    4    0    0  0.71037104323E+01 -0.70749436691E+01  0.11292476993E+02  0.15100912778E+02  0.51100000000E-03 0.  1.
        -12    1    4    4    0    0 -0.17660508227E+01 -0.28387286316E+02 -0.87346725446E+01  0.29753175702E+02  0.00000000000E+00 0.  1.
</event>
<event>
 8    1  0.1229038E-006  0.9118800E+02  0.7816164E-02  0.1184000E+00
        -11   -1    0    0    0    0  0.00000000000E+00  0.00000000000E+00  0.45593999997E+02  0.45594000000E+02  0.51100000000E-03 0.  1.
         11   -1    0    0    0    0 -0.00000000000E+00 -0.00000000000E+00 -0.45593999997E+02  0.45594000000E+02  0.51100000000E-03 0. -1.
         23    2    1    2    0    0 -0.35527136788E-14 -0.99920072216E-15 -0.71054273576E-14  0.91188000000E+02  0.91188000000E+02 0.  0.
    9900012    2    3    3    0    0  0.89620516174E+01  0.94818920318E+00 -0.35701010794E+02  0.54367087414E+02  0.40000007377E+02 0.  0.
        -12    1    3    3    0    0 -0.89620516174E+01 -0.94818920318E+00  0.35701010794E+02  0.36820912586E+02  0.00000000000E+00 0.  1.
         11    1    4    4    0    0  0.16070623643E+02  0.11718286227E+02 -0.18083305521E+02  0.26881017749E+02  0.51100000000E-03 0. -1.
        -11    1    4    4    0    0 -0.32897902531E+01 -0.86069444393E+00  0.28437361981E+01  0.44328716043E+01  0.51100000000E-03 0.  1.
        -12    1    4    4    0    0 -0.38187817727E+01 -0.99094025801E+01 -0.20461441471E+02  0.23053198060E+02  0.00000000000E+00 0.  1.
</event>
<event>
 8    1  0.1229038E-006  0.9118800E+02  0.7816164E-02  0.1184000E+00
        -11   -1    0    0    0    0  0.00000000000E+00  0.00000000000E+00  0.45593999997E+02  0.45594000000E+02  0.51100000000E-03 0.  1.
         11   -1    0    0    0    0 -0.00000000000E+00 -0.00000000000E+00 -0.45593999997E+02  0.45594000000E+02  0.51100000000E-03 0. -1.
         23    2    1    2    0    0  0.00000000000E+00  0.35527136788E-14  0.00000000000E+00  0.91188000000E+02  0.91188000000E+02 0.  0.
    9900012    2    3    3    0    0 -0.29040554426E+02  0.19518616423E+02  0.11465137730E+02  0.54367087850E+02  0.40000008371E+02 0.  0.
         12    1    3    3    0    0  0.29040554426E+02 -0.19518616423E+02 -0.11465137730E+02  0.36820912150E+02  0.00000000000E+00 0. -1.
         11    1    4    4    0    0  0.19362605842E+01 -0.70247961788E+01 -0.59139077147E+01  0.93846241865E+01  0.51100000000E-03 0. -1.
        -11    1    4    4    0    0 -0.28737498495E+02  0.25618060231E+02  0.14309333384E+02  0.41071715960E+02  0.51100000000E-03 0.  1.
         12    1    4    4    0    0 -0.22393165151E+01  0.92535237066E+00  0.30697120604E+01  0.39107477032E+01  0.00000000000E+00 0. -1.
</event>
<event>
 8    1  0.1229038E-006  0.9118800E+02  0.7816164E-02  0.1184000E+00
        -11   -1    0    0    0    0  0.00000000000E+00  0.00000000000E+00  0.45593999997E+02  0.45594000000E+02  0.51100000000E-03 0.  1.
         11   -1    0    0    0    0 -0.00000000000E+00 -0.00000000000E+00 -0.45593999997E+02  0.45594000000E+02  0.51100000000E-03 0. -1.
         23    2    1    2    0    0  0.00000000000E+00  0.00000000000E+00 -0.35527136788E-14  0.91188000000E+02  0.91188000000E+02 0.  0.
    9900012    2    3    3    0    0  0.82411975688E+01 -0.30095816126E+02 -0.19547479077E+02  0.54367089855E+02  0.40000012942E+02 0.  0.
        -12    1    3    3    0    0 -0.82411975688E+01  0.30095816126E+02  0.19547479077E+02  0.36820910145E+02  0.00000000000E+00 0.  1.
         11    1    4    4    0    0 -0.16375111628E+01 -0.24122388836E+01 -0.61857968634E+00  0.29804329097E+01  0.51100000000E-03 0. -1.
        -11    1    4    4    0    0  0.43231572119E+01 -0.32035288089E+02 -0.25934130939E+02  0.41443075647E+02  0.51100000000E-03 0.  1.
        -12    1    4    4    0    0  0.55555515197E+01  0.43517108470E+01  0.70052315485E+01  0.99435812981E+01  0.00000000000E+00 0.  1.
</event>
<event>
 8    1  0.1229038E-006  0.9118800E+02  0.7816164E-02  0.1184000E+00
        -11   -1    0    0    0    0  0.00000000000E+00  0.00000000000E+00  0.45593999997E+02  0.45594000000E+02  0.51100000000E-03 0.  1.
         11   -1    0    0    0    0 -0.00000000000E+00 -0.00000000000E+00 -0.45593999997E+02  0.45594000000E+02  0.51100000000E-03 0. -1.
         23    2    1    2    0    0 -0.88817841970E-15  0.00000000000E+00  0.00000000000E+00  0.91188000000E+02  0.91188000000E+02 0.  0.
    9900012    2    3    3    0    0 -0.45789338982E+01 -0.66147599842E+01 -0.35931285092E+02  0.54367096512E+02  0.40000028118E+02 0.  0.
        -12    1    3    3    0    0  0.45789338982E+01  0.66147599842E+01  0.35931285092E+02  0.36820903488E+02  0.00000000000E+00 0.  1.
         11    1    4    4    0    0  0.22718647566E+00  0.12563126779E+01 -0.12198528697E+02  0.12265155436E+02  0.51100000000E-03 0. -1.
        -11    1    4    4    0    0 -0.16580506549E+02  0.32364544981E+01 -0.56047707978E+01  0.17798912638E+02  0.51100000000E-03 0.  1.
        -12    1    4    4    0    0  0.11774386175E+02 -0.11107527160E+02 -0.18127985598E+02  0.24303028438E+02  0.00000000000E+00 0.  1.
</event>
<event>
 8    1  0.1229038E-006  0.9118800E+02  0.7816164E-02  0.1184000E+00
        -11   -1    0    0    0    0  0.00000000000E+00  0.00000000000E+00  0.45593999997E+02  0.45594000000E+02  0.51100000000E-03 0. -1.
         11   -1    0    0    0    0 -0.00000000000E+00 -0.00000000000E+00 -0.45593999997E+02  0.45594000000E+02  0.51100000000E-03 0.  1.
         23    2    1    2    0    0 -0.71054273576E-14  0.44408920985E-15  0.00000000000E+00  0.91188000000E+02  0.91188000000E+02 0.  0.
    9900012    2    3    3    0    0  0.36514773283E+02 -0.29425927178E+01 -0.37140746213E+01  0.54367056637E+02  0.39999937216E+02 0.  0.
        -12    1    3    3    0    0 -0.36514773283E+02  0.29425927178E+01  0.37140746213E+01  0.36820943363E+02  0.00000000000E+00 0.  1.
         11    1    4    4    0    0  0.91188314437E+01  0.21102735517E+01 -0.64159871845E+01  0.11347741325E+02  0.51100000000E-03 0. -1.
        -11    1    4    4    0    0  0.56757480728E+01  0.14491693547E+01 -0.13790365637E+02  0.14982936717E+02  0.51100000000E-03 0.  1.
         12    1    4    4    0    0  0.21720193767E+02 -0.65020356242E+01  0.16492278200E+02  0.28036378595E+02  0.00000000000E+00 0. -1.
</event>
<event>
 8    1  0.1229038E-006  0.9118800E+02  0.7816164E-02  0.1184000E+00
        -11   -1    0    0    0    0  0.00000000000E+00  0.00000000000E+00  0.45593999997E+02  0.45594000000E+02  0.51100000000E-03 0.  1.
         11   -1    0    0    0    0 -0.00000000000E+00 -0.00000000000E+00 -0.45593999997E+02  0.45594000000E+02  0.51100000000E-03 0. -1.
         23    2    1    2    0    0 -0.17763568394E-14  0.00000000000E+00 -0.35527136788E-14  0.91188000000E+02  0.91188000000E+02 0.  0.
    9900012    2    3    3    0    0 -0.15758757038E+02 -0.20864835568E+02  0.25924893382E+02  0.54367083614E+02  0.39999998714E+02 0.  0.
         12    1    3    3    0    0  0.15758757038E+02  0.20864835568E+02 -0.25924893382E+02  0.36820916386E+02  0.00000000000E+00 0. -1.
         11    1    4    4    0    0  0.13769889108E+01 -0.13363580664E+01  0.13546595317E+01  0.23488410015E+01  0.51100000000E-03 0. -1.
        -11    1    4    4    0    0 -0.83454448202E+01 -0.13262371211E+02 -0.80796634658E+01  0.17630028399E+02  0.51100000000E-03 0.  1.
        -12    1    4    4    0    0 -0.87903011283E+01 -0.62661062904E+01  0.32649897316E+02  0.34388214213E+02  0.00000000000E+00 0.  1.
</event>
<event>
 8    1  0.1229038E-006  0.9118800E+02  0.7816164E-02  0.1184000E+00
        -11   -1    0    0    0    0  0.00000000000E+00  0.00000000000E+00  0.45593999997E+02  0.45594000000E+02  0.51100000000E-03 0.  1.
         11   -1    0    0    0    0 -0.00000000000E+00 -0.00000000000E+00 -0.45593999997E+02  0.45594000000E+02  0.51100000000E-03 0. -1.
         23    2    1    2    0    0  0.00000000000E+00  0.35527136788E-14  0.66613381478E-15  0.91188000000E+02  0.91188000000E+02 0.  0.
    9900012    2    3    3    0    0 -0.29194658153E+02 -0.22371950869E+02 -0.17168432747E+01  0.54367084732E+02  0.40000001263E+02 0.  0.
         12    1    3    3    0    0  0.29194658153E+02  0.22371950869E+02  0.17168432747E+01  0.36820915268E+02  0.00000000000E+00 0. -1.
         11    1    4    4    0    0 -0.18077675048E+02 -0.20300434254E+02  0.14894188306E+01  0.27223672323E+02  0.51100000000E-03 0.  1.
        -11    1    4    4    0    0 -0.86717099749E+01  0.56128905462E+01  0.81900466021E+01  0.13182562641E+02  0.51100000000E-03 0. -1.
        -12    1    4    4    0    0 -0.24452731307E+01 -0.76844071613E+01 -0.11396308707E+02  0.13960849768E+02  0.00000000000E+00 0.  1.
</event>
<event>
 8    1  0.1229038E-006  0.9118800E+02  0.7816164E-02  0.1184000E+00
        -11   -1    0    0    0    0  0.00000000000E+00  0.00000000000E+00  0.45593999997E+02  0.45594000000E+02  0.51100000000E-03 0.  1.
         11   -1    0    0    0    0 -0.00000000000E+00 -0.00000000000E+00 -0.45593999997E+02  0.45594000000E+02  0.51100000000E-03 0. -1.
         23    2    1    2    0    0  0.00000000000E+00 -0.10269562978E-14 -0.88817841970E-15  0.91188000000E+02  0.91188000000E+02 0.  0.
    9900012    2    3    3    0    0  0.36616713373E+02 -0.73376606130E-01 -0.38718088164E+01  0.54367082224E+02  0.39999995547E+02 0.  0.
        -12    1    3    3    0    0 -0.36616713373E+02  0.73376606130E-01  0.38718088164E+01  0.36820917776E+02  0.00000000000E+00 0.  1.
         11    1    4    4    0    0  0.27834750304E+02  0.10335887950E+02 -0.10905929860E+02  0.31631364349E+02  0.51100000000E-03 0. -1.
        -11    1    4    4    0    0  0.77480513181E+01 -0.14541524578E+02  0.27692786185E+01  0.16707996307E+02  0.51100000000E-03 0.  1.
         12    1    4    4    0    0  0.10339117506E+01  0.41322600215E+01  0.42648424249E+01  0.60277215681E+01  0.00000000000E+00 0. -1.
</event>
<event>
 8    1  0.1229038E-006  0.9118800E+02  0.7816164E-02  0.1184000E+00
        -11   -1    0    0    0    0  0.00000000000E+00  0.00000000000E+00  0.45593999997E+02  0.45594000000E+02  0.51100000000E-03 0. -1.
         11   -1    0    0    0    0 -0.00000000000E+00 -0.00000000000E+00 -0.45593999997E+02  0.45594000000E+02  0.51100000000E-03 0.  1.
         23    2    1    2    0    0  0.00000000000E+00  0.88817841970E-15 -0.35527136788E-14  0.91188000000E+02  0.91188000000E+02 0.  0.
    9900012    2    3    3    0    0 -0.26846214245E+02  0.50288216788E+01  0.24693541870E+02  0.54367091852E+02  0.40000017495E+02 0.  0.
        -12    1    3    3    0    0  0.26846214245E+02 -0.50288216788E+01 -0.24693541870E+02  0.36820908148E+02  0.00000000000E+00 0.  1.
         11    1    4    4    0    0 -0.46843740208E+01 -0.83271220351E+01  0.97924453936E+01  0.13681239286E+02  0.51100000000E-03 0. -1.
        -11    1    4    4    0    0 -0.20659325443E+02  0.20609477589E+02  0.15865955204E+02  0.33215761756E+02  0.51100000000E-03 0.  1.
        -12    1    4    4    0    0 -0.15025147816E+01 -0.72535338749E+01 -0.96485872747E+00  0.74700908098E+01  0.00000000000E+00 0.  1.
</event>
<event>
 8    1  0.1229038E-006  0.9118800E+02  0.7816164E-02  0.1184000E+00
        -11   -1    0    0    0    0  0.00000000000E+00  0.00000000000E+00  0.45593999997E+02  0.45594000000E+02  0.51100000000E-03 0.  1.
         11   -1    0    0    0    0 -0.00000000000E+00 -0.00000000000E+00 -0.45593999997E+02  0.45594000000E+02  0.51100000000E-03 0. -1.
         23    2    1    2    0    0  0.00000000000E+00  0.00000000000E+00  0.00000000000E+00  0.91188000000E+02  0.91188000000E+02 0.  0.
    9900012    2    3    3    0    0  0.34675345043E+02  0.84677552762E+01 -0.90386922676E+01  0.54367076720E+02  0.39999982998E+02 0.  0.
         12    1    3    3    0    0 -0.34675345043E+02 -0.84677552762E+01  0.90386922676E+01  0.36820923280E+02  0.00000000000E+00 0. -1.
         11    1    4    4    0    0  0.16217320811E+02  0.81224996886E+01 -0.11678174243E+02  0.21572117406E+02  0.51100000000E-03 0.  1.
        -11    1    4    4    0    0  0.15264690260E+02 -0.12319150408E+02  0.20223032670E+01  0.19719582812E+02  0.51100000000E-03 0. -1.
         12    1    4    4    0    0  0.31933339714E+01  0.12664405996E+02  0.61717870823E+00  0.13075376501E+02  0.00000000000E+00 0. -1.
</event>
<event>
 8    1  0.1229038E-006  0.9118800E+02  0.7816164E-02  0.1184000E+00
        -11   -1    0    0    0    0  0.00000000000E+00  0.00000000000E+00  0.45593999997E+02  0.45594000000E+02  0.51100000000E-03 0.  1.
         11   -1    0    0    0    0 -0.00000000000E+00 -0.00000000000E+00 -0.45593999997E+02  0.45594000000E+02  0.51100000000E-03 0. -1.
         23    2    1    2    0    0 -0.72164496601E-15  0.00000000000E+00  0.00000000000E+00  0.91188000000E+02  0.91188000000E+02 0.  0.
    9900012    2    3    3    0    0  0.37179628042E+00  0.90739110951E+01  0.35683406840E+02  0.54367087209E+02  0.40000006910E+02 0.  0.
         12    1    3    3    0    0 -0.37179628042E+00 -0.90739110951E+01 -0.35683406840E+02  0.36820912791E+02  0.00000000000E+00 0. -1.
         11    1    4    4    0    0  0.19499755437E+01 -0.28670647013E+01 -0.27429003099E+01  0.44210821066E+01  0.51100000000E-03 0. -1.
        -11    1    4    4    0    0 -0.13944835126E+02  0.78939051240E+01  0.10558160053E+02  0.19189760518E+02  0.51100000000E-03 0.  1.
        -12    1    4    4    0    0  0.12366655862E+02  0.40470706723E+01  0.27868147098E+02  0.30756244584E+02  0.00000000000E+00 0.  1.
</event>
<event>
 8    1  0.1229038E-006  0.9118800E+02  0.7816164E-02  0.1184000E+00
        -11   -1    0    0    0    0  0.00000000000E+00  0.00000000000E+00  0.45593999997E+02  0.45594000000E+02  0.51100000000E-03 0.  1.
         11   -1    0    0    0    0 -0.00000000000E+00 -0.00000000000E+00 -0.45593999997E+02  0.45594000000E+02  0.51100000000E-03 0. -1.
         23    2    1    2    0    0 -0.17763568394E-14 -0.17763568394E-14  0.00000000000E+00  0.91188000000E+02  0.91188000000E+02 0.  0.
    9900012    2    3    3    0    0 -0.10948314920E+02  0.10476142149E+02 -0.33558375069E+02  0.54367086225E+02  0.40000004667E+02 0.  0.
        -12    1    3    3    0    0  0.10948314920E+02 -0.10476142149E+02  0.33558375069E+02  0.36820913775E+02  0.00000000000E+00 0.  1.
         11    1    4    4    0    0  0.45483374378E+01 -0.45431171221E+01 -0.23697299778E+02  0.24553804260E+02  0.51100000000E-03 0. -1.
        -11    1    4    4    0    0 -0.19181034910E+02  0.11119254080E+02 -0.53588344932E+01  0.22809362527E+02  0.51100000000E-03 0.  1.
        -12    1    4    4    0    0  0.36843825520E+01  0.39000051914E+01 -0.45022407983E+01  0.70039194376E+01  0.00000000000E+00 0.  1.
</event>
<event>
 8    1  0.1229038E-006  0.9118800E+02  0.7816164E-02  0.1184000E+00
        -11   -1    0    0    0    0  0.00000000000E+00  0.00000000000E+00  0.45593999997E+02  0.45594000000E+02  0.51100000000E-03 0.  1.
         11   -1    0    0    0    0 -0.00000000000E+00 -0.00000000000E+00 -0.45593999997E+02  0.45594000000E+02  0.51100000000E-03 0. -1.
         23    2    1    2    0    0  0.00000000000E+00  0.19984014443E-14  0.00000000000E+00  0.91188000000E+02  0.91188000000E+02 0.  0.
    9900012    2    3    3    0    0  0.26624299875E+02  0.15726739860E+01 -0.25386068178E+02  0.54367094188E+02  0.40000022820E+02 0.  0.
        -12    1    3    3    0    0 -0.26624299875E+02 -0.15726739860E+01  0.25386068178E+02  0.36820905812E+02  0.00000000000E+00 0.  1.
         11    1    4    4    0    0  0.36707271515E+01 -0.10980525136E+02  0.40893688911E+01  0.12278807282E+02  0.51100000000E-03 0. -1.
        -11    1    4    4    0    0  0.11320814677E+02 -0.51037816164E+00 -0.60307421216E+01  0.12837101761E+02  0.51100000000E-03 0.  1.
         12    1    4    4    0    0  0.11632758047E+02  0.13063577283E+02 -0.23444694947E+02  0.29251185145E+02  0.00000000000E+00 0. -1.
</event>
<event>
 8    1  0.1229038E-006  0.9118800E+02  0.7816164E-02  0.1184000E+00
        -11   -1    0    0    0    0  0.00000000000E+00  0.00000000000E+00  0.45593999997E+02  0.45594000000E+02  0.51100000000E-03 0. -1.
         11   -1    0    0    0    0 -0.00000000000E+00 -0.00000000000E+00 -0.45593999997E+02  0.45594000000E+02  0.51100000000E-03 0.  1.
         23    2    1    2    0    0  0.00000000000E+00  0.71054273576E-14  0.88817841970E-15  0.91188000000E+02  0.91188000000E+02 0.  0.
    9900012    2    3    3    0    0 -0.11728066365E+02  0.34380160301E+02  0.60197946762E+01  0.54367069934E+02  0.39999967529E+02 0.  0.
        -12    1    3    3    0    0  0.11728066365E+02 -0.34380160301E+02 -0.60197946762E+01  0.36820930066E+02  0.00000000000E+00 0.  1.
         11    1    4    4    0    0 -0.23836722356E+02  0.25142459559E+02  0.73777201032E+01  0.35422639082E+02  0.51100000000E-03 0. -1.
        -11    1    4    4    0    0  0.64995387922E+01 -0.13596019260E+01 -0.20063326337E+01  0.69367061929E+01  0.51100000000E-03 0.  1.
         12    1    4    4    0    0  0.56091171992E+01  0.10597302668E+02  0.64840720665E+00  0.12007724659E+02  0.00000000000E+00 0. -1.
</event>
<event>
 8    1  0.1229038E-006  0.9118800E+02  0.7816164E-02  0.1184000E+00
        -11   -1    0    0    0    0  0.00000000000E+00  0.00000000000E+00  0.45593999997E+02  0.45594000000E+02  0.51100000000E-03 0. -1.
         11   -1    0    0    0    0 -0.00000000000E+00 -0.00000000000E+00 -0.45593999997E+02  0.45594000000E+02  0.51100000000E-03 0.  1.
         23    2    1    2    0    0  0.00000000000E+00  0.00000000000E+00 -0.35527136788E-14  0.91188000000E+02  0.91188000000E+02 0.  0.
    9900012    2    3    3    0    0  0.24563166806E+02 -0.14038548199E+02  0.23565867298E+02  0.54367080666E+02  0.39999991995E+02 0.  0.
        -12    1    3    3    0    0 -0.24563166806E+02  0.14038548199E+02 -0.23565867298E+02  0.36820919334E+02  0.00000000000E+00 0.  1.
         11    1    4    4    0    0  0.11377470819E+02 -0.55155416389E+01  0.14894909407E+02  0.19537818924E+02  0.51100000000E-03 0. -1.
        -11    1    4    4    0    0  0.48759395899E+01 -0.14510268054E+02  0.16070245323E+02  0.22194040887E+02  0.51100000000E-03 0.  1.
        -12    1    4    4    0    0  0.83097563967E+01  0.59872614941E+01 -0.73992874318E+01  0.12635220856E+02  0.00000000000E+00 0.  1.
</event>
<event>
 8    1  0.1229038E-006  0.9118800E+02  0.7816164E-02  0.1184000E+00
        -11   -1    0    0    0    0  0.00000000000E+00  0.00000000000E+00  0.45593999997E+02  0.45594000000E+02  0.51100000000E-03 0.  1.
         11   -1    0    0    0    0 -0.00000000000E+00 -0.00000000000E+00 -0.45593999997E+02  0.45594000000E+02  0.51100000000E-03 0. -1.
         23    2    1    2    0    0  0.00000000000E+00  0.00000000000E+00  0.00000000000E+00  0.91188000000E+02  0.91188000000E+02 0.  0.
    9900012    2    3    3    0    0  0.34950070004E+01 -0.22920161662E+02 -0.28604751203E+02  0.54367072854E+02  0.39999974185E+02 0.  0.
        -12    1    3    3    0    0 -0.34950070004E+01  0.22920161662E+02  0.28604751203E+02  0.36820927146E+02  0.00000000000E+00 0.  1.
         11    1    4    4    0    0 -0.11211697246E+01 -0.88747071537E+01 -0.13054110114E+02  0.15824893040E+02  0.51100000000E-03 0. -1.
        -11    1    4    4    0    0  0.64895023811E+01  0.64044168458E+01 -0.15527717545E+02  0.18006671227E+02  0.51100000000E-03 0.  1.
        -12    1    4    4    0    0 -0.18733256561E+01 -0.20449871354E+02 -0.22923544586E-01  0.20535508586E+02  0.00000000000E+00 0.  1.
</event>
<event>
 8    1  0.1229038E-006  0.9118800E+02  0.7816164E-02  0.1184000E+00
        -11   -1    0    0    0    0  0.00000000000E+00  0.00000000000E+00  0.45593999997E+02  0.45594000000E+02  0.51100000000E-03 0. -1.
         11   -1    0    0    0    0 -0.00000000000E+00 -0.00000000000E+00 -0.45593999997E+02  0.45594000000E+02  0.51100000000E-03 0.  1.
         23    2    1    2    0    0  0.00000000000E+00  0.00000000000E+00  0.00000000000E+00  0.91188000000E+02  0.91188000000E+02 0.  0.
    9900012    2    3    3    0    0 -0.12099141385E+02 -0.31584748043E+01 -0.34632561779E+02  0.54367088540E+02  0.40000009944E+02 0.  0.
         12    1    3    3    0    0  0.12099141385E+02  0.31584748043E+01  0.34632561779E+02  0.36820911460E+02  0.00000000000E+00 0. -1.
         11    1    4    4    0    0  0.11318424879E+01 -0.14968271370E+01 -0.31958925774E+02  0.32013973445E+02  0.51100000000E-03 0. -1.
        -11    1    4    4    0    0 -0.13014955802E+02  0.87609424110E+00 -0.87886795045E+01  0.15728874828E+02  0.51100000000E-03 0.  1.
         12    1    4    4    0    0 -0.21602807105E+00 -0.25377419085E+01  0.61150434987E+01  0.66242402668E+01  0.00000000000E+00 0. -1.
</event>
<event>
 8    1  0.1229038E-006  0.9118800E+02  0.7816164E-02  0.1184000E+00
        -11   -1    0    0    0    0  0.00000000000E+00  0.00000000000E+00  0.45593999997E+02  0.45594000000E+02  0.51100000000E-03 0.  1.
         11   -1    0    0    0    0 -0.00000000000E+00 -0.00000000000E+00 -0.45593999997E+02  0.45594000000E+02  0.51100000000E-03 0. -1.
         23    2    1    2    0    0  0.00000000000E+00  0.00000000000E+00  0.00000000000E+00  0.91188000000E+02  0.91188000000E+02 0.  0.
    9900012    2    3    3    0    0 -0.30211940186E+02  0.11085245801E+02 -0.17892391329E+02  0.54367059331E+02  0.39999943357E+02 0.  0.
        -12    1    3    3    0    0  0.30211940186E+02 -0.11085245801E+02  0.17892391329E+02  0.36820940669E+02  0.00000000000E+00 0.  1.
         11    1    4    4    0    0 -0.13892618319E+02 -0.44455353167E+00 -0.13382863154E+02  0.19295167739E+02  0.51100000000E-03 0. -1.
        -11    1    4    4    0    0  0.25815843698E+01 -0.72842055038E+01  0.11392601296E+01  0.78116670170E+01  0.51100000000E-03 0.  1.
        -12    1    4    4    0    0 -0.18900906237E+02  0.18814004837E+02 -0.56487883042E+01  0.27260224575E+02  0.00000000000E+00 0.  1.
</event>
<event>
 8    1  0.1229038E-006  0.9118800E+02  0.7816164E-02  0.1184000E+00
        -11   -1    0    0    0    0  0.00000000000E+00  0.00000000000E+00  0.45593999997E+02  0.45594000000E+02  0.51100000000E-03 0. -1.
         11   -1    0    0    0    0 -0.00000000000E+00 -0.00000000000E+00 -0.45593999997E+02  0.45594000000E+02  0.51100000000E-03 0.  1.
         23    2    1    2    0    0  0.35527136788E-14  0.00000000000E+00  0.00000000000E+00  0.91188000000E+02  0.91188000000E+02 0.  0.
    9900012    2    3    3    0    0  0.25095820186E+02 -0.19624730572E+02  0.18462140955E+02  0.54367069954E+02  0.39999967573E+02 0.  0.
        -12    1    3    3    0    0 -0.25095820186E+02  0.19624730572E+02 -0.18462140955E+02  0.36820930046E+02  0.00000000000E+00 0.  1.
         11    1    4    4    0    0  0.94997900965E+01  0.50336949043E+01  0.11225006371E+02  0.15543000501E+02  0.51100000000E-03 0. -1.
        -11    1    4    4    0    0 -0.38193157627E+01 -0.13408946051E+02  0.85355993245E+01  0.16347582793E+02  0.51100000000E-03 0.  1.
        -12    1    4    4    0    0  0.19415345852E+02 -0.11249479426E+02 -0.12984647403E+01  0.22476486660E+02  0.00000000000E+00 0.  1.
</event>
<event>
 8    1  0.1229038E-006  0.9118800E+02  0.7816164E-02  0.1184000E+00
        -11   -1    0    0    0    0  0.00000000000E+00  0.00000000000E+00  0.45593999997E+02  0.45594000000E+02  0.51100000000E-03 0.  1.
         11   -1    0    0    0    0 -0.00000000000E+00 -0.00000000000E+00 -0.45593999997E+02  0.45594000000E+02  0.51100000000E-03 0. -1.
         23    2    1    2    0    0  0.00000000000E+00  0.88817841970E-15  0.00000000000E+00  0.91188000000E+02  0.91188000000E+02 0.  0.
    9900012    2    3    3    0    0 -0.56162730958E+01 -0.36939061703E+01 -0.36202175747E+02  0.54367014203E+02  0.39999840478E+02 0.  0.
        -12    1    3    3    0    0  0.56162730958E+01  0.36939061703E+01  0.36202175747E+02  0.36820985797E+02  0.00000000000E+00 0.  1.
         11    1    4    4    0    0 -0.70824009092E+01  0.36848380069E+01 -0.29064655975E+02  0.30141212003E+02  0.51100000000E-03 0. -1.
        -11    1    4    4    0    0  0.79163287468E+01 -0.10907642932E+02 -0.95157386042E+01  0.16498309507E+02  0.51100000000E-03 0.  1.
        -12    1    4    4    0    0 -0.64502009334E+01  0.35288987544E+01  0.23782188329E+01  0.77274926928E+01  0.00000000000E+00 0.  1.
</event>
<event>
 8    1  0.1229038E-006  0.9118800E+02  0.7816164E-02  0.1184000E+00
        -11   -1    0    0    0    0  0.00000000000E+00  0.00000000000E+00  0.45593999997E+02  0.45594000000E+02  0.51100000000E-03 0. -1.
         11   -1    0    0    0    0 -0.00000000000E+00 -0.00000000000E+00 -0.45593999997E+02  0.45594000000E+02  0.51100000000E-03 0.  1.
         23    2    1    2    0    0 -0.35527136788E-14  0.00000000000E+00  0.00000000000E+00  0.91188000000E+02  0.91188000000E+02 0.  0.
    9900012    2    3    3    0    0 -0.12615215647E+02 -0.17498159703E+02  0.29840565017E+02  0.54366965531E+02  0.39999729521E+02 0.  0.
        -12    1    3    3    0    0  0.12615215647E+02  0.17498159703E+02 -0.29840565017E+02  0.36821034469E+02  0.00000000000E+00 0.  1.
         11    1    4    4    0    0  0.68939802631E+01 -0.15087046322E+02  0.63222074474E+01  0.17751513678E+02  0.51100000000E-03 0. -1.
        -11    1    4    4    0    0  0.32815235764E+01 -0.40470891948E+01  0.46141705227E+01  0.69597340328E+01  0.51100000000E-03 0.  1.
         12    1    4    4    0    0 -0.22790719486E+02  0.16359758136E+01  0.18904187047E+02  0.29655717821E+02  0.00000000000E+00 0. -1.
</event>
<event>
 8    1  0.1229038E-006  0.9118800E+02  0.7816164E-02  0.1184000E+00
        -11   -1    0    0    0    0  0.00000000000E+00  0.00000000000E+00  0.45593999997E+02  0.45594000000E+02  0.51100000000E-03 0.  1.
         11   -1    0    0    0    0 -0.00000000000E+00 -0.00000000000E+00 -0.45593999997E+02  0.45594000000E+02  0.51100000000E-03 0. -1.
         23    2    1    2    0    0 -0.88817841970E-15 -0.11379786002E-14  0.00000000000E+00  0.91188000000E+02  0.91188000000E+02 0.  0.
    9900012    2    3    3    0    0 -0.41155395500E+01 -0.18917895812E+00 -0.36589587118E+02  0.54367199629E+02  0.40000263194E+02 0.  0.
        -12    1    3    3    0    0  0.41155395500E+01  0.18917895812E+00  0.36589587118E+02  0.36820800371E+02  0.00000000000E+00 0.  1.
         11    1    4    4    0    0 -0.82901846741E+01  0.10853753751E+02 -0.21317056568E+02  0.25316951503E+02  0.51100000000E-03 0. -1.
        -11    1    4    4    0    0 -0.22885286653E+01 -0.14932254637E+02 -0.15308204085E+02  0.21506991993E+02  0.51100000000E-03 0.  1.
        -12    1    4    4    0    0  0.64631737894E+01  0.38893219282E+01  0.35673534687E-01  0.75432561334E+01  0.00000000000E+00 0.  1.
</event>
<event>
 8    1  0.1229038E-006  0.9118800E+02  0.7816164E-02  0.1184000E+00
        -11   -1    0    0    0    0  0.00000000000E+00  0.00000000000E+00  0.45593999997E+02  0.45594000000E+02  0.51100000000E-03 0. -1.
         11   -1    0    0    0    0 -0.00000000000E+00 -0.00000000000E+00 -0.45593999997E+02  0.45594000000E+02  0.51100000000E-03 0.  1.
         23    2    1    2    0    0  0.00000000000E+00  0.00000000000E+00  0.00000000000E+00  0.91188000000E+02  0.91188000000E+02 0.  0.
    9900012    2    3    3    0    0  0.98424318883E+01 -0.32804169525E+02 -0.13520061209E+02  0.54367094813E+02  0.40000024245E+02 0.  0.
         12    1    3    3    0    0 -0.98424318883E+01  0.32804169525E+02  0.13520061209E+02  0.36820905187E+02  0.00000000000E+00 0. -1.
         11    1    4    4    0    0  0.71682724364E+01  0.67568850396E+01 -0.84068305024E+01  0.12950460398E+02  0.51100000000E-03 0. -1.
        -11    1    4    4    0    0  0.67391042394E+01 -0.29244355317E+02 -0.36582439026E+01  0.30232938868E+02  0.51100000000E-03 0.  1.
        -12    1    4    4    0    0 -0.40649447876E+01 -0.10316699248E+02 -0.14549868044E+01  0.11183695547E+02  0.00000000000E+00 0.  1.
</event>
<event>
 8    1  0.1229038E-006  0.9118800E+02  0.7816164E-02  0.1184000E+00
        -11   -1    0    0    0    0  0.00000000000E+00  0.00000000000E+00  0.45593999997E+02  0.45594000000E+02  0.51100000000E-03 0. -1.
         11   -1    0    0    0    0 -0.00000000000E+00 -0.00000000000E+00 -0.45593999997E+02  0.45594000000E+02  0.51100000000E-03 0.  1.
         23    2    1    2    0    0  0.00000000000E+00 -0.35527136788E-14  0.44408920985E-15  0.91188000000E+02  0.91188000000E+02 0.  0.
    9900012    2    3    3    0    0  0.30706857749E+02 -0.20160901464E+02  0.25309813447E+01  0.54367096600E+02  0.40000028318E+02 0.  0.
         12    1    3    3    0    0 -0.30706857749E+02  0.20160901464E+02 -0.25309813447E+01  0.36820903400E+02  0.00000000000E+00 0. -1.
         11    1    4    4    0    0 -0.73440112028E-02 -0.51492722430E+01  0.18182561643E+01  0.54608712041E+01  0.51100000000E-03 0. -1.
        -11    1    4    4    0    0  0.80413993795E+01 -0.21710248078E+02 -0.67484751906E+01  0.24115158993E+02  0.51100000000E-03 0.  1.
        -12    1    4    4    0    0  0.22672802381E+02  0.66986188576E+01  0.74612003710E+01  0.24791066403E+02  0.00000000000E+00 0.  1.
</event>
<event>
 8    1  0.1229038E-006  0.9118800E+02  0.7816164E-02  0.1184000E+00
        -11   -1    0    0    0    0  0.00000000000E+00  0.00000000000E+00  0.45593999997E+02  0.45594000000E+02  0.51100000000E-03 0.  1.
         11   -1    0    0    0    0 -0.00000000000E+00 -0.00000000000E+00 -0.45593999997E+02  0.45594000000E+02  0.51100000000E-03 0. -1.
         23    2    1    2    0    0 -0.71054273576E-14 -0.44408920985E-15  0.00000000000E+00  0.91188000000E+02  0.91188000000E+02 0.  0.
    9900012    2    3    3    0    0  0.24262606797E+02 -0.39795879964E+01 -0.27409253289E+02  0.54367104098E+02  0.40000045411E+02 0.  0.
        -12    1    3    3    0    0 -0.24262606797E+02  0.39795879964E+01  0.27409253289E+02  0.36820895902E+02  0.00000000000E+00 0.  1.
         11    1    4    4    0    0 -0.59524515485E+01 -0.96775952331E+01 -0.17340867759E+01  0.11493240889E+02  0.51100000000E-03 0. -1.
        -11    1    4    4    0    0  0.28324018943E+02  0.20310060676E-01 -0.21835147503E+02  0.35763446818E+02  0.51100000000E-03 0.  1.
         12    1    4    4    0    0  0.18910394030E+01  0.56776971760E+01 -0.38400190094E+01  0.71104163899E+01  0.00000000000E+00 0. -1.
</event>
<event>
 8    1  0.1229038E-006  0.9118800E+02  0.7816164E-02  0.1184000E+00
        -11   -1    0    0    0    0  0.00000000000E+00  0.00000000000E+00  0.45593999997E+02  0.45594000000E+02  0.51100000000E-03 0.  1.
         11   -1    0    0    0    0 -0.00000000000E+00 -0.00000000000E+00 -0.45593999997E+02  0.45594000000E+02  0.51100000000E-03 0. -1.
         23    2    1    2    0    0  0.00000000000E+00 -0.35527136788E-14  0.35527136788E-14  0.91188000000E+02  0.91188000000E+02 0.  0.
    9900012    2    3    3    0    0 -0.19896773173E+02 -0.21146085995E+02  0.22643770520E+02  0.54367097255E+02  0.40000029812E+02 0.  0.
         12    1    3    3    0    0  0.19896773173E+02  0.21146085995E+02 -0.22643770520E+02  0.36820902745E+02  0.00000000000E+00 0. -1.
         11    1    4    4    0    0 -0.12678439863E+02  0.15691313887E+01  0.29158820857E+01  0.13103716239E+02  0.51100000000E-03 0. -1.
        -11    1    4    4    0    0  0.97055905482E+01 -0.14405316687E+02  0.88093826719E+01  0.19476058637E+02  0.51100000000E-03 0.  1.
         12    1    4    4    0    0 -0.16923923858E+02 -0.83099006973E+01  0.10918505762E+02  0.21787322378E+02  0.00000000000E+00 0. -1.
</event>
<event>
 8    1  0.1229038E-006  0.9118800E+02  0.7816164E-02  0.1184000E+00
        -11   -1    0    0    0    0  0.00000000000E+00  0.00000000000E+00  0.45593999997E+02  0.45594000000E+02  0.51100000000E-03 0. -1.
         11   -1    0    0    0    0 -0.00000000000E+00 -0.00000000000E+00 -0.45593999997E+02  0.45594000000E+02  0.51100000000E-03 0.  1.
         23    2    1    2    0    0  0.00000000000E+00  0.88817841970E-15  0.35527136788E-14  0.91188000000E+02  0.91188000000E+02 0.  0.
    9900012    2    3    3    0    0  0.27014459413E+02  0.44952131172E+01  0.24612938072E+02  0.54367018496E+02  0.39999850266E+02 0.  0.
         12    1    3    3    0    0 -0.27014459413E+02 -0.44952131172E+01 -0.24612938072E+02  0.36820981504E+02  0.00000000000E+00 0. -1.
         11    1    4    4    0    0  0.15177392496E+01  0.12527088070E+01 -0.62699312504E+01  0.65715180842E+01  0.51100000000E-03 0. -1.
        -11    1    4    4    0    0  0.16969986332E+02  0.10846435888E+02  0.70022255848E+01  0.21322682078E+02  0.51100000000E-03 0.  1.
         12    1    4    4    0    0  0.85267338319E+01 -0.76039315777E+01  0.23880643737E+02  0.26472818335E+02  0.00000000000E+00 0. -1.
</event>
<event>
 8    1  0.1229038E-006  0.9118800E+02  0.7816164E-02  0.1184000E+00
        -11   -1    0    0    0    0  0.00000000000E+00  0.00000000000E+00  0.45593999997E+02  0.45594000000E+02  0.51100000000E-03 0.  1.
         11   -1    0    0    0    0 -0.00000000000E+00 -0.00000000000E+00 -0.45593999997E+02  0.45594000000E+02  0.51100000000E-03 0. -1.
         23    2    1    2    0    0  0.17763568394E-14  0.00000000000E+00  0.00000000000E+00  0.91188000000E+02  0.91188000000E+02 0.  0.
    9900012    2    3    3    0    0 -0.84884335854E+01  0.34220363650E+02 -0.10615660278E+02  0.54367095120E+02  0.40000024945E+02 0.  0.
        -12    1    3    3    0    0  0.84884335854E+01 -0.34220363650E+02  0.10615660278E+02  0.36820904880E+02  0.00000000000E+00 0.  1.
         11    1    4    4    0    0 -0.60818130734E+01  0.39683033016E+00 -0.14211658435E+01  0.62582455359E+01  0.51100000000E-03 0. -1.
        -11    1    4    4    0    0 -0.26686004798E+01 -0.57892869387E+01 -0.53257866158E+01  0.83067006156E+01  0.51100000000E-03 0.  1.
        -12    1    4    4    0    0  0.26197996787E+00  0.39612820258E+02 -0.38687078186E+01  0.39802148968E+02  0.00000000000E+00 0.  1.
</event>
<event>
 8    1  0.1229038E-006  0.9118800E+02  0.7816164E-02  0.1184000E+00
        -11   -1    0    0    0    0  0.00000000000E+00  0.00000000000E+00  0.45593999997E+02  0.45594000000E+02  0.51100000000E-03 0.  1.
         11   -1    0    0    0    0 -0.00000000000E+00 -0.00000000000E+00 -0.45593999997E+02  0.45594000000E+02  0.51100000000E-03 0. -1.
         23    2    1    2    0    0 -0.35527136788E-14 -0.88817841970E-15  0.00000000000E+00  0.91188000000E+02  0.91188000000E+02 0.  0.
    9900012    2    3    3    0    0 -0.29693525305E+02  0.53817981532E+01 -0.21097631412E+02  0.54367092250E+02  0.40000018402E+02 0.  0.
        -12    1    3    3    0    0  0.29693525305E+02 -0.53817981532E+01  0.21097631412E+02  0.36820907750E+02  0.00000000000E+00 0.  1.
         11    1    4    4    0    0 -0.31919666187E+02  0.17359875582E+02 -0.17438408367E+02  0.40302958407E+02  0.51100000000E-03 0. -1.
        -11    1    4    4    0    0  0.34605675495E+01 -0.46391089981E+01 -0.31870041320E+01  0.66071064513E+01  0.51100000000E-03 0.  1.
         12    1    4    4    0    0 -0.12344266671E+01 -0.73389684303E+01 -0.47221891249E+00  0.74570273916E+01  0.00000000000E+00 0. -1.
</event>
<event>
 8    1  0.1229038E-006  0.9118800E+02  0.7816164E-02  0.1184000E+00
        -11   -1    0    0    0    0  0.00000000000E+00  0.00000000000E+00  0.45593999997E+02  0.45594000000E+02  0.51100000000E-03 0.  1.
         11   -1    0    0    0    0 -0.00000000000E+00 -0.00000000000E+00 -0.45593999997E+02  0.45594000000E+02  0.51100000000E-03 0. -1.
         23    2    1    2    0    0  0.00000000000E+00  0.00000000000E+00  0.00000000000E+00  0.91188000000E+02  0.91188000000E+02 0.  0.
    9900012    2    3    3    0    0 -0.22655285783E+02  0.26873649142E+02 -0.10969250178E+02  0.54367089615E+02  0.40000012395E+02 0.  0.
        -12    1    3    3    0    0  0.22655285783E+02 -0.26873649142E+02  0.10969250178E+02  0.36820910385E+02  0.00000000000E+00 0.  1.
         11    1    4    4    0    0  0.16135446920E+01  0.14892383825E+02 -0.96403844212E+01  0.17813580059E+02  0.51100000000E-03 0. -1.
        -11    1    4    4    0    0  0.34148581788E+01 -0.31026867852E+01 -0.19790928686E+01  0.50204313074E+01  0.51100000000E-03 0.  1.
        -12    1    4    4    0    0 -0.27683688654E+02  0.15083952102E+02  0.65022711176E+00  0.31533078248E+02  0.00000000000E+00 0.  1.
</event>
<event>
 8    1  0.1229038E-006  0.9118800E+02  0.7816164E-02  0.1184000E+00
        -11   -1    0    0    0    0  0.00000000000E+00  0.00000000000E+00  0.45593999997E+02  0.45594000000E+02  0.51100000000E-03 0. -1.
         11   -1    0    0    0    0 -0.00000000000E+00 -0.00000000000E+00 -0.45593999997E+02  0.45594000000E+02  0.51100000000E-03 0.  1.
         23    2    1    2    0    0  0.44408920985E-15  0.00000000000E+00  0.00000000000E+00  0.91188000000E+02  0.91188000000E+02 0.  0.
    9900012    2    3    3    0    0  0.23527956863E+01  0.27426619242E+02  0.24454545208E+02  0.54367083771E+02  0.39999999073E+02 0.  0.
        -12    1    3    3    0    0 -0.23527956863E+01 -0.27426619242E+02 -0.24454545208E+02  0.36820916229E+02  0.00000000000E+00 0.  1.
         11    1    4    4    0    0  0.73270245367E+01  0.13466400985E+02  0.32653493417E+02  0.36073257084E+02  0.51100000000E-03 0. -1.
        -11    1    4    4    0    0 -0.63694650922E+01  0.13150795619E+02 -0.66380177110E+01  0.16049199057E+02  0.51100000000E-03 0.  1.
        -12    1    4    4    0    0  0.13952362417E+01  0.80942263814E+00 -0.15609304981E+01  0.22446276300E+01  0.00000000000E+00 0.  1.
</event>
<event>
 8    1  0.1229038E-006  0.9118800E+02  0.7816164E-02  0.1184000E+00
        -11   -1    0    0    0    0  0.00000000000E+00  0.00000000000E+00  0.45593999997E+02  0.45594000000E+02  0.51100000000E-03 0.  1.
         11   -1    0    0    0    0 -0.00000000000E+00 -0.00000000000E+00 -0.45593999997E+02  0.45594000000E+02  0.51100000000E-03 0. -1.
         23    2    1    2    0    0  0.00000000000E+00  0.00000000000E+00 -0.35527136788E-14  0.91188000000E+02  0.91188000000E+02 0.  0.
    9900012    2    3    3    0    0  0.84785009438E+01 -0.26074428293E+02 -0.24576735271E+02  0.54367126767E+02  0.40000097090E+02 0.  0.
        -12    1    3    3    0    0 -0.84785009438E+01  0.26074428293E+02  0.24576735271E+02  0.36820873233E+02  0.00000000000E+00 0.  1.
         11    1    4    4    0    0  0.42509463978E+01  0.67886075176E+00 -0.28032923025E+01  0.51371047480E+01  0.51100000000E-03 0. -1.
        -11    1    4    4    0    0  0.14671685680E+02 -0.11151396632E+02  0.24410319848E+01  0.18589530520E+02  0.51100000000E-03 0.  1.
         12    1    4    4    0    0 -0.10444131134E+02 -0.15601892413E+02 -0.24214474954E+02  0.30640491499E+02  0.00000000000E+00 0. -1.
</event>
<event>
 8    1  0.1229038E-006  0.9118800E+02  0.7816164E-02  0.1184000E+00
        -11   -1    0    0    0    0  0.00000000000E+00  0.00000000000E+00  0.45593999997E+02  0.45594000000E+02  0.51100000000E-03 0.  1.
         11   -1    0    0    0    0 -0.00000000000E+00 -0.00000000000E+00 -0.45593999997E+02  0.45594000000E+02  0.51100000000E-03 0. -1.
         23    2    1    2    0    0  0.00000000000E+00  0.00000000000E+00  0.00000000000E+00  0.91188000000E+02  0.91188000000E+02 0.  0.
    9900012    2    3    3    0    0  0.10619161607E+02  0.89732350071E+01 -0.34095348477E+02  0.54367104743E+02  0.40000046883E+02 0.  0.
        -12    1    3    3    0    0 -0.10619161607E+02 -0.89732350071E+01  0.34095348477E+02  0.36820895257E+02  0.00000000000E+00 0.  1.
         11    1    4    4    0    0 -0.88317578861E+01 -0.27951415259E+01 -0.97033349631E+01  0.13415195607E+02  0.51100000000E-03 0. -1.
        -11    1    4    4    0    0  0.29678857845E+01  0.15633110870E+02 -0.12977606791E+02  0.20533406434E+02  0.51100000000E-03 0.  1.
        -12    1    4    4    0    0  0.16483033709E+02 -0.38647343374E+01 -0.11414406723E+02  0.20418502702E+02  0.00000000000E+00 0.  1.
</event>
<event>
 8    1  0.1229038E-006  0.9118800E+02  0.7816164E-02  0.1184000E+00
        -11   -1    0    0    0    0  0.00000000000E+00  0.00000000000E+00  0.45593999997E+02  0.45594000000E+02  0.51100000000E-03 0. -1.
         11   -1    0    0    0    0 -0.00000000000E+00 -0.00000000000E+00 -0.45593999997E+02  0.45594000000E+02  0.51100000000E-03 0.  1.
         23    2    1    2    0    0  0.00000000000E+00 -0.17763568394E-14 -0.35527136788E-14  0.91188000000E+02  0.91188000000E+02 0.  0.
    9900012    2    3    3    0    0  0.25476742496E+02 -0.74683089526E+01 -0.25513239653E+02  0.54367279686E+02  0.40000445699E+02 0.  0.
         12    1    3    3    0    0 -0.25476742496E+02  0.74683089526E+01  0.25513239653E+02  0.36820720314E+02  0.00000000000E+00 0. -1.
         11    1    4    4    0    0  0.10122440671E+02  0.64803933090E+00 -0.20726656141E+02  0.23075485589E+02  0.51100000000E-03 0.  1.
        -11    1    4    4    0    0  0.22102160543E+02 -0.94593417671E+01 -0.35726845827E+01  0.24305322930E+02  0.51100000000E-03 0. -1.
         12    1    4    4    0    0 -0.67478587178E+01  0.13429934835E+01 -0.12138989291E+01  0.69864711680E+01  0.00000000000E+00 0. -1.
</event>
<event>
 8    1  0.1229038E-006  0.9118800E+02  0.7816164E-02  0.1184000E+00
        -11   -1    0    0    0    0  0.00000000000E+00  0.00000000000E+00  0.45593999997E+02  0.45594000000E+02  0.51100000000E-03 0.  1.
         11   -1    0    0    0    0 -0.00000000000E+00 -0.00000000000E+00 -0.45593999997E+02  0.45594000000E+02  0.51100000000E-03 0. -1.
         23    2    1    2    0    0  0.00000000000E+00  0.00000000000E+00 -0.35527136788E-14  0.91188000000E+02  0.91188000000E+02 0.  0.
    9900012    2    3    3    0    0 -0.16442960308E+02  0.30391448711E+02 -0.12718833296E+02  0.54367084492E+02  0.40000000715E+02 0.  0.
         12    1    3    3    0    0  0.16442960308E+02 -0.30391448711E+02  0.12718833296E+02  0.36820915508E+02  0.00000000000E+00 0. -1.
         11    1    4    4    0    0  0.48983532801E+01 -0.14079134717E+01  0.47978632013E+01  0.69996840472E+01  0.51100000000E-03 0. -1.
        -11    1    4    4    0    0 -0.71088215049E+01  0.47752507584E+00 -0.97873791543E+01  0.12106038343E+02  0.51100000000E-03 0.  1.
         12    1    4    4    0    0 -0.14232492083E+02  0.31321837107E+02 -0.77293173433E+01  0.35261362102E+02  0.00000000000E+00 0. -1.
</event>
<event>
 8    1  0.1229038E-006  0.9118800E+02  0.7816164E-02  0.1184000E+00
        -11   -1    0    0    0    0  0.00000000000E+00  0.00000000000E+00  0.45593999997E+02  0.45594000000E+02  0.51100000000E-03 0.  1.
         11   -1    0    0    0    0 -0.00000000000E+00 -0.00000000000E+00 -0.45593999997E+02  0.45594000000E+02  0.51100000000E-03 0. -1.
         23    2    1    2    0    0  0.00000000000E+00  0.17763568394E-14 -0.17763568394E-14  0.91188000000E+02  0.91188000000E+02 0.  0.
    9900012    2    3    3    0    0 -0.30897944187E+02 -0.15188738848E+02  0.13053673088E+02  0.54367093929E+02  0.40000022231E+02 0.  0.
         12    1    3    3    0    0  0.30897944187E+02  0.15188738848E+02 -0.13053673088E+02  0.36820906071E+02  0.00000000000E+00 0. -1.
         11    1    4    4    0    0  0.42234543473E+01 -0.15161263244E+02  0.44741411108E+01  0.16362133379E+02  0.51100000000E-03 0. -1.
        -11    1    4    4    0    0 -0.17555792986E+02 -0.22403899767E+01  0.98507417751E+01  0.20254933434E+02  0.51100000000E-03 0.  1.
        -12    1    4    4    0    0 -0.17565605548E+02  0.22129143730E+01 -0.12712097974E+01  0.17750027117E+02  0.00000000000E+00 0.  1.
</event>
<event>
 8    1  0.1229038E-006  0.9118800E+02  0.7816164E-02  0.1184000E+00
        -11   -1    0    0    0    0  0.00000000000E+00  0.00000000000E+00  0.45593999997E+02  0.45594000000E+02  0.51100000000E-03 0.  1.
         11   -1    0    0    0    0 -0.00000000000E+00 -0.00000000000E+00 -0.45593999997E+02  0.45594000000E+02  0.51100000000E-03 0. -1.
         23    2    1    2    0    0  0.00000000000E+00  0.00000000000E+00 -0.23314683517E-14  0.91188000000E+02  0.91188000000E+02 0.  0.
    9900012    2    3    3    0    0  0.34871471582E+02 -0.11812186607E+02  0.48507919151E+00  0.54367046935E+02  0.39999915099E+02 0.  0.
         12    1    3    3    0    0 -0.34871471582E+02  0.11812186607E+02 -0.48507919151E+00  0.36820953065E+02  0.00000000000E+00 0. -1.
         11    1    4    4    0    0  0.11248830347E+02 -0.12131009830E+02  0.13797109188E+02  0.21542000972E+02  0.51100000000E-03 0.  1.
        -11    1    4    4    0    0  0.11707080390E+02 -0.88520919847E+01 -0.88586397817E+01  0.17143242482E+02  0.51100000000E-03 0. -1.
         12    1    4    4    0    0  0.11915560846E+02  0.91709152083E+01 -0.44533902143E+01  0.15681803482E+02  0.00000000000E+00 0. -1.
</event>
<event>
 8    1  0.1229038E-006  0.9118800E+02  0.7816164E-02  0.1184000E+00
        -11   -1    0    0    0    0  0.00000000000E+00  0.00000000000E+00  0.45593999997E+02  0.45594000000E+02  0.51100000000E-03 0.  1.
         11   -1    0    0    0    0 -0.00000000000E+00 -0.00000000000E+00 -0.45593999997E+02  0.45594000000E+02  0.51100000000E-03 0. -1.
         23    2    1    2    0    0  0.17763568394E-14  0.35527136788E-14  0.00000000000E+00  0.91188000000E+02  0.91188000000E+02 0.  0.
    9900012    2    3    3    0    0  0.12334943789E+02 -0.22950985174E+02 -0.26017001452E+02  0.54367042336E+02  0.39999904613E+02 0.  0.
        -12    1    3    3    0    0 -0.12334943789E+02  0.22950985174E+02  0.26017001452E+02  0.36820957664E+02  0.00000000000E+00 0.  1.
         11    1    4    4    0    0 -0.61636503372E+01  0.17687308979E+01 -0.34732599136E+01  0.72926352683E+01  0.51100000000E-03 0. -1.
        -11    1    4    4    0    0  0.17152415353E+02 -0.99346128777E+00 -0.63499858345E+01  0.18317058665E+02  0.51100000000E-03 0.  1.
         12    1    4    4    0    0  0.13461787735E+01 -0.23726254784E+02 -0.16193755704E+02  0.28757348403E+02  0.00000000000E+00 0. -1.
</event>
<event>
 8    1  0.1229038E-006  0.9118800E+02  0.7816164E-02  0.1184000E+00
        -11   -1    0    0    0    0  0.00000000000E+00  0.00000000000E+00  0.45593999997E+02  0.45594000000E+02  0.51100000000E-03 0.  1.
         11   -1    0    0    0    0 -0.00000000000E+00 -0.00000000000E+00 -0.45593999997E+02  0.45594000000E+02  0.51100000000E-03 0. -1.
         23    2    1    2    0    0  0.00000000000E+00 -0.83266726847E-16  0.71054273576E-14  0.91188000000E+02  0.91188000000E+02 0.  0.
    9900012    2    3    3    0    0  0.77031370133E+01  0.14601678414E+00 -0.36005836726E+02  0.54367083131E+02  0.39999997614E+02 0.  0.
        -12    1    3    3    0    0 -0.77031370133E+01 -0.14601678414E+00  0.36005836726E+02  0.36820916869E+02  0.00000000000E+00 0.  1.
         11    1    4    4    0    0  0.79311722935E+01 -0.13527804586E+01 -0.27842841813E+02  0.28982017690E+02  0.51100000000E-03 0. -1.
        -11    1    4    4    0    0 -0.58081523744E+00  0.12551704623E+02 -0.19944578162E+01  0.12722440706E+02  0.51100000000E-03 0.  1.
        -12    1    4    4    0    0  0.35277995721E+00 -0.11052907380E+02 -0.61685370966E+01  0.12662624735E+02  0.00000000000E+00 0.  1.
</event>
<event>
 8    1  0.1229038E-006  0.9118800E+02  0.7816164E-02  0.1184000E+00
        -11   -1    0    0    0    0  0.00000000000E+00  0.00000000000E+00  0.45593999997E+02  0.45594000000E+02  0.51100000000E-03 0. -1.
         11   -1    0    0    0    0 -0.00000000000E+00 -0.00000000000E+00 -0.45593999997E+02  0.45594000000E+02  0.51100000000E-03 0.  1.
         23    2    1    2    0    0  0.00000000000E+00  0.00000000000E+00  0.00000000000E+00  0.91188000000E+02  0.91188000000E+02 0.  0.
    9900012    2    3    3    0    0 -0.20420732547E+01  0.12594179528E+02 -0.34539777518E+02  0.54367086755E+02  0.40000005876E+02 0.  0.
         12    1    3    3    0    0  0.20420732547E+01 -0.12594179528E+02  0.34539777518E+02  0.36820913245E+02  0.00000000000E+00 0. -1.
         11    1    4    4    0    0  0.39674830453E+01  0.12539994074E+02 -0.90083465103E+01  0.15941853098E+02  0.51100000000E-03 0. -1.
        -11    1    4    4    0    0 -0.47118324723E+01  0.13814360729E+02 -0.15873352570E+02  0.21563887629E+02  0.51100000000E-03 0.  1.
         12    1    4    4    0    0 -0.12977238277E+01 -0.13760175276E+02 -0.96580784380E+01  0.16861346028E+02  0.00000000000E+00 0. -1.
</event>
<event>
 8    1  0.1229038E-006  0.9118800E+02  0.7816164E-02  0.1184000E+00
        -11   -1    0    0    0    0  0.00000000000E+00  0.00000000000E+00  0.45593999997E+02  0.45594000000E+02  0.51100000000E-03 0. -1.
         11   -1    0    0    0    0 -0.00000000000E+00 -0.00000000000E+00 -0.45593999997E+02  0.45594000000E+02  0.51100000000E-03 0.  1.
         23    2    1    2    0    0  0.00000000000E+00  0.00000000000E+00 -0.17763568394E-14  0.91188000000E+02  0.91188000000E+02 0.  0.
    9900012    2    3    3    0    0  0.20136576524E+01  0.35187445491E+02 -0.10656860243E+02  0.54367084645E+02  0.40000001065E+02 0.  0.
         12    1    3    3    0    0 -0.20136576524E+01 -0.35187445491E+02  0.10656860243E+02  0.36820915355E+02  0.00000000000E+00 0. -1.
         11    1    4    4    0    0  0.47838089374E+01  0.49611194373E+01 -0.73380669002E+01  0.10067013465E+02  0.51100000000E-03 0. -1.
        -11    1    4    4    0    0 -0.13618799209E+01  0.28593128846E+02 -0.15071768429E+02  0.32350887746E+02  0.51100000000E-03 0.  1.
         12    1    4    4    0    0 -0.14082713640E+01  0.16331972085E+01  0.11752975086E+02  0.11949183434E+02  0.00000000000E+00 0. -1.
</event>
<event>
 8    1  0.1229038E-006  0.9118800E+02  0.7816164E-02  0.1184000E+00
        -11   -1    0    0    0    0  0.00000000000E+00  0.00000000000E+00  0.45593999997E+02  0.45594000000E+02  0.51100000000E-03 0. -1.
         11   -1    0    0    0    0 -0.00000000000E+00 -0.00000000000E+00 -0.45593999997E+02  0.45594000000E+02  0.51100000000E-03 0.  1.
         23    2    1    2    0    0  0.00000000000E+00 -0.66613381478E-15  0.35527136788E-14  0.91188000000E+02  0.91188000000E+02 0.  0.
    9900012    2    3    3    0    0  0.21844476254E+02 -0.13720329446E+01  0.29609399137E+02  0.54367080206E+02  0.39999990946E+02 0.  0.
        -12    1    3    3    0    0 -0.21844476254E+02  0.13720329446E+01 -0.29609399137E+02  0.36820919794E+02  0.00000000000E+00 0.  1.
         11    1    4    4    0    0  0.17531469749E+02  0.13454274070E+02  0.13893207599E+02  0.26103469883E+02  0.51100000000E-03 0. -1.
        -11    1    4    4    0    0 -0.12557178316E+01 -0.14069111519E+01 -0.36173458467E+01  0.40793893535E+01  0.51100000000E-03 0.  1.
         12    1    4    4    0    0  0.55687243372E+01 -0.13419395863E+02  0.19333537385E+02  0.24184220969E+02  0.00000000000E+00 0. -1.
</event>
<event>
 8    1  0.1229038E-006  0.9118800E+02  0.7816164E-02  0.1184000E+00
        -11   -1    0    0    0    0  0.00000000000E+00  0.00000000000E+00  0.45593999997E+02  0.45594000000E+02  0.51100000000E-03 0. -1.
         11   -1    0    0    0    0 -0.00000000000E+00 -0.00000000000E+00 -0.45593999997E+02  0.45594000000E+02  0.51100000000E-03 0.  1.
         23    2    1    2    0    0  0.17763568394E-14  0.00000000000E+00 -0.17763568394E-14  0.91188000000E+02  0.91188000000E+02 0.  0.
    9900012    2    3    3    0    0  0.13063372863E+02 -0.31718822728E+02  0.13380734367E+02  0.54367089120E+02  0.40000011268E+02 0.  0.
         12    1    3    3    0    0 -0.13063372863E+02  0.31718822728E+02 -0.13380734367E+02  0.36820910880E+02  0.00000000000E+00 0. -1.
         11    1    4    4    0    0 -0.93149660938E+01 -0.64762566524E+01 -0.30709603232E+00  0.11349220316E+02  0.51100000000E-03 0. -1.
        -11    1    4    4    0    0  0.14496727400E+02 -0.11956222640E+02  0.18960444354E+02  0.26694658932E+02  0.51100000000E-03 0.  1.
        -12    1    4    4    0    0  0.78816115574E+01 -0.13286343435E+02 -0.52726139543E+01  0.16323209872E+02  0.00000000000E+00 0.  1.
</event>
<event>
 8    1  0.1229038E-006  0.9118800E+02  0.7816164E-02  0.1184000E+00
        -11   -1    0    0    0    0  0.00000000000E+00  0.00000000000E+00  0.45593999997E+02  0.45594000000E+02  0.51100000000E-03 0.  1.
         11   -1    0    0    0    0 -0.00000000000E+00 -0.00000000000E+00 -0.45593999997E+02  0.45594000000E+02  0.51100000000E-03 0. -1.
         23    2    1    2    0    0 -0.88817841970E-15 -0.71054273576E-14  0.88817841970E-15  0.91188000000E+02  0.91188000000E+02 0.  0.
    9900012    2    3    3    0    0 -0.39780538363E+01 -0.36085341001E+02  0.61483178685E+01  0.54367101585E+02  0.40000039684E+02 0.  0.
         12    1    3    3    0    0  0.39780538363E+01  0.36085341001E+02 -0.61483178685E+01  0.36820898415E+02  0.00000000000E+00 0. -1.
         11    1    4    4    0    0 -0.11400770283E+02 -0.42289697330E+01  0.13128149135E+02  0.17894413878E+02  0.51100000000E-03 0. -1.
        -11    1    4    4    0    0  0.23659396382E+01  0.33098718582E+00  0.14798571238E+01  0.28101957684E+01  0.51100000000E-03 0.  1.
        -12    1    4    4    0    0  0.50567768087E+01 -0.32187358454E+02 -0.84596883900E+01  0.33662491939E+02  0.00000000000E+00 0.  1.
</event>
<event>
 8    1  0.1229038E-006  0.9118800E+02  0.7816164E-02  0.1184000E+00
        -11   -1    0    0    0    0  0.00000000000E+00  0.00000000000E+00  0.45593999997E+02  0.45594000000E+02  0.51100000000E-03 0. -1.
         11   -1    0    0    0    0 -0.00000000000E+00 -0.00000000000E+00 -0.45593999997E+02  0.45594000000E+02  0.51100000000E-03 0.  1.
         23    2    1    2    0    0  0.00000000000E+00  0.00000000000E+00  0.00000000000E+00  0.91188000000E+02  0.91188000000E+02 0.  0.
    9900012    2    3    3    0    0 -0.34512359737E+02 -0.33983895820E+01  0.12374377982E+02  0.54367119282E+02  0.40000080028E+02 0.  0.
        -12    1    3    3    0    0  0.34512359737E+02  0.33983895820E+01 -0.12374377982E+02  0.36820880718E+02  0.00000000000E+00 0.  1.
         11    1    4    4    0    0 -0.28761708118E+02 -0.15462919622E+01  0.94272774526E+01  0.30306772067E+02  0.51100000000E-03 0. -1.
        -11    1    4    4    0    0  0.25788715748E+01 -0.10103963785E+02 -0.30851163160E+01  0.10874677269E+02  0.51100000000E-03 0.  1.
        -12    1    4    4    0    0 -0.83295231942E+01  0.82518661651E+01  0.60322168458E+01  0.13185669946E+02  0.00000000000E+00 0.  1.
</event>
<event>
 8    1  0.1229038E-006  0.9118800E+02  0.7816164E-02  0.1184000E+00
        -11   -1    0    0    0    0  0.00000000000E+00  0.00000000000E+00  0.45593999997E+02  0.45594000000E+02  0.51100000000E-03 0. -1.
         11   -1    0    0    0    0 -0.00000000000E+00 -0.00000000000E+00 -0.45593999997E+02  0.45594000000E+02  0.51100000000E-03 0.  1.
         23    2    1    2    0    0  0.00000000000E+00 -0.88817841970E-15  0.35527136788E-14  0.91188000000E+02  0.91188000000E+02 0.  0.
    9900012    2    3    3    0    0  0.29017578709E+02  0.39789266437E+01  0.22314311932E+02  0.54367078659E+02  0.39999987420E+02 0.  0.
        -12    1    3    3    0    0 -0.29017578709E+02 -0.39789266437E+01 -0.22314311932E+02  0.36820921341E+02  0.00000000000E+00 0.  1.
         11    1    4    4    0    0 -0.36472068473E+00 -0.81595564534E+01 -0.13269964675E+01  0.82747992471E+01  0.51100000000E-03 0.  1.
        -11    1    4    4    0    0  0.67939231950E+01  0.28797452405E+01 -0.46518940069E+01  0.87229836147E+01  0.51100000000E-03 0. -1.
        -12    1    4    4    0    0  0.22588376199E+02  0.92587378565E+01  0.28293202406E+02  0.37369295798E+02  0.00000000000E+00 0.  1.
</event>
<event>
 8    1  0.1229038E-006  0.9118800E+02  0.7816164E-02  0.1184000E+00
        -11   -1    0    0    0    0  0.00000000000E+00  0.00000000000E+00  0.45593999997E+02  0.45594000000E+02  0.51100000000E-03 0. -1.
         11   -1    0    0    0    0 -0.00000000000E+00 -0.00000000000E+00 -0.45593999997E+02  0.45594000000E+02  0.51100000000E-03 0.  1.
         23    2    1    2    0    0  0.00000000000E+00 -0.88817841970E-15  0.35527136788E-14  0.91188000000E+02  0.91188000000E+02 0.  0.
    9900012    2    3    3    0    0  0.34918937585E+02 -0.25799600992E+00  0.11678223818E+02  0.54367086438E+02  0.40000005153E+02 0.  0.
        -12    1    3    3    0    0 -0.34918937585E+02  0.25799600992E+00 -0.11678223818E+02  0.36820913562E+02  0.00000000000E+00 0.  1.
         11    1    4    4    0    0  0.14533200858E+02  0.29449833353E+01  0.13436020566E+01  0.14889329090E+02  0.51100000000E-03 0. -1.
        -11    1    4    4    0    0  0.19151748836E+02 -0.61439491188E+01 -0.74206051633E+01  0.21438352910E+02  0.51100000000E-03 0.  1.
         12    1    4    4    0    0  0.12339878916E+01  0.29409697736E+01  0.17755226925E+02  0.18039404438E+02  0.00000000000E+00 0. -1.
</event>
<event>
 8    1  0.1229038E-006  0.9118800E+02  0.7816164E-02  0.1184000E+00
        -11   -1    0    0    0    0  0.00000000000E+00  0.00000000000E+00  0.45593999997E+02  0.45594000000E+02  0.51100000000E-03 0. -1.
         11   -1    0    0    0    0 -0.00000000000E+00 -0.00000000000E+00 -0.45593999997E+02  0.45594000000E+02  0.51100000000E-03 0.  1.
         23    2    1    2    0    0  0.00000000000E+00  0.00000000000E+00  0.00000000000E+00  0.91188000000E+02  0.91188000000E+02 0.  0.
    9900012    2    3    3    0    0 -0.22071118059E+02 -0.26588144473E+02 -0.12716784124E+02  0.54367078266E+02  0.39999986523E+02 0.  0.
        -12    1    3    3    0    0  0.22071118059E+02  0.26588144473E+02  0.12716784124E+02  0.36820921734E+02  0.00000000000E+00 0.  1.
         11    1    4    4    0    0 -0.31859791596E+01  0.10276845730E+01 -0.29027211197E+01  0.44308451730E+01  0.51100000000E-03 0. -1.
        -11    1    4    4    0    0 -0.25046911228E+02 -0.19768062434E+02  0.47731006742E+01  0.32263083311E+02  0.51100000000E-03 0.  1.
         12    1    4    4    0    0  0.61617723288E+01 -0.78477666123E+01 -0.14587163679E+02  0.17673149782E+02  0.00000000000E+00 0. -1.
</event>
<event>
 8    1  0.1229038E-006  0.9118800E+02  0.7816164E-02  0.1184000E+00
        -11   -1    0    0    0    0  0.00000000000E+00  0.00000000000E+00  0.45593999997E+02  0.45594000000E+02  0.51100000000E-03 0. -1.
         11   -1    0    0    0    0 -0.00000000000E+00 -0.00000000000E+00 -0.45593999997E+02  0.45594000000E+02  0.51100000000E-03 0.  1.
         23    2    1    2    0    0  0.35527136788E-14 -0.35527136788E-14  0.00000000000E+00  0.91188000000E+02  0.91188000000E+02 0.  0.
    9900012    2    3    3    0    0  0.16126960203E+02 -0.31985655224E+02  0.85216750997E+01  0.54367082956E+02  0.39999997214E+02 0.  0.
         12    1    3    3    0    0 -0.16126960203E+02  0.31985655224E+02 -0.85216750997E+01  0.36820917044E+02  0.00000000000E+00 0. -1.
         11    1    4    4    0    0  0.13289441822E+02 -0.48302143052E+01  0.13785825139E+02  0.19748144449E+02  0.51100000000E-03 0. -1.
        -11    1    4    4    0    0  0.11145289185E+02 -0.15849276826E+02 -0.67325210280E+01  0.20512042477E+02  0.51100000000E-03 0.  1.
         12    1    4    4    0    0 -0.83077708039E+01 -0.11306164093E+02  0.14683709891E+01  0.14106896029E+02  0.00000000000E+00 0. -1.
</event>
<event>
 8    1  0.1229038E-006  0.9118800E+02  0.7816164E-02  0.1184000E+00
        -11   -1    0    0    0    0  0.00000000000E+00  0.00000000000E+00  0.45593999997E+02  0.45594000000E+02  0.51100000000E-03 0.  1.
         11   -1    0    0    0    0 -0.00000000000E+00 -0.00000000000E+00 -0.45593999997E+02  0.45594000000E+02  0.51100000000E-03 0. -1.
         23    2    1    2    0    0  0.17763568394E-14 -0.71054273576E-14  0.00000000000E+00  0.91188000000E+02  0.91188000000E+02 0.  0.
    9900012    2    3    3    0    0  0.80895884165E+01 -0.30972938094E+02 -0.18193848349E+02  0.54367075885E+02  0.39999981095E+02 0.  0.
         12    1    3    3    0    0 -0.80895884165E+01  0.30972938094E+02  0.18193848349E+02  0.36820924115E+02  0.00000000000E+00 0. -1.
         11    1    4    4    0    0 -0.55253551805E+01 -0.79463043100E+01 -0.12845097616E+02  0.16083215943E+02  0.51100000000E-03 0. -1.
        -11    1    4    4    0    0 -0.69929126166E-01  0.56920272592E+01  0.11671636750E+01  0.58108808031E+01  0.51100000000E-03 0.  1.
         12    1    4    4    0    0  0.13684872723E+02 -0.28718661043E+02 -0.65159144083E+01  0.32472979139E+02  0.00000000000E+00 0. -1.
</event>
<event>
 8    1  0.1229038E-006  0.9118800E+02  0.7816164E-02  0.1184000E+00
        -11   -1    0    0    0    0  0.00000000000E+00  0.00000000000E+00  0.45593999997E+02  0.45594000000E+02  0.51100000000E-03 0.  1.
         11   -1    0    0    0    0 -0.00000000000E+00 -0.00000000000E+00 -0.45593999997E+02  0.45594000000E+02  0.51100000000E-03 0. -1.
         23    2    1    2    0    0  0.00000000000E+00  0.00000000000E+00  0.17763568394E-14  0.91188000000E+02  0.91188000000E+02 0.  0.
    9900012    2    3    3    0    0 -0.19277764713E+02 -0.31320301753E+02 -0.17851078640E+01  0.54367080344E+02  0.39999991259E+02 0.  0.
        -12    1    3    3    0    0  0.19277764713E+02  0.31320301753E+02  0.17851078640E+01  0.36820919656E+02  0.00000000000E+00 0.  1.
         11    1    4    4    0    0 -0.18219945052E+02 -0.95955693031E+01  0.30005797534E+01  0.20809729144E+02  0.51100000000E-03 0. -1.
        -11    1    4    4    0    0  0.12184347723E+01 -0.25424738876E+02 -0.94794958925E+01  0.27161788838E+02  0.51100000000E-03 0.  1.
        -12    1    4    4    0    0 -0.22762544337E+01  0.37000064262E+01  0.46938082751E+01  0.63955623618E+01  0.00000000000E+00 0.  1.
</event>
<event>
 8    1  0.1229038E-006  0.9118800E+02  0.7816164E-02  0.1184000E+00
        -11   -1    0    0    0    0  0.00000000000E+00  0.00000000000E+00  0.45593999997E+02  0.45594000000E+02  0.51100000000E-03 0. -1.
         11   -1    0    0    0    0 -0.00000000000E+00 -0.00000000000E+00 -0.45593999997E+02  0.45594000000E+02  0.51100000000E-03 0.  1.
         23    2    1    2    0    0  0.17763568394E-14 -0.17763568394E-14  0.00000000000E+00  0.91188000000E+02  0.91188000000E+02 0.  0.
    9900012    2    3    3    0    0  0.10921100721E+02 -0.86621788496E+01 -0.34080430161E+02  0.54367088776E+02  0.40000010483E+02 0.  0.
         12    1    3    3    0    0 -0.10921100721E+02  0.86621788496E+01  0.34080430161E+02  0.36820911224E+02  0.00000000000E+00 0. -1.
         11    1    4    4    0    0 -0.93901855119E+01 -0.15817356316E+01 -0.11194645035E+02  0.14696855081E+02  0.51100000000E-03 0. -1.
        -11    1    4    4    0    0  0.18125099530E+02  0.34569659646E+01 -0.55548978096E+01  0.19269840077E+02  0.51100000000E-03 0.  1.
        -12    1    4    4    0    0  0.21861867028E+01 -0.10537409183E+02 -0.17330887317E+02  0.20400393618E+02  0.00000000000E+00 0.  1.
</event>
<event>
 8    1  0.1229038E-006  0.9118800E+02  0.7816164E-02  0.1184000E+00
        -11   -1    0    0    0    0  0.00000000000E+00  0.00000000000E+00  0.45593999997E+02  0.45594000000E+02  0.51100000000E-03 0. -1.
         11   -1    0    0    0    0 -0.00000000000E+00 -0.00000000000E+00 -0.45593999997E+02  0.45594000000E+02  0.51100000000E-03 0.  1.
         23    2    1    2    0    0  0.35527136788E-14  0.00000000000E+00  0.00000000000E+00  0.91188000000E+02  0.91188000000E+02 0.  0.
    9900012    2    3    3    0    0  0.23260616576E+02 -0.31449516867E+01  0.28369583527E+02  0.54367078310E+02  0.39999986623E+02 0.  0.
        -12    1    3    3    0    0 -0.23260616576E+02  0.31449516867E+01 -0.28369583527E+02  0.36820921690E+02  0.00000000000E+00 0.  1.
         11    1    4    4    0    0  0.97716041747E+01 -0.47724283012E+01  0.25675165222E+02  0.27883228462E+02  0.51100000000E-03 0. -1.
        -11    1    4    4    0    0  0.16014059516E+02 -0.68929388842E+01  0.23316930668E+01  0.17589755583E+02  0.51100000000E-03 0.  1.
        -12    1    4    4    0    0 -0.25250471147E+01  0.85204154986E+01  0.36272523828E+00  0.88940942652E+01  0.00000000000E+00 0.  1.
</event>
<event>
 8    1  0.1229038E-006  0.9118800E+02  0.7816164E-02  0.1184000E+00
        -11   -1    0    0    0    0  0.00000000000E+00  0.00000000000E+00  0.45593999997E+02  0.45594000000E+02  0.51100000000E-03 0.  1.
         11   -1    0    0    0    0 -0.00000000000E+00 -0.00000000000E+00 -0.45593999997E+02  0.45594000000E+02  0.51100000000E-03 0. -1.
         23    2    1    2    0    0  0.00000000000E+00  0.00000000000E+00  0.35527136788E-14  0.91188000000E+02  0.91188000000E+02 0.  0.
    9900012    2    3    3    0    0  0.18752790860E+02 -0.22480195780E+02 -0.22332774545E+02  0.54367093083E+02  0.40000020300E+02 0.  0.
        -12    1    3    3    0    0 -0.18752790860E+02  0.22480195780E+02  0.22332774545E+02  0.36820906917E+02  0.00000000000E+00 0.  1.
         11    1    4    4    0    0  0.40077661600E+01 -0.27160865900E+02 -0.10498126431E+02  0.29393630005E+02  0.51100000000E-03 0. -1.
        -11    1    4    4    0    0 -0.17588164303E+01  0.38015282556E+01  0.67887913791E+00  0.42433394230E+01  0.51100000000E-03 0.  1.
         12    1    4    4    0    0  0.16503841130E+02  0.87914186427E+00 -0.12513527252E+02  0.20730123655E+02  0.00000000000E+00 0. -1.
</event>
<event>
 8    1  0.1229038E-006  0.9118800E+02  0.7816164E-02  0.1184000E+00
        -11   -1    0    0    0    0  0.00000000000E+00  0.00000000000E+00  0.45593999997E+02  0.45594000000E+02  0.51100000000E-03 0.  1.
         11   -1    0    0    0    0 -0.00000000000E+00 -0.00000000000E+00 -0.45593999997E+02  0.45594000000E+02  0.51100000000E-03 0. -1.
         23    2    1    2    0    0 -0.88817841970E-15  0.00000000000E+00  0.35527136788E-14  0.91188000000E+02  0.91188000000E+02 0.  0.
    9900012    2    3    3    0    0  0.78995232344E+01 -0.17333078054E+02 -0.31511041100E+02  0.54367030792E+02  0.39999878297E+02 0.  0.
        -12    1    3    3    0    0 -0.78995232344E+01  0.17333078054E+02  0.31511041100E+02  0.36820969208E+02  0.00000000000E+00 0.  1.
         11    1    4    4    0    0 -0.50079738449E+01 -0.13320596552E+02 -0.35058813414E+02  0.37836998993E+02  0.51100000000E-03 0. -1.
        -11    1    4    4    0    0  0.60529301319E+01  0.15034286236E+01  0.44848772224E+01  0.76819518853E+01  0.51100000000E-03 0.  1.
        -12    1    4    4    0    0  0.68545669474E+01 -0.55159101260E+01 -0.93710490817E+00  0.88480799140E+01  0.00000000000E+00 0.  1.
</event>
<event>
 8    1  0.1229038E-006  0.9118800E+02  0.7816164E-02  0.1184000E+00
        -11   -1    0    0    0    0  0.00000000000E+00  0.00000000000E+00  0.45593999997E+02  0.45594000000E+02  0.51100000000E-03 0.  1.
         11   -1    0    0    0    0 -0.00000000000E+00 -0.00000000000E+00 -0.45593999997E+02  0.45594000000E+02  0.51100000000E-03 0. -1.
         23    2    1    2    0    0 -0.53290705182E-14 -0.35527136788E-14  0.00000000000E+00  0.91188000000E+02  0.91188000000E+02 0.  0.
    9900012    2    3    3    0    0 -0.13726422863E+02 -0.27682045797E+02 -0.20026715470E+02  0.54367086423E+02  0.40000005119E+02 0.  0.
         12    1    3    3    0    0  0.13726422863E+02  0.27682045797E+02  0.20026715470E+02  0.36820913577E+02  0.00000000000E+00 0. -1.
         11    1    4    4    0    0 -0.19236339615E+02 -0.52474102331E+01  0.43706995421E+01  0.20412620868E+02  0.51100000000E-03 0.  1.
        -11    1    4    4    0    0  0.42343871189E+01 -0.21688719977E+02 -0.22355996076E+02  0.31434394687E+02  0.51100000000E-03 0. -1.
        -12    1    4    4    0    0  0.12755296336E+01 -0.74591558681E+00 -0.20414189358E+01  0.25200708681E+01  0.00000000000E+00 0.  1.
</event>
<event>
 8    1  0.1229038E-006  0.9118800E+02  0.7816164E-02  0.1184000E+00
        -11   -1    0    0    0    0  0.00000000000E+00  0.00000000000E+00  0.45593999997E+02  0.45594000000E+02  0.51100000000E-03 0.  1.
         11   -1    0    0    0    0 -0.00000000000E+00 -0.00000000000E+00 -0.45593999997E+02  0.45594000000E+02  0.51100000000E-03 0. -1.
         23    2    1    2    0    0 -0.35527136788E-14  0.00000000000E+00  0.35527136788E-14  0.91188000000E+02  0.91188000000E+02 0.  0.
    9900012    2    3    3    0    0  0.28619015532E+02  0.16410695543E+02 -0.16352939871E+02  0.54367114342E+02  0.40000068764E+02 0.  0.
        -12    1    3    3    0    0 -0.28619015532E+02 -0.16410695543E+02  0.16352939871E+02  0.36820885658E+02  0.00000000000E+00 0.  1.
         11    1    4    4    0    0  0.34137154600E+02  0.29681268019E+01 -0.88134703262E+01  0.35381243059E+02  0.51100000000E-03 0. -1.
        -11    1    4    4    0    0 -0.19490910855E+01  0.11280809248E+02 -0.13584959610E+01  0.11528275018E+02  0.51100000000E-03 0.  1.
         12    1    4    4    0    0 -0.35690479825E+01  0.21617594928E+01 -0.61809735838E+01  0.74575962649E+01  0.00000000000E+00 0. -1.
</event>
<event>
 8    1  0.1229038E-006  0.9118800E+02  0.7816164E-02  0.1184000E+00
        -11   -1    0    0    0    0  0.00000000000E+00  0.00000000000E+00  0.45593999997E+02  0.45594000000E+02  0.51100000000E-03 0.  1.
         11   -1    0    0    0    0 -0.00000000000E+00 -0.00000000000E+00 -0.45593999997E+02  0.45594000000E+02  0.51100000000E-03 0. -1.
         23    2    1    2    0    0 -0.35527136788E-14  0.00000000000E+00  0.00000000000E+00  0.91188000000E+02  0.91188000000E+02 0.  0.
    9900012    2    3    3    0    0  0.17731174144E+02 -0.25555888545E+02 -0.19704810635E+02  0.54367115464E+02  0.40000071324E+02 0.  0.
        -12    1    3    3    0    0 -0.17731174144E+02  0.25555888545E+02  0.19704810635E+02  0.36820884536E+02  0.00000000000E+00 0.  1.
         11    1    4    4    0    0  0.34896004254E+01 -0.14304239285E+02 -0.41416295815E+01  0.15295151798E+02  0.51100000000E-03 0. -1.
        -11    1    4    4    0    0  0.11392134918E+02 -0.13884257008E+02  0.45995638721E+01  0.18539399093E+02  0.51100000000E-03 0.  1.
        -12    1    4    4    0    0  0.28494388005E+01  0.26326077487E+01 -0.20162744925E+02  0.20532564573E+02  0.00000000000E+00 0.  1.
</event>
<event>
 8    1  0.1229038E-006  0.9118800E+02  0.7816164E-02  0.1184000E+00
        -11   -1    0    0    0    0  0.00000000000E+00  0.00000000000E+00  0.45593999997E+02  0.45594000000E+02  0.51100000000E-03 0.  1.
         11   -1    0    0    0    0 -0.00000000000E+00 -0.00000000000E+00 -0.45593999997E+02  0.45594000000E+02  0.51100000000E-03 0. -1.
         23    2    1    2    0    0 -0.35527136788E-14  0.00000000000E+00 -0.17763568394E-14  0.91188000000E+02  0.91188000000E+02 0.  0.
    9900012    2    3    3    0    0  0.27889316722E+02 -0.19970855849E+02  0.13383966077E+02  0.54367087213E+02  0.40000006919E+02 0.  0.
         12    1    3    3    0    0 -0.27889316722E+02  0.19970855849E+02 -0.13383966077E+02  0.36820912787E+02  0.00000000000E+00 0. -1.
         11    1    4    4    0    0  0.46675490497E+01 -0.58527336678E+01  0.10921438251E+01  0.75652682644E+01  0.51100000000E-03 0. -1.
        -11    1    4    4    0    0  0.18286635897E+02 -0.25647179163E+02  0.13360961631E+02  0.34215408041E+02  0.51100000000E-03 0.  1.
         12    1    4    4    0    0  0.49351317752E+01  0.11529056982E+02 -0.10691393784E+01  0.12586410908E+02  0.00000000000E+00 0. -1.
</event>
<event>
 8    1  0.1229038E-006  0.9118800E+02  0.7816164E-02  0.1184000E+00
        -11   -1    0    0    0    0  0.00000000000E+00  0.00000000000E+00  0.45593999997E+02  0.45594000000E+02  0.51100000000E-03 0.  1.
         11   -1    0    0    0    0 -0.00000000000E+00 -0.00000000000E+00 -0.45593999997E+02  0.45594000000E+02  0.51100000000E-03 0. -1.
         23    2    1    2    0    0 -0.88817841970E-15 -0.35527136788E-14  0.35527136788E-14  0.91188000000E+02  0.91188000000E+02 0.  0.
    9900012    2    3    3    0    0 -0.68652545855E+01  0.24023357151E+02 -0.27046736493E+02  0.54367090665E+02  0.40000014789E+02 0.  0.
        -12    1    3    3    0    0  0.68652545855E+01 -0.24023357151E+02  0.27046736493E+02  0.36820909335E+02  0.00000000000E+00 0.  1.
         11    1    4    4    0    0 -0.97551682596E+01  0.83979683843E+01 -0.18182426597E+02  0.22277563107E+02  0.51100000000E-03 0. -1.
        -11    1    4    4    0    0 -0.10133378448E+02  0.89968098363E+01  0.22415972014E+01  0.13735090253E+02  0.51100000000E-03 0.  1.
        -12    1    4    4    0    0  0.13023292122E+02  0.66285789301E+01 -0.11105907098E+02  0.18354437305E+02  0.00000000000E+00 0.  1.
</event>
<event>
 8    1  0.1229038E-006  0.9118800E+02  0.7816164E-02  0.1184000E+00
        -11   -1    0    0    0    0  0.00000000000E+00  0.00000000000E+00  0.45593999997E+02  0.45594000000E+02  0.51100000000E-03 0.  1.
         11   -1    0    0    0    0 -0.00000000000E+00 -0.00000000000E+00 -0.45593999997E+02  0.45594000000E+02  0.51100000000E-03 0. -1.
         23    2    1    2    0    0  0.00000000000E+00 -0.44408920985E-15  0.00000000000E+00  0.91188000000E+02  0.91188000000E+02 0.  0.
    9900012    2    3    3    0    0  0.34594416528E+02 -0.18778443865E+01  0.12469172963E+02  0.54367078924E+02  0.39999988024E+02 0.  0.
         12    1    3    3    0    0 -0.34594416528E+02  0.18778443865E+01 -0.12469172963E+02  0.36820921076E+02  0.00000000000E+00 0. -1.
         11    1    4    4    0    0  0.46270907584E+01 -0.80644474776E+01  0.14948532886E+02  0.17604088097E+02  0.51100000000E-03 0. -1.
        -11    1    4    4    0    0  0.83502167327E+01  0.87038165674E+01  0.59188901574E+01  0.13435616967E+02  0.51100000000E-03 0.  1.
         12    1    4    4    0    0  0.21617109037E+02 -0.25172134764E+01 -0.83982500807E+01  0.23327373861E+02  0.00000000000E+00 0. -1.
</event>
<event>
 8    1  0.1229038E-006  0.9118800E+02  0.7816164E-02  0.1184000E+00
        -11   -1    0    0    0    0  0.00000000000E+00  0.00000000000E+00  0.45593999997E+02  0.45594000000E+02  0.51100000000E-03 0. -1.
         11   -1    0    0    0    0 -0.00000000000E+00 -0.00000000000E+00 -0.45593999997E+02  0.45594000000E+02  0.51100000000E-03 0.  1.
         23    2    1    2    0    0  0.00000000000E+00  0.00000000000E+00  0.00000000000E+00  0.91188000000E+02  0.91188000000E+02 0.  0.
    9900012    2    3    3    0    0  0.20223825881E+01 -0.11180280468E+01  0.36748334551E+02  0.54367080534E+02  0.39999991694E+02 0.  0.
        -12    1    3    3    0    0 -0.20223825881E+01  0.11180280468E+01 -0.36748334551E+02  0.36820919466E+02  0.00000000000E+00 0.  1.
         11    1    4    4    0    0  0.92913850940E+01  0.67787402683E+01 -0.86602369743E+00  0.11533913208E+02  0.51100000000E-03 0.  1.
        -11    1    4    4    0    0  0.37708998006E+01 -0.33297283315E+01  0.22604134825E+01  0.55150925143E+01  0.51100000000E-03 0. -1.
         12    1    4    4    0    0 -0.11039902307E+02 -0.45670399836E+01  0.35353944766E+02  0.37318074812E+02  0.00000000000E+00 0. -1.
</event>
<event>
 8    1  0.1229038E-006  0.9118800E+02  0.7816164E-02  0.1184000E+00
        -11   -1    0    0    0    0  0.00000000000E+00  0.00000000000E+00  0.45593999997E+02  0.45594000000E+02  0.51100000000E-03 0. -1.
         11   -1    0    0    0    0 -0.00000000000E+00 -0.00000000000E+00 -0.45593999997E+02  0.45594000000E+02  0.51100000000E-03 0.  1.
         23    2    1    2    0    0  0.00000000000E+00  0.88817841970E-15  0.00000000000E+00  0.91188000000E+02  0.91188000000E+02 0.  0.
    9900012    2    3    3    0    0 -0.98225971551E+01  0.14710717558E+01  0.35456062673E+02  0.54367084106E+02  0.39999999837E+02 0.  0.
        -12    1    3    3    0    0  0.98225971551E+01 -0.14710717558E+01 -0.35456062673E+02  0.36820915894E+02  0.00000000000E+00 0.  1.
         11    1    4    4    0    0 -0.11495401447E+02  0.13151315996E+02  0.25403227229E+02  0.30828968857E+02  0.51100000000E-03 0. -1.
        -11    1    4    4    0    0  0.87621079719E+01 -0.16475522649E+01  0.32081271148E+01  0.94752859811E+01  0.51100000000E-03 0.  1.
         12    1    4    4    0    0 -0.70893036801E+01 -0.10032691975E+02  0.68447083288E+01  0.14062829269E+02  0.00000000000E+00 0. -1.
</event>
<event>
 8    1  0.1229038E-006  0.9118800E+02  0.7816164E-02  0.1184000E+00
        -11   -1    0    0    0    0  0.00000000000E+00  0.00000000000E+00  0.45593999997E+02  0.45594000000E+02  0.51100000000E-03 0. -1.
         11   -1    0    0    0    0 -0.00000000000E+00 -0.00000000000E+00 -0.45593999997E+02  0.45594000000E+02  0.51100000000E-03 0.  1.
         23    2    1    2    0    0  0.00000000000E+00 -0.17763568394E-14 -0.71054273576E-14  0.91188000000E+02  0.91188000000E+02 0.  0.
    9900012    2    3    3    0    0 -0.91946748137E+01  0.97076628754E+01  0.34307353117E+02  0.54367146651E+02  0.40000142420E+02 0.  0.
        -12    1    3    3    0    0  0.91946748137E+01 -0.97076628754E+01 -0.34307353117E+02  0.36820853349E+02  0.00000000000E+00 0.  1.
         11    1    4    4    0    0 -0.92647184523E+01  0.12538479295E+02  0.22502194898E+02  0.27375120940E+02  0.51100000000E-03 0. -1.
        -11    1    4    4    0    0 -0.64057840528E+01 -0.11386029497E+02  0.91160397474E+01  0.15930408594E+02  0.51100000000E-03 0.  1.
         12    1    4    4    0    0  0.64758276914E+01  0.85552130769E+01  0.26891184721E+01  0.11061617117E+02  0.00000000000E+00 0. -1.
</event>
<event>
 8    1  0.1229038E-006  0.9118800E+02  0.7816164E-02  0.1184000E+00
        -11   -1    0    0    0    0  0.00000000000E+00  0.00000000000E+00  0.45593999997E+02  0.45594000000E+02  0.51100000000E-03 0. -1.
         11   -1    0    0    0    0 -0.00000000000E+00 -0.00000000000E+00 -0.45593999997E+02  0.45594000000E+02  0.51100000000E-03 0.  1.
         23    2    1    2    0    0  0.35527136788E-14  0.00000000000E+00 -0.35527136788E-14  0.91188000000E+02  0.91188000000E+02 0.  0.
    9900012    2    3    3    0    0  0.21689999086E+02  0.22332200764E+02  0.19661960075E+02  0.54367137364E+02  0.40000121248E+02 0.  0.
        -12    1    3    3    0    0 -0.21689999086E+02 -0.22332200764E+02 -0.19661960075E+02  0.36820862636E+02  0.00000000000E+00 0.  1.
         11    1    4    4    0    0  0.29297462403E+01  0.13930731834E+02  0.57039487260E+01  0.15335701282E+02  0.51100000000E-03 0. -1.
        -11    1    4    4    0    0 -0.23450546052E+01  0.10767195856E+02 -0.34757631684E+01  0.11554770338E+02  0.51100000000E-03 0.  1.
        -12    1    4    4    0    0  0.21105307451E+02 -0.23657269262E+01  0.17433774517E+02  0.27476665744E+02  0.00000000000E+00 0.  1.
</event>
<event>
 8    1  0.1229038E-006  0.9118800E+02  0.7816164E-02  0.1184000E+00
        -11   -1    0    0    0    0  0.00000000000E+00  0.00000000000E+00  0.45593999997E+02  0.45594000000E+02  0.51100000000E-03 0.  1.
         11   -1    0    0    0    0 -0.00000000000E+00 -0.00000000000E+00 -0.45593999997E+02  0.45594000000E+02  0.51100000000E-03 0. -1.
         23    2    1    2    0    0 -0.11102230246E-15  0.00000000000E+00 -0.35527136788E-14  0.91188000000E+02  0.91188000000E+02 0.  0.
    9900012    2    3    3    0    0 -0.46497698793E+00  0.24740409880E+02  0.27266749455E+02  0.54367085963E+02  0.40000004071E+02 0.  0.
         12    1    3    3    0    0  0.46497698793E+00 -0.24740409880E+02 -0.27266749455E+02  0.36820914037E+02  0.00000000000E+00 0. -1.
         11    1    4    4    0    0 -0.11367440289E+02  0.58540508490E+01  0.89323318102E+01  0.15597280593E+02  0.51100000000E-03 0. -1.
        -11    1    4    4    0    0 -0.27697750772E+01  0.41741580980E+01 -0.56075217984E+01  0.75192786081E+01  0.51100000000E-03 0.  1.
        -12    1    4    4    0    0  0.13672238379E+02  0.14712200933E+02  0.23941939444E+02  0.31250526762E+02  0.00000000000E+00 0.  1.
</event>
<event>
 8    1  0.1229038E-006  0.9118800E+02  0.7816164E-02  0.1184000E+00
        -11   -1    0    0    0    0  0.00000000000E+00  0.00000000000E+00  0.45593999997E+02  0.45594000000E+02  0.51100000000E-03 0.  1.
         11   -1    0    0    0    0 -0.00000000000E+00 -0.00000000000E+00 -0.45593999997E+02  0.45594000000E+02  0.51100000000E-03 0. -1.
         23    2    1    2    0    0 -0.17763568394E-14 -0.17763568394E-14 -0.35527136788E-14  0.91188000000E+02  0.91188000000E+02 0.  0.
    9900012    2    3    3    0    0  0.12659780093E+02 -0.14729980957E+02  0.31281579999E+02  0.54367087216E+02  0.40000006926E+02 0.  0.
         12    1    3    3    0    0 -0.12659780093E+02  0.14729980957E+02 -0.31281579999E+02  0.36820912784E+02  0.00000000000E+00 0. -1.
         11    1    4    4    0    0  0.12263975710E+01  0.34832386573E+01 -0.51663259955E+01  0.63504273163E+01  0.51100000000E-03 0. -1.
        -11    1    4    4    0    0  0.15605320318E+02 -0.20422063892E+02  0.26037824578E+02  0.36586268256E+02  0.51100000000E-03 0.  1.
        -12    1    4    4    0    0 -0.41719377960E+01  0.22088442781E+01  0.10410081417E+02  0.11430391644E+02  0.00000000000E+00 0.  1.
</event>
<event>
 8    1  0.1229038E-006  0.9118800E+02  0.7816164E-02  0.1184000E+00
        -11   -1    0    0    0    0  0.00000000000E+00  0.00000000000E+00  0.45593999997E+02  0.45594000000E+02  0.51100000000E-03 0. -1.
         11   -1    0    0    0    0 -0.00000000000E+00 -0.00000000000E+00 -0.45593999997E+02  0.45594000000E+02  0.51100000000E-03 0.  1.
         23    2    1    2    0    0  0.00000000000E+00  0.00000000000E+00  0.66613381478E-15  0.91188000000E+02  0.91188000000E+02 0.  0.
    9900012    2    3    3    0    0 -0.33730241220E+02 -0.14640196010E+02 -0.19271053123E+01  0.54367105839E+02  0.40000049380E+02 0.  0.
        -12    1    3    3    0    0  0.33730241220E+02  0.14640196010E+02  0.19271053123E+01  0.36820894161E+02  0.00000000000E+00 0.  1.
         11    1    4    4    0    0 -0.29833832119E+02 -0.11248854978E+02  0.44977105940E+01  0.32199746553E+02  0.51100000000E-03 0. -1.
        -11    1    4    4    0    0  0.49610148752E+00 -0.99238971858E+01 -0.94705773165E+01  0.13726677931E+02  0.51100000000E-03 0.  1.
         12    1    4    4    0    0 -0.43925105882E+01  0.65325561537E+01  0.30457614102E+01  0.84406813550E+01  0.00000000000E+00 0. -1.
</event>
<event>
 8    1  0.1229038E-006  0.9118800E+02  0.7816164E-02  0.1184000E+00
        -11   -1    0    0    0    0  0.00000000000E+00  0.00000000000E+00  0.45593999997E+02  0.45594000000E+02  0.51100000000E-03 0.  1.
         11   -1    0    0    0    0 -0.00000000000E+00 -0.00000000000E+00 -0.45593999997E+02  0.45594000000E+02  0.51100000000E-03 0. -1.
         23    2    1    2    0    0  0.00000000000E+00  0.00000000000E+00  0.00000000000E+00  0.91188000000E+02  0.91188000000E+02 0.  0.
    9900012    2    3    3    0    0  0.75214102569E+01 -0.68094965882E+01 -0.35395471686E+02  0.54367078339E+02  0.39999986690E+02 0.  0.
        -12    1    3    3    0    0 -0.75214102569E+01  0.68094965882E+01  0.35395471686E+02  0.36820921661E+02  0.00000000000E+00 0.  1.
         11    1    4    4    0    0 -0.22311588240E+01 -0.99398898696E+01 -0.19883611640E+02  0.22341385195E+02  0.51100000000E-03 0. -1.
        -11    1    4    4    0    0  0.56740678638E+01  0.28837716124E+01  0.68167770184E+01  0.93262872579E+01  0.51100000000E-03 0.  1.
        -12    1    4    4    0    0  0.40785012171E+01  0.24662166899E+00 -0.22328637065E+02  0.22699405886E+02  0.00000000000E+00 0.  1.
</event>
<event>
 8    1  0.1229038E-006  0.9118800E+02  0.7816164E-02  0.1184000E+00
        -11   -1    0    0    0    0  0.00000000000E+00  0.00000000000E+00  0.45593999997E+02  0.45594000000E+02  0.51100000000E-03 0. -1.
         11   -1    0    0    0    0 -0.00000000000E+00 -0.00000000000E+00 -0.45593999997E+02  0.45594000000E+02  0.51100000000E-03 0.  1.
         23    2    1    2    0    0  0.00000000000E+00 -0.88817841970E-15 -0.35527136788E-14  0.91188000000E+02  0.91188000000E+02 0.  0.
    9900012    2    3    3    0    0  0.25428858769E+02  0.27190992590E+01  0.26490912323E+02  0.54366962606E+02  0.39999722851E+02 0.  0.
        -12    1    3    3    0    0 -0.25428858769E+02 -0.27190992590E+01 -0.26490912323E+02  0.36821037394E+02  0.00000000000E+00 0.  1.
         11    1    4    4    0    0  0.13073719335E+02 -0.10648153199E+02  0.16773732604E+02  0.23783679479E+02  0.51100000000E-03 0. -1.
        -11    1    4    4    0    0 -0.51952258438E+01  0.56906440731E+01 -0.22120487773E+01  0.80166677360E+01  0.51100000000E-03 0.  1.
        -12    1    4    4    0    0  0.17550365278E+02  0.76766083852E+01  0.11929228496E+02  0.22566615391E+02  0.00000000000E+00 0.  1.
</event>
<event>
 8    1  0.1229038E-006  0.9118800E+02  0.7816164E-02  0.1184000E+00
        -11   -1    0    0    0    0  0.00000000000E+00  0.00000000000E+00  0.45593999997E+02  0.45594000000E+02  0.51100000000E-03 0.  1.
         11   -1    0    0    0    0 -0.00000000000E+00 -0.00000000000E+00 -0.45593999997E+02  0.45594000000E+02  0.51100000000E-03 0. -1.
         23    2    1    2    0    0  0.88817841970E-15  0.00000000000E+00  0.00000000000E+00  0.91188000000E+02  0.91188000000E+02 0.  0.
    9900012    2    3    3    0    0 -0.70082853811E+01 -0.32317112672E+01 -0.36003024621E+02  0.54367111858E+02  0.40000063103E+02 0.  0.
        -12    1    3    3    0    0  0.70082853811E+01  0.32317112672E+01  0.36003024621E+02  0.36820888142E+02  0.00000000000E+00 0.  1.
         11    1    4    4    0    0 -0.12711387171E+01  0.32037169309E+01 -0.53264035634E+01  0.63443022463E+01  0.51100000000E-03 0. -1.
        -11    1    4    4    0    0 -0.81292523478E+01  0.13891785846E+02 -0.16973978644E+02  0.23391930425E+02  0.51100000000E-03 0.  1.
         12    1    4    4    0    0  0.23921056838E+01 -0.20327214044E+02 -0.13702642413E+02  0.24630879187E+02  0.00000000000E+00 0. -1.
</event>
<event>
 8    1  0.1229038E-006  0.9118800E+02  0.7816164E-02  0.1184000E+00
        -11   -1    0    0    0    0  0.00000000000E+00  0.00000000000E+00  0.45593999997E+02  0.45594000000E+02  0.51100000000E-03 0.  1.
         11   -1    0    0    0    0 -0.00000000000E+00 -0.00000000000E+00 -0.45593999997E+02  0.45594000000E+02  0.51100000000E-03 0. -1.
         23    2    1    2    0    0  0.35527136788E-14  0.88817841970E-15  0.00000000000E+00  0.91188000000E+02  0.91188000000E+02 0.  0.
    9900012    2    3    3    0    0  0.30445353751E+02  0.68535562387E+01 -0.19541964897E+02  0.54367093029E+02  0.40000020179E+02 0.  0.
        -12    1    3    3    0    0 -0.30445353751E+02 -0.68535562387E+01  0.19541964897E+02  0.36820906971E+02  0.00000000000E+00 0.  1.
         11    1    4    4    0    0  0.22230626526E+02  0.10094922483E+02 -0.24125050060E+02  0.34323843846E+02  0.51100000000E-03 0. -1.
        -11    1    4    4    0    0  0.92963226667E+01 -0.78476216905E+01  0.76811030129E+01  0.14387707430E+02  0.51100000000E-03 0.  1.
        -12    1    4    4    0    0 -0.10815954418E+01  0.46062554463E+01 -0.30980178495E+01  0.56555417541E+01  0.00000000000E+00 0.  1.
</event>
<event>
 8    1  0.1229038E-006  0.9118800E+02  0.7816164E-02  0.1184000E+00
        -11   -1    0    0    0    0  0.00000000000E+00  0.00000000000E+00  0.45593999997E+02  0.45594000000E+02  0.51100000000E-03 0.  1.
         11   -1    0    0    0    0 -0.00000000000E+00 -0.00000000000E+00 -0.45593999997E+02  0.45594000000E+02  0.51100000000E-03 0. -1.
         23    2    1    2    0    0  0.00000000000E+00 -0.88817841970E-15  0.00000000000E+00  0.91188000000E+02  0.91188000000E+02 0.  0.
    9900012    2    3    3    0    0  0.31280533552E+02 -0.71227945170E+01 -0.18071383106E+02  0.54367070240E+02  0.39999968225E+02 0.  0.
        -12    1    3    3    0    0 -0.31280533552E+02  0.71227945170E+01  0.18071383106E+02  0.36820929760E+02  0.00000000000E+00 0.  1.
         11    1    4    4    0    0  0.13298665378E+02 -0.47216256329E+01 -0.15042584228E+02  0.20625896101E+02  0.51100000000E-03 0. -1.
        -11    1    4    4    0    0 -0.24592059754E+01 -0.31681972177E+01  0.91109577710E+01  0.99546330623E+01  0.51100000000E-03 0.  1.
        -12    1    4    4    0    0  0.20441074150E+02  0.76702833358E+00 -0.12139756649E+02  0.23786541077E+02  0.00000000000E+00 0.  1.
</event>
<event>
 8    1  0.1229038E-006  0.9118800E+02  0.7816164E-02  0.1184000E+00
        -11   -1    0    0    0    0  0.00000000000E+00  0.00000000000E+00  0.45593999997E+02  0.45594000000E+02  0.51100000000E-03 0.  1.
         11   -1    0    0    0    0 -0.00000000000E+00 -0.00000000000E+00 -0.45593999997E+02  0.45594000000E+02  0.51100000000E-03 0. -1.
         23    2    1    2    0    0 -0.35527136788E-14 -0.35527136788E-14  0.00000000000E+00  0.91188000000E+02  0.91188000000E+02 0.  0.
    9900012    2    3    3    0    0 -0.66939192356E+01 -0.26740825083E+02 -0.24411062837E+02  0.54367078370E+02  0.39999986761E+02 0.  0.
        -12    1    3    3    0    0  0.66939192356E+01  0.26740825083E+02  0.24411062837E+02  0.36820921630E+02  0.00000000000E+00 0.  1.
         11    1    4    4    0    0  0.40997970248E+01 -0.63718864910E+01 -0.31920809857E+01  0.82218400847E+01  0.51100000000E-03 0. -1.
        -11    1    4    4    0    0  0.92762171234E+01  0.74573092477E+00  0.12037910591E+01  0.93836790177E+01  0.51100000000E-03 0.  1.
        -12    1    4    4    0    0 -0.20069933384E+02 -0.21114669517E+02 -0.22422772910E+02  0.36761559268E+02  0.00000000000E+00 0.  1.
</event>
<event>
 8    1  0.1229038E-006  0.9118800E+02  0.7816164E-02  0.1184000E+00
        -11   -1    0    0    0    0  0.00000000000E+00  0.00000000000E+00  0.45593999997E+02  0.45594000000E+02  0.51100000000E-03 0. -1.
         11   -1    0    0    0    0 -0.00000000000E+00 -0.00000000000E+00 -0.45593999997E+02  0.45594000000E+02  0.51100000000E-03 0.  1.
         23    2    1    2    0    0 -0.17763568394E-14 -0.35527136788E-14 -0.35527136788E-14  0.91188000000E+02  0.91188000000E+02 0.  0.
    9900012    2    3    3    0    0  0.89881922701E+01  0.27208228538E+02  0.23123698235E+02  0.54367072248E+02  0.39999972804E+02 0.  0.
        -12    1    3    3    0    0 -0.89881922701E+01 -0.27208228538E+02 -0.23123698235E+02  0.36820927752E+02  0.00000000000E+00 0.  1.
         11    1    4    4    0    0  0.22202338013E+02  0.23789934296E+02  0.15188418246E+02  0.35910901355E+02  0.51100000000E-03 0. -1.
        -11    1    4    4    0    0 -0.32602311924E+01  0.42806783164E+01 -0.46771338892E+00  0.54011175095E+01  0.51100000000E-03 0.  1.
        -12    1    4    4    0    0 -0.99539145500E+01 -0.86238407443E+00  0.84029933773E+01  0.13055053384E+02  0.00000000000E+00 0.  1.
</event>
<event>
 8    1  0.1229038E-006  0.9118800E+02  0.7816164E-02  0.1184000E+00
        -11   -1    0    0    0    0  0.00000000000E+00  0.00000000000E+00  0.45593999997E+02  0.45594000000E+02  0.51100000000E-03 0. -1.
         11   -1    0    0    0    0 -0.00000000000E+00 -0.00000000000E+00 -0.45593999997E+02  0.45594000000E+02  0.51100000000E-03 0.  1.
         23    2    1    2    0    0  0.35527136788E-14 -0.35527136788E-14  0.00000000000E+00  0.91188000000E+02  0.91188000000E+02 0.  0.
    9900012    2    3    3    0    0 -0.23358180223E+02  0.26311107091E+02  0.10858248124E+02  0.54367075351E+02  0.39999979877E+02 0.  0.
         12    1    3    3    0    0  0.23358180223E+02 -0.26311107091E+02 -0.10858248124E+02  0.36820924649E+02  0.00000000000E+00 0. -1.
         11    1    4    4    0    0  0.61606883264E+01  0.74576294749E+01  0.63158898362E+00  0.96937723795E+01  0.51100000000E-03 0. -1.
        -11    1    4    4    0    0 -0.17845705679E+02 -0.35605857049E+01  0.49154739657E+01  0.18849638360E+02  0.51100000000E-03 0.  1.
         12    1    4    4    0    0 -0.11673162870E+02  0.22414063321E+02  0.53111851746E+01  0.25823664611E+02  0.00000000000E+00 0. -1.
</event>
<event>
 8    1  0.1229038E-006  0.9118800E+02  0.7816164E-02  0.1184000E+00
        -11   -1    0    0    0    0  0.00000000000E+00  0.00000000000E+00  0.45593999997E+02  0.45594000000E+02  0.51100000000E-03 0.  1.
         11   -1    0    0    0    0 -0.00000000000E+00 -0.00000000000E+00 -0.45593999997E+02  0.45594000000E+02  0.51100000000E-03 0. -1.
         23    2    1    2    0    0  0.35527136788E-14 -0.35527136788E-14 -0.88817841970E-15  0.91188000000E+02  0.91188000000E+02 0.  0.
    9900012    2    3    3    0    0  0.30715857158E+02 -0.19257581562E+02 -0.64389382949E+01  0.54367105729E+02  0.40000049130E+02 0.  0.
        -12    1    3    3    0    0 -0.30715857158E+02  0.19257581562E+02  0.64389382949E+01  0.36820894271E+02  0.00000000000E+00 0.  1.
         11    1    4    4    0    0  0.67610592032E+01 -0.62888918611E+01  0.11274768312E+02  0.14573348384E+02  0.51100000000E-03 0. -1.
        -11    1    4    4    0    0  0.12288573334E+02 -0.13971492156E+02 -0.56450512816E-01  0.18606848594E+02  0.51100000000E-03 0.  1.
         12    1    4    4    0    0  0.11666224620E+02  0.10028024554E+01 -0.17657256094E+02  0.21186908751E+02  0.00000000000E+00 0. -1.
</event>
<event>
 8    1  0.1229038E-006  0.9118800E+02  0.7816164E-02  0.1184000E+00
        -11   -1    0    0    0    0  0.00000000000E+00  0.00000000000E+00  0.45593999997E+02  0.45594000000E+02  0.51100000000E-03 0.  1.
         11   -1    0    0    0    0 -0.00000000000E+00 -0.00000000000E+00 -0.45593999997E+02  0.45594000000E+02  0.51100000000E-03 0. -1.
         23    2    1    2    0    0  0.88817841970E-15  0.00000000000E+00  0.00000000000E+00  0.91188000000E+02  0.91188000000E+02 0.  0.
    9900012    2    3    3    0    0 -0.79000076774E+01 -0.20923849322E+02  0.29249963521E+02  0.54367109764E+02  0.40000058330E+02 0.  0.
         12    1    3    3    0    0  0.79000076774E+01  0.20923849322E+02 -0.29249963521E+02  0.36820890236E+02  0.00000000000E+00 0. -1.
         11    1    4    4    0    0 -0.15176512277E+02 -0.40339853347E+01  0.35140561217E+01  0.16091866059E+02  0.51100000000E-03 0. -1.
        -11    1    4    4    0    0 -0.68042329374E+01 -0.53465124089E+01  0.14481990703E+02  0.16870413030E+02  0.51100000000E-03 0.  1.
        -12    1    4    4    0    0  0.14080737537E+02 -0.11543351579E+02  0.11253916696E+02  0.21404830676E+02  0.00000000000E+00 0.  1.
</event>
<event>
 8    1  0.1229038E-006  0.9118800E+02  0.7816164E-02  0.1184000E+00
        -11   -1    0    0    0    0  0.00000000000E+00  0.00000000000E+00  0.45593999997E+02  0.45594000000E+02  0.51100000000E-03 0. -1.
         11   -1    0    0    0    0 -0.00000000000E+00 -0.00000000000E+00 -0.45593999997E+02  0.45594000000E+02  0.51100000000E-03 0.  1.
         23    2    1    2    0    0  0.35527136788E-14  0.00000000000E+00  0.00000000000E+00  0.91188000000E+02  0.91188000000E+02 0.  0.
    9900012    2    3    3    0    0  0.31065753038E+02  0.19736284548E+02  0.10780172313E+01  0.54367298476E+02  0.40000488533E+02 0.  0.
        -12    1    3    3    0    0 -0.31065753038E+02 -0.19736284548E+02 -0.10780172313E+01  0.36820701524E+02  0.00000000000E+00 0.  1.
         11    1    4    4    0    0  0.21574239420E+02  0.15294267508E+02  0.12251152236E+02  0.29145379677E+02  0.51100000000E-03 0. -1.
        -11    1    4    4    0    0  0.99910397056E+01  0.61825305184E+01  0.20057535936E+01  0.11919211624E+02  0.51100000000E-03 0.  1.
        -12    1    4    4    0    0 -0.49952608760E+00 -0.17405134784E+01 -0.13178888598E+02  0.13302707174E+02  0.00000000000E+00 0.  1.
</event>
<event>
 8    1  0.1229038E-006  0.9118800E+02  0.7816164E-02  0.1184000E+00
        -11   -1    0    0    0    0  0.00000000000E+00  0.00000000000E+00  0.45593999997E+02  0.45594000000E+02  0.51100000000E-03 0. -1.
         11   -1    0    0    0    0 -0.00000000000E+00 -0.00000000000E+00 -0.45593999997E+02  0.45594000000E+02  0.51100000000E-03 0.  1.
         23    2    1    2    0    0  0.00000000000E+00  0.44408920985E-15  0.00000000000E+00  0.91188000000E+02  0.91188000000E+02 0.  0.
    9900012    2    3    3    0    0  0.11274148445E+02 -0.35277577519E+01 -0.34874463115E+02  0.54367086439E+02  0.40000005155E+02 0.  0.
         12    1    3    3    0    0 -0.11274148445E+02  0.35277577519E+01  0.34874463115E+02  0.36820913561E+02  0.00000000000E+00 0. -1.
         11    1    4    4    0    0 -0.12605843737E+01  0.93204838328E+01 -0.17362776980E+02  0.19746557081E+02  0.51100000000E-03 0. -1.
        -11    1    4    4    0    0  0.52406777056E+00 -0.16606679931E+02 -0.13510739387E+02  0.21414867368E+02  0.51100000000E-03 0.  1.
         12    1    4    4    0    0  0.12010665048E+02  0.37584383459E+01 -0.40009467479E+01  0.13205661990E+02  0.00000000000E+00 0. -1.
</event>
<event>
 8    1  0.1229038E-006  0.9118800E+02  0.7816164E-02  0.1184000E+00
        -11   -1    0    0    0    0  0.00000000000E+00  0.00000000000E+00  0.45593999997E+02  0.45594000000E+02  0.51100000000E-03 0. -1.
         11   -1    0    0    0    0 -0.00000000000E+00 -0.00000000000E+00 -0.45593999997E+02  0.45594000000E+02  0.51100000000E-03 0.  1.
         23    2    1    2    0    0  0.35527136788E-14  0.00000000000E+00  0.00000000000E+00  0.91188000000E+02  0.91188000000E+02 0.  0.
    9900012    2    3    3    0    0  0.30549668509E+02 -0.10859277541E+02 -0.17452038016E+02  0.54367084943E+02  0.40000001744E+02 0.  0.
         12    1    3    3    0    0 -0.30549668509E+02  0.10859277541E+02  0.17452038016E+02  0.36820915057E+02  0.00000000000E+00 0. -1.
         11    1    4    4    0    0  0.12291814566E+02  0.43993045632E+01  0.33081011787E+00  0.13059556714E+02  0.51100000000E-03 0. -1.
        -11    1    4    4    0    0  0.81871848645E+01  0.81932000846E+01 -0.74551458375E+01  0.13774531693E+02  0.51100000000E-03 0.  1.
        -12    1    4    4    0    0  0.10070669079E+02 -0.23451782189E+02 -0.10327702296E+02  0.27532996536E+02  0.00000000000E+00 0.  1.
</event>
<event>
 8    1  0.1229038E-006  0.9118800E+02  0.7816164E-02  0.1184000E+00
        -11   -1    0    0    0    0  0.00000000000E+00  0.00000000000E+00  0.45593999997E+02  0.45594000000E+02  0.51100000000E-03 0.  1.
         11   -1    0    0    0    0 -0.00000000000E+00 -0.00000000000E+00 -0.45593999997E+02  0.45594000000E+02  0.51100000000E-03 0. -1.
         23    2    1    2    0    0  0.00000000000E+00  0.44408920985E-15  0.00000000000E+00  0.91188000000E+02  0.91188000000E+02 0.  0.
    9900012    2    3    3    0    0 -0.21079425748E+02 -0.20399416738E+01  0.30120914876E+02  0.54367176206E+02  0.40000209796E+02 0.  0.
         12    1    3    3    0    0  0.21079425748E+02  0.20399416738E+01 -0.30120914876E+02  0.36820823794E+02  0.00000000000E+00 0. -1.
         11    1    4    4    0    0 -0.80522605180E+00  0.36096969408E+01  0.28695267119E+01  0.46810773130E+01  0.51100000000E-03 0. -1.
        -11    1    4    4    0    0 -0.21916779883E+01 -0.47148862808E+01  0.30799320952E+02  0.31235104873E+02  0.51100000000E-03 0.  1.
         12    1    4    4    0    0 -0.18082521708E+02 -0.93475233377E+00 -0.35479327882E+01  0.18450994020E+02  0.00000000000E+00 0. -1.
</event>
<event>
 8    1  0.1229038E-006  0.9118800E+02  0.7816164E-02  0.1184000E+00
        -11   -1    0    0    0    0  0.00000000000E+00  0.00000000000E+00  0.45593999997E+02  0.45594000000E+02  0.51100000000E-03 0.  1.
         11   -1    0    0    0    0 -0.00000000000E+00 -0.00000000000E+00 -0.45593999997E+02  0.45594000000E+02  0.51100000000E-03 0. -1.
         23    2    1    2    0    0  0.00000000000E+00  0.17763568394E-14  0.00000000000E+00  0.91188000000E+02  0.91188000000E+02 0.  0.
    9900012    2    3    3    0    0  0.16720404658E+02  0.98418339413E+01 -0.31294460508E+02  0.54367124322E+02  0.40000091516E+02 0.  0.
        -12    1    3    3    0    0 -0.16720404658E+02 -0.98418339413E+01  0.31294460508E+02  0.36820875678E+02  0.00000000000E+00 0.  1.
         11    1    4    4    0    0 -0.40041961754E+00 -0.12794530993E+02 -0.12915365121E+02  0.18184251859E+02  0.51100000000E-03 0. -1.
        -11    1    4    4    0    0  0.57348374618E+01  0.26160781841E+01  0.60974033624E+00  0.63327726406E+01  0.51100000000E-03 0.  1.
        -12    1    4    4    0    0  0.11385986814E+02  0.20020286750E+02 -0.18988835723E+02  0.29850099822E+02  0.00000000000E+00 0.  1.
</event>
<event>
 8    1  0.1229038E-006  0.9118800E+02  0.7816164E-02  0.1184000E+00
        -11   -1    0    0    0    0  0.00000000000E+00  0.00000000000E+00  0.45593999997E+02  0.45594000000E+02  0.51100000000E-03 0.  1.
         11   -1    0    0    0    0 -0.00000000000E+00 -0.00000000000E+00 -0.45593999997E+02  0.45594000000E+02  0.51100000000E-03 0. -1.
         23    2    1    2    0    0  0.24424906542E-14  0.00000000000E+00  0.35527136788E-14  0.91188000000E+02  0.91188000000E+02 0.  0.
    9900012    2    3    3    0    0  0.96107591973E+00  0.21164108815E+02 -0.30115378531E+02  0.54367092992E+02  0.40000020093E+02 0.  0.
        -12    1    3    3    0    0 -0.96107591973E+00 -0.21164108815E+02  0.30115378531E+02  0.36820907008E+02  0.00000000000E+00 0.  1.
         11    1    4    4    0    0 -0.80317264303E+01  0.82105044694E+01 -0.81477503776E+01  0.14082146483E+02  0.51100000000E-03 0. -1.
        -11    1    4    4    0    0  0.12949366064E+02 -0.34367367112E+01 -0.10799875333E+01  0.13441116546E+02  0.51100000000E-03 0.  1.
        -12    1    4    4    0    0 -0.39565637138E+01  0.16390341057E+02 -0.20887640620E+02  0.26843829962E+02  0.00000000000E+00 0.  1.
</event>
<event>
 8    1  0.1229038E-006  0.9118800E+02  0.7816164E-02  0.1184000E+00
        -11   -1    0    0    0    0  0.00000000000E+00  0.00000000000E+00  0.45593999997E+02  0.45594000000E+02  0.51100000000E-03 0.  1.
         11   -1    0    0    0    0 -0.00000000000E+00 -0.00000000000E+00 -0.45593999997E+02  0.45594000000E+02  0.51100000000E-03 0. -1.
         23    2    1    2    0    0  0.00000000000E+00 -0.17763568394E-14  0.00000000000E+00  0.91188000000E+02  0.91188000000E+02 0.  0.
    9900012    2    3    3    0    0  0.99435635033E+01 -0.68651288993E+01  0.34781825393E+02  0.54367084373E+02  0.40000000445E+02 0.  0.
         12    1    3    3    0    0 -0.99435635033E+01  0.68651288993E+01 -0.34781825393E+02  0.36820915627E+02  0.00000000000E+00 0. -1.
         11    1    4    4    0    0 -0.60616692826E+01  0.73576453980E+01  0.11601177420E+01  0.96033667914E+01  0.51100000000E-03 0. -1.
        -11    1    4    4    0    0  0.86044517558E+01  0.40141437533E+01  0.14434242403E+02  0.17277074234E+02  0.51100000000E-03 0.  1.
        -12    1    4    4    0    0  0.74007810301E+01 -0.18236918051E+02  0.19187465248E+02  0.27486643347E+02  0.00000000000E+00 0.  1.
</event>
<event>
 8    1  0.1229038E-006  0.9118800E+02  0.7816164E-02  0.1184000E+00
        -11   -1    0    0    0    0  0.00000000000E+00  0.00000000000E+00  0.45593999997E+02  0.45594000000E+02  0.51100000000E-03 0. -1.
         11   -1    0    0    0    0 -0.00000000000E+00 -0.00000000000E+00 -0.45593999997E+02  0.45594000000E+02  0.51100000000E-03 0.  1.
         23    2    1    2    0    0  0.00000000000E+00  0.00000000000E+00  0.00000000000E+00  0.91188000000E+02  0.91188000000E+02 0.  0.
    9900012    2    3    3    0    0  0.17015817010E+02  0.22694239060E+02 -0.23478033561E+02  0.54367019908E+02  0.39999853484E+02 0.  0.
         12    1    3    3    0    0 -0.17015817010E+02 -0.22694239060E+02  0.23478033561E+02  0.36820980092E+02  0.00000000000E+00 0. -1.
         11    1    4    4    0    0 -0.24363941489E+01 -0.70130736013E+01 -0.11639538172E+02  0.13805725874E+02  0.51100000000E-03 0. -1.
        -11    1    4    4    0    0  0.23337195313E+01  0.13128881459E+02  0.12150838083E+01  0.13389929206E+02  0.51100000000E-03 0.  1.
        -12    1    4    4    0    0  0.17118491627E+02  0.16578431202E+02 -0.13053579198E+02  0.27171364827E+02  0.00000000000E+00 0.  1.
</event>
<event>
 8    1  0.1229038E-006  0.9118800E+02  0.7816164E-02  0.1184000E+00
        -11   -1    0    0    0    0  0.00000000000E+00  0.00000000000E+00  0.45593999997E+02  0.45594000000E+02  0.51100000000E-03 0. -1.
         11   -1    0    0    0    0 -0.00000000000E+00 -0.00000000000E+00 -0.45593999997E+02  0.45594000000E+02  0.51100000000E-03 0.  1.
         23    2    1    2    0    0 -0.35527136788E-14  0.00000000000E+00  0.00000000000E+00  0.91188000000E+02  0.91188000000E+02 0.  0.
    9900012    2    3    3    0    0  0.27288968949E+02 -0.15098976139E+02 -0.19573270236E+02  0.54367084552E+02  0.40000000853E+02 0.  0.
        -12    1    3    3    0    0 -0.27288968949E+02  0.15098976139E+02  0.19573270236E+02  0.36820915448E+02  0.00000000000E+00 0.  1.
         11    1    4    4    0    0  0.80814419159E+01 -0.53303868890E+01  0.11470307955E+02  0.15009686628E+02  0.51100000000E-03 0. -1.
        -11    1    4    4    0    0 -0.12733935217E+00 -0.28923639814E+01 -0.79642430381E+01  0.84741461011E+01  0.51100000000E-03 0.  1.
         12    1    4    4    0    0  0.19334866385E+02 -0.68762252684E+01 -0.23079335153E+02  0.30883251823E+02  0.00000000000E+00 0. -1.
</event>
<event>
 8    1  0.1229038E-006  0.9118800E+02  0.7816164E-02  0.1184000E+00
        -11   -1    0    0    0    0  0.00000000000E+00  0.00000000000E+00  0.45593999997E+02  0.45594000000E+02  0.51100000000E-03 0.  1.
         11   -1    0    0    0    0 -0.00000000000E+00 -0.00000000000E+00 -0.45593999997E+02  0.45594000000E+02  0.51100000000E-03 0. -1.
         23    2    1    2    0    0  0.00000000000E+00  0.44408920985E-15 -0.17763568394E-14  0.91188000000E+02  0.91188000000E+02 0.  0.
    9900012    2    3    3    0    0 -0.34448593262E+02 -0.17562965368E+01 -0.12883695074E+02  0.54367085373E+02  0.40000002725E+02 0.  0.
        -12    1    3    3    0    0  0.34448593262E+02  0.17562965368E+01  0.12883695074E+02  0.36820914627E+02  0.00000000000E+00 0.  1.
         11    1    4    4    0    0 -0.29941655387E+02  0.12023525585E+01 -0.59018682447E+01  0.30541454255E+02  0.51100000000E-03 0. -1.
        -11    1    4    4    0    0 -0.98716089267E+01 -0.85491042636E+01  0.48128102813E+00  0.13067803113E+02  0.51100000000E-03 0.  1.
        -12    1    4    4    0    0  0.53646710522E+01  0.55904551683E+01 -0.74631078571E+01  0.10757828004E+02  0.00000000000E+00 0.  1.
</event>
<event>
 8    1  0.1229038E-006  0.9118800E+02  0.7816164E-02  0.1184000E+00
        -11   -1    0    0    0    0  0.00000000000E+00  0.00000000000E+00  0.45593999997E+02  0.45594000000E+02  0.51100000000E-03 0.  1.
         11   -1    0    0    0    0 -0.00000000000E+00 -0.00000000000E+00 -0.45593999997E+02  0.45594000000E+02  0.51100000000E-03 0. -1.
         23    2    1    2    0    0  0.00000000000E+00  0.17763568394E-14  0.00000000000E+00  0.91188000000E+02  0.91188000000E+02 0.  0.
    9900012    2    3    3    0    0  0.23125633880E+02 -0.14210237896E+02  0.24880811555E+02  0.54367074061E+02  0.39999976936E+02 0.  0.
         12    1    3    3    0    0 -0.23125633880E+02  0.14210237896E+02 -0.24880811555E+02  0.36820925939E+02  0.00000000000E+00 0. -1.
         11    1    4    4    0    0  0.13552425074E+02  0.25465664482E+01  0.17251842996E+01  0.13897103553E+02  0.51100000000E-03 0.  1.
        -11    1    4    4    0    0  0.61674580635E+01  0.20719035873E+01  0.20057742992E+02  0.21086568655E+02  0.51100000000E-03 0. -1.
         12    1    4    4    0    0  0.34057507429E+01 -0.18828707931E+02  0.30978842634E+01  0.19383401853E+02  0.00000000000E+00 0. -1.
</event>
<event>
 8    1  0.1229038E-006  0.9118800E+02  0.7816164E-02  0.1184000E+00
        -11   -1    0    0    0    0  0.00000000000E+00  0.00000000000E+00  0.45593999997E+02  0.45594000000E+02  0.51100000000E-03 0.  1.
         11   -1    0    0    0    0 -0.00000000000E+00 -0.00000000000E+00 -0.45593999997E+02  0.45594000000E+02  0.51100000000E-03 0. -1.
         23    2    1    2    0    0  0.00000000000E+00  0.35527136788E-14 -0.88817841970E-15  0.91188000000E+02  0.91188000000E+02 0.  0.
    9900012    2    3    3    0    0 -0.26905033267E+02  0.24504623775E+02 -0.56053239822E+01  0.54367121977E+02  0.40000086170E+02 0.  0.
        -12    1    3    3    0    0  0.26905033267E+02 -0.24504623775E+02  0.56053239822E+01  0.36820878023E+02  0.00000000000E+00 0.  1.
         11    1    4    4    0    0 -0.80349502404E+01 -0.82868778713E+01  0.39176907581E+01  0.12189383551E+02  0.51100000000E-03 0. -1.
        -11    1    4    4    0    0  0.14224052308E+01  0.24794044769E+01 -0.45351349318E+01  0.53607958655E+01  0.51100000000E-03 0.  1.
         12    1    4    4    0    0 -0.20292488257E+02  0.30312097170E+02 -0.49878798085E+01  0.36816942560E+02  0.00000000000E+00 0. -1.
</event>
<event>
 8    1  0.1229038E-006  0.9118800E+02  0.7816164E-02  0.1184000E+00
        -11   -1    0    0    0    0  0.00000000000E+00  0.00000000000E+00  0.45593999997E+02  0.45594000000E+02  0.51100000000E-03 0. -1.
         11   -1    0    0    0    0 -0.00000000000E+00 -0.00000000000E+00 -0.45593999997E+02  0.45594000000E+02  0.51100000000E-03 0.  1.
         23    2    1    2    0    0 -0.71054273576E-14 -0.35527136788E-14 -0.17763568394E-14  0.91188000000E+02  0.91188000000E+02 0.  0.
    9900012    2    3    3    0    0 -0.20601138774E+02 -0.27948235116E+02 -0.12258054145E+02  0.54367208912E+02  0.40000284356E+02 0.  0.
         12    1    3    3    0    0  0.20601138774E+02  0.27948235116E+02  0.12258054145E+02  0.36820791088E+02  0.00000000000E+00 0. -1.
         11    1    4    4    0    0  0.32890148677E+01 -0.10702178805E+02 -0.57756261192E+01  0.12598099353E+02  0.51100000000E-03 0. -1.
        -11    1    4    4    0    0  0.66522352553E+01 -0.47548258551E+01 -0.20555681751E+00  0.81794166461E+01  0.51100000000E-03 0.  1.
        -12    1    4    4    0    0 -0.30542388897E+02 -0.12491230456E+02 -0.62768712086E+01  0.33589692913E+02  0.00000000000E+00 0.  1.
</event>
<event>
 8    1  0.1229038E-006  0.9118800E+02  0.7816164E-02  0.1184000E+00
        -11   -1    0    0    0    0  0.00000000000E+00  0.00000000000E+00  0.45593999997E+02  0.45594000000E+02  0.51100000000E-03 0. -1.
         11   -1    0    0    0    0 -0.00000000000E+00 -0.00000000000E+00 -0.45593999997E+02  0.45594000000E+02  0.51100000000E-03 0.  1.
         23    2    1    2    0    0  0.00000000000E+00  0.00000000000E+00  0.00000000000E+00  0.91188000000E+02  0.91188000000E+02 0.  0.
    9900012    2    3    3    0    0 -0.26714911281E+02  0.17930504562E+02  0.17905029312E+02  0.54367088099E+02  0.40000008938E+02 0.  0.
        -12    1    3    3    0    0  0.26714911281E+02 -0.17930504562E+02 -0.17905029312E+02  0.36820911901E+02  0.00000000000E+00 0.  1.
         11    1    4    4    0    0 -0.84427495045E+01  0.19022477535E+02  0.21864387473E+02  0.30185859448E+02  0.51100000000E-03 0. -1.
        -11    1    4    4    0    0 -0.47494515957E+01 -0.28747009806E+01 -0.81954802315E+01  0.98988429967E+01  0.51100000000E-03 0.  1.
         12    1    4    4    0    0 -0.13522710181E+02  0.17827280073E+01  0.42361220703E+01  0.14282385654E+02  0.00000000000E+00 0. -1.
</event>
<event>
 8    1  0.1229038E-006  0.9118800E+02  0.7816164E-02  0.1184000E+00
        -11   -1    0    0    0    0  0.00000000000E+00  0.00000000000E+00  0.45593999997E+02  0.45594000000E+02  0.51100000000E-03 0.  1.
         11   -1    0    0    0    0 -0.00000000000E+00 -0.00000000000E+00 -0.45593999997E+02  0.45594000000E+02  0.51100000000E-03 0. -1.
         23    2    1    2    0    0  0.35527136788E-14  0.17763568394E-14  0.35527136788E-14  0.91188000000E+02  0.91188000000E+02 0.  0.
    9900012    2    3    3    0    0  0.28439397981E+02 -0.10160530100E+02 -0.21065245135E+02  0.54367078203E+02  0.39999986379E+02 0.  0.
        -12    1    3    3    0    0 -0.28439397981E+02  0.10160530100E+02  0.21065245135E+02  0.36820921797E+02  0.00000000000E+00 0.  1.
         11    1    4    4    0    0 -0.52638174302E+01 -0.13215149868E+01 -0.52877906681E+01  0.75772624482E+01  0.51100000000E-03 0. -1.
        -11    1    4    4    0    0 -0.32059439580E+00 -0.98946653980E+01 -0.21975143205E+01  0.10140821148E+02  0.51100000000E-03 0.  1.
         12    1    4    4    0    0  0.34023809807E+02  0.10556502853E+01 -0.13579940146E+02  0.36648994607E+02  0.00000000000E+00 0. -1.
</event>
<event>
 8    1  0.1229038E-006  0.9118800E+02  0.7816164E-02  0.1184000E+00
        -11   -1    0    0    0    0  0.00000000000E+00  0.00000000000E+00  0.45593999997E+02  0.45594000000E+02  0.51100000000E-03 0. -1.
         11   -1    0    0    0    0 -0.00000000000E+00 -0.00000000000E+00 -0.45593999997E+02  0.45594000000E+02  0.51100000000E-03 0.  1.
         23    2    1    2    0    0  0.35527136788E-14 -0.71054273576E-14  0.17763568394E-14  0.91188000000E+02  0.91188000000E+02 0.  0.
    9900012    2    3    3    0    0 -0.23068079581E+02  0.25823409350E+02 -0.12521805311E+02  0.54367076950E+02  0.39999983523E+02 0.  0.
         12    1    3    3    0    0  0.23068079581E+02 -0.25823409350E+02  0.12521805311E+02  0.36820923050E+02  0.00000000000E+00 0. -1.
         11    1    4    4    0    0 -0.93461254070E+01  0.68444218129E+01  0.39155670713E+01  0.12228157499E+02  0.51100000000E-03 0. -1.
        -11    1    4    4    0    0 -0.20962138840E+02  0.22264099108E+02 -0.14996803021E+02  0.34058853107E+02  0.51100000000E-03 0.  1.
         12    1    4    4    0    0  0.72401846661E+01 -0.32851115712E+01 -0.14405693616E+01  0.80800663438E+01  0.00000000000E+00 0. -1.
</event>
<event>
 8    1  0.1229038E-006  0.9118800E+02  0.7816164E-02  0.1184000E+00
        -11   -1    0    0    0    0  0.00000000000E+00  0.00000000000E+00  0.45593999997E+02  0.45594000000E+02  0.51100000000E-03 0. -1.
         11   -1    0    0    0    0 -0.00000000000E+00 -0.00000000000E+00 -0.45593999997E+02  0.45594000000E+02  0.51100000000E-03 0.  1.
         23    2    1    2    0    0  0.00000000000E+00  0.35527136788E-14  0.00000000000E+00  0.91188000000E+02  0.91188000000E+02 0.  0.
    9900012    2    3    3    0    0 -0.17116486940E+02  0.28249910492E+02  0.16271014269E+02  0.54367116342E+02  0.40000073326E+02 0.  0.
        -12    1    3    3    0    0  0.17116486940E+02 -0.28249910492E+02 -0.16271014269E+02  0.36820883658E+02  0.00000000000E+00 0.  1.
         11    1    4    4    0    0  0.67250373729E+00  0.46006139745E+01  0.18109637661E+01  0.49897394964E+01  0.51100000000E-03 0. -1.
        -11    1    4    4    0    0 -0.50581634194E+01 -0.85064038709E+01  0.10722849131E+02  0.14591895618E+02  0.51100000000E-03 0.  1.
        -12    1    4    4    0    0 -0.12730827258E+02  0.32155700389E+02  0.37372013721E+01  0.34785481228E+02  0.00000000000E+00 0.  1.
</event>
<event>
 8    1  0.1229038E-006  0.9118800E+02  0.7816164E-02  0.1184000E+00
        -11   -1    0    0    0    0  0.00000000000E+00  0.00000000000E+00  0.45593999997E+02  0.45594000000E+02  0.51100000000E-03 0. -1.
         11   -1    0    0    0    0 -0.00000000000E+00 -0.00000000000E+00 -0.45593999997E+02  0.45594000000E+02  0.51100000000E-03 0.  1.
         23    2    1    2    0    0 -0.71054273576E-14 -0.35527136788E-14  0.17763568394E-14  0.91188000000E+02  0.91188000000E+02 0.  0.
    9900012    2    3    3    0    0 -0.28365142084E+02 -0.19721883905E+02 -0.12737592503E+02  0.54367078597E+02  0.39999987277E+02 0.  0.
         12    1    3    3    0    0  0.28365142084E+02  0.19721883905E+02  0.12737592503E+02  0.36820921403E+02  0.00000000000E+00 0. -1.
         11    1    4    4    0    0 -0.11395358652E+02 -0.14681850762E+02  0.52843117239E+01  0.19321875977E+02  0.51100000000E-03 0. -1.
        -11    1    4    4    0    0 -0.12289739619E+02 -0.11930534084E+02 -0.20151925477E+02  0.26447598079E+02  0.51100000000E-03 0.  1.
         12    1    4    4    0    0 -0.46800438134E+01  0.68905009417E+01  0.21300212497E+01  0.85976045412E+01  0.00000000000E+00 0. -1.
</event>
<event>
 8    1  0.1229038E-006  0.9118800E+02  0.7816164E-02  0.1184000E+00
        -11   -1    0    0    0    0  0.00000000000E+00  0.00000000000E+00  0.45593999997E+02  0.45594000000E+02  0.51100000000E-03 0.  1.
         11   -1    0    0    0    0 -0.00000000000E+00 -0.00000000000E+00 -0.45593999997E+02  0.45594000000E+02  0.51100000000E-03 0. -1.
         23    2    1    2    0    0 -0.35527136788E-14  0.00000000000E+00  0.00000000000E+00  0.91188000000E+02  0.91188000000E+02 0.  0.
    9900012    2    3    3    0    0 -0.21327241652E+02 -0.24211840263E+02 -0.17740218418E+02  0.54367084816E+02  0.40000001456E+02 0.  0.
        -12    1    3    3    0    0  0.21327241652E+02  0.24211840263E+02  0.17740218418E+02  0.36820915184E+02  0.00000000000E+00 0.  1.
         11    1    4    4    0    0  0.19489886455E+00 -0.11217778366E+02 -0.23933290521E+02  0.26432535491E+02  0.51100000000E-03 0. -1.
        -11    1    4    4    0    0 -0.95603580190E+01 -0.11791394249E+02  0.27308042184E+01  0.15423835960E+02  0.51100000000E-03 0.  1.
         12    1    4    4    0    0 -0.11961782498E+02 -0.12026676484E+01  0.34622678851E+01  0.12510713365E+02  0.00000000000E+00 0. -1.
</event>
<event>
 8    1  0.1229038E-006  0.9118800E+02  0.7816164E-02  0.1184000E+00
        -11   -1    0    0    0    0  0.00000000000E+00  0.00000000000E+00  0.45593999997E+02  0.45594000000E+02  0.51100000000E-03 0.  1.
         11   -1    0    0    0    0 -0.00000000000E+00 -0.00000000000E+00 -0.45593999997E+02  0.45594000000E+02  0.51100000000E-03 0. -1.
         23    2    1    2    0    0  0.88817841970E-15  0.35527136788E-14  0.71054273576E-14  0.91188000000E+02  0.91188000000E+02 0.  0.
    9900012    2    3    3    0    0  0.70232680192E+01  0.29451524258E+02  0.20953813592E+02  0.54367070099E+02  0.39999967904E+02 0.  0.
         12    1    3    3    0    0 -0.70232680192E+01 -0.29451524258E+02 -0.20953813592E+02  0.36820929901E+02  0.00000000000E+00 0. -1.
         11    1    4    4    0    0  0.10855969421E+02  0.14069814468E+01 -0.66023052875E+01  0.12783665524E+02  0.51100000000E-03 0. -1.
        -11    1    4    4    0    0  0.30716125664E+01  0.25227318143E+01  0.71675176787E+01  0.81958702711E+01  0.51100000000E-03 0.  1.
        -12    1    4    4    0    0 -0.69043139685E+01  0.25521810997E+02  0.20388601201E+02  0.33387534303E+02  0.00000000000E+00 0.  1.
</event>
<event>
 8    1  0.1229038E-006  0.9118800E+02  0.7816164E-02  0.1184000E+00
        -11   -1    0    0    0    0  0.00000000000E+00  0.00000000000E+00  0.45593999997E+02  0.45594000000E+02  0.51100000000E-03 0.  1.
         11   -1    0    0    0    0 -0.00000000000E+00 -0.00000000000E+00 -0.45593999997E+02  0.45594000000E+02  0.51100000000E-03 0. -1.
         23    2    1    2    0    0  0.00000000000E+00  0.00000000000E+00 -0.17763568394E-14  0.91188000000E+02  0.91188000000E+02 0.  0.
    9900012    2    3    3    0    0 -0.92679808622E+01  0.31907716260E+02 -0.15867657987E+02  0.54367076652E+02  0.39999982844E+02 0.  0.
        -12    1    3    3    0    0  0.92679808622E+01 -0.31907716260E+02  0.15867657987E+02  0.36820923348E+02  0.00000000000E+00 0.  1.
         11    1    4    4    0    0 -0.12387787082E+02  0.28802724632E+02  0.21019229764E+00  0.31354399948E+02  0.51100000000E-03 0.  1.
        -11    1    4    4    0    0 -0.16749974337E+00  0.93695269878E+01 -0.97061732130E+01  0.13491697107E+02  0.51100000000E-03 0. -1.
        -12    1    4    4    0    0  0.32873059631E+01 -0.62645353605E+01 -0.63716770718E+01  0.95209795969E+01  0.00000000000E+00 0.  1.
</event>
<event>
 8    1  0.1229038E-006  0.9118800E+02  0.7816164E-02  0.1184000E+00
        -11   -1    0    0    0    0  0.00000000000E+00  0.00000000000E+00  0.45593999997E+02  0.45594000000E+02  0.51100000000E-03 0. -1.
         11   -1    0    0    0    0 -0.00000000000E+00 -0.00000000000E+00 -0.45593999997E+02  0.45594000000E+02  0.51100000000E-03 0.  1.
         23    2    1    2    0    0  0.00000000000E+00 -0.35527136788E-14 -0.35527136788E-14  0.91188000000E+02  0.91188000000E+02 0.  0.
    9900012    2    3    3    0    0  0.13377896384E+02 -0.20058396495E+02 -0.27829354616E+02  0.54367077144E+02  0.39999983964E+02 0.  0.
         12    1    3    3    0    0 -0.13377896384E+02  0.20058396495E+02  0.27829354616E+02  0.36820922856E+02  0.00000000000E+00 0. -1.
         11    1    4    4    0    0  0.13223003578E+02 -0.82956264810E+01  0.39602708527E+01  0.16104315813E+02  0.51100000000E-03 0. -1.
        -11    1    4    4    0    0  0.26337700949E+01 -0.16029360771E+02 -0.25979356379E+02  0.30639910408E+02  0.51100000000E-03 0.  1.
         12    1    4    4    0    0 -0.24788772886E+01  0.42665907565E+01 -0.58102690898E+01  0.76228509228E+01  0.00000000000E+00 0. -1.
</event>
<event>
 8    1  0.1229038E-006  0.9118800E+02  0.7816164E-02  0.1184000E+00
        -11   -1    0    0    0    0  0.00000000000E+00  0.00000000000E+00  0.45593999997E+02  0.45594000000E+02  0.51100000000E-03 0.  1.
         11   -1    0    0    0    0 -0.00000000000E+00 -0.00000000000E+00 -0.45593999997E+02  0.45594000000E+02  0.51100000000E-03 0. -1.
         23    2    1    2    0    0  0.00000000000E+00  0.00000000000E+00  0.35527136788E-14  0.91188000000E+02  0.91188000000E+02 0.  0.
    9900012    2    3    3    0    0  0.10943405632E+02  0.24308178427E+02 -0.25399481746E+02  0.54367091018E+02  0.40000015594E+02 0.  0.
        -12    1    3    3    0    0 -0.10943405632E+02 -0.24308178427E+02  0.25399481746E+02  0.36820908982E+02  0.00000000000E+00 0.  1.
         11    1    4    4    0    0  0.92601803436E+01  0.16637456957E+02 -0.19443873408E+02  0.27214336798E+02  0.51100000000E-03 0. -1.
        -11    1    4    4    0    0  0.11252142770E+02  0.11208572118E+02 -0.12897695242E+01  0.15934437911E+02  0.51100000000E-03 0.  1.
        -12    1    4    4    0    0 -0.95689174817E+01 -0.35378506480E+01 -0.46658388135E+01  0.11218316309E+02  0.00000000000E+00 0.  1.
</event>
<event>
 8    1  0.1229038E-006  0.9118800E+02  0.7816164E-02  0.1184000E+00
        -11   -1    0    0    0    0  0.00000000000E+00  0.00000000000E+00  0.45593999997E+02  0.45594000000E+02  0.51100000000E-03 0. -1.
         11   -1    0    0    0    0 -0.00000000000E+00 -0.00000000000E+00 -0.45593999997E+02  0.45594000000E+02  0.51100000000E-03 0.  1.
         23    2    1    2    0    0  0.35527136788E-14  0.00000000000E+00  0.35527136788E-14  0.91188000000E+02  0.91188000000E+02 0.  0.
    9900012    2    3    3    0    0  0.13139926041E+02  0.18458293279E+02  0.29024359882E+02  0.54367085920E+02  0.40000003971E+02 0.  0.
        -12    1    3    3    0    0 -0.13139926041E+02 -0.18458293279E+02 -0.29024359882E+02  0.36820914080E+02  0.00000000000E+00 0.  1.
         11    1    4    4    0    0 -0.38422810461E+01  0.26673939271E+01  0.33332248767E+01  0.57435618165E+01  0.51100000000E-03 0.  1.
        -11    1    4    4    0    0  0.71087076077E+01  0.13456713763E+02  0.32851559346E+02  0.36205549587E+02  0.51100000000E-03 0. -1.
         12    1    4    4    0    0  0.98734994799E+01  0.23341855889E+01 -0.71604243412E+01  0.12417974516E+02  0.00000000000E+00 0. -1.
</event>
<event>
 8    1  0.1229038E-006  0.9118800E+02  0.7816164E-02  0.1184000E+00
        -11   -1    0    0    0    0  0.00000000000E+00  0.00000000000E+00  0.45593999997E+02  0.45594000000E+02  0.51100000000E-03 0.  1.
         11   -1    0    0    0    0 -0.00000000000E+00 -0.00000000000E+00 -0.45593999997E+02  0.45594000000E+02  0.51100000000E-03 0. -1.
         23    2    1    2    0    0  0.00000000000E+00 -0.22204460493E-14  0.00000000000E+00  0.91188000000E+02  0.91188000000E+02 0.  0.
    9900012    2    3    3    0    0 -0.24396197247E+02  0.39447843366E+01 -0.27295452413E+02  0.54367116170E+02  0.40000072932E+02 0.  0.
        -12    1    3    3    0    0  0.24396197247E+02 -0.39447843366E+01  0.27295452413E+02  0.36820883830E+02  0.00000000000E+00 0.  1.
         11    1    4    4    0    0 -0.12329161904E+02  0.13994979843E+01 -0.81670212943E+01  0.14854866709E+02  0.51100000000E-03 0. -1.
        -11    1    4    4    0    0 -0.56576669996E+01  0.17351688479E+02 -0.80900033174E+01  0.19963427634E+02  0.51100000000E-03 0.  1.
        -12    1    4    4    0    0 -0.64093683441E+01 -0.14806402127E+02 -0.11038427802E+02  0.19548821827E+02  0.00000000000E+00 0.  1.
</event>
<event>
 8    1  0.1229038E-006  0.9118800E+02  0.7816164E-02  0.1184000E+00
        -11   -1    0    0    0    0  0.00000000000E+00  0.00000000000E+00  0.45593999997E+02  0.45594000000E+02  0.51100000000E-03 0. -1.
         11   -1    0    0    0    0 -0.00000000000E+00 -0.00000000000E+00 -0.45593999997E+02  0.45594000000E+02  0.51100000000E-03 0.  1.
         23    2    1    2    0    0  0.00000000000E+00  0.00000000000E+00  0.35527136788E-14  0.91188000000E+02  0.91188000000E+02 0.  0.
    9900012    2    3    3    0    0  0.26069147665E+01  0.33824070620E+02 -0.14314901477E+02  0.54367079829E+02  0.39999990086E+02 0.  0.
         12    1    3    3    0    0 -0.26069147665E+01 -0.33824070620E+02  0.14314901477E+02  0.36820920171E+02  0.00000000000E+00 0. -1.
         11    1    4    4    0    0 -0.33847884285E+01  0.19030143181E+02  0.65175710245E+01  0.20398085070E+02  0.51100000000E-03 0. -1.
        -11    1    4    4    0    0 -0.48668276116E+00  0.25138869928E+01  0.44448164085E+01  0.51296082783E+01  0.51100000000E-03 0.  1.
        -12    1    4    4    0    0  0.64783859562E+01  0.12280040447E+02 -0.25277288910E+02  0.28839386481E+02  0.00000000000E+00 0.  1.
</event>
<event>
 8    1  0.1229038E-006  0.9118800E+02  0.7816164E-02  0.1184000E+00
        -11   -1    0    0    0    0  0.00000000000E+00  0.00000000000E+00  0.45593999997E+02  0.45594000000E+02  0.51100000000E-03 0.  1.
         11   -1    0    0    0    0 -0.00000000000E+00 -0.00000000000E+00 -0.45593999997E+02  0.45594000000E+02  0.51100000000E-03 0. -1.
         23    2    1    2    0    0  0.71054273576E-14 -0.88817841970E-15  0.00000000000E+00  0.91188000000E+02  0.91188000000E+02 0.  0.
    9900012    2    3    3    0    0  0.32429679829E+02 -0.48446834036E+01  0.16751856535E+02  0.54367084905E+02  0.40000001657E+02 0.  0.
         12    1    3    3    0    0 -0.32429679829E+02  0.48446834036E+01 -0.16751856535E+02  0.36820915095E+02  0.00000000000E+00 0. -1.
         11    1    4    4    0    0 -0.42301199309E+00 -0.21406412115E+01  0.14078945255E+02  0.14247034207E+02  0.51100000000E-03 0. -1.
        -11    1    4    4    0    0  0.11448570207E+02  0.51203404397E+01  0.10151332818E+02  0.16134968368E+02  0.51100000000E-03 0.  1.
         12    1    4    4    0    0  0.21404121615E+02 -0.78243826317E+01 -0.74784215371E+01  0.23985082330E+02  0.00000000000E+00 0. -1.
</event>
<event>
 8    1  0.1229038E-006  0.9118800E+02  0.7816164E-02  0.1184000E+00
        -11   -1    0    0    0    0  0.00000000000E+00  0.00000000000E+00  0.45593999997E+02  0.45594000000E+02  0.51100000000E-03 0.  1.
         11   -1    0    0    0    0 -0.00000000000E+00 -0.00000000000E+00 -0.45593999997E+02  0.45594000000E+02  0.51100000000E-03 0. -1.
         23    2    1    2    0    0  0.00000000000E+00  0.00000000000E+00  0.00000000000E+00  0.91188000000E+02  0.91188000000E+02 0.  0.
    9900012    2    3    3    0    0 -0.14688799610E+02 -0.16481750915E+02 -0.29468163586E+02  0.54367060138E+02  0.39999945196E+02 0.  0.
        -12    1    3    3    0    0  0.14688799610E+02  0.16481750915E+02  0.29468163586E+02  0.36820939862E+02  0.00000000000E+00 0.  1.
         11    1    4    4    0    0 -0.24986952403E+01 -0.14160159604E+02 -0.20073455416E+02  0.24692047516E+02  0.51100000000E-03 0. -1.
        -11    1    4    4    0    0 -0.13548628088E+02 -0.10695579273E+02 -0.33692468945E+00  0.17264827180E+02  0.51100000000E-03 0.  1.
        -12    1    4    4    0    0  0.13585237186E+01  0.83739879629E+01 -0.90577834806E+01  0.12410185441E+02  0.00000000000E+00 0.  1.
</event>
<event>
 8    1  0.1229038E-006  0.9118800E+02  0.7816164E-02  0.1184000E+00
        -11   -1    0    0    0    0  0.00000000000E+00  0.00000000000E+00  0.45593999997E+02  0.45594000000E+02  0.51100000000E-03 0.  1.
         11   -1    0    0    0    0 -0.00000000000E+00 -0.00000000000E+00 -0.45593999997E+02  0.45594000000E+02  0.51100000000E-03 0. -1.
         23    2    1    2    0    0  0.44408920985E-15  0.00000000000E+00 -0.35527136788E-14  0.91188000000E+02  0.91188000000E+02 0.  0.
    9900012    2    3    3    0    0  0.26919523175E+01  0.18921511746E+02  0.31472355643E+02  0.54367090400E+02  0.40000014185E+02 0.  0.
         12    1    3    3    0    0 -0.26919523175E+01 -0.18921511746E+02 -0.31472355643E+02  0.36820909600E+02  0.00000000000E+00 0. -1.
         11    1    4    4    0    0  0.13463564099E+02  0.59541321888E+01  0.71163375294E+01  0.16351192876E+02  0.51100000000E-03 0. -1.
        -11    1    4    4    0    0 -0.74618033618E+01 -0.59724135559E+01  0.11175116462E+02  0.14704810821E+02  0.51100000000E-03 0.  1.
        -12    1    4    4    0    0 -0.33098084193E+01  0.18939793113E+02  0.13180901652E+02  0.23311086703E+02  0.00000000000E+00 0.  1.
</event>
<event>
 8    1  0.1229038E-006  0.9118800E+02  0.7816164E-02  0.1184000E+00
        -11   -1    0    0    0    0  0.00000000000E+00  0.00000000000E+00  0.45593999997E+02  0.45594000000E+02  0.51100000000E-03 0. -1.
         11   -1    0    0    0    0 -0.00000000000E+00 -0.00000000000E+00 -0.45593999997E+02  0.45594000000E+02  0.51100000000E-03 0.  1.
         23    2    1    2    0    0  0.00000000000E+00 -0.35527136788E-14  0.00000000000E+00  0.91188000000E+02  0.91188000000E+02 0.  0.
    9900012    2    3    3    0    0 -0.25034282243E+02  0.24502978020E+02 -0.11343204370E+02  0.54367088759E+02  0.40000010444E+02 0.  0.
        -12    1    3    3    0    0  0.25034282243E+02 -0.24502978020E+02  0.11343204370E+02  0.36820911241E+02  0.00000000000E+00 0.  1.
         11    1    4    4    0    0 -0.10069922110E+02  0.11680070793E+02  0.86326074359E+00  0.15445795687E+02  0.51100000000E-03 0. -1.
        -11    1    4    4    0    0 -0.22947657411E+02  0.76968374562E+01 -0.98138240985E+00  0.24223942684E+02  0.51100000000E-03 0.  1.
         12    1    4    4    0    0  0.79832972781E+01  0.51260697703E+01 -0.11225082704E+02  0.14697350388E+02  0.00000000000E+00 0. -1.
</event>
<event>
 8    1  0.1229038E-006  0.9118800E+02  0.7816164E-02  0.1184000E+00
        -11   -1    0    0    0    0  0.00000000000E+00  0.00000000000E+00  0.45593999997E+02  0.45594000000E+02  0.51100000000E-03 0.  1.
         11   -1    0    0    0    0 -0.00000000000E+00 -0.00000000000E+00 -0.45593999997E+02  0.45594000000E+02  0.51100000000E-03 0. -1.
         23    2    1    2    0    0  0.00000000000E+00  0.00000000000E+00  0.00000000000E+00  0.91188000000E+02  0.91188000000E+02 0.  0.
    9900012    2    3    3    0    0 -0.31937002870E+02 -0.85202122024E+01 -0.16223865419E+02  0.54367082339E+02  0.39999995808E+02 0.  0.
        -12    1    3    3    0    0  0.31937002870E+02  0.85202122024E+01  0.16223865419E+02  0.36820917661E+02  0.00000000000E+00 0.  1.
         11    1    4    4    0    0 -0.59720169466E+01 -0.12823387236E+02 -0.14356390890E+02  0.20154657185E+02  0.51100000000E-03 0. -1.
        -11    1    4    4    0    0 -0.19132244869E+01 -0.38644913499E+01  0.62081607238E+01  0.75588346432E+01  0.51100000000E-03 0.  1.
         12    1    4    4    0    0 -0.24051761436E+02  0.81676663836E+01 -0.80756352531E+01  0.26653590510E+02  0.00000000000E+00 0. -1.
</event>
<event>
 8    1  0.1229038E-006  0.9118800E+02  0.7816164E-02  0.1184000E+00
        -11   -1    0    0    0    0  0.00000000000E+00  0.00000000000E+00  0.45593999997E+02  0.45594000000E+02  0.51100000000E-03 0. -1.
         11   -1    0    0    0    0 -0.00000000000E+00 -0.00000000000E+00 -0.45593999997E+02  0.45594000000E+02  0.51100000000E-03 0.  1.
         23    2    1    2    0    0  0.00000000000E+00  0.00000000000E+00  0.00000000000E+00  0.91188000000E+02  0.91188000000E+02 0.  0.
    9900012    2    3    3    0    0 -0.11608696505E+02 -0.16924144462E+02 -0.30571080850E+02  0.54367089030E+02  0.40000011061E+02 0.  0.
         12    1    3    3    0    0  0.11608696505E+02  0.16924144462E+02  0.30571080850E+02  0.36820910970E+02  0.00000000000E+00 0. -1.
         11    1    4    4    0    0  0.63437918807E+01  0.81957052807E+01 -0.55049887364E+01  0.11735339012E+02  0.51100000000E-03 0. -1.
        -11    1    4    4    0    0 -0.63339969048E+01 -0.21304651556E+02 -0.15326852924E+02  0.26998520618E+02  0.51100000000E-03 0.  1.
         12    1    4    4    0    0 -0.11618491481E+02 -0.38151981869E+01 -0.97392391895E+01  0.15633229400E+02  0.00000000000E+00 0. -1.
</event>
<event>
 8    1  0.1229038E-006  0.9118800E+02  0.7816164E-02  0.1184000E+00
        -11   -1    0    0    0    0  0.00000000000E+00  0.00000000000E+00  0.45593999997E+02  0.45594000000E+02  0.51100000000E-03 0.  1.
         11   -1    0    0    0    0 -0.00000000000E+00 -0.00000000000E+00 -0.45593999997E+02  0.45594000000E+02  0.51100000000E-03 0. -1.
         23    2    1    2    0    0 -0.71054273576E-14  0.17763568394E-14  0.88817841970E-15  0.91188000000E+02  0.91188000000E+02 0.  0.
    9900012    2    3    3    0    0  0.35258038357E+02 -0.78256390628E+01 -0.71700577652E+01  0.54367087140E+02  0.40000006752E+02 0.  0.
         12    1    3    3    0    0 -0.35258038357E+02  0.78256390628E+01  0.71700577652E+01  0.36820912860E+02  0.00000000000E+00 0. -1.
         11    1    4    4    0    0  0.11917338816E+02  0.87014469929E+01 -0.17783062424E+02  0.23107908899E+02  0.51100000000E-03 0. -1.
        -11    1    4    4    0    0  0.23251384674E+01 -0.47981242728E+01  0.17389014720E+01  0.56082121947E+01  0.51100000000E-03 0.  1.
         12    1    4    4    0    0  0.21015561073E+02 -0.11728961783E+02  0.88741031870E+01  0.25650966046E+02  0.00000000000E+00 0. -1.
</event>
<event>
 8    1  0.1229038E-006  0.9118800E+02  0.7816164E-02  0.1184000E+00
        -11   -1    0    0    0    0  0.00000000000E+00  0.00000000000E+00  0.45593999997E+02  0.45594000000E+02  0.51100000000E-03 0.  1.
         11   -1    0    0    0    0 -0.00000000000E+00 -0.00000000000E+00 -0.45593999997E+02  0.45594000000E+02  0.51100000000E-03 0. -1.
         23    2    1    2    0    0  0.00000000000E+00  0.88817841970E-15 -0.35527136788E-14  0.91188000000E+02  0.91188000000E+02 0.  0.
    9900012    2    3    3    0    0 -0.17353071002E+02  0.62975460116E+01  0.31858918236E+02  0.54367097918E+02  0.40000031323E+02 0.  0.
         12    1    3    3    0    0  0.17353071002E+02 -0.62975460116E+01 -0.31858918236E+02  0.36820902082E+02  0.00000000000E+00 0. -1.
         11    1    4    4    0    0 -0.56718598235E+01  0.35379243265E+01 -0.28504138258E+01  0.72671701258E+01  0.51100000000E-03 0. -1.
        -11    1    4    4    0    0 -0.65649917708E+01 -0.75029968866E+01 -0.58762650383E+00  0.99869607188E+01  0.51100000000E-03 0.  1.
         12    1    4    4    0    0 -0.51162194076E+01  0.10262618572E+02  0.35296958566E+02  0.37112967073E+02  0.00000000000E+00 0. -1.
</event>
<event>
 8    1  0.1229038E-006  0.9118800E+02  0.7816164E-02  0.1184000E+00
        -11   -1    0    0    0    0  0.00000000000E+00  0.00000000000E+00  0.45593999997E+02  0.45594000000E+02  0.51100000000E-03 0.  1.
         11   -1    0    0    0    0 -0.00000000000E+00 -0.00000000000E+00 -0.45593999997E+02  0.45594000000E+02  0.51100000000E-03 0. -1.
         23    2    1    2    0    0  0.00000000000E+00  0.00000000000E+00  0.00000000000E+00  0.91188000000E+02  0.91188000000E+02 0.  0.
    9900012    2    3    3    0    0 -0.24022752127E+02  0.15962089635E+02 -0.22888833681E+02  0.54367087022E+02  0.40000006483E+02 0.  0.
        -12    1    3    3    0    0  0.24022752127E+02 -0.15962089635E+02  0.22888833681E+02  0.36820912978E+02  0.00000000000E+00 0.  1.
         11    1    4    4    0    0 -0.13158289316E+02  0.13879231817E+02  0.58305584782E+01  0.19994225816E+02  0.51100000000E-03 0. -1.
        -11    1    4    4    0    0  0.22154954069E+01 -0.94446205300E+00 -0.14945300721E+02  0.15138112246E+02  0.51100000000E-03 0.  1.
         12    1    4    4    0    0 -0.13079958218E+02  0.30273198712E+01 -0.13774091438E+02  0.19234748959E+02  0.00000000000E+00 0. -1.
</event>
<event>
 8    1  0.1229038E-006  0.9118800E+02  0.7816164E-02  0.1184000E+00
        -11   -1    0    0    0    0  0.00000000000E+00  0.00000000000E+00  0.45593999997E+02  0.45594000000E+02  0.51100000000E-03 0. -1.
         11   -1    0    0    0    0 -0.00000000000E+00 -0.00000000000E+00 -0.45593999997E+02  0.45594000000E+02  0.51100000000E-03 0.  1.
         23    2    1    2    0    0 -0.35527136788E-14  0.00000000000E+00  0.00000000000E+00  0.91188000000E+02  0.91188000000E+02 0.  0.
    9900012    2    3    3    0    0  0.20566752129E+02 -0.15636897617E+02 -0.26234988805E+02  0.54367102430E+02  0.40000041610E+02 0.  0.
         12    1    3    3    0    0 -0.20566752129E+02  0.15636897617E+02  0.26234988805E+02  0.36820897570E+02  0.00000000000E+00 0. -1.
         11    1    4    4    0    0 -0.34154876261E+01 -0.11119174267E+02  0.12104340063E+01  0.11694731414E+02  0.51100000000E-03 0. -1.
        -11    1    4    4    0    0 -0.39255122778E+01 -0.25161554444E+01 -0.46144180109E+01  0.65599953280E+01  0.51100000000E-03 0.  1.
        -12    1    4    4    0    0  0.27907752033E+02 -0.20015679060E+01 -0.22831004801E+02  0.36112375688E+02  0.00000000000E+00 0.  1.
</event>
<event>
 8    1  0.1229038E-006  0.9118800E+02  0.7816164E-02  0.1184000E+00
        -11   -1    0    0    0    0  0.00000000000E+00  0.00000000000E+00  0.45593999997E+02  0.45594000000E+02  0.51100000000E-03 0. -1.
         11   -1    0    0    0    0 -0.00000000000E+00 -0.00000000000E+00 -0.45593999997E+02  0.45594000000E+02  0.51100000000E-03 0.  1.
         23    2    1    2    0    0 -0.35527136788E-14 -0.35527136788E-14  0.17763568394E-14  0.91188000000E+02  0.91188000000E+02 0.  0.
    9900012    2    3    3    0    0 -0.23677461257E+02 -0.24332557979E+02  0.14250758120E+02  0.54367086698E+02  0.40000005746E+02 0.  0.
        -12    1    3    3    0    0  0.23677461257E+02  0.24332557979E+02 -0.14250758120E+02  0.36820913302E+02  0.00000000000E+00 0.  1.
         11    1    4    4    0    0  0.22452913749E+01 -0.13743963285E+02 -0.44268170886E+01  0.14612822107E+02  0.51100000000E-03 0. -1.
        -11    1    4    4    0    0 -0.45911632052E+01 -0.77362735484E+00 -0.47030281196E+01  0.66178359466E+01  0.51100000000E-03 0.  1.
        -12    1    4    4    0    0 -0.21331589427E+02 -0.98149673392E+01  0.23380603328E+02  0.33136428645E+02  0.00000000000E+00 0.  1.
</event>
<event>
 8    1  0.1229038E-006  0.9118800E+02  0.7816164E-02  0.1184000E+00
        -11   -1    0    0    0    0  0.00000000000E+00  0.00000000000E+00  0.45593999997E+02  0.45594000000E+02  0.51100000000E-03 0. -1.
         11   -1    0    0    0    0 -0.00000000000E+00 -0.00000000000E+00 -0.45593999997E+02  0.45594000000E+02  0.51100000000E-03 0.  1.
         23    2    1    2    0    0  0.00000000000E+00  0.00000000000E+00 -0.35527136788E-14  0.91188000000E+02  0.91188000000E+02 0.  0.
    9900012    2    3    3    0    0  0.23069676481E+02 -0.83069731186E+01  0.27469334335E+02  0.54367080618E+02  0.39999991885E+02 0.  0.
        -12    1    3    3    0    0 -0.23069676481E+02  0.83069731186E+01 -0.27469334335E+02  0.36820919382E+02  0.00000000000E+00 0.  1.
         11    1    4    4    0    0  0.88334669973E+01 -0.13705973950E+02  0.78314791502E+01  0.18089110732E+02  0.51100000000E-03 0. -1.
        -11    1    4    4    0    0  0.50578652614E+01 -0.10512238424E+02  0.46040149102E+01  0.12541375971E+02  0.51100000000E-03 0.  1.
         12    1    4    4    0    0  0.91783442219E+01  0.15911239256E+02  0.15033840275E+02  0.23736593916E+02  0.00000000000E+00 0. -1.
</event>
<event>
 8    1  0.1229038E-006  0.9118800E+02  0.7816164E-02  0.1184000E+00
        -11   -1    0    0    0    0  0.00000000000E+00  0.00000000000E+00  0.45593999997E+02  0.45594000000E+02  0.51100000000E-03 0. -1.
         11   -1    0    0    0    0 -0.00000000000E+00 -0.00000000000E+00 -0.45593999997E+02  0.45594000000E+02  0.51100000000E-03 0.  1.
         23    2    1    2    0    0  0.88817841970E-15  0.00000000000E+00  0.00000000000E+00  0.91188000000E+02  0.91188000000E+02 0.  0.
    9900012    2    3    3    0    0 -0.37939993502E+01  0.32948553458E+02  0.15993146071E+02  0.54367050429E+02  0.39999923063E+02 0.  0.
        -12    1    3    3    0    0  0.37939993502E+01 -0.32948553458E+02 -0.15993146071E+02  0.36820949571E+02  0.00000000000E+00 0.  1.
         11    1    4    4    0    0 -0.29061413448E+01  0.15826594402E+01 -0.43264913264E+01  0.54469253600E+01  0.51100000000E-03 0. -1.
        -11    1    4    4    0    0  0.19429611418E+01 -0.56581080623E+01 -0.10560883253E+01  0.60749162673E+01  0.51100000000E-03 0.  1.
         12    1    4    4    0    0 -0.28308191472E+01  0.37024002080E+02  0.21375725722E+02  0.42845208802E+02  0.00000000000E+00 0. -1.
</event>
<event>
 8    1  0.1229038E-006  0.9118800E+02  0.7816164E-02  0.1184000E+00
        -11   -1    0    0    0    0  0.00000000000E+00  0.00000000000E+00  0.45593999997E+02  0.45594000000E+02  0.51100000000E-03 0. -1.
         11   -1    0    0    0    0 -0.00000000000E+00 -0.00000000000E+00 -0.45593999997E+02  0.45594000000E+02  0.51100000000E-03 0.  1.
         23    2    1    2    0    0  0.00000000000E+00  0.35527136788E-14 -0.17763568394E-14  0.91188000000E+02  0.91188000000E+02 0.  0.
    9900012    2    3    3    0    0 -0.28145834710E+02 -0.21539499012E+02 -0.99820708602E+01  0.54367085185E+02  0.40000002295E+02 0.  0.
         12    1    3    3    0    0  0.28145834710E+02  0.21539499012E+02  0.99820708602E+01  0.36820914815E+02  0.00000000000E+00 0. -1.
         11    1    4    4    0    0 -0.13088999988E+02  0.74075294239E+01  0.70030342737E+01  0.16590235144E+02  0.51100000000E-03 0. -1.
        -11    1    4    4    0    0 -0.10055278734E+02 -0.23496366417E+02 -0.95362159570E+01  0.27278696454E+02  0.51100000000E-03 0.  1.
         12    1    4    4    0    0 -0.50015559881E+01 -0.54506620191E+01 -0.74488891769E+01  0.10498153586E+02  0.00000000000E+00 0. -1.
</event>
<event>
 8    1  0.1229038E-006  0.9118800E+02  0.7816164E-02  0.1184000E+00
        -11   -1    0    0    0    0  0.00000000000E+00  0.00000000000E+00  0.45593999997E+02  0.45594000000E+02  0.51100000000E-03 0. -1.
         11   -1    0    0    0    0 -0.00000000000E+00 -0.00000000000E+00 -0.45593999997E+02  0.45594000000E+02  0.51100000000E-03 0.  1.
         23    2    1    2    0    0 -0.17763568394E-14  0.00000000000E+00  0.00000000000E+00  0.91188000000E+02  0.91188000000E+02 0.  0.
    9900012    2    3    3    0    0 -0.12086631709E+02  0.19584291121E+02  0.28742797566E+02  0.54367088323E+02  0.40000009450E+02 0.  0.
        -12    1    3    3    0    0  0.12086631709E+02 -0.19584291121E+02 -0.28742797566E+02  0.36820911677E+02  0.00000000000E+00 0.  1.
         11    1    4    4    0    0  0.47745977609E+00  0.65480103910E+01  0.19441246744E+02  0.20519904560E+02  0.51100000000E-03 0. -1.
        -11    1    4    4    0    0 -0.55421237931E+01 -0.83567461417E+01  0.29570408551E+01  0.10454397787E+02  0.51100000000E-03 0.  1.
        -12    1    4    4    0    0 -0.70219676921E+01  0.21393026872E+02  0.63445099672E+01  0.23392785976E+02  0.00000000000E+00 0.  1.
</event>
<event>
 8    1  0.1229038E-006  0.9118800E+02  0.7816164E-02  0.1184000E+00
        -11   -1    0    0    0    0  0.00000000000E+00  0.00000000000E+00  0.45593999997E+02  0.45594000000E+02  0.51100000000E-03 0.  1.
         11   -1    0    0    0    0 -0.00000000000E+00 -0.00000000000E+00 -0.45593999997E+02  0.45594000000E+02  0.51100000000E-03 0. -1.
         23    2    1    2    0    0  0.00000000000E+00  0.71054273576E-14  0.88817841970E-15  0.91188000000E+02  0.91188000000E+02 0.  0.
    9900012    2    3    3    0    0 -0.14027619373E+02 -0.33614740763E+02  0.53901561804E+01  0.54367099882E+02  0.40000035801E+02 0.  0.
         12    1    3    3    0    0  0.14027619373E+02  0.33614740763E+02 -0.53901561804E+01  0.36820900118E+02  0.00000000000E+00 0. -1.
         11    1    4    4    0    0 -0.11423027099E+02 -0.21531581891E+02  0.16268393360E+02  0.29304525071E+02  0.51100000000E-03 0. -1.
        -11    1    4    4    0    0 -0.36899061853E+01 -0.13964238840E+02 -0.14736919024E+02  0.20634731803E+02  0.51100000000E-03 0.  1.
         12    1    4    4    0    0  0.10853139117E+01  0.18810799672E+01  0.38586818439E+01  0.44278430078E+01  0.00000000000E+00 0. -1.
</event>
<event>
 8    1  0.1229038E-006  0.9118800E+02  0.7816164E-02  0.1184000E+00
        -11   -1    0    0    0    0  0.00000000000E+00  0.00000000000E+00  0.45593999997E+02  0.45594000000E+02  0.51100000000E-03 0.  1.
         11   -1    0    0    0    0 -0.00000000000E+00 -0.00000000000E+00 -0.45593999997E+02  0.45594000000E+02  0.51100000000E-03 0. -1.
         23    2    1    2    0    0  0.00000000000E+00  0.00000000000E+00  0.00000000000E+00  0.91188000000E+02  0.91188000000E+02 0.  0.
    9900012    2    3    3    0    0  0.10963933149E+02 -0.60220824311E+01  0.34631014587E+02  0.54367075538E+02  0.39999980305E+02 0.  0.
         12    1    3    3    0    0 -0.10963933149E+02  0.60220824311E+01 -0.34631014587E+02  0.36820924462E+02  0.00000000000E+00 0. -1.
         11    1    4    4    0    0  0.21329660056E+02  0.39227561235E+01  0.17895533795E+02  0.28117477550E+02  0.51100000000E-03 0. -1.
        -11    1    4    4    0    0 -0.12571466890E+01 -0.61783973797E+01  0.14960016354E+02  0.16234380233E+02  0.51100000000E-03 0.  1.
         12    1    4    4    0    0 -0.91085802181E+01 -0.37664411749E+01  0.17754644376E+01  0.10015217755E+02  0.00000000000E+00 0. -1.
</event>
<event>
 8    1  0.1229038E-006  0.9118800E+02  0.7816164E-02  0.1184000E+00
        -11   -1    0    0    0    0  0.00000000000E+00  0.00000000000E+00  0.45593999997E+02  0.45594000000E+02  0.51100000000E-03 0.  1.
         11   -1    0    0    0    0 -0.00000000000E+00 -0.00000000000E+00 -0.45593999997E+02  0.45594000000E+02  0.51100000000E-03 0. -1.
         23    2    1    2    0    0  0.00000000000E+00  0.00000000000E+00  0.00000000000E+00  0.91188000000E+02  0.91188000000E+02 0.  0.
    9900012    2    3    3    0    0  0.66914442526E+01 -0.12808499002E+02 -0.33866594359E+02  0.54367091722E+02  0.40000017200E+02 0.  0.
        -12    1    3    3    0    0 -0.66914442526E+01  0.12808499002E+02  0.33866594359E+02  0.36820908278E+02  0.00000000000E+00 0.  1.
         11    1    4    4    0    0 -0.91043963123E+00 -0.21034356935E+02 -0.16185847282E+02  0.26556632401E+02  0.51100000000E-03 0. -1.
        -11    1    4    4    0    0  0.36781979672E+01  0.11995718485E+02 -0.41318648043E+01  0.13209795959E+02  0.51100000000E-03 0.  1.
        -12    1    4    4    0    0  0.39236859166E+01 -0.37698605525E+01 -0.13548882273E+02  0.14600663362E+02  0.00000000000E+00 0.  1.
</event>
<event>
 8    1  0.1229038E-006  0.9118800E+02  0.7816164E-02  0.1184000E+00
        -11   -1    0    0    0    0  0.00000000000E+00  0.00000000000E+00  0.45593999997E+02  0.45594000000E+02  0.51100000000E-03 0. -1.
         11   -1    0    0    0    0 -0.00000000000E+00 -0.00000000000E+00 -0.45593999997E+02  0.45594000000E+02  0.51100000000E-03 0.  1.
         23    2    1    2    0    0 -0.35527136788E-14 -0.35527136788E-14  0.36082248300E-15  0.91188000000E+02  0.91188000000E+02 0.  0.
    9900012    2    3    3    0    0 -0.23824636116E+02  0.28074021579E+02  0.10321852867E+00  0.54367154983E+02  0.40000161415E+02 0.  0.
         12    1    3    3    0    0  0.23824636116E+02 -0.28074021579E+02 -0.10321852867E+00  0.36820845017E+02  0.00000000000E+00 0. -1.
         11    1    4    4    0    0 -0.48193554646E+01  0.24651098021E+01 -0.10657575328E+02  0.11953529419E+02  0.51100000000E-03 0. -1.
        -11    1    4    4    0    0 -0.12378502651E+02  0.23561432973E+02 -0.32176982990E+01  0.26808991667E+02  0.51100000000E-03 0.  1.
         12    1    4    4    0    0 -0.66267780000E+01  0.20474788042E+01  0.13978492156E+02  0.15604633897E+02  0.00000000000E+00 0. -1.
</event>
<event>
 8    1  0.1229038E-006  0.9118800E+02  0.7816164E-02  0.1184000E+00
        -11   -1    0    0    0    0  0.00000000000E+00  0.00000000000E+00  0.45593999997E+02  0.45594000000E+02  0.51100000000E-03 0.  1.
         11   -1    0    0    0    0 -0.00000000000E+00 -0.00000000000E+00 -0.45593999997E+02  0.45594000000E+02  0.51100000000E-03 0. -1.
         23    2    1    2    0    0 -0.17763568394E-14 -0.35527136788E-14  0.00000000000E+00  0.91188000000E+02  0.91188000000E+02 0.  0.
    9900012    2    3    3    0    0  0.15206760250E+02  0.13800075304E+02  0.30562977203E+02  0.54367038426E+02  0.39999895699E+02 0.  0.
         12    1    3    3    0    0 -0.15206760250E+02 -0.13800075304E+02 -0.30562977203E+02  0.36820961574E+02  0.00000000000E+00 0. -1.
         11    1    4    4    0    0  0.49784276663E+01  0.22062219431E+02  0.16835424589E+02  0.28194995825E+02  0.51100000000E-03 0. -1.
        -11    1    4    4    0    0 -0.35527004640E+01 -0.71257911636E-02  0.86069517859E+01  0.93113560060E+01  0.51100000000E-03 0.  1.
        -12    1    4    4    0    0  0.13781033048E+02 -0.82550183356E+01  0.51206008287E+01  0.16860686594E+02  0.00000000000E+00 0.  1.
</event>
<event>
 8    1  0.1229038E-006  0.9118800E+02  0.7816164E-02  0.1184000E+00
        -11   -1    0    0    0    0  0.00000000000E+00  0.00000000000E+00  0.45593999997E+02  0.45594000000E+02  0.51100000000E-03 0. -1.
         11   -1    0    0    0    0 -0.00000000000E+00 -0.00000000000E+00 -0.45593999997E+02  0.45594000000E+02  0.51100000000E-03 0.  1.
         23    2    1    2    0    0  0.10658141036E-13  0.00000000000E+00  0.35527136788E-14  0.91188000000E+02  0.91188000000E+02 0.  0.
    9900012    2    3    3    0    0  0.29539357345E+02 -0.11253069498E+02  0.18883192761E+02  0.54367079665E+02  0.39999989711E+02 0.  0.
         12    1    3    3    0    0 -0.29539357345E+02  0.11253069498E+02 -0.18883192761E+02  0.36820920335E+02  0.00000000000E+00 0. -1.
         11    1    4    4    0    0 -0.69473894812E+01  0.56065925736E+01  0.55851377909E+01  0.10530615618E+02  0.51100000000E-03 0. -1.
        -11    1    4    4    0    0  0.10213890636E+02 -0.40226604018E+01 -0.14735307721E+01  0.11075949252E+02  0.51100000000E-03 0.  1.
         12    1    4    4    0    0  0.26272856190E+02 -0.12837001670E+02  0.14771585743E+02  0.32760514795E+02  0.00000000000E+00 0. -1.
</event>
<event>
 8    1  0.1229038E-006  0.9118800E+02  0.7816164E-02  0.1184000E+00
        -11   -1    0    0    0    0  0.00000000000E+00  0.00000000000E+00  0.45593999997E+02  0.45594000000E+02  0.51100000000E-03 0. -1.
         11   -1    0    0    0    0 -0.00000000000E+00 -0.00000000000E+00 -0.45593999997E+02  0.45594000000E+02  0.51100000000E-03 0.  1.
         23    2    1    2    0    0  0.88817841970E-15 -0.11102230246E-15  0.00000000000E+00  0.91188000000E+02  0.91188000000E+02 0.  0.
    9900012    2    3    3    0    0 -0.46599011224E+01 -0.38858897552E+00  0.36522825642E+02  0.54367048454E+02  0.39999918562E+02 0.  0.
        -12    1    3    3    0    0  0.46599011224E+01  0.38858897552E+00 -0.36522825642E+02  0.36820951546E+02  0.00000000000E+00 0.  1.
         11    1    4    4    0    0  0.12669210029E+01 -0.50815159891E+01 -0.60065955512E+01  0.79690704572E+01  0.51100000000E-03 0. -1.
        -11    1    4    4    0    0 -0.96064610579E+01  0.72832335485E+01  0.38549623481E+02  0.40390630792E+02  0.51100000000E-03 0.  1.
        -12    1    4    4    0    0  0.36796389326E+01 -0.25903065349E+01  0.39797977122E+01  0.60073472057E+01  0.00000000000E+00 0.  1.
</event>
<event>
 8    1  0.1229038E-006  0.9118800E+02  0.7816164E-02  0.1184000E+00
        -11   -1    0    0    0    0  0.00000000000E+00  0.00000000000E+00  0.45593999997E+02  0.45594000000E+02  0.51100000000E-03 0. -1.
         11   -1    0    0    0    0 -0.00000000000E+00 -0.00000000000E+00 -0.45593999997E+02  0.45594000000E+02  0.51100000000E-03 0.  1.
         23    2    1    2    0    0  0.44408920985E-15  0.00000000000E+00  0.00000000000E+00  0.91188000000E+02  0.91188000000E+02 0.  0.
    9900012    2    3    3    0    0  0.27480350186E+01  0.21092341877E+02  0.30055686378E+02  0.54367043115E+02  0.39999906389E+02 0.  0.
        -12    1    3    3    0    0 -0.27480350186E+01 -0.21092341877E+02 -0.30055686378E+02  0.36820956885E+02  0.00000000000E+00 0.  1.
         11    1    4    4    0    0 -0.50357714458E+01  0.30258195545E-02  0.22562216442E+02  0.23117366075E+02  0.51100000000E-03 0.  1.
        -11    1    4    4    0    0 -0.16874143199E+01 -0.39629211974E+00  0.75731828073E+01  0.77690097583E+01  0.51100000000E-03 0. -1.
        -12    1    4    4    0    0  0.94712207842E+01  0.21485608177E+02 -0.79712871212E-01  0.23480667282E+02  0.00000000000E+00 0.  1.
</event>
<event>
 8    1  0.1229038E-006  0.9118800E+02  0.7816164E-02  0.1184000E+00
        -11   -1    0    0    0    0  0.00000000000E+00  0.00000000000E+00  0.45593999997E+02  0.45594000000E+02  0.51100000000E-03 0.  1.
         11   -1    0    0    0    0 -0.00000000000E+00 -0.00000000000E+00 -0.45593999997E+02  0.45594000000E+02  0.51100000000E-03 0. -1.
         23    2    1    2    0    0 -0.88817841970E-15  0.00000000000E+00 -0.17763568394E-14  0.91188000000E+02  0.91188000000E+02 0.  0.
    9900012    2    3    3    0    0  0.69410965744E+01 -0.33329187064E+02  0.14027343844E+02  0.54367083290E+02  0.39999997977E+02 0.  0.
         12    1    3    3    0    0 -0.69410965744E+01  0.33329187064E+02 -0.14027343844E+02  0.36820916710E+02  0.00000000000E+00 0. -1.
         11    1    4    4    0    0  0.90024997321E+01 -0.20060465130E+01  0.10077739461E+02  0.13661261177E+02  0.51100000000E-03 0. -1.
        -11    1    4    4    0    0 -0.46321242929E+00 -0.13548671529E+02  0.14599865057E+02  0.19923281002E+02  0.51100000000E-03 0.  1.
        -12    1    4    4    0    0 -0.15981907285E+01 -0.17774469022E+02 -0.10650260673E+02  0.20782541111E+02  0.00000000000E+00 0.  1.
</event>
<event>
 8    1  0.1229038E-006  0.9118800E+02  0.7816164E-02  0.1184000E+00
        -11   -1    0    0    0    0  0.00000000000E+00  0.00000000000E+00  0.45593999997E+02  0.45594000000E+02  0.51100000000E-03 0.  1.
         11   -1    0    0    0    0 -0.00000000000E+00 -0.00000000000E+00 -0.45593999997E+02  0.45594000000E+02  0.51100000000E-03 0. -1.
         23    2    1    2    0    0  0.88817841970E-15 -0.35527136788E-14 -0.35527136788E-14  0.91188000000E+02  0.91188000000E+02 0.  0.
    9900012    2    3    3    0    0 -0.72832364359E+01 -0.27351326956E+02 -0.23550778687E+02  0.54367084803E+02  0.40000001425E+02 0.  0.
        -12    1    3    3    0    0  0.72832364359E+01  0.27351326956E+02  0.23550778687E+02  0.36820915197E+02  0.00000000000E+00 0.  1.
         11    1    4    4    0    0 -0.10918102522E+02 -0.27285536775E+02 -0.25005597394E+02  0.38587373338E+02  0.51100000000E-03 0. -1.
        -11    1    4    4    0    0  0.54834563327E+01 -0.40827125108E+01 -0.46308321414E+01  0.82572054220E+01  0.51100000000E-03 0.  1.
        -12    1    4    4    0    0 -0.18485902462E+01  0.40169223306E+01  0.60856508488E+01  0.75225060427E+01  0.00000000000E+00 0.  1.
</event>
<event>
 8    1  0.1229038E-006  0.9118800E+02  0.7816164E-02  0.1184000E+00
        -11   -1    0    0    0    0  0.00000000000E+00  0.00000000000E+00  0.45593999997E+02  0.45594000000E+02  0.51100000000E-03 0.  1.
         11   -1    0    0    0    0 -0.00000000000E+00 -0.00000000000E+00 -0.45593999997E+02  0.45594000000E+02  0.51100000000E-03 0. -1.
         23    2    1    2    0    0  0.00000000000E+00  0.35527136788E-14  0.35527136788E-14  0.91188000000E+02  0.91188000000E+02 0.  0.
    9900012    2    3    3    0    0  0.13784886043E+02 -0.23555231241E+02  0.24716550651E+02  0.54367083688E+02  0.39999998883E+02 0.  0.
         12    1    3    3    0    0 -0.13784886043E+02  0.23555231241E+02 -0.24716550651E+02  0.36820916312E+02  0.00000000000E+00 0. -1.
         11    1    4    4    0    0 -0.76740136476E+00 -0.55672406448E+01 -0.54864942563E+01  0.78539603218E+01  0.51100000000E-03 0. -1.
        -11    1    4    4    0    0  0.13773612652E+02  0.21807823201E+01  0.65142601431E+01  0.15391679651E+02  0.51100000000E-03 0.  1.
         12    1    4    4    0    0  0.77867475556E+00 -0.20168772916E+02  0.23688784764E+02  0.31121443715E+02  0.00000000000E+00 0. -1.
</event>
<event>
 8    1  0.1229038E-006  0.9118800E+02  0.7816164E-02  0.1184000E+00
        -11   -1    0    0    0    0  0.00000000000E+00  0.00000000000E+00  0.45593999997E+02  0.45594000000E+02  0.51100000000E-03 0. -1.
         11   -1    0    0    0    0 -0.00000000000E+00 -0.00000000000E+00 -0.45593999997E+02  0.45594000000E+02  0.51100000000E-03 0.  1.
         23    2    1    2    0    0  0.35527136788E-14 -0.88817841970E-15 -0.35527136788E-14  0.91188000000E+02  0.91188000000E+02 0.  0.
    9900012    2    3    3    0    0 -0.18238567164E+02  0.27679978972E+01  0.31866497630E+02  0.54367070955E+02  0.39999969856E+02 0.  0.
        -12    1    3    3    0    0  0.18238567164E+02 -0.27679978972E+01 -0.31866497630E+02  0.36820929045E+02  0.00000000000E+00 0.  1.
         11    1    4    4    0    0 -0.52489137427E+01  0.47819356010E+01  0.20630468368E+02  0.21818208655E+02  0.51100000000E-03 0. -1.
        -11    1    4    4    0    0  0.60485981717E+01 -0.84638520964E+01  0.30104629564E+01  0.10829830083E+02  0.51100000000E-03 0.  1.
         12    1    4    4    0    0 -0.19038251593E+02  0.64499143926E+01  0.82255663057E+01  0.21719032217E+02  0.00000000000E+00 0. -1.
</event>
<event>
 8    1  0.1229038E-006  0.9118800E+02  0.7816164E-02  0.1184000E+00
        -11   -1    0    0    0    0  0.00000000000E+00  0.00000000000E+00  0.45593999997E+02  0.45594000000E+02  0.51100000000E-03 0.  1.
         11   -1    0    0    0    0 -0.00000000000E+00 -0.00000000000E+00 -0.45593999997E+02  0.45594000000E+02  0.51100000000E-03 0. -1.
         23    2    1    2    0    0 -0.35527136788E-14  0.00000000000E+00  0.00000000000E+00  0.91188000000E+02  0.91188000000E+02 0.  0.
    9900012    2    3    3    0    0  0.19614573027E+02 -0.27445791646E+02 -0.14757261481E+02  0.54367085827E+02  0.40000003760E+02 0.  0.
         12    1    3    3    0    0 -0.19614573027E+02  0.27445791646E+02  0.14757261481E+02  0.36820914173E+02  0.00000000000E+00 0. -1.
         11    1    4    4    0    0 -0.17002183840E+01 -0.90308304275E+01  0.64635253257E+01  0.11234936611E+02  0.51100000000E-03 0. -1.
        -11    1    4    4    0    0 -0.45410777421E+01 -0.68212968507E+01 -0.92871817223E+01  0.12385605451E+02  0.51100000000E-03 0.  1.
        -12    1    4    4    0    0  0.25855869153E+02 -0.11593664368E+02 -0.11933605084E+02  0.30746543765E+02  0.00000000000E+00 0.  1.
</event>
<event>
 8    1  0.1229038E-006  0.9118800E+02  0.7816164E-02  0.1184000E+00
        -11   -1    0    0    0    0  0.00000000000E+00  0.00000000000E+00  0.45593999997E+02  0.45594000000E+02  0.51100000000E-03 0.  1.
         11   -1    0    0    0    0 -0.00000000000E+00 -0.00000000000E+00 -0.45593999997E+02  0.45594000000E+02  0.51100000000E-03 0. -1.
         23    2    1    2    0    0  0.00000000000E+00 -0.35527136788E-14  0.00000000000E+00  0.91188000000E+02  0.91188000000E+02 0.  0.
    9900012    2    3    3    0    0  0.20368020570E+02 -0.24545010283E+02 -0.18397426093E+02  0.54367094545E+02  0.40000023634E+02 0.  0.
        -12    1    3    3    0    0 -0.20368020570E+02  0.24545010283E+02  0.18397426093E+02  0.36820905455E+02  0.00000000000E+00 0.  1.
         11    1    4    4    0    0  0.22206961149E+01 -0.26414816243E+02 -0.15844125245E+02  0.30882200593E+02  0.51100000000E-03 0. -1.
        -11    1    4    4    0    0  0.32338291697E+01  0.90314336111E+00  0.55485020757E+01  0.64853060509E+01  0.51100000000E-03 0.  1.
         12    1    4    4    0    0  0.14913495285E+02  0.96666259946E+00 -0.81018029233E+01  0.16999587901E+02  0.00000000000E+00 0. -1.
</event>
<event>
 8    1  0.1229038E-006  0.9118800E+02  0.7816164E-02  0.1184000E+00
        -11   -1    0    0    0    0  0.00000000000E+00  0.00000000000E+00  0.45593999997E+02  0.45594000000E+02  0.51100000000E-03 0. -1.
         11   -1    0    0    0    0 -0.00000000000E+00 -0.00000000000E+00 -0.45593999997E+02  0.45594000000E+02  0.51100000000E-03 0.  1.
         23    2    1    2    0    0  0.00000000000E+00 -0.35527136788E-14 -0.13322676296E-14  0.91188000000E+02  0.91188000000E+02 0.  0.
    9900012    2    3    3    0    0  0.21963171198E+02 -0.29423067387E+02  0.27716537413E+01  0.54367084097E+02  0.39999999815E+02 0.  0.
        -12    1    3    3    0    0 -0.21963171198E+02  0.29423067387E+02 -0.27716537413E+01  0.36820915903E+02  0.00000000000E+00 0.  1.
         11    1    4    4    0    0 -0.16372774503E+01 -0.76895335824E+01  0.62947988412E+01  0.10071449592E+02  0.51100000000E-03 0. -1.
        -11    1    4    4    0    0  0.31855187843E+01  0.41687545686E+01  0.78219803332E+01  0.94185678939E+01  0.51100000000E-03 0.  1.
         12    1    4    4    0    0  0.20414929864E+02 -0.25902288373E+02 -0.11345125433E+02  0.34877066611E+02  0.00000000000E+00 0. -1.
</event>
<event>
 8    1  0.1229038E-006  0.9118800E+02  0.7816164E-02  0.1184000E+00
        -11   -1    0    0    0    0  0.00000000000E+00  0.00000000000E+00  0.45593999997E+02  0.45594000000E+02  0.51100000000E-03 0.  1.
         11   -1    0    0    0    0 -0.00000000000E+00 -0.00000000000E+00 -0.45593999997E+02  0.45594000000E+02  0.51100000000E-03 0. -1.
         23    2    1    2    0    0 -0.66613381478E-15  0.00000000000E+00  0.00000000000E+00  0.91188000000E+02  0.91188000000E+02 0.  0.
    9900012    2    3    3    0    0  0.68801526393E+00  0.36446229594E+02 -0.51946855031E+01  0.54367003625E+02  0.39999816363E+02 0.  0.
        -12    1    3    3    0    0 -0.68801526393E+00 -0.36446229594E+02  0.51946855031E+01  0.36820996375E+02  0.00000000000E+00 0.  1.
         11    1    4    4    0    0  0.13821010023E+02  0.99373348996E+01  0.93765920435E+01  0.19434284694E+02  0.51100000000E-03 0.  1.
        -11    1    4    4    0    0 -0.35341778179E+01  0.19268549993E+02 -0.74502672469E+01  0.20958862422E+02  0.51100000000E-03 0. -1.
        -12    1    4    4    0    0 -0.95988169410E+01  0.72403447005E+01 -0.71210102997E+01  0.13973856509E+02  0.00000000000E+00 0.  1.
</event>
<event>
 8    1  0.1229038E-006  0.9118800E+02  0.7816164E-02  0.1184000E+00
        -11   -1    0    0    0    0  0.00000000000E+00  0.00000000000E+00  0.45593999997E+02  0.45594000000E+02  0.51100000000E-03 0.  1.
         11   -1    0    0    0    0 -0.00000000000E+00 -0.00000000000E+00 -0.45593999997E+02  0.45594000000E+02  0.51100000000E-03 0. -1.
         23    2    1    2    0    0  0.35527136788E-14  0.00000000000E+00  0.00000000000E+00  0.91188000000E+02  0.91188000000E+02 0.  0.
    9900012    2    3    3    0    0  0.27688220072E+02 -0.22599152265E+02  0.88556513268E+01  0.54367057939E+02  0.39999940183E+02 0.  0.
         12    1    3    3    0    0 -0.27688220072E+02  0.22599152265E+02 -0.88556513268E+01  0.36820942061E+02  0.00000000000E+00 0. -1.
         11    1    4    4    0    0  0.10274065271E+02  0.38966163243E+01  0.73590341013E+01  0.13224803180E+02  0.51100000000E-03 0. -1.
        -11    1    4    4    0    0  0.11051730858E+02 -0.29239785716E+02  0.73048993219E+01  0.32100893727E+02  0.51100000000E-03 0.  1.
        -12    1    4    4    0    0  0.63624239427E+01  0.27440171266E+01 -0.58082820964E+01  0.90413610330E+01  0.00000000000E+00 0.  1.
</event>
<event>
 8    1  0.1229038E-006  0.9118800E+02  0.7816164E-02  0.1184000E+00
        -11   -1    0    0    0    0  0.00000000000E+00  0.00000000000E+00  0.45593999997E+02  0.45594000000E+02  0.51100000000E-03 0. -1.
         11   -1    0    0    0    0 -0.00000000000E+00 -0.00000000000E+00 -0.45593999997E+02  0.45594000000E+02  0.51100000000E-03 0.  1.
         23    2    1    2    0    0  0.00000000000E+00  0.00000000000E+00  0.00000000000E+00  0.91188000000E+02  0.91188000000E+02 0.  0.
    9900012    2    3    3    0    0 -0.21327342342E+02  0.20312352530E+02 -0.22098237514E+02  0.54367091566E+02  0.40000016844E+02 0.  0.
         12    1    3    3    0    0  0.21327342342E+02 -0.20312352530E+02  0.22098237514E+02  0.36820908434E+02  0.00000000000E+00 0. -1.
         11    1    4    4    0    0 -0.54020008370E+00 -0.14250913227E+01  0.36665608547E+01  0.39706888786E+01  0.51100000000E-03 0. -1.
        -11    1    4    4    0    0 -0.24032318218E+02  0.43842748372E+01 -0.89522955673E+01  0.26017643648E+02  0.51100000000E-03 0.  1.
         12    1    4    4    0    0  0.32451759602E+01  0.17353169015E+02 -0.16812502802E+02  0.24378759040E+02  0.00000000000E+00 0. -1.
</event>
<event>
 8    1  0.1229038E-006  0.9118800E+02  0.7816164E-02  0.1184000E+00
        -11   -1    0    0    0    0  0.00000000000E+00  0.00000000000E+00  0.45593999997E+02  0.45594000000E+02  0.51100000000E-03 0.  1.
         11   -1    0    0    0    0 -0.00000000000E+00 -0.00000000000E+00 -0.45593999997E+02  0.45594000000E+02  0.51100000000E-03 0. -1.
         23    2    1    2    0    0  0.35527136788E-14  0.00000000000E+00  0.00000000000E+00  0.91188000000E+02  0.91188000000E+02 0.  0.
    9900012    2    3    3    0    0 -0.25272816748E+02  0.12916251907E+02 -0.23457077705E+02  0.54367091209E+02  0.40000016030E+02 0.  0.
        -12    1    3    3    0    0  0.25272816748E+02 -0.12916251907E+02  0.23457077705E+02  0.36820908791E+02  0.00000000000E+00 0.  1.
         11    1    4    4    0    0 -0.19813001747E+02 -0.10100617278E+02 -0.16317263184E+02  0.27583157646E+02  0.51100000000E-03 0. -1.
        -11    1    4    4    0    0  0.20062933950E+01  0.77107360258E+01  0.77400351458E+00  0.80049825077E+01  0.51100000000E-03 0.  1.
        -12    1    4    4    0    0 -0.74661083955E+01  0.15306133159E+02 -0.79138180356E+01  0.18778951056E+02  0.00000000000E+00 0.  1.
</event>
<event>
 8    1  0.1229038E-006  0.9118800E+02  0.7816164E-02  0.1184000E+00
        -11   -1    0    0    0    0  0.00000000000E+00  0.00000000000E+00  0.45593999997E+02  0.45594000000E+02  0.51100000000E-03 0.  1.
         11   -1    0    0    0    0 -0.00000000000E+00 -0.00000000000E+00 -0.45593999997E+02  0.45594000000E+02  0.51100000000E-03 0. -1.
         23    2    1    2    0    0  0.00000000000E+00  0.35527136788E-14  0.00000000000E+00  0.91188000000E+02  0.91188000000E+02 0.  0.
    9900012    2    3    3    0    0 -0.21286275102E+02 -0.23078417938E+02 -0.19237010586E+02  0.54367062227E+02  0.39999949958E+02 0.  0.
        -12    1    3    3    0    0  0.21286275102E+02  0.23078417938E+02  0.19237010586E+02  0.36820937773E+02  0.00000000000E+00 0.  1.
         11    1    4    4    0    0 -0.22028620682E+02 -0.27932549967E+02 -0.19362763125E+02  0.40501902090E+02  0.51100000000E-03 0. -1.
        -11    1    4    4    0    0  0.12659036965E+01 -0.42469192397E+01  0.14292305937E+01  0.46563435814E+01  0.51100000000E-03 0.  1.
        -12    1    4    4    0    0 -0.52355811596E+00  0.91010512690E+01 -0.13034780546E+01  0.92088165548E+01  0.00000000000E+00 0.  1.
</event>
<event>
 8    1  0.1229038E-006  0.9118800E+02  0.7816164E-02  0.1184000E+00
        -11   -1    0    0    0    0  0.00000000000E+00  0.00000000000E+00  0.45593999997E+02  0.45594000000E+02  0.51100000000E-03 0. -1.
         11   -1    0    0    0    0 -0.00000000000E+00 -0.00000000000E+00 -0.45593999997E+02  0.45594000000E+02  0.51100000000E-03 0.  1.
         23    2    1    2    0    0 -0.71054273576E-14  0.35527136788E-14  0.88817841970E-15  0.91188000000E+02  0.91188000000E+02 0.  0.
    9900012    2    3    3    0    0  0.28257820214E+02 -0.22916740453E+02 -0.56655140311E+01  0.54367089562E+02  0.40000012274E+02 0.  0.
         12    1    3    3    0    0 -0.28257820214E+02  0.22916740453E+02  0.56655140311E+01  0.36820910438E+02  0.00000000000E+00 0. -1.
         11    1    4    4    0    0  0.15308523951E+01 -0.97762052568E+01  0.56619804230E+01  0.11400689490E+02  0.51100000000E-03 0. -1.
        -11    1    4    4    0    0  0.64857048566E+01 -0.18217100951E+02 -0.24666814129E+00  0.19338768833E+02  0.51100000000E-03 0.  1.
        -12    1    4    4    0    0  0.20241262963E+02  0.50765657543E+01 -0.11080826313E+02  0.23627631239E+02  0.00000000000E+00 0.  1.
</event>
<event>
 8    1  0.1229038E-006  0.9118800E+02  0.7816164E-02  0.1184000E+00
        -11   -1    0    0    0    0  0.00000000000E+00  0.00000000000E+00  0.45593999997E+02  0.45594000000E+02  0.51100000000E-03 0. -1.
         11   -1    0    0    0    0 -0.00000000000E+00 -0.00000000000E+00 -0.45593999997E+02  0.45594000000E+02  0.51100000000E-03 0.  1.
         23    2    1    2    0    0  0.88817841970E-15  0.88817841970E-15  0.00000000000E+00  0.91188000000E+02  0.91188000000E+02 0.  0.
    9900012    2    3    3    0    0  0.26583897783E+01  0.47441682854E+01  0.36417121061E+02  0.54367070146E+02  0.39999968012E+02 0.  0.
        -12    1    3    3    0    0 -0.26583897783E+01 -0.47441682854E+01 -0.36417121061E+02  0.36820929854E+02  0.00000000000E+00 0.  1.
         11    1    4    4    0    0  0.79246290903E+01  0.75255827706E+01  0.23161724014E+02  0.25610536930E+02  0.51100000000E-03 0. -1.
        -11    1    4    4    0    0  0.82549050380E+01 -0.66600019539E+01  0.93970637046E+01  0.14170528915E+02  0.51100000000E-03 0.  1.
         12    1    4    4    0    0 -0.13521144350E+02  0.38785874687E+01  0.38583333423E+01  0.14586004301E+02  0.00000000000E+00 0. -1.
</event>
<event>
 8    1  0.1229038E-006  0.9118800E+02  0.7816164E-02  0.1184000E+00
        -11   -1    0    0    0    0  0.00000000000E+00  0.00000000000E+00  0.45593999997E+02  0.45594000000E+02  0.51100000000E-03 0.  1.
         11   -1    0    0    0    0 -0.00000000000E+00 -0.00000000000E+00 -0.45593999997E+02  0.45594000000E+02  0.51100000000E-03 0. -1.
         23    2    1    2    0    0 -0.35527136788E-14  0.17763568394E-14  0.00000000000E+00  0.91188000000E+02  0.91188000000E+02 0.  0.
    9900012    2    3    3    0    0 -0.28402612311E+02  0.89241886401E+01  0.21666347494E+02  0.54367080095E+02  0.39999990692E+02 0.  0.
         12    1    3    3    0    0  0.28402612311E+02 -0.89241886401E+01 -0.21666347494E+02  0.36820919905E+02  0.00000000000E+00 0. -1.
         11    1    4    4    0    0  0.37557328546E+01 -0.37296733606E+01  0.37486936303E+01  0.64860386097E+01  0.51100000000E-03 0. -1.
        -11    1    4    4    0    0 -0.22229532826E+01 -0.72738280179E+01  0.69002849268E+01  0.10269568037E+02  0.51100000000E-03 0.  1.
        -12    1    4    4    0    0 -0.29935391883E+02  0.19927690019E+02  0.11017368937E+02  0.37611473448E+02  0.00000000000E+00 0.  1.
</event>
<event>
 8    1  0.1229038E-006  0.9118800E+02  0.7816164E-02  0.1184000E+00
        -11   -1    0    0    0    0  0.00000000000E+00  0.00000000000E+00  0.45593999997E+02  0.45594000000E+02  0.51100000000E-03 0.  1.
         11   -1    0    0    0    0 -0.00000000000E+00 -0.00000000000E+00 -0.45593999997E+02  0.45594000000E+02  0.51100000000E-03 0. -1.
         23    2    1    2    0    0  0.88817841970E-15  0.35527136788E-14  0.00000000000E+00  0.91188000000E+02  0.91188000000E+02 0.  0.
    9900012    2    3    3    0    0  0.62382412697E+01 -0.22962719497E+02  0.28099426203E+02  0.54367083474E+02  0.39999998396E+02 0.  0.
         12    1    3    3    0    0 -0.62382412697E+01  0.22962719497E+02 -0.28099426203E+02  0.36820916526E+02  0.00000000000E+00 0. -1.
         11    1    4    4    0    0  0.63622981644E+01 -0.72822920568E-02  0.40632516556E+01  0.75490996312E+01  0.51100000000E-03 0.  1.
        -11    1    4    4    0    0  0.14949478465E+02 -0.18824291017E+02  0.18134480386E+02  0.30111463229E+02  0.51100000000E-03 0. -1.
         12    1    4    4    0    0 -0.15073535359E+02 -0.41311461885E+01  0.59016941620E+01  0.16706520614E+02  0.00000000000E+00 0. -1.
</event>
<event>
 8    1  0.1229038E-006  0.9118800E+02  0.7816164E-02  0.1184000E+00
        -11   -1    0    0    0    0  0.00000000000E+00  0.00000000000E+00  0.45593999997E+02  0.45594000000E+02  0.51100000000E-03 0. -1.
         11   -1    0    0    0    0 -0.00000000000E+00 -0.00000000000E+00 -0.45593999997E+02  0.45594000000E+02  0.51100000000E-03 0.  1.
         23    2    1    2    0    0 -0.35527136788E-14 -0.35527136788E-14 -0.88817841970E-15  0.91188000000E+02  0.91188000000E+02 0.  0.
    9900012    2    3    3    0    0  0.23226775091E+02  0.27499489557E+02  0.77507705270E+01  0.54367089490E+02  0.40000012110E+02 0.  0.
        -12    1    3    3    0    0 -0.23226775091E+02 -0.27499489557E+02 -0.77507705270E+01  0.36820910510E+02  0.00000000000E+00 0.  1.
         11    1    4    4    0    0 -0.41736884503E+01  0.59740008999E+01 -0.13181924698E+00  0.72887405364E+01  0.51100000000E-03 0. -1.
        -11    1    4    4    0    0  0.74678391879E+01  0.51780776808E+01  0.17374550187E+02  0.19607552246E+02  0.51100000000E-03 0.  1.
         12    1    4    4    0    0  0.19932624353E+02  0.16347410977E+02 -0.94919604133E+01  0.27470796707E+02  0.00000000000E+00 0. -1.
</event>
<event>
 8    1  0.1229038E-006  0.9118800E+02  0.7816164E-02  0.1184000E+00
        -11   -1    0    0    0    0  0.00000000000E+00  0.00000000000E+00  0.45593999997E+02  0.45594000000E+02  0.51100000000E-03 0.  1.
         11   -1    0    0    0    0 -0.00000000000E+00 -0.00000000000E+00 -0.45593999997E+02  0.45594000000E+02  0.51100000000E-03 0. -1.
         23    2    1    2    0    0  0.00000000000E+00  0.88817841970E-15  0.00000000000E+00  0.91188000000E+02  0.91188000000E+02 0.  0.
    9900012    2    3    3    0    0 -0.35106539094E+02  0.35228583319E+01  0.10530932470E+02  0.54367079905E+02  0.39999990258E+02 0.  0.
         12    1    3    3    0    0  0.35106539094E+02 -0.35228583319E+01 -0.10530932470E+02  0.36820920095E+02  0.00000000000E+00 0. -1.
         11    1    4    4    0    0 -0.10330556222E+01  0.17022995458E+01 -0.52483537010E+01  0.56133986581E+01  0.51100000000E-03 0. -1.
        -11    1    4    4    0    0 -0.34664758602E+02 -0.83074472639E+01  0.14673698919E+02  0.38548367140E+02  0.51100000000E-03 0.  1.
        -12    1    4    4    0    0  0.59127513023E+00  0.10128006050E+02  0.11055872525E+01  0.10205314106E+02  0.00000000000E+00 0.  1.
</event>
<event>
 8    1  0.1229038E-006  0.9118800E+02  0.7816164E-02  0.1184000E+00
        -11   -1    0    0    0    0  0.00000000000E+00  0.00000000000E+00  0.45593999997E+02  0.45594000000E+02  0.51100000000E-03 0. -1.
         11   -1    0    0    0    0 -0.00000000000E+00 -0.00000000000E+00 -0.45593999997E+02  0.45594000000E+02  0.51100000000E-03 0.  1.
         23    2    1    2    0    0  0.00000000000E+00  0.00000000000E+00  0.00000000000E+00  0.91188000000E+02  0.91188000000E+02 0.  0.
    9900012    2    3    3    0    0  0.30673064632E+02 -0.72550321859E+01  0.19034288667E+02  0.54367129138E+02  0.40000102497E+02 0.  0.
        -12    1    3    3    0    0 -0.30673064632E+02  0.72550321859E+01 -0.19034288667E+02  0.36820870862E+02  0.00000000000E+00 0.  1.
         11    1    4    4    0    0  0.89196826255E+01 -0.30487314644E+01  0.29959260738E+01  0.98909592549E+01  0.51100000000E-03 0. -1.
        -11    1    4    4    0    0  0.19480538303E+01  0.13649686020E+02  0.91117711560E+00  0.13818071000E+02  0.51100000000E-03 0.  1.
        -12    1    4    4    0    0  0.19805328176E+02 -0.17855986741E+02  0.15127185478E+02  0.30658098883E+02  0.00000000000E+00 0.  1.
</event>
<event>
 8    1  0.1229038E-006  0.9118800E+02  0.7816164E-02  0.1184000E+00
        -11   -1    0    0    0    0  0.00000000000E+00  0.00000000000E+00  0.45593999997E+02  0.45594000000E+02  0.51100000000E-03 0.  1.
         11   -1    0    0    0    0 -0.00000000000E+00 -0.00000000000E+00 -0.45593999997E+02  0.45594000000E+02  0.51100000000E-03 0. -1.
         23    2    1    2    0    0  0.17763568394E-14  0.00000000000E+00  0.00000000000E+00  0.91188000000E+02  0.91188000000E+02 0.  0.
    9900012    2    3    3    0    0 -0.13550776377E+02  0.84614829715E+01 -0.33174651271E+02  0.54367112974E+02  0.40000065646E+02 0.  0.
        -12    1    3    3    0    0  0.13550776377E+02 -0.84614829715E+01  0.33174651271E+02  0.36820887026E+02  0.00000000000E+00 0.  1.
         11    1    4    4    0    0  0.32741031095E+00  0.67985085882E+01 -0.39620850971E+01  0.78755974448E+01  0.51100000000E-03 0. -1.
        -11    1    4    4    0    0 -0.12893776293E+02  0.89041510910E+01  0.71386121484E+00  0.15685756973E+02  0.51100000000E-03 0.  1.
        -12    1    4    4    0    0 -0.98441039537E+00 -0.72411767077E+01 -0.29926427388E+02  0.30805758555E+02  0.00000000000E+00 0.  1.
</event>
<event>
 8    1  0.1229038E-006  0.9118800E+02  0.7816164E-02  0.1184000E+00
        -11   -1    0    0    0    0  0.00000000000E+00  0.00000000000E+00  0.45593999997E+02  0.45594000000E+02  0.51100000000E-03 0.  1.
         11   -1    0    0    0    0 -0.00000000000E+00 -0.00000000000E+00 -0.45593999997E+02  0.45594000000E+02  0.51100000000E-03 0. -1.
         23    2    1    2    0    0  0.00000000000E+00 -0.35527136788E-14  0.35527136788E-14  0.91188000000E+02  0.91188000000E+02 0.  0.
    9900012    2    3    3    0    0 -0.22514533457E+02  0.22893583814E+02 -0.18021224915E+02  0.54367014896E+02  0.39999842058E+02 0.  0.
        -12    1    3    3    0    0  0.22514533457E+02 -0.22893583814E+02  0.18021224915E+02  0.36820985104E+02  0.00000000000E+00 0.  1.
         11    1    4    4    0    0 -0.16654939352E+02  0.63903643714E+01 -0.12637290153E+02  0.21861492728E+02  0.51100000000E-03 0. -1.
        -11    1    4    4    0    0  0.61149165650E+01  0.31769810930E+01 -0.11641660900E+02  0.13528254959E+02  0.51100000000E-03 0.  1.
        -12    1    4    4    0    0 -0.11974510669E+02  0.13326238350E+02  0.62577261378E+01  0.18977267209E+02  0.00000000000E+00 0.  1.
</event>
<event>
 8    1  0.1229038E-006  0.9118800E+02  0.7816164E-02  0.1184000E+00
        -11   -1    0    0    0    0  0.00000000000E+00  0.00000000000E+00  0.45593999997E+02  0.45594000000E+02  0.51100000000E-03 0.  1.
         11   -1    0    0    0    0 -0.00000000000E+00 -0.00000000000E+00 -0.45593999997E+02  0.45594000000E+02  0.51100000000E-03 0. -1.
         23    2    1    2    0    0 -0.17763568394E-14 -0.44408920985E-15  0.00000000000E+00  0.91188000000E+02  0.91188000000E+02 0.  0.
    9900012    2    3    3    0    0 -0.15579067004E+02  0.24508454977E+01 -0.33272638496E+02  0.54367048833E+02  0.39999919424E+02 0.  0.
        -12    1    3    3    0    0  0.15579067004E+02 -0.24508454977E+01  0.33272638496E+02  0.36820951167E+02  0.00000000000E+00 0.  1.
         11    1    4    4    0    0 -0.15040535432E+02  0.46337369496E+01 -0.23190992027E+02  0.28026975143E+02  0.51100000000E-03 0. -1.
        -11    1    4    4    0    0 -0.73227324233E+01  0.14566214958E+00 -0.15637212726E+02  0.17267485332E+02  0.51100000000E-03 0.  1.
        -12    1    4    4    0    0  0.67842008516E+01 -0.23285536015E+01  0.55555662567E+01  0.90725883574E+01  0.00000000000E+00 0.  1.
</event>
<event>
 8    1  0.1229038E-006  0.9118800E+02  0.7816164E-02  0.1184000E+00
        -11   -1    0    0    0    0  0.00000000000E+00  0.00000000000E+00  0.45593999997E+02  0.45594000000E+02  0.51100000000E-03 0.  1.
         11   -1    0    0    0    0 -0.00000000000E+00 -0.00000000000E+00 -0.45593999997E+02  0.45594000000E+02  0.51100000000E-03 0. -1.
         23    2    1    2    0    0  0.00000000000E+00 -0.88817841970E-15  0.00000000000E+00  0.91188000000E+02  0.91188000000E+02 0.  0.
    9900012    2    3    3    0    0 -0.25987109205E+02 -0.34544876497E+01  0.25855610431E+02  0.54367137429E+02  0.40000121396E+02 0.  0.
         12    1    3    3    0    0  0.25987109205E+02  0.34544876497E+01 -0.25855610431E+02  0.36820862571E+02  0.00000000000E+00 0. -1.
         11    1    4    4    0    0 -0.47046960861E+01 -0.30127424196E+01 -0.75390043442E+00  0.56372997326E+01  0.51100000000E-03 0. -1.
        -11    1    4    4    0    0 -0.19153828670E+02 -0.92460893241E+01  0.69741293444E+00  0.21280171653E+02  0.51100000000E-03 0.  1.
        -12    1    4    4    0    0 -0.21285844483E+01  0.88043440940E+01  0.25912097931E+02  0.27449666043E+02  0.00000000000E+00 0.  1.
</event>
<event>
 8    1  0.1229038E-006  0.9118800E+02  0.7816164E-02  0.1184000E+00
        -11   -1    0    0    0    0  0.00000000000E+00  0.00000000000E+00  0.45593999997E+02  0.45594000000E+02  0.51100000000E-03 0. -1.
         11   -1    0    0    0    0 -0.00000000000E+00 -0.00000000000E+00 -0.45593999997E+02  0.45594000000E+02  0.51100000000E-03 0.  1.
         23    2    1    2    0    0  0.00000000000E+00  0.35527136788E-14 -0.35527136788E-14  0.91188000000E+02  0.91188000000E+02 0.  0.
    9900012    2    3    3    0    0  0.51728182760E+01  0.31851903244E+02 -0.17733519003E+02  0.54367089020E+02  0.40000011039E+02 0.  0.
         12    1    3    3    0    0 -0.51728182760E+01 -0.31851903244E+02  0.17733519003E+02  0.36820910980E+02  0.00000000000E+00 0. -1.
         11    1    4    4    0    0  0.69261217189E+01 -0.92712809014E+00 -0.71726495507E+00  0.70246137145E+01  0.51100000000E-03 0.  1.
        -11    1    4    4    0    0  0.20869321849E+00  0.90077937220E+01  0.85191405750E+01  0.12399986169E+02  0.51100000000E-03 0. -1.
        -12    1    4    4    0    0 -0.19619966614E+01  0.23771237612E+02 -0.25535394623E+02  0.34942489136E+02  0.00000000000E+00 0.  1.
</event>
<event>
 8    1  0.1229038E-006  0.9118800E+02  0.7816164E-02  0.1184000E+00
        -11   -1    0    0    0    0  0.00000000000E+00  0.00000000000E+00  0.45593999997E+02  0.45594000000E+02  0.51100000000E-03 0. -1.
         11   -1    0    0    0    0 -0.00000000000E+00 -0.00000000000E+00 -0.45593999997E+02  0.45594000000E+02  0.51100000000E-03 0.  1.
         23    2    1    2    0    0 -0.35527136788E-14  0.00000000000E+00  0.35527136788E-14  0.91188000000E+02  0.91188000000E+02 0.  0.
    9900012    2    3    3    0    0 -0.27284609963E+02  0.14186800364E+01  0.24684358775E+02  0.54367079832E+02  0.39999990092E+02 0.  0.
        -12    1    3    3    0    0  0.27284609963E+02 -0.14186800364E+01 -0.24684358775E+02  0.36820920168E+02  0.00000000000E+00 0.  1.
         11    1    4    4    0    0 -0.22045812872E+01 -0.96967441710E+01 -0.34755168332E+01  0.10534051627E+02  0.51100000000E-03 0.  1.
        -11    1    4    4    0    0 -0.13108374782E+02  0.14835240122E+01  0.17897461558E+01  0.13312908190E+02  0.51100000000E-03 0. -1.
        -12    1    4    4    0    0 -0.11971653895E+02  0.96319001953E+01  0.26370129453E+02  0.30520120014E+02  0.00000000000E+00 0.  1.
</event>
<event>
 8    1  0.1229038E-006  0.9118800E+02  0.7816164E-02  0.1184000E+00
        -11   -1    0    0    0    0  0.00000000000E+00  0.00000000000E+00  0.45593999997E+02  0.45594000000E+02  0.51100000000E-03 0. -1.
         11   -1    0    0    0    0 -0.00000000000E+00 -0.00000000000E+00 -0.45593999997E+02  0.45594000000E+02  0.51100000000E-03 0.  1.
         23    2    1    2    0    0  0.00000000000E+00 -0.88817841970E-15  0.00000000000E+00  0.91188000000E+02  0.91188000000E+02 0.  0.
    9900012    2    3    3    0    0  0.20640814788E+02 -0.62349386611E+01  0.29847251293E+02  0.54367134924E+02  0.40000115685E+02 0.  0.
        -12    1    3    3    0    0 -0.20640814788E+02  0.62349386611E+01 -0.29847251293E+02  0.36820865076E+02  0.00000000000E+00 0.  1.
         11    1    4    4    0    0  0.22553288800E+02 -0.14066482179E+02  0.21710986579E+02  0.34320310241E+02  0.51100000000E-03 0. -1.
        -11    1    4    4    0    0 -0.22921151746E+01  0.79925739126E+01 -0.30473688443E+01  0.88555907119E+01  0.51100000000E-03 0.  1.
         12    1    4    4    0    0  0.37964116273E+00 -0.16103039472E+00  0.11183633559E+02  0.11191233970E+02  0.00000000000E+00 0. -1.
</event>
<event>
 8    1  0.1229038E-006  0.9118800E+02  0.7816164E-02  0.1184000E+00
        -11   -1    0    0    0    0  0.00000000000E+00  0.00000000000E+00  0.45593999997E+02  0.45594000000E+02  0.51100000000E-03 0. -1.
         11   -1    0    0    0    0 -0.00000000000E+00 -0.00000000000E+00 -0.45593999997E+02  0.45594000000E+02  0.51100000000E-03 0.  1.
         23    2    1    2    0    0 -0.17763568394E-14 -0.35527136788E-14  0.00000000000E+00  0.91188000000E+02  0.91188000000E+02 0.  0.
    9900012    2    3    3    0    0  0.57671499782E+01 -0.21845975480E+02  0.29073583899E+02  0.54367082789E+02  0.39999996834E+02 0.  0.
         12    1    3    3    0    0 -0.57671499782E+01  0.21845975480E+02 -0.29073583899E+02  0.36820917211E+02  0.00000000000E+00 0. -1.
         11    1    4    4    0    0 -0.84540309667E+01 -0.47873353415E+00  0.80983330123E+01  0.11716775291E+02  0.51100000000E-03 0. -1.
        -11    1    4    4    0    0  0.10467480351E+02 -0.14653112878E+01 -0.32654828488E+01  0.11062488895E+02  0.51100000000E-03 0.  1.
         12    1    4    4    0    0  0.37537005943E+01 -0.19901930658E+02  0.24240733735E+02  0.31587818603E+02  0.00000000000E+00 0. -1.
</event>
<event>
 8    1  0.1229038E-006  0.9118800E+02  0.7816164E-02  0.1184000E+00
        -11   -1    0    0    0    0  0.00000000000E+00  0.00000000000E+00  0.45593999997E+02  0.45594000000E+02  0.51100000000E-03 0.  1.
         11   -1    0    0    0    0 -0.00000000000E+00 -0.00000000000E+00 -0.45593999997E+02  0.45594000000E+02  0.51100000000E-03 0. -1.
         23    2    1    2    0    0  0.17763568394E-14  0.00000000000E+00  0.35527136788E-14  0.91188000000E+02  0.91188000000E+02 0.  0.
    9900012    2    3    3    0    0  0.13660219001E+02 -0.16936220694E+02  0.29704234404E+02  0.54367099739E+02  0.40000035475E+02 0.  0.
         12    1    3    3    0    0 -0.13660219001E+02  0.16936220694E+02 -0.29704234404E+02  0.36820900261E+02  0.00000000000E+00 0. -1.
         11    1    4    4    0    0 -0.42427417506E+01 -0.38625448883E+01  0.40556504425E+01  0.70262658183E+01  0.51100000000E-03 0.  1.
        -11    1    4    4    0    0  0.25972995099E+02 -0.11918786062E+02  0.26714385310E+02  0.39119206515E+02  0.51100000000E-03 0. -1.
         12    1    4    4    0    0 -0.80700343476E+01 -0.11548897431E+01 -0.10658013486E+01  0.82216274061E+01  0.00000000000E+00 0. -1.
</event>
<event>
 8    1  0.1229038E-006  0.9118800E+02  0.7816164E-02  0.1184000E+00
        -11   -1    0    0    0    0  0.00000000000E+00  0.00000000000E+00  0.45593999997E+02  0.45594000000E+02  0.51100000000E-03 0. -1.
         11   -1    0    0    0    0 -0.00000000000E+00 -0.00000000000E+00 -0.45593999997E+02  0.45594000000E+02  0.51100000000E-03 0.  1.
         23    2    1    2    0    0  0.00000000000E+00  0.00000000000E+00 -0.71054273576E-14  0.91188000000E+02  0.91188000000E+02 0.  0.
    9900012    2    3    3    0    0  0.11210764544E+02  0.25842962539E+02  0.23711515088E+02  0.54367137677E+02  0.40000121962E+02 0.  0.
        -12    1    3    3    0    0 -0.11210764544E+02 -0.25842962539E+02 -0.23711515088E+02  0.36820862323E+02  0.00000000000E+00 0.  1.
         11    1    4    4    0    0  0.18001165724E+02  0.25187312415E+02  0.73149509594E+01  0.31811180141E+02  0.51100000000E-03 0. -1.
        -11    1    4    4    0    0 -0.69407825658E+01  0.53283397492E+01  0.46407843548E+01  0.99046729778E+01  0.51100000000E-03 0.  1.
         12    1    4    4    0    0  0.15038138620E+00 -0.46726896259E+01  0.11755779773E+02  0.12651284559E+02  0.00000000000E+00 0. -1.
</event>
<event>
 8    1  0.1229038E-006  0.9118800E+02  0.7816164E-02  0.1184000E+00
        -11   -1    0    0    0    0  0.00000000000E+00  0.00000000000E+00  0.45593999997E+02  0.45594000000E+02  0.51100000000E-03 0. -1.
         11   -1    0    0    0    0 -0.00000000000E+00 -0.00000000000E+00 -0.45593999997E+02  0.45594000000E+02  0.51100000000E-03 0.  1.
         23    2    1    2    0    0  0.00000000000E+00  0.00000000000E+00  0.00000000000E+00  0.91188000000E+02  0.91188000000E+02 0.  0.
    9900012    2    3    3    0    0 -0.13999601747E+02  0.31104229457E+02  0.13868113737E+02  0.54366993525E+02  0.39999793338E+02 0.  0.
        -12    1    3    3    0    0  0.13999601747E+02 -0.31104229457E+02 -0.13868113737E+02  0.36821006475E+02  0.00000000000E+00 0.  1.
         11    1    4    4    0    0 -0.11312903739E+02  0.66849977192E+01  0.12675936061E+02  0.18257884346E+02  0.51100000000E-03 0. -1.
        -11    1    4    4    0    0  0.10897520762E+01  0.53297115889E+00  0.10223168733E+02  0.10294891794E+02  0.51100000000E-03 0.  1.
         12    1    4    4    0    0 -0.37764500846E+01  0.23886260579E+02 -0.90309910569E+01  0.25814217385E+02  0.00000000000E+00 0. -1.
</event>
<event>
 8    1  0.1229038E-006  0.9118800E+02  0.7816164E-02  0.1184000E+00
        -11   -1    0    0    0    0  0.00000000000E+00  0.00000000000E+00  0.45593999997E+02  0.45594000000E+02  0.51100000000E-03 0.  1.
         11   -1    0    0    0    0 -0.00000000000E+00 -0.00000000000E+00 -0.45593999997E+02  0.45594000000E+02  0.51100000000E-03 0. -1.
         23    2    1    2    0    0  0.00000000000E+00 -0.15543122345E-14 -0.35527136788E-14  0.91188000000E+02  0.91188000000E+02 0.  0.
    9900012    2    3    3    0    0  0.23869716874E+02  0.12045720231E+01 -0.28010095041E+02  0.54367084726E+02  0.40000001251E+02 0.  0.
        -12    1    3    3    0    0 -0.23869716874E+02 -0.12045720231E+01  0.28010095041E+02  0.36820915274E+02  0.00000000000E+00 0.  1.
         11    1    4    4    0    0  0.45537404751E+01  0.48736753302E+01 -0.92455275920E+01  0.11400396671E+02  0.51100000000E-03 0. -1.
        -11    1    4    4    0    0  0.10383244906E+02  0.98961694650E+01 -0.22137139727E+02  0.26378000311E+02  0.51100000000E-03 0.  1.
        -12    1    4    4    0    0  0.89327314932E+01 -0.13565272772E+02  0.33725722784E+01  0.16588687744E+02  0.00000000000E+00 0.  1.
</event>
<event>
 8    1  0.1229038E-006  0.9118800E+02  0.7816164E-02  0.1184000E+00
        -11   -1    0    0    0    0  0.00000000000E+00  0.00000000000E+00  0.45593999997E+02  0.45594000000E+02  0.51100000000E-03 0.  1.
         11   -1    0    0    0    0 -0.00000000000E+00 -0.00000000000E+00 -0.45593999997E+02  0.45594000000E+02  0.51100000000E-03 0. -1.
         23    2    1    2    0    0  0.44408920985E-15  0.00000000000E+00  0.00000000000E+00  0.91188000000E+02  0.91188000000E+02 0.  0.
    9900012    2    3    3    0    0 -0.20499377892E+01  0.92598805508E+01 -0.35578537006E+02  0.54367083006E+02  0.39999997329E+02 0.  0.
        -12    1    3    3    0    0  0.20499377892E+01 -0.92598805508E+01  0.35578537006E+02  0.36820916994E+02  0.00000000000E+00 0.  1.
         11    1    4    4    0    0 -0.26734828526E+01 -0.32273297341E+01 -0.18527831978E+02  0.18995887077E+02  0.51100000000E-03 0. -1.
        -11    1    4    4    0    0 -0.45579490503E+01  0.12350098336E+02 -0.23597365661E+02  0.27021019501E+02  0.51100000000E-03 0.  1.
        -12    1    4    4    0    0  0.51814941137E+01  0.13711194858E+00  0.65466606330E+01  0.83501764281E+01  0.00000000000E+00 0.  1.
</event>
<event>
 8    1  0.1229038E-006  0.9118800E+02  0.7816164E-02  0.1184000E+00
        -11   -1    0    0    0    0  0.00000000000E+00  0.00000000000E+00  0.45593999997E+02  0.45594000000E+02  0.51100000000E-03 0.  1.
         11   -1    0    0    0    0 -0.00000000000E+00 -0.00000000000E+00 -0.45593999997E+02  0.45594000000E+02  0.51100000000E-03 0. -1.
         23    2    1    2    0    0  0.88817841970E-15  0.00000000000E+00  0.00000000000E+00  0.91188000000E+02  0.91188000000E+02 0.  0.
    9900012    2    3    3    0    0  0.76221352625E+01 -0.13417167545E+02 -0.33431459716E+02  0.54367084346E+02  0.40000000382E+02 0.  0.
        -12    1    3    3    0    0 -0.76221352625E+01  0.13417167545E+02  0.33431459716E+02  0.36820915654E+02  0.00000000000E+00 0.  1.
         11    1    4    4    0    0  0.12966498391E+02 -0.76587659861E+01 -0.12117055540E+02  0.19328988908E+02  0.51100000000E-03 0. -1.
        -11    1    4    4    0    0 -0.45482175575E+01  0.10545704255E+02 -0.89634190782E+01  0.14568494879E+02  0.51100000000E-03 0.  1.
         12    1    4    4    0    0 -0.79614557144E+00 -0.16304105814E+02 -0.12350985097E+02  0.20469600559E+02  0.00000000000E+00 0. -1.
</event>
<event>
 8    1  0.1229038E-006  0.9118800E+02  0.7816164E-02  0.1184000E+00
        -11   -1    0    0    0    0  0.00000000000E+00  0.00000000000E+00  0.45593999997E+02  0.45594000000E+02  0.51100000000E-03 0.  1.
         11   -1    0    0    0    0 -0.00000000000E+00 -0.00000000000E+00 -0.45593999997E+02  0.45594000000E+02  0.51100000000E-03 0. -1.
         23    2    1    2    0    0  0.71054273576E-14  0.88817841970E-15  0.17763568394E-14  0.91188000000E+02  0.91188000000E+02 0.  0.
    9900012    2    3    3    0    0  0.33020315301E+02 -0.55949946164E+01  0.15301486893E+02  0.54367072683E+02  0.39999973796E+02 0.  0.
         12    1    3    3    0    0 -0.33020315301E+02  0.55949946164E+01 -0.15301486893E+02  0.36820927317E+02  0.00000000000E+00 0. -1.
         11    1    4    4    0    0  0.67922425711E+01 -0.11586726375E+02 -0.57941908989E+01  0.14627352312E+02  0.51100000000E-03 0. -1.
        -11    1    4    4    0    0  0.20888922998E+02 -0.41936642492E+01  0.92406203089E+01  0.23223328525E+02  0.51100000000E-03 0.  1.
        -12    1    4    4    0    0  0.53391497322E+01  0.10185396008E+02  0.11855057483E+02  0.16516391846E+02  0.00000000000E+00 0.  1.
</event>
<event>
 8    1  0.1229038E-006  0.9118800E+02  0.7816164E-02  0.1184000E+00
        -11   -1    0    0    0    0  0.00000000000E+00  0.00000000000E+00  0.45593999997E+02  0.45594000000E+02  0.51100000000E-03 0. -1.
         11   -1    0    0    0    0 -0.00000000000E+00 -0.00000000000E+00 -0.45593999997E+02  0.45594000000E+02  0.51100000000E-03 0.  1.
         23    2    1    2    0    0  0.88817841970E-15  0.17763568394E-14  0.71054273576E-14  0.91188000000E+02  0.91188000000E+02 0.  0.
    9900012    2    3    3    0    0  0.78098307887E+01 -0.11039108577E+02 -0.34247982172E+02  0.54367086677E+02  0.40000005697E+02 0.  0.
         12    1    3    3    0    0 -0.78098307887E+01  0.11039108577E+02  0.34247982172E+02  0.36820913323E+02  0.00000000000E+00 0. -1.
         11    1    4    4    0    0 -0.24658333643E+00 -0.51735768822E+01 -0.10305957341E+01  0.52809874954E+01  0.51100000000E-03 0. -1.
        -11    1    4    4    0    0 -0.74207976255E+01 -0.15823985608E+02 -0.19109546615E+02  0.25896747479E+02  0.51100000000E-03 0.  1.
         12    1    4    4    0    0  0.15477211751E+02  0.99584539124E+01 -0.14107839822E+02  0.23189351702E+02  0.00000000000E+00 0. -1.
</event>
<event>
 8    1  0.1229038E-006  0.9118800E+02  0.7816164E-02  0.1184000E+00
        -11   -1    0    0    0    0  0.00000000000E+00  0.00000000000E+00  0.45593999997E+02  0.45594000000E+02  0.51100000000E-03 0.  1.
         11   -1    0    0    0    0 -0.00000000000E+00 -0.00000000000E+00 -0.45593999997E+02  0.45594000000E+02  0.51100000000E-03 0. -1.
         23    2    1    2    0    0  0.00000000000E+00  0.35527136788E-14  0.00000000000E+00  0.91188000000E+02  0.91188000000E+02 0.  0.
    9900012    2    3    3    0    0  0.10725597899E+02 -0.31436782193E+02 -0.15889290113E+02  0.54367092010E+02  0.40000017856E+02 0.  0.
        -12    1    3    3    0    0 -0.10725597899E+02  0.31436782193E+02  0.15889290113E+02  0.36820907990E+02  0.00000000000E+00 0.  1.
         11    1    4    4    0    0  0.13644563236E+02 -0.39961969138E+01 -0.13262045917E+02  0.19442879361E+02  0.51100000000E-03 0. -1.
        -11    1    4    4    0    0  0.44047982535E+01 -0.20737724199E+02 -0.91017531942E+01  0.23071570473E+02  0.51100000000E-03 0.  1.
        -12    1    4    4    0    0 -0.73237635913E+01 -0.67028610797E+01  0.64745089981E+01  0.11852642176E+02  0.00000000000E+00 0.  1.
</event>
<event>
 8    1  0.1229038E-006  0.9118800E+02  0.7816164E-02  0.1184000E+00
        -11   -1    0    0    0    0  0.00000000000E+00  0.00000000000E+00  0.45593999997E+02  0.45594000000E+02  0.51100000000E-03 0. -1.
         11   -1    0    0    0    0 -0.00000000000E+00 -0.00000000000E+00 -0.45593999997E+02  0.45594000000E+02  0.51100000000E-03 0.  1.
         23    2    1    2    0    0  0.71054273576E-14  0.00000000000E+00  0.00000000000E+00  0.91188000000E+02  0.91188000000E+02 0.  0.
    9900012    2    3    3    0    0  0.26306702953E+02 -0.19375859388E+02 -0.16979729077E+02  0.54367112629E+02  0.40000064860E+02 0.  0.
         12    1    3    3    0    0 -0.26306702953E+02  0.19375859388E+02  0.16979729077E+02  0.36820887371E+02  0.00000000000E+00 0. -1.
         11    1    4    4    0    0 -0.12061329904E+01 -0.17083546589E+02  0.33203621991E+01  0.17444974241E+02  0.51100000000E-03 0. -1.
        -11    1    4    4    0    0  0.10859164217E+02 -0.66046724652E+01 -0.13162080094E+02  0.18297089892E+02  0.51100000000E-03 0.  1.
        -12    1    4    4    0    0  0.16653671726E+02  0.43123596667E+01 -0.71380111826E+01  0.18625048496E+02  0.00000000000E+00 0.  1.
</event>
<event>
 8    1  0.1229038E-006  0.9118800E+02  0.7816164E-02  0.1184000E+00
        -11   -1    0    0    0    0  0.00000000000E+00  0.00000000000E+00  0.45593999997E+02  0.45594000000E+02  0.51100000000E-03 0. -1.
         11   -1    0    0    0    0 -0.00000000000E+00 -0.00000000000E+00 -0.45593999997E+02  0.45594000000E+02  0.51100000000E-03 0.  1.
         23    2    1    2    0    0  0.00000000000E+00 -0.35527136788E-14  0.35527136788E-14  0.91188000000E+02  0.91188000000E+02 0.  0.
    9900012    2    3    3    0    0  0.21142630532E+02 -0.12066208475E+02  0.27625739810E+02  0.54367004456E+02  0.39999818258E+02 0.  0.
        -12    1    3    3    0    0 -0.21142630532E+02  0.12066208475E+02 -0.27625739810E+02  0.36820995544E+02  0.00000000000E+00 0.  1.
         11    1    4    4    0    0  0.19534804944E+02 -0.10641650952E+02  0.28819052203E+02  0.36405921350E+02  0.51100000000E-03 0. -1.
        -11    1    4    4    0    0 -0.54624098129E-01  0.80091007630E+01  0.11714051563E+01  0.80944962243E+01  0.51100000000E-03 0.  1.
        -12    1    4    4    0    0  0.16624496857E+01 -0.94336582861E+01 -0.23647175488E+01  0.98665868821E+01  0.00000000000E+00 0.  1.
</event>
<event>
 8    1  0.1229038E-006  0.9118800E+02  0.7816164E-02  0.1184000E+00
        -11   -1    0    0    0    0  0.00000000000E+00  0.00000000000E+00  0.45593999997E+02  0.45594000000E+02  0.51100000000E-03 0.  1.
         11   -1    0    0    0    0 -0.00000000000E+00 -0.00000000000E+00 -0.45593999997E+02  0.45594000000E+02  0.51100000000E-03 0. -1.
         23    2    1    2    0    0  0.22204460493E-15 -0.17763568394E-14  0.00000000000E+00  0.91188000000E+02  0.91188000000E+02 0.  0.
    9900012    2    3    3    0    0  0.17162602189E+01 -0.11413760662E+02 -0.34965150015E+02  0.54367065775E+02  0.39999958047E+02 0.  0.
        -12    1    3    3    0    0 -0.17162602189E+01  0.11413760662E+02  0.34965150015E+02  0.36820934225E+02  0.00000000000E+00 0.  1.
         11    1    4    4    0    0  0.11761854382E+02  0.64109269340E+01 -0.40725372971E+01  0.14000955787E+02  0.51100000000E-03 0. -1.
        -11    1    4    4    0    0  0.10459107462E+01 -0.14088269037E+02 -0.14714314040E+02  0.20398144319E+02  0.51100000000E-03 0.  1.
         12    1    4    4    0    0 -0.11091504910E+02 -0.37364185598E+01 -0.16178298678E+02  0.19967965668E+02  0.00000000000E+00 0. -1.
</event>
<event>
 8    1  0.1229038E-006  0.9118800E+02  0.7816164E-02  0.1184000E+00
        -11   -1    0    0    0    0  0.00000000000E+00  0.00000000000E+00  0.45593999997E+02  0.45594000000E+02  0.51100000000E-03 0.  1.
         11   -1    0    0    0    0 -0.00000000000E+00 -0.00000000000E+00 -0.45593999997E+02  0.45594000000E+02  0.51100000000E-03 0. -1.
         23    2    1    2    0    0  0.00000000000E+00  0.35527136788E-14 -0.35527136788E-14  0.91188000000E+02  0.91188000000E+02 0.  0.
    9900012    2    3    3    0    0  0.14444059462E+02 -0.29206789257E+02  0.17149264721E+02  0.54367290163E+02  0.40000469581E+02 0.  0.
         12    1    3    3    0    0 -0.14444059462E+02  0.29206789257E+02 -0.17149264721E+02  0.36820709837E+02  0.00000000000E+00 0. -1.
         11    1    4    4    0    0 -0.74377230737E+00  0.29859693832E+01 -0.22735005735E+01  0.38259659593E+01  0.51100000000E-03 0. -1.
        -11    1    4    4    0    0  0.13203991088E+01 -0.28790504586E+02  0.33068395043E+01  0.29009856874E+02  0.51100000000E-03 0.  1.
        -12    1    4    4    0    0  0.13867432661E+02 -0.34022540546E+01  0.16115925790E+02  0.21531467329E+02  0.00000000000E+00 0.  1.
</event>
<event>
 8    1  0.1229038E-006  0.9118800E+02  0.7816164E-02  0.1184000E+00
        -11   -1    0    0    0    0  0.00000000000E+00  0.00000000000E+00  0.45593999997E+02  0.45594000000E+02  0.51100000000E-03 0.  1.
         11   -1    0    0    0    0 -0.00000000000E+00 -0.00000000000E+00 -0.45593999997E+02  0.45594000000E+02  0.51100000000E-03 0. -1.
         23    2    1    2    0    0  0.00000000000E+00  0.88817841970E-15  0.00000000000E+00  0.91188000000E+02  0.91188000000E+02 0.  0.
    9900012    2    3    3    0    0 -0.25893547189E+02  0.55297126965E+01  0.25587608652E+02  0.54367092556E+02  0.40000019099E+02 0.  0.
         12    1    3    3    0    0  0.25893547189E+02 -0.55297126965E+01 -0.25587608652E+02  0.36820907444E+02  0.00000000000E+00 0. -1.
         11    1    4    4    0    0 -0.24588398958E+01  0.13568945906E+02  0.14726892625E+02  0.20175320401E+02  0.51100000000E-03 0.  1.
        -11    1    4    4    0    0 -0.86539034961E+01 -0.64992793111E+01 -0.54574590503E+01  0.12120830699E+02  0.51100000000E-03 0. -1.
        -12    1    4    4    0    0 -0.14780803797E+02 -0.15399538986E+01  0.16318175077E+02  0.22070941456E+02  0.00000000000E+00 0.  1.
</event>
<event>
 8    1  0.1229038E-006  0.9118800E+02  0.7816164E-02  0.1184000E+00
        -11   -1    0    0    0    0  0.00000000000E+00  0.00000000000E+00  0.45593999997E+02  0.45594000000E+02  0.51100000000E-03 0. -1.
         11   -1    0    0    0    0 -0.00000000000E+00 -0.00000000000E+00 -0.45593999997E+02  0.45594000000E+02  0.51100000000E-03 0.  1.
         23    2    1    2    0    0 -0.71054273576E-14 -0.71054273576E-14  0.17763568394E-14  0.91188000000E+02  0.91188000000E+02 0.  0.
    9900012    2    3    3    0    0 -0.28082632480E+02 -0.19871511807E+02  0.13125111848E+02  0.54367084891E+02  0.40000001625E+02 0.  0.
         12    1    3    3    0    0  0.28082632480E+02  0.19871511807E+02 -0.13125111848E+02  0.36820915109E+02  0.00000000000E+00 0. -1.
         11    1    4    4    0    0  0.23736984126E+01  0.18682921442E+01  0.13124198444E+02  0.13467351066E+02  0.51100000000E-03 0.  1.
        -11    1    4    4    0    0 -0.65186398609E+01 -0.16083260192E+01  0.60555094273E+01  0.90414917412E+01  0.51100000000E-03 0. -1.
        -12    1    4    4    0    0 -0.23937691032E+02 -0.20131477932E+02 -0.60545960232E+01  0.31858242083E+02  0.00000000000E+00 0.  1.
</event>
<event>
 8    1  0.1229038E-006  0.9118800E+02  0.7816164E-02  0.1184000E+00
        -11   -1    0    0    0    0  0.00000000000E+00  0.00000000000E+00  0.45593999997E+02  0.45594000000E+02  0.51100000000E-03 0.  1.
         11   -1    0    0    0    0 -0.00000000000E+00 -0.00000000000E+00 -0.45593999997E+02  0.45594000000E+02  0.51100000000E-03 0. -1.
         23    2    1    2    0    0  0.00000000000E+00  0.00000000000E+00  0.35527136788E-14  0.91188000000E+02  0.91188000000E+02 0.  0.
    9900012    2    3    3    0    0 -0.17642829201E+02  0.14729716564E+02 -0.28767144881E+02  0.54367046769E+02  0.39999914719E+02 0.  0.
        -12    1    3    3    0    0  0.17642829201E+02 -0.14729716564E+02  0.28767144881E+02  0.36820953231E+02  0.00000000000E+00 0.  1.
         11    1    4    4    0    0 -0.69994344067E+01  0.36897523017E+01 -0.22872597595E+01  0.82363773305E+01  0.51100000000E-03 0.  1.
        -11    1    4    4    0    0 -0.17747824121E+02  0.19069050884E+02 -0.13645829631E+02  0.29407866791E+02  0.51100000000E-03 0. -1.
        -12    1    4    4    0    0  0.71044293263E+01 -0.80290866222E+01 -0.12834055491E+02  0.16722802647E+02  0.00000000000E+00 0.  1.
</event>
<event>
 8    1  0.1229038E-006  0.9118800E+02  0.7816164E-02  0.1184000E+00
        -11   -1    0    0    0    0  0.00000000000E+00  0.00000000000E+00  0.45593999997E+02  0.45594000000E+02  0.51100000000E-03 0.  1.
         11   -1    0    0    0    0 -0.00000000000E+00 -0.00000000000E+00 -0.45593999997E+02  0.45594000000E+02  0.51100000000E-03 0. -1.
         23    2    1    2    0    0  0.00000000000E+00  0.44408920985E-15  0.00000000000E+00  0.91188000000E+02  0.91188000000E+02 0.  0.
    9900012    2    3    3    0    0  0.15310732424E+02 -0.17243051936E+01  0.33442310981E+02  0.54367083125E+02  0.39999997600E+02 0.  0.
         12    1    3    3    0    0 -0.15310732424E+02  0.17243051936E+01 -0.33442310981E+02  0.36820916875E+02  0.00000000000E+00 0. -1.
         11    1    4    4    0    0 -0.69253572252E+00  0.17106499587E+02  0.15904481830E+02  0.23368022517E+02  0.51100000000E-03 0. -1.
        -11    1    4    4    0    0  0.56775913298E+01 -0.24576148170E+01  0.37669632705E+01  0.72432676631E+01  0.51100000000E-03 0.  1.
         12    1    4    4    0    0  0.10325676817E+02 -0.16373189963E+02  0.13770865881E+02  0.23755792944E+02  0.00000000000E+00 0. -1.
</event>
<event>
 8    1  0.1229038E-006  0.9118800E+02  0.7816164E-02  0.1184000E+00
        -11   -1    0    0    0    0  0.00000000000E+00  0.00000000000E+00  0.45593999997E+02  0.45594000000E+02  0.51100000000E-03 0. -1.
         11   -1    0    0    0    0 -0.00000000000E+00 -0.00000000000E+00 -0.45593999997E+02  0.45594000000E+02  0.51100000000E-03 0.  1.
         23    2    1    2    0    0  0.35527136788E-14  0.17763568394E-14  0.00000000000E+00  0.91188000000E+02  0.91188000000E+02 0.  0.
    9900012    2    3    3    0    0  0.22364857386E+02  0.81303868758E+01 -0.28097726738E+02  0.54367186803E+02  0.40000233954E+02 0.  0.
         12    1    3    3    0    0 -0.22364857386E+02 -0.81303868758E+01  0.28097726738E+02  0.36820813197E+02  0.00000000000E+00 0. -1.
         11    1    4    4    0    0  0.72574287426E+01 -0.40206459805E+01 -0.90816646227E+01  0.12300914545E+02  0.51100000000E-03 0. -1.
        -11    1    4    4    0    0  0.21095489549E+02 -0.29264928540E+01 -0.10568168420E+02  0.23775412168E+02  0.51100000000E-03 0.  1.
         12    1    4    4    0    0 -0.59880609061E+01  0.15077525710E+02 -0.84478936954E+01  0.18290860090E+02  0.00000000000E+00 0. -1.
</event>
<event>
 8    1  0.1229038E-006  0.9118800E+02  0.7816164E-02  0.1184000E+00
        -11   -1    0    0    0    0  0.00000000000E+00  0.00000000000E+00  0.45593999997E+02  0.45594000000E+02  0.51100000000E-03 0. -1.
         11   -1    0    0    0    0 -0.00000000000E+00 -0.00000000000E+00 -0.45593999997E+02  0.45594000000E+02  0.51100000000E-03 0.  1.
         23    2    1    2    0    0  0.00000000000E+00  0.00000000000E+00 -0.17763568394E-14  0.91188000000E+02  0.91188000000E+02 0.  0.
    9900012    2    3    3    0    0 -0.33655093396E+02 -0.89266362139E+01 -0.11975521649E+02  0.54367309290E+02  0.40000513184E+02 0.  0.
         12    1    3    3    0    0  0.33655093396E+02  0.89266362139E+01  0.11975521649E+02  0.36820690710E+02  0.00000000000E+00 0. -1.
         11    1    4    4    0    0  0.35891392663E+01  0.22769457225E+01 -0.41646760914E+00  0.42708135088E+01  0.51100000000E-03 0. -1.
        -11    1    4    4    0    0 -0.13550707128E+02  0.79874272624E+01 -0.11702835709E+02  0.19605535489E+02  0.51100000000E-03 0.  1.
        -12    1    4    4    0    0 -0.23693525535E+02 -0.19191009199E+02  0.14378166822E+00  0.30490960292E+02  0.00000000000E+00 0.  1.
</event>
<event>
 8    1  0.1229038E-006  0.9118800E+02  0.7816164E-02  0.1184000E+00
        -11   -1    0    0    0    0  0.00000000000E+00  0.00000000000E+00  0.45593999997E+02  0.45594000000E+02  0.51100000000E-03 0. -1.
         11   -1    0    0    0    0 -0.00000000000E+00 -0.00000000000E+00 -0.45593999997E+02  0.45594000000E+02  0.51100000000E-03 0.  1.
         23    2    1    2    0    0  0.00000000000E+00 -0.88817841970E-15  0.00000000000E+00  0.91188000000E+02  0.91188000000E+02 0.  0.
    9900012    2    3    3    0    0  0.24337576489E+02  0.62232405498E+01 -0.26921048283E+02  0.54366957199E+02  0.39999710525E+02 0.  0.
         12    1    3    3    0    0 -0.24337576489E+02 -0.62232405498E+01  0.26921048283E+02  0.36821042801E+02  0.00000000000E+00 0. -1.
         11    1    4    4    0    0 -0.25617492914E+01  0.12694733907E+02 -0.17159432158E+01  0.13063816050E+02  0.51100000000E-03 0. -1.
        -11    1    4    4    0    0  0.23382113035E+02 -0.84165768227E+01 -0.12186091896E+02  0.27677839716E+02  0.51100000000E-03 0.  1.
        -12    1    4    4    0    0  0.35172127452E+01  0.19450834652E+01 -0.13019013171E+02  0.13625301432E+02  0.00000000000E+00 0.  1.
</event>
<event>
 8    1  0.1229038E-006  0.9118800E+02  0.7816164E-02  0.1184000E+00
        -11   -1    0    0    0    0  0.00000000000E+00  0.00000000000E+00  0.45593999997E+02  0.45594000000E+02  0.51100000000E-03 0. -1.
         11   -1    0    0    0    0 -0.00000000000E+00 -0.00000000000E+00 -0.45593999997E+02  0.45594000000E+02  0.51100000000E-03 0.  1.
         23    2    1    2    0    0  0.17763568394E-14 -0.71054273576E-14  0.00000000000E+00  0.91188000000E+02  0.91188000000E+02 0.  0.
    9900012    2    3    3    0    0 -0.10046714597E+02  0.34635761376E+02  0.74301391460E+01  0.54367090071E+02  0.40000013435E+02 0.  0.
         12    1    3    3    0    0  0.10046714597E+02 -0.34635761376E+02 -0.74301391460E+01  0.36820909929E+02  0.00000000000E+00 0. -1.
         11    1    4    4    0    0 -0.11238688138E+02  0.31024247285E+01 -0.35590043281E+01  0.12190146116E+02  0.51100000000E-03 0. -1.
        -11    1    4    4    0    0 -0.99672761368E+01  0.21967537804E+02  0.51473887515E+00  0.24128494920E+02  0.51100000000E-03 0.  1.
        -12    1    4    4    0    0  0.11159249678E+02  0.95657988432E+01  0.10474404599E+02  0.18048449035E+02  0.00000000000E+00 0.  1.
</event>
<event>
 8    1  0.1229038E-006  0.9118800E+02  0.7816164E-02  0.1184000E+00
        -11   -1    0    0    0    0  0.00000000000E+00  0.00000000000E+00  0.45593999997E+02  0.45594000000E+02  0.51100000000E-03 0. -1.
         11   -1    0    0    0    0 -0.00000000000E+00 -0.00000000000E+00 -0.45593999997E+02  0.45594000000E+02  0.51100000000E-03 0.  1.
         23    2    1    2    0    0  0.00000000000E+00  0.35527136788E-14  0.17763568394E-14  0.91188000000E+02  0.91188000000E+02 0.  0.
    9900012    2    3    3    0    0  0.17866694045E+02  0.31463203714E+02 -0.68285265904E+01  0.54367072263E+02  0.39999972837E+02 0.  0.
         12    1    3    3    0    0 -0.17866694045E+02 -0.31463203714E+02  0.68285265904E+01  0.36820927737E+02  0.00000000000E+00 0. -1.
         11    1    4    4    0    0 -0.14835468639E+01  0.22257351542E+01  0.24795597216E+01  0.36473312090E+01  0.51100000000E-03 0. -1.
        -11    1    4    4    0    0  0.15806597042E+02  0.24212878738E+02 -0.22188026145E+02  0.36447503498E+02  0.51100000000E-03 0.  1.
        -12    1    4    4    0    0  0.35436438668E+01  0.50245898222E+01  0.12879939833E+02  0.14272237555E+02  0.00000000000E+00 0.  1.
</event>
<event>
 8    1  0.1229038E-006  0.9118800E+02  0.7816164E-02  0.1184000E+00
        -11   -1    0    0    0    0  0.00000000000E+00  0.00000000000E+00  0.45593999997E+02  0.45594000000E+02  0.51100000000E-03 0.  1.
         11   -1    0    0    0    0 -0.00000000000E+00 -0.00000000000E+00 -0.45593999997E+02  0.45594000000E+02  0.51100000000E-03 0. -1.
         23    2    1    2    0    0  0.11102230246E-15  0.00000000000E+00  0.88817841970E-15  0.91188000000E+02  0.91188000000E+02 0.  0.
    9900012    2    3    3    0    0  0.88078208829E+00  0.36500168431E+02  0.47687931382E+01  0.54367089357E+02  0.40000011808E+02 0.  0.
         12    1    3    3    0    0 -0.88078208829E+00 -0.36500168431E+02 -0.47687931382E+01  0.36820910643E+02  0.00000000000E+00 0. -1.
         11    1    4    4    0    0  0.82069328973E+01  0.18733897148E+02 -0.69472996271E+01  0.21600407920E+02  0.51100000000E-03 0. -1.
        -11    1    4    4    0    0  0.20169996767E+01 -0.17425092042E+01 -0.48411793559E+01  0.55264494786E+01  0.51100000000E-03 0.  1.
        -12    1    4    4    0    0 -0.93431504857E+01  0.19508780487E+02  0.16557272121E+02  0.27240231959E+02  0.00000000000E+00 0.  1.
</event>
<event>
 8    1  0.1229038E-006  0.9118800E+02  0.7816164E-02  0.1184000E+00
        -11   -1    0    0    0    0  0.00000000000E+00  0.00000000000E+00  0.45593999997E+02  0.45594000000E+02  0.51100000000E-03 0. -1.
         11   -1    0    0    0    0 -0.00000000000E+00 -0.00000000000E+00 -0.45593999997E+02  0.45594000000E+02  0.51100000000E-03 0.  1.
         23    2    1    2    0    0 -0.66613381478E-15 -0.17763568394E-14  0.00000000000E+00  0.91188000000E+02  0.91188000000E+02 0.  0.
    9900012    2    3    3    0    0 -0.10657612617E+01 -0.11761989086E+02 -0.34875449395E+02  0.54367119988E+02  0.40000081637E+02 0.  0.
         12    1    3    3    0    0  0.10657612617E+01  0.11761989086E+02  0.34875449395E+02  0.36820880012E+02  0.00000000000E+00 0. -1.
         11    1    4    4    0    0 -0.15724751430E+01 -0.63267857140E+01  0.24271088645E+01  0.69564181335E+01  0.51100000000E-03 0. -1.
        -11    1    4    4    0    0 -0.31061496167E+01  0.10793724441E+02 -0.82464123741E+01  0.13933986151E+02  0.51100000000E-03 0.  1.
        -12    1    4    4    0    0  0.36128634979E+01 -0.16228927813E+02 -0.29056145885E+02  0.33476715704E+02  0.00000000000E+00 0.  1.
</event>
<event>
 8    1  0.1229038E-006  0.9118800E+02  0.7816164E-02  0.1184000E+00
        -11   -1    0    0    0    0  0.00000000000E+00  0.00000000000E+00  0.45593999997E+02  0.45594000000E+02  0.51100000000E-03 0. -1.
         11   -1    0    0    0    0 -0.00000000000E+00 -0.00000000000E+00 -0.45593999997E+02  0.45594000000E+02  0.51100000000E-03 0.  1.
         23    2    1    2    0    0  0.00000000000E+00  0.00000000000E+00  0.00000000000E+00  0.91188000000E+02  0.91188000000E+02 0.  0.
    9900012    2    3    3    0    0  0.32081164348E+02  0.11573157110E+01 -0.18034442652E+02  0.54367060205E+02  0.39999945350E+02 0.  0.
         12    1    3    3    0    0 -0.32081164348E+02 -0.11573157110E+01  0.18034442652E+02  0.36820939795E+02  0.00000000000E+00 0. -1.
         11    1    4    4    0    0  0.11215180328E+02  0.27611540972E+01 -0.56398108770E-01  0.11550213104E+02  0.51100000000E-03 0.  1.
        -11    1    4    4    0    0  0.24541024576E+01  0.12108803954E+02  0.18369716838E+01  0.12490805311E+02  0.51100000000E-03 0. -1.
        -12    1    4    4    0    0  0.18411881562E+02 -0.13712642341E+02 -0.19815016227E+02  0.30326041791E+02  0.00000000000E+00 0.  1.
</event>
<event>
 8    1  0.1229038E-006  0.9118800E+02  0.7816164E-02  0.1184000E+00
        -11   -1    0    0    0    0  0.00000000000E+00  0.00000000000E+00  0.45593999997E+02  0.45594000000E+02  0.51100000000E-03 0. -1.
         11   -1    0    0    0    0 -0.00000000000E+00 -0.00000000000E+00 -0.45593999997E+02  0.45594000000E+02  0.51100000000E-03 0.  1.
         23    2    1    2    0    0  0.17763568394E-14  0.35527136788E-14 -0.35527136788E-14  0.91188000000E+02  0.91188000000E+02 0.  0.
    9900012    2    3    3    0    0 -0.97434438391E+01 -0.23483203221E+02  0.26634260973E+02  0.54367090330E+02  0.40000014026E+02 0.  0.
        -12    1    3    3    0    0  0.97434438391E+01  0.23483203221E+02 -0.26634260973E+02  0.36820909670E+02  0.00000000000E+00 0.  1.
         11    1    4    4    0    0 -0.25168048511E+01 -0.18965963459E+02  0.11376803287E+02  0.22259239203E+02  0.51100000000E-03 0. -1.
        -11    1    4    4    0    0 -0.10598082908E+02 -0.50120558675E+01 -0.41250886604E+01  0.12428049809E+02  0.51100000000E-03 0.  1.
         12    1    4    4    0    0  0.33714439197E+01  0.49481610575E+00  0.19382546346E+02  0.19679801318E+02  0.00000000000E+00 0. -1.
</event>
<event>
 8    1  0.1229038E-006  0.9118800E+02  0.7816164E-02  0.1184000E+00
        -11   -1    0    0    0    0  0.00000000000E+00  0.00000000000E+00  0.45593999997E+02  0.45594000000E+02  0.51100000000E-03 0.  1.
         11   -1    0    0    0    0 -0.00000000000E+00 -0.00000000000E+00 -0.45593999997E+02  0.45594000000E+02  0.51100000000E-03 0. -1.
         23    2    1    2    0    0  0.00000000000E+00  0.00000000000E+00  0.00000000000E+00  0.91188000000E+02  0.91188000000E+02 0.  0.
    9900012    2    3    3    0    0 -0.32532811690E+02 -0.15742352105E+02  0.70409457105E+01  0.54367076563E+02  0.39999982640E+02 0.  0.
         12    1    3    3    0    0  0.32532811690E+02  0.15742352105E+02 -0.70409457105E+01  0.36820923437E+02  0.00000000000E+00 0. -1.
         11    1    4    4    0    0 -0.42538106163E+00  0.19661637892E+01  0.54747886220E+00  0.20848219250E+01  0.51100000000E-03 0. -1.
        -11    1    4    4    0    0 -0.26819222689E+02 -0.26908945917E+02  0.12615054966E+02  0.40031258887E+02  0.51100000000E-03 0.  1.
        -12    1    4    4    0    0 -0.52882079392E+01  0.92004300225E+01 -0.61215881175E+01  0.12250995751E+02  0.00000000000E+00 0.  1.
</event>
<event>
 8    1  0.1229038E-006  0.9118800E+02  0.7816164E-02  0.1184000E+00
        -11   -1    0    0    0    0  0.00000000000E+00  0.00000000000E+00  0.45593999997E+02  0.45594000000E+02  0.51100000000E-03 0. -1.
         11   -1    0    0    0    0 -0.00000000000E+00 -0.00000000000E+00 -0.45593999997E+02  0.45594000000E+02  0.51100000000E-03 0.  1.
         23    2    1    2    0    0  0.35527136788E-14 -0.88817841970E-15  0.00000000000E+00  0.91188000000E+02  0.91188000000E+02 0.  0.
    9900012    2    3    3    0    0  0.20936615446E+02  0.71232158877E+01 -0.29439726338E+02  0.54367088037E+02  0.40000008799E+02 0.  0.
         12    1    3    3    0    0 -0.20936615446E+02 -0.71232158877E+01  0.29439726338E+02  0.36820911963E+02  0.00000000000E+00 0. -1.
         11    1    4    4    0    0 -0.33392705999E+01  0.53330029374E+01  0.38679369675E+00  0.63040667901E+01  0.51100000000E-03 0. -1.
        -11    1    4    4    0    0  0.85062109811E+01  0.12674236324E+02 -0.23234265294E+02  0.27799693806E+02  0.51100000000E-03 0.  1.
        -12    1    4    4    0    0  0.15769675064E+02 -0.10884023374E+02 -0.65922547406E+01  0.20263327442E+02  0.00000000000E+00 0.  1.
</event>
<event>
 8    1  0.1229038E-006  0.9118800E+02  0.7816164E-02  0.1184000E+00
        -11   -1    0    0    0    0  0.00000000000E+00  0.00000000000E+00  0.45593999997E+02  0.45594000000E+02  0.51100000000E-03 0.  1.
         11   -1    0    0    0    0 -0.00000000000E+00 -0.00000000000E+00 -0.45593999997E+02  0.45594000000E+02  0.51100000000E-03 0. -1.
         23    2    1    2    0    0  0.00000000000E+00  0.00000000000E+00  0.00000000000E+00  0.91188000000E+02  0.91188000000E+02 0.  0.
    9900012    2    3    3    0    0  0.68443508004E+01  0.18619162795E+02  0.31020328844E+02  0.54367093402E+02  0.40000021029E+02 0.  0.
         12    1    3    3    0    0 -0.68443508004E+01 -0.18619162795E+02 -0.31020328844E+02  0.36820906598E+02  0.00000000000E+00 0. -1.
         11    1    4    4    0    0 -0.39562518856E+01 -0.94287466837E+00  0.34643598877E+00  0.40817838965E+01  0.51100000000E-03 0. -1.
        -11    1    4    4    0    0  0.13989391577E+02  0.23430772615E+02  0.34493158437E+02  0.43982748451E+02  0.51100000000E-03 0.  1.
        -12    1    4    4    0    0 -0.31887888914E+01 -0.38687351521E+01 -0.38192655814E+01  0.63025610550E+01  0.00000000000E+00 0.  1.
</event>
<event>
 8    1  0.1229038E-006  0.9118800E+02  0.7816164E-02  0.1184000E+00
        -11   -1    0    0    0    0  0.00000000000E+00  0.00000000000E+00  0.45593999997E+02  0.45594000000E+02  0.51100000000E-03 0. -1.
         11   -1    0    0    0    0 -0.00000000000E+00 -0.00000000000E+00 -0.45593999997E+02  0.45594000000E+02  0.51100000000E-03 0.  1.
         23    2    1    2    0    0  0.00000000000E+00  0.35527136788E-14  0.00000000000E+00  0.91188000000E+02  0.91188000000E+02 0.  0.
    9900012    2    3    3    0    0  0.24402556778E+02  0.20995640519E+02 -0.17873953525E+02  0.54367083217E+02  0.39999997810E+02 0.  0.
         12    1    3    3    0    0 -0.24402556778E+02 -0.20995640519E+02  0.17873953525E+02  0.36820916783E+02  0.00000000000E+00 0. -1.
         11    1    4    4    0    0  0.14083914969E+02 -0.75725145966E+01  0.31201953955E+00  0.15993654824E+02  0.51100000000E-03 0. -1.
        -11    1    4    4    0    0  0.29218618369E+01  0.10165907120E+01 -0.71416753280E+01  0.77829467441E+01  0.51100000000E-03 0.  1.
        -12    1    4    4    0    0  0.73967799725E+01  0.27551564403E+02 -0.11044297737E+02  0.30590481649E+02  0.00000000000E+00 0.  1.
</event>
<event>
 8    1  0.1229038E-006  0.9118800E+02  0.7816164E-02  0.1184000E+00
        -11   -1    0    0    0    0  0.00000000000E+00  0.00000000000E+00  0.45593999997E+02  0.45594000000E+02  0.51100000000E-03 0. -1.
         11   -1    0    0    0    0 -0.00000000000E+00 -0.00000000000E+00 -0.45593999997E+02  0.45594000000E+02  0.51100000000E-03 0.  1.
         23    2    1    2    0    0  0.00000000000E+00  0.35527136788E-14  0.35527136788E-14  0.91188000000E+02  0.91188000000E+02 0.  0.
    9900012    2    3    3    0    0 -0.14968954244E+02 -0.21884724797E+02 -0.25549313820E+02  0.54367106376E+02  0.40000050606E+02 0.  0.
         12    1    3    3    0    0  0.14968954244E+02  0.21884724797E+02  0.25549313820E+02  0.36820893624E+02  0.00000000000E+00 0. -1.
         11    1    4    4    0    0 -0.87884040979E+01 -0.49208578468E+01 -0.14488763874E+02  0.17645825778E+02  0.51100000000E-03 0. -1.
        -11    1    4    4    0    0 -0.10012600895E+02 -0.48384181661E+01 -0.18794224292E+02  0.21837704413E+02  0.51100000000E-03 0.  1.
         12    1    4    4    0    0  0.38320507489E+01 -0.12125448784E+02  0.77336743466E+01  0.14883576185E+02  0.00000000000E+00 0. -1.
</event>
<event>
 8    1  0.1229038E-006  0.9118800E+02  0.7816164E-02  0.1184000E+00
        -11   -1    0    0    0    0  0.00000000000E+00  0.00000000000E+00  0.45593999997E+02  0.45594000000E+02  0.51100000000E-03 0.  1.
         11   -1    0    0    0    0 -0.00000000000E+00 -0.00000000000E+00 -0.45593999997E+02  0.45594000000E+02  0.51100000000E-03 0. -1.
         23    2    1    2    0    0 -0.71054273576E-14  0.00000000000E+00  0.88817841970E-15  0.91188000000E+02  0.91188000000E+02 0.  0.
    9900012    2    3    3    0    0 -0.32416433930E+02  0.16362163391E+02  0.61018364855E+01  0.54367109352E+02  0.40000057391E+02 0.  0.
         12    1    3    3    0    0  0.32416433930E+02 -0.16362163391E+02 -0.61018364855E+01  0.36820890648E+02  0.00000000000E+00 0. -1.
         11    1    4    4    0    0 -0.10035709807E+02 -0.58788086933E+01 -0.22405923689E+01  0.11844666201E+02  0.51100000000E-03 0. -1.
        -11    1    4    4    0    0  0.40005113919E+01  0.12296315811E+02 -0.60068624393E+00  0.12944662921E+02  0.51100000000E-03 0.  1.
        -12    1    4    4    0    0 -0.26381235515E+02  0.99446562733E+01  0.89431150983E+01  0.29577780230E+02  0.00000000000E+00 0.  1.
</event>
<event>
 8    1  0.1229038E-006  0.9118800E+02  0.7816164E-02  0.1184000E+00
        -11   -1    0    0    0    0  0.00000000000E+00  0.00000000000E+00  0.45593999997E+02  0.45594000000E+02  0.51100000000E-03 0. -1.
         11   -1    0    0    0    0 -0.00000000000E+00 -0.00000000000E+00 -0.45593999997E+02  0.45594000000E+02  0.51100000000E-03 0.  1.
         23    2    1    2    0    0  0.00000000000E+00 -0.17763568394E-14 -0.35527136788E-14  0.91188000000E+02  0.91188000000E+02 0.  0.
    9900012    2    3    3    0    0 -0.30717953204E+02 -0.10626890796E+02 -0.17299016706E+02  0.54367089691E+02  0.40000012568E+02 0.  0.
         12    1    3    3    0    0  0.30717953204E+02  0.10626890796E+02  0.17299016706E+02  0.36820910309E+02  0.00000000000E+00 0. -1.
         11    1    4    4    0    0 -0.67183798730E+01  0.28406634510E+00 -0.39288800195E+01  0.77880305774E+01  0.51100000000E-03 0. -1.
        -11    1    4    4    0    0  0.51171318737E+01  0.71290635797E+01 -0.80644133011E+01  0.11918194003E+02  0.51100000000E-03 0.  1.
        -12    1    4    4    0    0 -0.29116705204E+02 -0.18040020721E+02 -0.53057233852E+01  0.34660865111E+02  0.00000000000E+00 0.  1.
</event>
<event>
 8    1  0.1229038E-006  0.9118800E+02  0.7816164E-02  0.1184000E+00
        -11   -1    0    0    0    0  0.00000000000E+00  0.00000000000E+00  0.45593999997E+02  0.45594000000E+02  0.51100000000E-03 0.  1.
         11   -1    0    0    0    0 -0.00000000000E+00 -0.00000000000E+00 -0.45593999997E+02  0.45594000000E+02  0.51100000000E-03 0. -1.
         23    2    1    2    0    0 -0.35527136788E-14  0.00000000000E+00 -0.35527136788E-14  0.91188000000E+02  0.91188000000E+02 0.  0.
    9900012    2    3    3    0    0 -0.26372165909E+02  0.18325531798E+02  0.18012895263E+02  0.54367073257E+02  0.39999975105E+02 0.  0.
         12    1    3    3    0    0  0.26372165909E+02 -0.18325531798E+02 -0.18012895263E+02  0.36820926743E+02  0.00000000000E+00 0. -1.
         11    1    4    4    0    0  0.26577143193E+01  0.57620559672E+00 -0.20897255585E+01  0.34296372204E+01  0.51100000000E-03 0. -1.
        -11    1    4    4    0    0 -0.12767048072E+01  0.41845386637E+01 -0.80374484668E+01  0.91510063441E+01  0.51100000000E-03 0.  1.
        -12    1    4    4    0    0 -0.27753175422E+02  0.13564787537E+02  0.28140069289E+02  0.41786429693E+02  0.00000000000E+00 0.  1.
</event>
<event>
 8    1  0.1229038E-006  0.9118800E+02  0.7816164E-02  0.1184000E+00
        -11   -1    0    0    0    0  0.00000000000E+00  0.00000000000E+00  0.45593999997E+02  0.45594000000E+02  0.51100000000E-03 0. -1.
         11   -1    0    0    0    0 -0.00000000000E+00 -0.00000000000E+00 -0.45593999997E+02  0.45594000000E+02  0.51100000000E-03 0.  1.
         23    2    1    2    0    0  0.00000000000E+00  0.88817841970E-15  0.00000000000E+00  0.91188000000E+02  0.91188000000E+02 0.  0.
    9900012    2    3    3    0    0  0.23582688618E+01 -0.52346779811E+01  0.36370398268E+02  0.54367229289E+02  0.40000330808E+02 0.  0.
        -12    1    3    3    0    0 -0.23582688618E+01  0.52346779811E+01 -0.36370398268E+02  0.36820770711E+02  0.00000000000E+00 0.  1.
         11    1    4    4    0    0  0.10089572826E+02  0.55538687713E+00  0.41189349854E+02  0.42410735386E+02  0.51100000000E-03 0. -1.
        -11    1    4    4    0    0 -0.16218405467E+01 -0.16856562826E+01  0.10294254100E+01  0.25556840177E+01  0.51100000000E-03 0.  1.
         12    1    4    4    0    0 -0.61094634175E+01 -0.41044085756E+01 -0.58483769957E+01  0.94008098847E+01  0.00000000000E+00 0. -1.
</event>
<event>
 8    1  0.1229038E-006  0.9118800E+02  0.7816164E-02  0.1184000E+00
        -11   -1    0    0    0    0  0.00000000000E+00  0.00000000000E+00  0.45593999997E+02  0.45594000000E+02  0.51100000000E-03 0. -1.
         11   -1    0    0    0    0 -0.00000000000E+00 -0.00000000000E+00 -0.45593999997E+02  0.45594000000E+02  0.51100000000E-03 0.  1.
         23    2    1    2    0    0  0.35527136788E-14  0.00000000000E+00  0.00000000000E+00  0.91188000000E+02  0.91188000000E+02 0.  0.
    9900012    2    3    3    0    0  0.23247946948E+02  0.67292333287E+01 -0.27749429942E+02  0.54367075506E+02  0.39999980230E+02 0.  0.
         12    1    3    3    0    0 -0.23247946948E+02 -0.67292333287E+01  0.27749429942E+02  0.36820924494E+02  0.00000000000E+00 0. -1.
         11    1    4    4    0    0 -0.54076860409E+01  0.37565598982E-01  0.57157401359E+01  0.78685554617E+01  0.51100000000E-03 0. -1.
        -11    1    4    4    0    0  0.24636302425E+02  0.25013571228E+01 -0.19986430940E+02  0.31822344455E+02  0.51100000000E-03 0.  1.
        -12    1    4    4    0    0  0.40193305643E+01  0.41903106070E+01 -0.13478739138E+02  0.14676175589E+02  0.00000000000E+00 0.  1.
</event>
<event>
 8    1  0.1229038E-006  0.9118800E+02  0.7816164E-02  0.1184000E+00
        -11   -1    0    0    0    0  0.00000000000E+00  0.00000000000E+00  0.45593999997E+02  0.45594000000E+02  0.51100000000E-03 0.  1.
         11   -1    0    0    0    0 -0.00000000000E+00 -0.00000000000E+00 -0.45593999997E+02  0.45594000000E+02  0.51100000000E-03 0. -1.
         23    2    1    2    0    0  0.00000000000E+00  0.17763568394E-14 -0.35527136788E-14  0.91188000000E+02  0.91188000000E+02 0.  0.
    9900012    2    3    3    0    0  0.16988005628E+02  0.11379844315E+02  0.30621670593E+02  0.54367083366E+02  0.39999998150E+02 0.  0.
         12    1    3    3    0    0 -0.16988005628E+02 -0.11379844315E+02 -0.30621670593E+02  0.36820916634E+02  0.00000000000E+00 0. -1.
         11    1    4    4    0    0  0.70537148123E+01  0.40066780727E+01  0.34598281447E+01  0.88192274539E+01  0.51100000000E-03 0. -1.
        -11    1    4    4    0    0  0.20334641056E+02  0.13553126508E+02  0.17328383151E+02  0.29957598835E+02  0.51100000000E-03 0.  1.
         12    1    4    4    0    0 -0.10400350240E+02 -0.61799602661E+01  0.98334592965E+01  0.15590257078E+02  0.00000000000E+00 0. -1.
</event>
<event>
 8    1  0.1229038E-006  0.9118800E+02  0.7816164E-02  0.1184000E+00
        -11   -1    0    0    0    0  0.00000000000E+00  0.00000000000E+00  0.45593999997E+02  0.45594000000E+02  0.51100000000E-03 0.  1.
         11   -1    0    0    0    0 -0.00000000000E+00 -0.00000000000E+00 -0.45593999997E+02  0.45594000000E+02  0.51100000000E-03 0. -1.
         23    2    1    2    0    0  0.00000000000E+00  0.35527136788E-14  0.00000000000E+00  0.91188000000E+02  0.91188000000E+02 0.  0.
    9900012    2    3    3    0    0 -0.26891759051E+02  0.18716295684E+02  0.16802179493E+02  0.54367086585E+02  0.40000005487E+02 0.  0.
        -12    1    3    3    0    0  0.26891759051E+02 -0.18716295684E+02 -0.16802179493E+02  0.36820913415E+02  0.00000000000E+00 0.  1.
         11    1    4    4    0    0 -0.21931761576E+02  0.25359046089E+02 -0.43812013044E+00  0.33530215238E+02  0.51100000000E-03 0. -1.
        -11    1    4    4    0    0  0.15963226051E+01 -0.30513667633E+01  0.23310543892E+01  0.41584732548E+01  0.51100000000E-03 0.  1.
         12    1    4    4    0    0 -0.65563200804E+01 -0.35913836420E+01  0.14909245235E+02  0.16678398092E+02  0.00000000000E+00 0. -1.
</event>
<event>
 8    1  0.1229038E-006  0.9118800E+02  0.7816164E-02  0.1184000E+00
        -11   -1    0    0    0    0  0.00000000000E+00  0.00000000000E+00  0.45593999997E+02  0.45594000000E+02  0.51100000000E-03 0.  1.
         11   -1    0    0    0    0 -0.00000000000E+00 -0.00000000000E+00 -0.45593999997E+02  0.45594000000E+02  0.51100000000E-03 0. -1.
         23    2    1    2    0    0  0.00000000000E+00 -0.17763568394E-14  0.00000000000E+00  0.91188000000E+02  0.91188000000E+02 0.  0.
    9900012    2    3    3    0    0 -0.18067009415E+02 -0.13870118077E+02 -0.28930651719E+02  0.54367087280E+02  0.40000007071E+02 0.  0.
        -12    1    3    3    0    0  0.18067009415E+02  0.13870118077E+02  0.28930651719E+02  0.36820912720E+02  0.00000000000E+00 0.  1.
         11    1    4    4    0    0 -0.12703326029E+02 -0.21944493291E+02 -0.20859856588E+02  0.32833959480E+02  0.51100000000E-03 0. -1.
        -11    1    4    4    0    0 -0.44032831385E+01 -0.50062480634E+01 -0.13769649102E+01  0.68078964956E+01  0.51100000000E-03 0.  1.
        -12    1    4    4    0    0 -0.96040024816E+00  0.13080623277E+02 -0.66938302202E+01  0.14725231304E+02  0.00000000000E+00 0.  1.
</event>
<event>
 8    1  0.1229038E-006  0.9118800E+02  0.7816164E-02  0.1184000E+00
        -11   -1    0    0    0    0  0.00000000000E+00  0.00000000000E+00  0.45593999997E+02  0.45594000000E+02  0.51100000000E-03 0.  1.
         11   -1    0    0    0    0 -0.00000000000E+00 -0.00000000000E+00 -0.45593999997E+02  0.45594000000E+02  0.51100000000E-03 0. -1.
         23    2    1    2    0    0  0.00000000000E+00  0.00000000000E+00  0.00000000000E+00  0.91188000000E+02  0.91188000000E+02 0.  0.
    9900012    2    3    3    0    0 -0.26221014266E+02  0.13936945718E+02 -0.21771530060E+02  0.54367087922E+02  0.40000008536E+02 0.  0.
        -12    1    3    3    0    0  0.26221014266E+02 -0.13936945718E+02  0.21771530060E+02  0.36820912078E+02  0.00000000000E+00 0.  1.
         11    1    4    4    0    0 -0.85832310438E+01  0.13121870500E+02 -0.26354314050E+01  0.15899711932E+02  0.51100000000E-03 0. -1.
        -11    1    4    4    0    0 -0.14067903690E+02  0.13846161282E+02 -0.12946999995E+02  0.23606077726E+02  0.51100000000E-03 0.  1.
        -12    1    4    4    0    0 -0.35698795322E+01 -0.13031086064E+02 -0.61890986606E+01  0.14861298264E+02  0.00000000000E+00 0.  1.
</event>
<event>
 8    1  0.1229038E-006  0.9118800E+02  0.7816164E-02  0.1184000E+00
        -11   -1    0    0    0    0  0.00000000000E+00  0.00000000000E+00  0.45593999997E+02  0.45594000000E+02  0.51100000000E-03 0.  1.
         11   -1    0    0    0    0 -0.00000000000E+00 -0.00000000000E+00 -0.45593999997E+02  0.45594000000E+02  0.51100000000E-03 0. -1.
         23    2    1    2    0    0 -0.71054273576E-14  0.00000000000E+00 -0.44408920985E-15  0.91188000000E+02  0.91188000000E+02 0.  0.
    9900012    2    3    3    0    0  0.35207260642E+02 -0.10317853468E+02  0.31257533188E+01  0.54367086976E+02  0.40000006380E+02 0.  0.
         12    1    3    3    0    0 -0.35207260642E+02  0.10317853468E+02 -0.31257533188E+01  0.36820913024E+02  0.00000000000E+00 0. -1.
         11    1    4    4    0    0  0.17719133573E+02  0.41601709297E+01  0.15798127913E+02  0.24100945263E+02  0.51100000000E-03 0. -1.
        -11    1    4    4    0    0 -0.22235571819E+01 -0.23387652397E+01 -0.48596934315E+01  0.58335795098E+01  0.51100000000E-03 0.  1.
        -12    1    4    4    0    0  0.19711684250E+02 -0.12139259158E+02 -0.78126811626E+01  0.24432562204E+02  0.00000000000E+00 0.  1.
</event>
<event>
 8    1  0.1229038E-006  0.9118800E+02  0.7816164E-02  0.1184000E+00
        -11   -1    0    0    0    0  0.00000000000E+00  0.00000000000E+00  0.45593999997E+02  0.45594000000E+02  0.51100000000E-03 0.  1.
         11   -1    0    0    0    0 -0.00000000000E+00 -0.00000000000E+00 -0.45593999997E+02  0.45594000000E+02  0.51100000000E-03 0. -1.
         23    2    1    2    0    0 -0.17763568394E-14  0.00000000000E+00  0.00000000000E+00  0.91188000000E+02  0.91188000000E+02 0.  0.
    9900012    2    3    3    0    0  0.14846112783E+02  0.25185285462E+02  0.22384687965E+02  0.54367083066E+02  0.39999997466E+02 0.  0.
         12    1    3    3    0    0 -0.14846112783E+02 -0.25185285462E+02 -0.22384687965E+02  0.36820916934E+02  0.00000000000E+00 0. -1.
         11    1    4    4    0    0  0.72070321964E+01  0.34478643254E+02  0.20118339460E+02  0.40564340702E+02  0.51100000000E-03 0. -1.
        -11    1    4    4    0    0  0.83566185508E+00 -0.13322957616E+01  0.29132811791E+01  0.33106721708E+01  0.51100000000E-03 0.  1.
         12    1    4    4    0    0  0.68034187310E+01 -0.79610620297E+01 -0.64693267425E+00  0.10492070194E+02  0.00000000000E+00 0. -1.
</event>
<event>
 8    1  0.1229038E-006  0.9118800E+02  0.7816164E-02  0.1184000E+00
        -11   -1    0    0    0    0  0.00000000000E+00  0.00000000000E+00  0.45593999997E+02  0.45594000000E+02  0.51100000000E-03 0.  1.
         11   -1    0    0    0    0 -0.00000000000E+00 -0.00000000000E+00 -0.45593999997E+02  0.45594000000E+02  0.51100000000E-03 0. -1.
         23    2    1    2    0    0  0.00000000000E+00  0.00000000000E+00 -0.88817841970E-15  0.91188000000E+02  0.91188000000E+02 0.  0.
    9900012    2    3    3    0    0 -0.32768211285E+02  0.16399764264E+02  0.36155330920E+01  0.54367081784E+02  0.39999994543E+02 0.  0.
         12    1    3    3    0    0  0.32768211285E+02 -0.16399764264E+02 -0.36155330920E+01  0.36820918216E+02  0.00000000000E+00 0. -1.
         11    1    4    4    0    0 -0.28536537551E+02  0.17632656605E+01 -0.36566316647E+01  0.28823844930E+02  0.51100000000E-03 0. -1.
        -11    1    4    4    0    0 -0.80502730255E+01  0.17615863960E+02  0.73043907879E+01  0.20699750817E+02  0.51100000000E-03 0.  1.
        -12    1    4    4    0    0  0.38185992912E+01 -0.29793653562E+01 -0.32226031204E-01  0.48434860369E+01  0.00000000000E+00 0.  1.
</event>
<event>
 8    1  0.1229038E-006  0.9118800E+02  0.7816164E-02  0.1184000E+00
        -11   -1    0    0    0    0  0.00000000000E+00  0.00000000000E+00  0.45593999997E+02  0.45594000000E+02  0.51100000000E-03 0.  1.
         11   -1    0    0    0    0 -0.00000000000E+00 -0.00000000000E+00 -0.45593999997E+02  0.45594000000E+02  0.51100000000E-03 0. -1.
         23    2    1    2    0    0 -0.22204460493E-14  0.00000000000E+00  0.00000000000E+00  0.91188000000E+02  0.91188000000E+02 0.  0.
    9900012    2    3    3    0    0 -0.38456260946E+01  0.30128909492E+02  0.20814421290E+02  0.54367079848E+02  0.39999990129E+02 0.  0.
         12    1    3    3    0    0  0.38456260946E+01 -0.30128909492E+02 -0.20814421290E+02  0.36820920152E+02  0.00000000000E+00 0. -1.
         11    1    4    4    0    0  0.10905363191E+02  0.16821347678E+02 -0.68667747356E+00  0.20058818765E+02  0.51100000000E-03 0. -1.
        -11    1    4    4    0    0 -0.18723427381E+02  0.10079338763E+02  0.19369275912E+02  0.28763321303E+02  0.51100000000E-03 0.  1.
        -12    1    4    4    0    0  0.39724380952E+01  0.32282230506E+01  0.21318228516E+01  0.55449397792E+01  0.00000000000E+00 0.  1.
</event>
<event>
 8    1  0.1229038E-006  0.9118800E+02  0.7816164E-02  0.1184000E+00
        -11   -1    0    0    0    0  0.00000000000E+00  0.00000000000E+00  0.45593999997E+02  0.45594000000E+02  0.51100000000E-03 0.  1.
         11   -1    0    0    0    0 -0.00000000000E+00 -0.00000000000E+00 -0.45593999997E+02  0.45594000000E+02  0.51100000000E-03 0. -1.
         23    2    1    2    0    0  0.00000000000E+00 -0.17763568394E-14 -0.88817841970E-15  0.91188000000E+02  0.91188000000E+02 0.  0.
    9900012    2    3    3    0    0  0.32565198255E+02 -0.15613675700E+02  0.71771427577E+01  0.54366941020E+02  0.39999673643E+02 0.  0.
         12    1    3    3    0    0 -0.32565198255E+02  0.15613675700E+02 -0.71771427577E+01  0.36821058980E+02  0.00000000000E+00 0. -1.
         11    1    4    4    0    0  0.22389906519E+02 -0.11774718076E+02  0.20089133629E+02  0.32303640505E+02  0.51100000000E-03 0.  1.
        -11    1    4    4    0    0  0.94591863833E+01  0.32028709452E+01 -0.10725662230E+02  0.14655184061E+02  0.51100000000E-03 0. -1.
        -12    1    4    4    0    0  0.71610535276E+00 -0.70418285686E+01 -0.21863286407E+01  0.74081164536E+01  0.00000000000E+00 0.  1.
</event>
<event>
 8    1  0.1229038E-006  0.9118800E+02  0.7816164E-02  0.1184000E+00
        -11   -1    0    0    0    0  0.00000000000E+00  0.00000000000E+00  0.45593999997E+02  0.45594000000E+02  0.51100000000E-03 0.  1.
         11   -1    0    0    0    0 -0.00000000000E+00 -0.00000000000E+00 -0.45593999997E+02  0.45594000000E+02  0.51100000000E-03 0. -1.
         23    2    1    2    0    0 -0.22204460493E-15 -0.71054273576E-14  0.88817841970E-15  0.91188000000E+02  0.91188000000E+02 0.  0.
    9900012    2    3    3    0    0  0.16396590077E+01  0.36256390381E+02 -0.62106324005E+01  0.54366996755E+02  0.39999800702E+02 0.  0.
         12    1    3    3    0    0 -0.16396590077E+01 -0.36256390381E+02  0.62106324005E+01  0.36821003245E+02  0.00000000000E+00 0. -1.
         11    1    4    4    0    0 -0.16688220456E+02  0.12281871240E+02  0.12628067442E+01  0.20758991890E+02  0.51100000000E-03 0. -1.
        -11    1    4    4    0    0  0.57494886769E+01  0.27716633807E+00  0.61548940441E-02  0.57561688100E+01  0.51100000000E-03 0.  1.
        -12    1    4    4    0    0  0.12578390787E+02  0.23697352803E+02 -0.74795940387E+01  0.27851836055E+02  0.00000000000E+00 0.  1.
</event>
<event>
 8    1  0.1229038E-006  0.9118800E+02  0.7816164E-02  0.1184000E+00
        -11   -1    0    0    0    0  0.00000000000E+00  0.00000000000E+00  0.45593999997E+02  0.45594000000E+02  0.51100000000E-03 0.  1.
         11   -1    0    0    0    0 -0.00000000000E+00 -0.00000000000E+00 -0.45593999997E+02  0.45594000000E+02  0.51100000000E-03 0. -1.
         23    2    1    2    0    0  0.00000000000E+00  0.13322676296E-14  0.00000000000E+00  0.91188000000E+02  0.91188000000E+02 0.  0.
    9900012    2    3    3    0    0 -0.31855170607E+02  0.31363600298E+01  0.18198643234E+02  0.54367092024E+02  0.40000017886E+02 0.  0.
         12    1    3    3    0    0  0.31855170607E+02 -0.31363600298E+01 -0.18198643234E+02  0.36820907976E+02  0.00000000000E+00 0. -1.
         11    1    4    4    0    0 -0.80353349518E+00  0.12392500704E+01 -0.34723433760E+01  0.37734037150E+01  0.51100000000E-03 0. -1.
        -11    1    4    4    0    0 -0.33044970781E+02 -0.76785919611E+01  0.22607470455E+02  0.40767984854E+02  0.51100000000E-03 0.  1.
        -12    1    4    4    0    0  0.19933336687E+01  0.95757019204E+01 -0.93648384558E+00  0.98257034546E+01  0.00000000000E+00 0.  1.
</event>
<event>
 8    1  0.1229038E-006  0.9118800E+02  0.7816164E-02  0.1184000E+00
        -11   -1    0    0    0    0  0.00000000000E+00  0.00000000000E+00  0.45593999997E+02  0.45594000000E+02  0.51100000000E-03 0. -1.
         11   -1    0    0    0    0 -0.00000000000E+00 -0.00000000000E+00 -0.45593999997E+02  0.45594000000E+02  0.51100000000E-03 0.  1.
         23    2    1    2    0    0 -0.35527136788E-14  0.00000000000E+00 -0.17763568394E-14  0.91188000000E+02  0.91188000000E+02 0.  0.
    9900012    2    3    3    0    0  0.30046701489E+02  0.16903994857E+02  0.12931756577E+02  0.54367086912E+02  0.40000006233E+02 0.  0.
        -12    1    3    3    0    0 -0.30046701489E+02 -0.16903994857E+02 -0.12931756577E+02  0.36820913088E+02  0.00000000000E+00 0.  1.
         11    1    4    4    0    0  0.10948296045E+02 -0.74771319013E+01 -0.56396764469E+01  0.14407589612E+02  0.51100000000E-03 0. -1.
        -11    1    4    4    0    0  0.10129328658E+01  0.14728015589E+02  0.93969159360E+01  0.17499785872E+02  0.51100000000E-03 0.  1.
         12    1    4    4    0    0  0.18085472578E+02  0.96531111692E+01  0.91745170874E+01  0.22459711428E+02  0.00000000000E+00 0. -1.
</event>
<event>
 8    1  0.1229038E-006  0.9118800E+02  0.7816164E-02  0.1184000E+00
        -11   -1    0    0    0    0  0.00000000000E+00  0.00000000000E+00  0.45593999997E+02  0.45594000000E+02  0.51100000000E-03 0. -1.
         11   -1    0    0    0    0 -0.00000000000E+00 -0.00000000000E+00 -0.45593999997E+02  0.45594000000E+02  0.51100000000E-03 0.  1.
         23    2    1    2    0    0  0.17763568394E-14  0.35527136788E-14  0.00000000000E+00  0.91188000000E+02  0.91188000000E+02 0.  0.
    9900012    2    3    3    0    0  0.15957897995E+02  0.26167232147E+02 -0.20405902070E+02  0.54367090370E+02  0.40000014118E+02 0.  0.
        -12    1    3    3    0    0 -0.15957897995E+02 -0.26167232147E+02  0.20405902070E+02  0.36820909630E+02  0.00000000000E+00 0.  1.
         11    1    4    4    0    0  0.61817168575E+00 -0.19271386644E+01  0.76639464611E+01  0.79266686120E+01  0.51100000000E-03 0. -1.
        -11    1    4    4    0    0  0.15924311078E+02  0.10157062461E+02 -0.16564214749E+02  0.25122157783E+02  0.51100000000E-03 0.  1.
        -12    1    4    4    0    0 -0.58458476885E+00  0.17937308351E+02 -0.11505633782E+02  0.21318263975E+02  0.00000000000E+00 0.  1.
</event>
<event>
 8    1  0.1229038E-006  0.9118800E+02  0.7816164E-02  0.1184000E+00
        -11   -1    0    0    0    0  0.00000000000E+00  0.00000000000E+00  0.45593999997E+02  0.45594000000E+02  0.51100000000E-03 0.  1.
         11   -1    0    0    0    0 -0.00000000000E+00 -0.00000000000E+00 -0.45593999997E+02  0.45594000000E+02  0.51100000000E-03 0. -1.
         23    2    1    2    0    0  0.00000000000E+00  0.00000000000E+00  0.00000000000E+00  0.91188000000E+02  0.91188000000E+02 0.  0.
    9900012    2    3    3    0    0 -0.13780334435E+02  0.45666015631E+01  0.33838284994E+02  0.54367068476E+02  0.39999964204E+02 0.  0.
         12    1    3    3    0    0  0.13780334435E+02 -0.45666015631E+01 -0.33838284994E+02  0.36820931524E+02  0.00000000000E+00 0. -1.
         11    1    4    4    0    0 -0.74917188586E+01 -0.25715350678E+01  0.34044351790E+02  0.34953634047E+02  0.51100000000E-03 0. -1.
        -11    1    4    4    0    0 -0.75225723537E+01 -0.37673352262E+01  0.38965873517E+00  0.84222172682E+01  0.51100000000E-03 0.  1.
         12    1    4    4    0    0  0.12339567768E+01  0.10905471857E+02 -0.59572553146E+00  0.10991217160E+02  0.00000000000E+00 0. -1.
</event>
<event>
 8    1  0.1229038E-006  0.9118800E+02  0.7816164E-02  0.1184000E+00
        -11   -1    0    0    0    0  0.00000000000E+00  0.00000000000E+00  0.45593999997E+02  0.45594000000E+02  0.51100000000E-03 0. -1.
         11   -1    0    0    0    0 -0.00000000000E+00 -0.00000000000E+00 -0.45593999997E+02  0.45594000000E+02  0.51100000000E-03 0.  1.
         23    2    1    2    0    0  0.35527136788E-14 -0.35527136788E-14  0.00000000000E+00  0.91188000000E+02  0.91188000000E+02 0.  0.
    9900012    2    3    3    0    0  0.18510128508E+02 -0.26476136742E+02 -0.17668304234E+02  0.54367086803E+02  0.40000005986E+02 0.  0.
         12    1    3    3    0    0 -0.18510128508E+02  0.26476136742E+02  0.17668304234E+02  0.36820913197E+02  0.00000000000E+00 0. -1.
         11    1    4    4    0    0  0.34444075617E+00  0.53162972522E+01 -0.21968344964E+01  0.57626155498E+01  0.51100000000E-03 0. -1.
        -11    1    4    4    0    0  0.11720251164E+01 -0.27553186400E+02 -0.14263712262E+02  0.31048433317E+02  0.51100000000E-03 0.  1.
        -12    1    4    4    0    0  0.16993662635E+02 -0.42392475938E+01 -0.12077574751E+01  0.17556037937E+02  0.00000000000E+00 0.  1.
</event>
<event>
 8    1  0.1229038E-006  0.9118800E+02  0.7816164E-02  0.1184000E+00
        -11   -1    0    0    0    0  0.00000000000E+00  0.00000000000E+00  0.45593999997E+02  0.45594000000E+02  0.51100000000E-03 0.  1.
         11   -1    0    0    0    0 -0.00000000000E+00 -0.00000000000E+00 -0.45593999997E+02  0.45594000000E+02  0.51100000000E-03 0. -1.
         23    2    1    2    0    0  0.00000000000E+00  0.00000000000E+00  0.88817841970E-15  0.91188000000E+02  0.91188000000E+02 0.  0.
    9900012    2    3    3    0    0  0.33395629496E+02 -0.14209433789E+02  0.62131387267E+01  0.54367093291E+02  0.40000020775E+02 0.  0.
         12    1    3    3    0    0 -0.33395629496E+02  0.14209433789E+02 -0.62131387267E+01  0.36820906709E+02  0.00000000000E+00 0. -1.
         11    1    4    4    0    0  0.98856399273E+01 -0.52584076701E+01 -0.10740806395E+02  0.15515851581E+02  0.51100000000E-03 0. -1.
        -11    1    4    4    0    0  0.14078397108E+02  0.69537997769E+01  0.11840914354E+02  0.19666312554E+02  0.51100000000E-03 0.  1.
        -12    1    4    4    0    0  0.94315924607E+01 -0.15904825896E+02  0.51130307679E+01  0.19184929157E+02  0.00000000000E+00 0.  1.
</event>
<event>
 8    1  0.1229038E-006  0.9118800E+02  0.7816164E-02  0.1184000E+00
        -11   -1    0    0    0    0  0.00000000000E+00  0.00000000000E+00  0.45593999997E+02  0.45594000000E+02  0.51100000000E-03 0.  1.
         11   -1    0    0    0    0 -0.00000000000E+00 -0.00000000000E+00 -0.45593999997E+02  0.45594000000E+02  0.51100000000E-03 0. -1.
         23    2    1    2    0    0  0.00000000000E+00  0.00000000000E+00  0.00000000000E+00  0.91188000000E+02  0.91188000000E+02 0.  0.
    9900012    2    3    3    0    0  0.24617135058E+02 -0.36267907031E+01  0.27140746026E+02  0.54367122171E+02  0.40000086613E+02 0.  0.
         12    1    3    3    0    0 -0.24617135058E+02  0.36267907031E+01 -0.27140746026E+02  0.36820877829E+02  0.00000000000E+00 0. -1.
         11    1    4    4    0    0  0.20221080346E+01  0.22786942198E+01 -0.38149973057E+01  0.48821688781E+01  0.51100000000E-03 0. -1.
        -11    1    4    4    0    0  0.60715360673E+01 -0.13103479352E+01  0.31715097221E+02  0.32317610585E+02  0.51100000000E-03 0.  1.
        -12    1    4    4    0    0  0.16523490956E+02 -0.45951369878E+01 -0.75935388948E+00  0.17167342708E+02  0.00000000000E+00 0.  1.
</event>
<event>
 8    1  0.1229038E-006  0.9118800E+02  0.7816164E-02  0.1184000E+00
        -11   -1    0    0    0    0  0.00000000000E+00  0.00000000000E+00  0.45593999997E+02  0.45594000000E+02  0.51100000000E-03 0.  1.
         11   -1    0    0    0    0 -0.00000000000E+00 -0.00000000000E+00 -0.45593999997E+02  0.45594000000E+02  0.51100000000E-03 0. -1.
         23    2    1    2    0    0  0.17763568394E-14  0.00000000000E+00  0.00000000000E+00  0.91188000000E+02  0.91188000000E+02 0.  0.
    9900012    2    3    3    0    0  0.14674618159E+02  0.27746527051E+02 -0.19250058947E+02  0.54367096277E+02  0.40000027583E+02 0.  0.
        -12    1    3    3    0    0 -0.14674618159E+02 -0.27746527051E+02  0.19250058947E+02  0.36820903723E+02  0.00000000000E+00 0.  1.
         11    1    4    4    0    0  0.35040310606E+00  0.18380254194E+02 -0.10125576841E+02  0.20987706716E+02  0.51100000000E-03 0. -1.
        -11    1    4    4    0    0  0.21137745528E+02  0.74512952861E+01 -0.76428734573E+00  0.22425659920E+02  0.51100000000E-03 0.  1.
        -12    1    4    4    0    0 -0.68135304751E+01  0.19149775715E+01 -0.83601947595E+01  0.10953729641E+02  0.00000000000E+00 0.  1.
</event>
<event>
 8    1  0.1229038E-006  0.9118800E+02  0.7816164E-02  0.1184000E+00
        -11   -1    0    0    0    0  0.00000000000E+00  0.00000000000E+00  0.45593999997E+02  0.45594000000E+02  0.51100000000E-03 0. -1.
         11   -1    0    0    0    0 -0.00000000000E+00 -0.00000000000E+00 -0.45593999997E+02  0.45594000000E+02  0.51100000000E-03 0.  1.
         23    2    1    2    0    0 -0.35527136788E-14 -0.35527136788E-14  0.24424906542E-14  0.91188000000E+02  0.91188000000E+02 0.  0.
    9900012    2    3    3    0    0 -0.27892158084E+02 -0.24016410013E+02  0.10094895561E+01  0.54367088799E+02  0.40000010536E+02 0.  0.
        -12    1    3    3    0    0  0.27892158084E+02  0.24016410013E+02 -0.10094895561E+01  0.36820911201E+02  0.00000000000E+00 0.  1.
         11    1    4    4    0    0 -0.99828005882E+01 -0.95628407405E+01  0.36529688181E+01  0.14298545802E+02  0.51100000000E-03 0. -1.
        -11    1    4    4    0    0 -0.11262817123E+02  0.54454610238E+01  0.96076339474E+01  0.15773735310E+02  0.51100000000E-03 0.  1.
        -12    1    4    4    0    0 -0.66465403723E+01 -0.19899030296E+02 -0.12251113209E+02  0.24294807687E+02  0.00000000000E+00 0.  1.
</event>
<event>
 8    1  0.1229038E-006  0.9118800E+02  0.7816164E-02  0.1184000E+00
        -11   -1    0    0    0    0  0.00000000000E+00  0.00000000000E+00  0.45593999997E+02  0.45594000000E+02  0.51100000000E-03 0.  1.
         11   -1    0    0    0    0 -0.00000000000E+00 -0.00000000000E+00 -0.45593999997E+02  0.45594000000E+02  0.51100000000E-03 0. -1.
         23    2    1    2    0    0  0.00000000000E+00  0.00000000000E+00  0.00000000000E+00  0.91188000000E+02  0.91188000000E+02 0.  0.
    9900012    2    3    3    0    0 -0.29367327224E+02  0.20684077047E+02 -0.80937548669E+01  0.54367084484E+02  0.40000000698E+02 0.  0.
        -12    1    3    3    0    0  0.29367327224E+02 -0.20684077047E+02  0.80937548669E+01  0.36820915516E+02  0.00000000000E+00 0.  1.
         11    1    4    4    0    0 -0.25933845348E+02  0.27320799011E+01 -0.21168081949E+01  0.26163131929E+02  0.51100000000E-03 0. -1.
        -11    1    4    4    0    0 -0.22949667272E+01  0.28642852518E+01  0.72376793613E+01  0.81151096777E+01  0.51100000000E-03 0.  1.
        -12    1    4    4    0    0 -0.11385151492E+01  0.15087711894E+02 -0.13214626033E+02  0.20088842877E+02  0.00000000000E+00 0.  1.
</event>
<event>
 8    1  0.1229038E-006  0.9118800E+02  0.7816164E-02  0.1184000E+00
        -11   -1    0    0    0    0  0.00000000000E+00  0.00000000000E+00  0.45593999997E+02  0.45594000000E+02  0.51100000000E-03 0.  1.
         11   -1    0    0    0    0 -0.00000000000E+00 -0.00000000000E+00 -0.45593999997E+02  0.45594000000E+02  0.51100000000E-03 0. -1.
         23    2    1    2    0    0  0.00000000000E+00  0.00000000000E+00  0.88817841970E-15  0.91188000000E+02  0.91188000000E+02 0.  0.
    9900012    2    3    3    0    0 -0.30645011760E+02  0.18986675786E+02  0.74945491345E+01  0.54367097378E+02  0.40000030093E+02 0.  0.
        -12    1    3    3    0    0  0.30645011760E+02 -0.18986675786E+02 -0.74945491345E+01  0.36820902622E+02  0.00000000000E+00 0.  1.
         11    1    4    4    0    0 -0.10145985216E+02  0.54371066229E+01 -0.22865750295E+01  0.11735909426E+02  0.51100000000E-03 0. -1.
        -11    1    4    4    0    0 -0.14468121746E+02  0.24473286911E+02  0.34490020185E+01  0.28638504400E+02  0.51100000000E-03 0.  1.
        -12    1    4    4    0    0 -0.60309047983E+01 -0.10923717748E+02  0.63321221455E+01  0.13992683552E+02  0.00000000000E+00 0.  1.
</event>
<event>
 8    1  0.1229038E-006  0.9118800E+02  0.7816164E-02  0.1184000E+00
        -11   -1    0    0    0    0  0.00000000000E+00  0.00000000000E+00  0.45593999997E+02  0.45594000000E+02  0.51100000000E-03 0. -1.
         11   -1    0    0    0    0 -0.00000000000E+00 -0.00000000000E+00 -0.45593999997E+02  0.45594000000E+02  0.51100000000E-03 0.  1.
         23    2    1    2    0    0  0.00000000000E+00 -0.17763568394E-14  0.00000000000E+00  0.91188000000E+02  0.91188000000E+02 0.  0.
    9900012    2    3    3    0    0 -0.20061903570E+02 -0.15399612799E+02 -0.26761012748E+02  0.54367084034E+02  0.39999999673E+02 0.  0.
         12    1    3    3    0    0  0.20061903570E+02  0.15399612799E+02  0.26761012748E+02  0.36820915966E+02  0.00000000000E+00 0. -1.
         11    1    4    4    0    0 -0.10862697070E+01  0.17857830251E+01 -0.13218543620E+01  0.24731158696E+01  0.51100000000E-03 0. -1.
        -11    1    4    4    0    0 -0.17464484848E+02  0.65064406805E+01 -0.20387784507E+02  0.27622522671E+02  0.51100000000E-03 0.  1.
        -12    1    4    4    0    0 -0.15111490155E+01 -0.23691836504E+02 -0.50513738794E+01  0.24271445494E+02  0.00000000000E+00 0.  1.
</event>
<event>
 8    1  0.1229038E-006  0.9118800E+02  0.7816164E-02  0.1184000E+00
        -11   -1    0    0    0    0  0.00000000000E+00  0.00000000000E+00  0.45593999997E+02  0.45594000000E+02  0.51100000000E-03 0.  1.
         11   -1    0    0    0    0 -0.00000000000E+00 -0.00000000000E+00 -0.45593999997E+02  0.45594000000E+02  0.51100000000E-03 0. -1.
         23    2    1    2    0    0  0.00000000000E+00  0.88817841970E-15  0.26645352591E-14  0.91188000000E+02  0.91188000000E+02 0.  0.
    9900012    2    3    3    0    0  0.36086896995E+02  0.63251621228E+01  0.36752726109E+01  0.54367089645E+02  0.40000012464E+02 0.  0.
         12    1    3    3    0    0 -0.36086896995E+02 -0.63251621228E+01 -0.36752726109E+01  0.36820910355E+02  0.00000000000E+00 0. -1.
         11    1    4    4    0    0  0.12474231234E+02 -0.56269252106E+01 -0.53277070540E+01  0.14685135169E+02  0.51100000000E-03 0. -1.
        -11    1    4    4    0    0  0.16447797271E+02  0.11596892149E+01 -0.79833951446E+01  0.18319648262E+02  0.51100000000E-03 0.  1.
        -12    1    4    4    0    0  0.71648684896E+01  0.10792398119E+02  0.16986374809E+02  0.21362306214E+02  0.00000000000E+00 0.  1.
</event>
<event>
 8    1  0.1229038E-006  0.9118800E+02  0.7816164E-02  0.1184000E+00
        -11   -1    0    0    0    0  0.00000000000E+00  0.00000000000E+00  0.45593999997E+02  0.45594000000E+02  0.51100000000E-03 0.  1.
         11   -1    0    0    0    0 -0.00000000000E+00 -0.00000000000E+00 -0.45593999997E+02  0.45594000000E+02  0.51100000000E-03 0. -1.
         23    2    1    2    0    0  0.00000000000E+00  0.00000000000E+00  0.00000000000E+00  0.91188000000E+02  0.91188000000E+02 0.  0.
    9900012    2    3    3    0    0  0.34549997176E+02  0.80150746449E+01 -0.98912219056E+01  0.54367082070E+02  0.39999995196E+02 0.  0.
         12    1    3    3    0    0 -0.34549997176E+02 -0.80150746449E+01  0.98912219056E+01  0.36820917930E+02  0.00000000000E+00 0. -1.
         11    1    4    4    0    0  0.17240849149E+02  0.71701510550E+01 -0.12220519111E+01  0.18712331674E+02  0.51100000000E-03 0. -1.
        -11    1    4    4    0    0  0.11719924670E+02  0.41168750763E+01  0.99663648155E+01  0.15925882160E+02  0.51100000000E-03 0.  1.
         12    1    4    4    0    0  0.55892233561E+01 -0.32719514863E+01 -0.18635534810E+02  0.19728868237E+02  0.00000000000E+00 0. -1.
</event>
<event>
 8    1  0.1229038E-006  0.9118800E+02  0.7816164E-02  0.1184000E+00
        -11   -1    0    0    0    0  0.00000000000E+00  0.00000000000E+00  0.45593999997E+02  0.45594000000E+02  0.51100000000E-03 0.  1.
         11   -1    0    0    0    0 -0.00000000000E+00 -0.00000000000E+00 -0.45593999997E+02  0.45594000000E+02  0.51100000000E-03 0. -1.
         23    2    1    2    0    0  0.00000000000E+00 -0.44408920985E-15  0.35527136788E-14  0.91188000000E+02  0.91188000000E+02 0.  0.
    9900012    2    3    3    0    0 -0.27633618660E+02  0.36109233452E+01 -0.24065040487E+02  0.54367057301E+02  0.39999938728E+02 0.  0.
        -12    1    3    3    0    0  0.27633618660E+02 -0.36109233452E+01  0.24065040487E+02  0.36820942699E+02  0.00000000000E+00 0.  1.
         11    1    4    4    0    0 -0.22050301829E+02 -0.15900584923E+01 -0.17528905854E+02  0.28213589589E+02  0.51100000000E-03 0. -1.
        -11    1    4    4    0    0 -0.89072095565E+00 -0.96555348992E+01 -0.17354400265E+01  0.98506086287E+01  0.51100000000E-03 0.  1.
         12    1    4    4    0    0 -0.46925958747E+01  0.14856516737E+02 -0.48006946062E+01  0.16302859083E+02  0.00000000000E+00 0. -1.
</event>
<event>
 8    1  0.1229038E-006  0.9118800E+02  0.7816164E-02  0.1184000E+00
        -11   -1    0    0    0    0  0.00000000000E+00  0.00000000000E+00  0.45593999997E+02  0.45594000000E+02  0.51100000000E-03 0. -1.
         11   -1    0    0    0    0 -0.00000000000E+00 -0.00000000000E+00 -0.45593999997E+02  0.45594000000E+02  0.51100000000E-03 0.  1.
         23    2    1    2    0    0  0.00000000000E+00  0.88817841970E-15  0.00000000000E+00  0.91188000000E+02  0.91188000000E+02 0.  0.
    9900012    2    3    3    0    0  0.35761534452E+02  0.45958300600E+01  0.74678327237E+01  0.54367115629E+02  0.40000071698E+02 0.  0.
         12    1    3    3    0    0 -0.35761534452E+02 -0.45958300600E+01 -0.74678327237E+01  0.36820884371E+02  0.00000000000E+00 0. -1.
         11    1    4    4    0    0  0.85581576719E+01  0.12307504646E+02 -0.91629944056E+01  0.17569211709E+02  0.51100000000E-03 0. -1.
        -11    1    4    4    0    0  0.91724128093E+01  0.52835826661E+01  0.58708900974E+01  0.12104410491E+02  0.51100000000E-03 0.  1.
         12    1    4    4    0    0  0.18030963971E+02 -0.12995257252E+02  0.10759937032E+02  0.24693493428E+02  0.00000000000E+00 0. -1.
</event>
<event>
 8    1  0.1229038E-006  0.9118800E+02  0.7816164E-02  0.1184000E+00
        -11   -1    0    0    0    0  0.00000000000E+00  0.00000000000E+00  0.45593999997E+02  0.45594000000E+02  0.51100000000E-03 0. -1.
         11   -1    0    0    0    0 -0.00000000000E+00 -0.00000000000E+00 -0.45593999997E+02  0.45594000000E+02  0.51100000000E-03 0.  1.
         23    2    1    2    0    0  0.44408920985E-15  0.00000000000E+00  0.00000000000E+00  0.91188000000E+02  0.91188000000E+02 0.  0.
    9900012    2    3    3    0    0 -0.38745480668E+01  0.31846068527E+02  0.18071872747E+02  0.54367125649E+02  0.40000094542E+02 0.  0.
        -12    1    3    3    0    0  0.38745480668E+01 -0.31846068527E+02 -0.18071872747E+02  0.36820874351E+02  0.00000000000E+00 0.  1.
         11    1    4    4    0    0 -0.13692959178E+02  0.20344441441E+02  0.11100456565E+02  0.26918647158E+02  0.51100000000E-03 0.  1.
        -11    1    4    4    0    0  0.98534757856E+01  0.15404115623E+02  0.11397798988E+02  0.21547333598E+02  0.51100000000E-03 0. -1.
         12    1    4    4    0    0 -0.35064673899E-01 -0.39024885362E+01 -0.44263828054E+01  0.59011448928E+01  0.00000000000E+00 0. -1.
</event>
<event>
 8    1  0.1229038E-006  0.9118800E+02  0.7816164E-02  0.1184000E+00
        -11   -1    0    0    0    0  0.00000000000E+00  0.00000000000E+00  0.45593999997E+02  0.45594000000E+02  0.51100000000E-03 0.  1.
         11   -1    0    0    0    0 -0.00000000000E+00 -0.00000000000E+00 -0.45593999997E+02  0.45594000000E+02  0.51100000000E-03 0. -1.
         23    2    1    2    0    0  0.00000000000E+00  0.71054273576E-14  0.17763568394E-14  0.91188000000E+02  0.91188000000E+02 0.  0.
    9900012    2    3    3    0    0  0.15991216880E+02  0.32859605332E+02  0.45058152364E+01  0.54367149238E+02  0.40000148318E+02 0.  0.
         12    1    3    3    0    0 -0.15991216880E+02 -0.32859605332E+02 -0.45058152364E+01  0.36820850762E+02  0.00000000000E+00 0. -1.
         11    1    4    4    0    0  0.10234983911E+00 -0.72427152658E+00 -0.64382544658E+01  0.64796732604E+01  0.51100000000E-03 0. -1.
        -11    1    4    4    0    0  0.23666112760E+02  0.21936015190E+02  0.49218415478E+01  0.32641969611E+02  0.51100000000E-03 0.  1.
         12    1    4    4    0    0 -0.77772457192E+01  0.11647861669E+02  0.60222281544E+01  0.15245506367E+02  0.00000000000E+00 0. -1.
</event>
<event>
 8    1  0.1229038E-006  0.9118800E+02  0.7816164E-02  0.1184000E+00
        -11   -1    0    0    0    0  0.00000000000E+00  0.00000000000E+00  0.45593999997E+02  0.45594000000E+02  0.51100000000E-03 0.  1.
         11   -1    0    0    0    0 -0.00000000000E+00 -0.00000000000E+00 -0.45593999997E+02  0.45594000000E+02  0.51100000000E-03 0. -1.
         23    2    1    2    0    0 -0.35527136788E-14  0.00000000000E+00  0.00000000000E+00  0.91188000000E+02  0.91188000000E+02 0.  0.
    9900012    2    3    3    0    0 -0.16992231729E+02  0.85314197224E+01  0.31531925029E+02  0.54367036438E+02  0.39999891168E+02 0.  0.
         12    1    3    3    0    0  0.16992231729E+02 -0.85314197224E+01 -0.31531925029E+02  0.36820963562E+02  0.00000000000E+00 0. -1.
         11    1    4    4    0    0  0.50074585206E+01  0.93903056900E+01 -0.38222581278E+00  0.10648876871E+02  0.51100000000E-03 0. -1.
        -11    1    4    4    0    0  0.36615802750E+01  0.13730192630E+01  0.61382544786E+01  0.72780849343E+01  0.51100000000E-03 0.  1.
        -12    1    4    4    0    0 -0.25661270525E+02 -0.22319052306E+01  0.25775896363E+02  0.36440074632E+02  0.00000000000E+00 0.  1.
</event>
<event>
 8    1  0.1229038E-006  0.9118800E+02  0.7816164E-02  0.1184000E+00
        -11   -1    0    0    0    0  0.00000000000E+00  0.00000000000E+00  0.45593999997E+02  0.45594000000E+02  0.51100000000E-03 0. -1.
         11   -1    0    0    0    0 -0.00000000000E+00 -0.00000000000E+00 -0.45593999997E+02  0.45594000000E+02  0.51100000000E-03 0.  1.
         23    2    1    2    0    0  0.00000000000E+00  0.00000000000E+00  0.17763568394E-14  0.91188000000E+02  0.91188000000E+02 0.  0.
    9900012    2    3    3    0    0 -0.32947740825E+02 -0.62161365363E+01  0.15217955930E+02  0.54367079838E+02  0.39999990107E+02 0.  0.
        -12    1    3    3    0    0  0.32947740825E+02  0.62161365363E+01 -0.15217955930E+02  0.36820920162E+02  0.00000000000E+00 0.  1.
         11    1    4    4    0    0 -0.36640797988E+01 -0.86508345520E+01 -0.10624666859E+01  0.94546948623E+01  0.51100000000E-03 0. -1.
        -11    1    4    4    0    0 -0.21873678229E+02 -0.48243245212E+01 -0.34093091778E+01  0.22657345292E+02  0.51100000000E-03 0.  1.
         12    1    4    4    0    0 -0.74099827968E+01  0.72590225369E+01  0.19689731793E+02  0.22255039684E+02  0.00000000000E+00 0. -1.
</event>
<event>
 8    1  0.1229038E-006  0.9118800E+02  0.7816164E-02  0.1184000E+00
        -11   -1    0    0    0    0  0.00000000000E+00  0.00000000000E+00  0.45593999997E+02  0.45594000000E+02  0.51100000000E-03 0. -1.
         11   -1    0    0    0    0 -0.00000000000E+00 -0.00000000000E+00 -0.45593999997E+02  0.45594000000E+02  0.51100000000E-03 0.  1.
         23    2    1    2    0    0  0.00000000000E+00  0.00000000000E+00  0.35527136788E-14  0.91188000000E+02  0.91188000000E+02 0.  0.
    9900012    2    3    3    0    0 -0.11640375508E+02  0.22016072554E+02  0.27121492401E+02  0.54367066515E+02  0.39999959734E+02 0.  0.
        -12    1    3    3    0    0  0.11640375508E+02 -0.22016072554E+02 -0.27121492401E+02  0.36820933485E+02  0.00000000000E+00 0.  1.
         11    1    4    4    0    0 -0.10282691793E+02 -0.65209964106E+01  0.45799122743E+01  0.13008948513E+02  0.51100000000E-03 0.  1.
        -11    1    4    4    0    0 -0.60757925275E+01  0.29231563626E+02  0.18647384420E+02  0.35201200446E+02  0.51100000000E-03 0. -1.
         12    1    4    4    0    0  0.47181088123E+01 -0.69449466135E+00  0.38941957062E+01  0.61569175565E+01  0.00000000000E+00 0. -1.
</event>
<event>
 8    1  0.1229038E-006  0.9118800E+02  0.7816164E-02  0.1184000E+00
        -11   -1    0    0    0    0  0.00000000000E+00  0.00000000000E+00  0.45593999997E+02  0.45594000000E+02  0.51100000000E-03 0.  1.
         11   -1    0    0    0    0 -0.00000000000E+00 -0.00000000000E+00 -0.45593999997E+02  0.45594000000E+02  0.51100000000E-03 0. -1.
         23    2    1    2    0    0  0.17763568394E-14  0.00000000000E+00 -0.17763568394E-14  0.91188000000E+02  0.91188000000E+02 0.  0.
    9900012    2    3    3    0    0 -0.14877171981E+02  0.32789503263E+02  0.77004972512E+01  0.54367089796E+02  0.40000012807E+02 0.  0.
        -12    1    3    3    0    0  0.14877171981E+02 -0.32789503263E+02 -0.77004972512E+01  0.36820910204E+02  0.00000000000E+00 0.  1.
         11    1    4    4    0    0  0.32099730297E+01 -0.10891968316E+00  0.65745119493E+01  0.73171031140E+01  0.51100000000E-03 0. -1.
        -11    1    4    4    0    0 -0.13427567793E+02  0.33890410163E+02  0.92710669839E+01  0.37613988902E+02  0.51100000000E-03 0.  1.
        -12    1    4    4    0    0 -0.46595772175E+01 -0.99198721749E+00 -0.81450816820E+01  0.94359977794E+01  0.00000000000E+00 0.  1.
</event>
<event>
 8    1  0.1229038E-006  0.9118800E+02  0.7816164E-02  0.1184000E+00
        -11   -1    0    0    0    0  0.00000000000E+00  0.00000000000E+00  0.45593999997E+02  0.45594000000E+02  0.51100000000E-03 0.  1.
         11   -1    0    0    0    0 -0.00000000000E+00 -0.00000000000E+00 -0.45593999997E+02  0.45594000000E+02  0.51100000000E-03 0. -1.
         23    2    1    2    0    0 -0.35527136788E-14  0.00000000000E+00  0.00000000000E+00  0.91188000000E+02  0.91188000000E+02 0.  0.
    9900012    2    3    3    0    0 -0.16116092361E+02  0.23158659922E+02 -0.23658571344E+02  0.54367082570E+02  0.39999996335E+02 0.  0.
        -12    1    3    3    0    0  0.16116092361E+02 -0.23158659922E+02  0.23658571344E+02  0.36820917430E+02  0.00000000000E+00 0.  1.
         11    1    4    4    0    0 -0.37183100567E+01  0.75779428999E+01 -0.75723657540E+01  0.11339831200E+02  0.51100000000E-03 0. -1.
        -11    1    4    4    0    0  0.11370957544E+02  0.10674541367E+02 -0.72486270895E+01  0.17198462252E+02  0.51100000000E-03 0.  1.
        -12    1    4    4    0    0 -0.23768739849E+02  0.49061756545E+01 -0.88375785003E+01  0.25828789118E+02  0.00000000000E+00 0.  1.
</event>
<event>
 8    1  0.1229038E-006  0.9118800E+02  0.7816164E-02  0.1184000E+00
        -11   -1    0    0    0    0  0.00000000000E+00  0.00000000000E+00  0.45593999997E+02  0.45594000000E+02  0.51100000000E-03 0.  1.
         11   -1    0    0    0    0 -0.00000000000E+00 -0.00000000000E+00 -0.45593999997E+02  0.45594000000E+02  0.51100000000E-03 0. -1.
         23    2    1    2    0    0 -0.17763568394E-14  0.00000000000E+00  0.00000000000E+00  0.91188000000E+02  0.91188000000E+02 0.  0.
    9900012    2    3    3    0    0  0.99629905302E+01 -0.34785786982E+01 -0.35276320048E+02  0.54367075973E+02  0.39999981296E+02 0.  0.
        -12    1    3    3    0    0 -0.99629905302E+01  0.34785786982E+01  0.35276320048E+02  0.36820924027E+02  0.00000000000E+00 0.  1.
         11    1    4    4    0    0  0.84212503691E+00  0.63968021654E+01 -0.24694463669E+02  0.25523416478E+02  0.51100000000E-03 0. -1.
        -11    1    4    4    0    0  0.69126132080E+00  0.38406356825E+01  0.50646734904E+01  0.63936877062E+01  0.51100000000E-03 0.  1.
         12    1    4    4    0    0  0.84296041725E+01 -0.13716016546E+02 -0.15646529869E+02  0.22449971789E+02  0.00000000000E+00 0. -1.
</event>
<event>
 8    1  0.1229038E-006  0.9118800E+02  0.7816164E-02  0.1184000E+00
        -11   -1    0    0    0    0  0.00000000000E+00  0.00000000000E+00  0.45593999997E+02  0.45594000000E+02  0.51100000000E-03 0. -1.
         11   -1    0    0    0    0 -0.00000000000E+00 -0.00000000000E+00 -0.45593999997E+02  0.45594000000E+02  0.51100000000E-03 0.  1.
         23    2    1    2    0    0  0.88817841970E-15  0.00000000000E+00  0.00000000000E+00  0.91188000000E+02  0.91188000000E+02 0.  0.
    9900012    2    3    3    0    0 -0.54387795288E+01  0.33884061073E+02 -0.13344308430E+02  0.54367075446E+02  0.39999980094E+02 0.  0.
         12    1    3    3    0    0  0.54387795288E+01 -0.33884061073E+02  0.13344308430E+02  0.36820924554E+02  0.00000000000E+00 0. -1.
         11    1    4    4    0    0 -0.51707321930E+01  0.37618335090E+02 -0.18217774669E+02  0.42116064874E+02  0.51100000000E-03 0.  1.
        -11    1    4    4    0    0  0.36513745136E+01  0.12819195430E+01  0.44116445544E+01  0.58684292182E+01  0.51100000000E-03 0. -1.
        -12    1    4    4    0    0 -0.39194218494E+01 -0.50161935599E+01  0.46182168468E+00  0.63825813534E+01  0.00000000000E+00 0.  1.
</event>
<event>
 8    1  0.1229038E-006  0.9118800E+02  0.7816164E-02  0.1184000E+00
        -11   -1    0    0    0    0  0.00000000000E+00  0.00000000000E+00  0.45593999997E+02  0.45594000000E+02  0.51100000000E-03 0. -1.
         11   -1    0    0    0    0 -0.00000000000E+00 -0.00000000000E+00 -0.45593999997E+02  0.45594000000E+02  0.51100000000E-03 0.  1.
         23    2    1    2    0    0  0.35527136788E-14  0.00000000000E+00 -0.17763568394E-14  0.91188000000E+02  0.91188000000E+02 0.  0.
    9900012    2    3    3    0    0 -0.24196753471E+02 -0.25840858441E+02  0.10126706456E+02  0.54367040926E+02  0.39999901398E+02 0.  0.
        -12    1    3    3    0    0  0.24196753471E+02  0.25840858441E+02 -0.10126706456E+02  0.36820959074E+02  0.00000000000E+00 0.  1.
         11    1    4    4    0    0 -0.16490710095E+02 -0.75272390034E+01  0.16294899789E+02  0.24374712426E+02  0.51100000000E-03 0. -1.
        -11    1    4    4    0    0 -0.14597143427E+02 -0.10963535444E+02 -0.14991179187E+00  0.18256455830E+02  0.51100000000E-03 0.  1.
        -12    1    4    4    0    0  0.68911000509E+01 -0.73500839935E+01 -0.60182815410E+01  0.11735872670E+02  0.00000000000E+00 0.  1.
</event>
<event>
 8    1  0.1229038E-006  0.9118800E+02  0.7816164E-02  0.1184000E+00
        -11   -1    0    0    0    0  0.00000000000E+00  0.00000000000E+00  0.45593999997E+02  0.45594000000E+02  0.51100000000E-03 0.  1.
         11   -1    0    0    0    0 -0.00000000000E+00 -0.00000000000E+00 -0.45593999997E+02  0.45594000000E+02  0.51100000000E-03 0. -1.
         23    2    1    2    0    0 -0.22204460493E-15  0.00000000000E+00  0.00000000000E+00  0.91188000000E+02  0.91188000000E+02 0.  0.
    9900012    2    3    3    0    0 -0.18090668918E+01 -0.15925317090E+02  0.33149526416E+02  0.54367088156E+02  0.40000009070E+02 0.  0.
         12    1    3    3    0    0  0.18090668918E+01  0.15925317090E+02 -0.33149526416E+02  0.36820911844E+02  0.00000000000E+00 0. -1.
         11    1    4    4    0    0  0.10095674104E+02  0.46032039369E+01  0.17050657384E+01  0.11225835004E+02  0.51100000000E-03 0. -1.
        -11    1    4    4    0    0 -0.10171381775E+02 -0.73024917812E+01  0.25758944359E+02  0.28640995237E+02  0.51100000000E-03 0.  1.
         12    1    4    4    0    0 -0.17333592209E+01 -0.13226029246E+02  0.56855163185E+01  0.14500257915E+02  0.00000000000E+00 0. -1.
</event>
<event>
 8    1  0.1229038E-006  0.9118800E+02  0.7816164E-02  0.1184000E+00
        -11   -1    0    0    0    0  0.00000000000E+00  0.00000000000E+00  0.45593999997E+02  0.45594000000E+02  0.51100000000E-03 0. -1.
         11   -1    0    0    0    0 -0.00000000000E+00 -0.00000000000E+00 -0.45593999997E+02  0.45594000000E+02  0.51100000000E-03 0.  1.
         23    2    1    2    0    0  0.00000000000E+00  0.44408920985E-15  0.35527136788E-14  0.91188000000E+02  0.91188000000E+02 0.  0.
    9900012    2    3    3    0    0 -0.19943259684E+02 -0.29214047833E+01 -0.30814116246E+02  0.54367109561E+02  0.40000057865E+02 0.  0.
         12    1    3    3    0    0  0.19943259684E+02  0.29214047833E+01  0.30814116246E+02  0.36820890439E+02  0.00000000000E+00 0. -1.
         11    1    4    4    0    0  0.52404341977E+01 -0.26714456178E+01  0.53537794215E+01  0.79537240727E+01  0.51100000000E-03 0. -1.
        -11    1    4    4    0    0 -0.12519935739E+02 -0.53848852842E+01 -0.10040007838E+02  0.16927715087E+02  0.51100000000E-03 0.  1.
        -12    1    4    4    0    0 -0.12663758143E+02  0.51349261187E+01 -0.26127887829E+02  0.29485670401E+02  0.00000000000E+00 0.  1.
</event>
<event>
 8    1  0.1229038E-006  0.9118800E+02  0.7816164E-02  0.1184000E+00
        -11   -1    0    0    0    0  0.00000000000E+00  0.00000000000E+00  0.45593999997E+02  0.45594000000E+02  0.51100000000E-03 0.  1.
         11   -1    0    0    0    0 -0.00000000000E+00 -0.00000000000E+00 -0.45593999997E+02  0.45594000000E+02  0.51100000000E-03 0. -1.
         23    2    1    2    0    0  0.00000000000E+00  0.00000000000E+00 -0.17763568394E-14  0.91188000000E+02  0.91188000000E+02 0.  0.
    9900012    2    3    3    0    0 -0.35524030134E+02  0.49026955277E+01  0.83538132097E+01  0.54367091055E+02  0.40000015678E+02 0.  0.
        -12    1    3    3    0    0  0.35524030134E+02 -0.49026955277E+01 -0.83538132097E+01  0.36820908945E+02  0.00000000000E+00 0.  1.
         11    1    4    4    0    0 -0.30765109673E+01  0.10423046817E+02 -0.94419359084E+00  0.10908543738E+02  0.51100000000E-03 0. -1.
        -11    1    4    4    0    0  0.27286349047E+01 -0.61550588747E+01 -0.98559583039E+00  0.68045277276E+01  0.51100000000E-03 0.  1.
         12    1    4    4    0    0 -0.35176154071E+02  0.63470758527E+00  0.10283602631E+02  0.36654019589E+02  0.00000000000E+00 0. -1.
</event>
<event>
 8    1  0.1229038E-006  0.9118800E+02  0.7816164E-02  0.1184000E+00
        -11   -1    0    0    0    0  0.00000000000E+00  0.00000000000E+00  0.45593999997E+02  0.45594000000E+02  0.51100000000E-03 0.  1.
         11   -1    0    0    0    0 -0.00000000000E+00 -0.00000000000E+00 -0.45593999997E+02  0.45594000000E+02  0.51100000000E-03 0. -1.
         23    2    1    2    0    0 -0.17763568394E-14  0.17763568394E-14  0.00000000000E+00  0.91188000000E+02  0.91188000000E+02 0.  0.
    9900012    2    3    3    0    0  0.11957325741E+02 -0.14769699808E+02  0.31538195958E+02  0.54367089153E+02  0.40000011342E+02 0.  0.
         12    1    3    3    0    0 -0.11957325741E+02  0.14769699808E+02 -0.31538195958E+02  0.36820910847E+02  0.00000000000E+00 0. -1.
         11    1    4    4    0    0  0.92305808526E+01  0.54105541735E+01 -0.22647663825E+01  0.10936493331E+02  0.51100000000E-03 0. -1.
        -11    1    4    4    0    0 -0.16708919252E+01  0.26955772328E+01  0.83247697811E+01  0.89084122386E+01  0.51100000000E-03 0.  1.
         12    1    4    4    0    0  0.43976368134E+01 -0.22875831214E+02  0.25478192560E+02  0.34522183584E+02  0.00000000000E+00 0. -1.
</event>
<event>
 8    1  0.1229038E-006  0.9118800E+02  0.7816164E-02  0.1184000E+00
        -11   -1    0    0    0    0  0.00000000000E+00  0.00000000000E+00  0.45593999997E+02  0.45594000000E+02  0.51100000000E-03 0.  1.
         11   -1    0    0    0    0 -0.00000000000E+00 -0.00000000000E+00 -0.45593999997E+02  0.45594000000E+02  0.51100000000E-03 0. -1.
         23    2    1    2    0    0  0.00000000000E+00  0.88817841970E-15  0.00000000000E+00  0.91188000000E+02  0.91188000000E+02 0.  0.
    9900012    2    3    3    0    0 -0.32094823707E+02 -0.48086123768E+01  0.17394767813E+02  0.54367103636E+02  0.40000044359E+02 0.  0.
         12    1    3    3    0    0  0.32094823707E+02  0.48086123768E+01 -0.17394767813E+02  0.36820896364E+02  0.00000000000E+00 0. -1.
         11    1    4    4    0    0 -0.20470358757E+01  0.43663573334E+01  0.93542832147E+01  0.10524164906E+02  0.51100000000E-03 0. -1.
        -11    1    4    4    0    0 -0.17699655878E+02 -0.97616882071E+01  0.18687443396E+02  0.27527966067E+02  0.51100000000E-03 0.  1.
         12    1    4    4    0    0 -0.12348131954E+02  0.58671849685E+00 -0.10646958798E+02  0.16314972663E+02  0.00000000000E+00 0. -1.
</event>
<event>
 8    1  0.1229038E-006  0.9118800E+02  0.7816164E-02  0.1184000E+00
        -11   -1    0    0    0    0  0.00000000000E+00  0.00000000000E+00  0.45593999997E+02  0.45594000000E+02  0.51100000000E-03 0.  1.
         11   -1    0    0    0    0 -0.00000000000E+00 -0.00000000000E+00 -0.45593999997E+02  0.45594000000E+02  0.51100000000E-03 0. -1.
         23    2    1    2    0    0  0.00000000000E+00  0.00000000000E+00  0.00000000000E+00  0.91188000000E+02  0.91188000000E+02 0.  0.
    9900012    2    3    3    0    0  0.15367243319E+02 -0.35336448296E+01  0.33273716136E+02  0.54367095632E+02  0.40000026112E+02 0.  0.
         12    1    3    3    0    0 -0.15367243319E+02  0.35336448296E+01 -0.33273716136E+02  0.36820904368E+02  0.00000000000E+00 0. -1.
         11    1    4    4    0    0 -0.27413106201E+01  0.27653252998E+00 -0.43193428598E+01  0.51232779699E+01  0.51100000000E-03 0. -1.
        -11    1    4    4    0    0  0.12898724929E+01  0.99508127060E+01  0.10710432048E+02  0.14676368742E+02  0.51100000000E-03 0.  1.
        -12    1    4    4    0    0  0.16818681446E+02 -0.13760990066E+02  0.26882626948E+02  0.34567448919E+02  0.00000000000E+00 0.  1.
</event>
<event>
 8    1  0.1229038E-006  0.9118800E+02  0.7816164E-02  0.1184000E+00
        -11   -1    0    0    0    0  0.00000000000E+00  0.00000000000E+00  0.45593999997E+02  0.45594000000E+02  0.51100000000E-03 0.  1.
         11   -1    0    0    0    0 -0.00000000000E+00 -0.00000000000E+00 -0.45593999997E+02  0.45594000000E+02  0.51100000000E-03 0. -1.
         23    2    1    2    0    0  0.35527136788E-14 -0.35527136788E-14  0.00000000000E+00  0.91188000000E+02  0.91188000000E+02 0.  0.
    9900012    2    3    3    0    0  0.25223268512E+02 -0.26104202214E+02  0.61755029853E+01  0.54367089029E+02  0.40000011059E+02 0.  0.
         12    1    3    3    0    0 -0.25223268512E+02  0.26104202214E+02 -0.61755029853E+01  0.36820910971E+02  0.00000000000E+00 0. -1.
         11    1    4    4    0    0 -0.12878954106E+01 -0.17609993808E+01 -0.34495375716E+01  0.40815564589E+01  0.51100000000E-03 0. -1.
        -11    1    4    4    0    0  0.10788063912E+02 -0.30481130026E+02  0.81327016631E+01  0.33341002493E+02  0.51100000000E-03 0.  1.
        -12    1    4    4    0    0  0.15723100011E+02  0.61379271931E+01  0.14923388939E+01  0.16944530077E+02  0.00000000000E+00 0.  1.
</event>
<event>
 8    1  0.1229038E-006  0.9118800E+02  0.7816164E-02  0.1184000E+00
        -11   -1    0    0    0    0  0.00000000000E+00  0.00000000000E+00  0.45593999997E+02  0.45594000000E+02  0.51100000000E-03 0.  1.
         11   -1    0    0    0    0 -0.00000000000E+00 -0.00000000000E+00 -0.45593999997E+02  0.45594000000E+02  0.51100000000E-03 0. -1.
         23    2    1    2    0    0 -0.13322676296E-14  0.00000000000E+00  0.00000000000E+00  0.91188000000E+02  0.91188000000E+02 0.  0.
    9900012    2    3    3    0    0  0.23393163044E+01 -0.30752564268E+02  0.20114357112E+02  0.54367082414E+02  0.39999995979E+02 0.  0.
         12    1    3    3    0    0 -0.23393163044E+01  0.30752564268E+02 -0.20114357112E+02  0.36820917586E+02  0.00000000000E+00 0. -1.
         11    1    4    4    0    0 -0.44307992131E+00 -0.12136637850E+01  0.87525907146E+01  0.88474371475E+01  0.51100000000E-03 0. -1.
        -11    1    4    4    0    0 -0.12265132024E+02 -0.87928349269E+01 -0.40353538281E+01  0.15621507302E+02  0.51100000000E-03 0.  1.
        -12    1    4    4    0    0  0.15047528250E+02 -0.20746065556E+02  0.15397120226E+02  0.29898137964E+02  0.00000000000E+00 0.  1.
</event>
<event>
 8    1  0.1229038E-006  0.9118800E+02  0.7816164E-02  0.1184000E+00
        -11   -1    0    0    0    0  0.00000000000E+00  0.00000000000E+00  0.45593999997E+02  0.45594000000E+02  0.51100000000E-03 0. -1.
         11   -1    0    0    0    0 -0.00000000000E+00 -0.00000000000E+00 -0.45593999997E+02  0.45594000000E+02  0.51100000000E-03 0.  1.
         23    2    1    2    0    0  0.00000000000E+00  0.00000000000E+00  0.00000000000E+00  0.91188000000E+02  0.91188000000E+02 0.  0.
    9900012    2    3    3    0    0  0.32189393453E+02 -0.25688798647E+01  0.17692396385E+02  0.54367121623E+02  0.40000085364E+02 0.  0.
        -12    1    3    3    0    0 -0.32189393453E+02  0.25688798647E+01 -0.17692396385E+02  0.36820878377E+02  0.00000000000E+00 0.  1.
         11    1    4    4    0    0  0.13108632887E+02 -0.11331327226E+02  0.11573725982E+02  0.20837139109E+02  0.51100000000E-03 0. -1.
        -11    1    4    4    0    0  0.21864200126E+02  0.32845668375E+01  0.11886752466E+02  0.25102320828E+02  0.51100000000E-03 0.  1.
        -12    1    4    4    0    0 -0.27834395606E+01  0.54778805235E+01 -0.57680820633E+01  0.84276616868E+01  0.00000000000E+00 0.  1.
</event>
<event>
 8    1  0.1229038E-006  0.9118800E+02  0.7816164E-02  0.1184000E+00
        -11   -1    0    0    0    0  0.00000000000E+00  0.00000000000E+00  0.45593999997E+02  0.45594000000E+02  0.51100000000E-03 0. -1.
         11   -1    0    0    0    0 -0.00000000000E+00 -0.00000000000E+00 -0.45593999997E+02  0.45594000000E+02  0.51100000000E-03 0.  1.
         23    2    1    2    0    0  0.00000000000E+00  0.17763568394E-14  0.00000000000E+00  0.91188000000E+02  0.91188000000E+02 0.  0.
    9900012    2    3    3    0    0  0.26611960199E+02  0.11815160881E+02  0.22538511747E+02  0.54367096099E+02  0.40000027178E+02 0.  0.
        -12    1    3    3    0    0 -0.26611960199E+02 -0.11815160881E+02 -0.22538511747E+02  0.36820903901E+02  0.00000000000E+00 0.  1.
         11    1    4    4    0    0  0.24763879121E+02  0.81482028479E+00  0.24568228970E+01  0.24898787525E+02  0.51100000000E-03 0. -1.
        -11    1    4    4    0    0  0.33557847945E+01 -0.26461013498E+01  0.13656901107E+02  0.14309929841E+02  0.51100000000E-03 0.  1.
         12    1    4    4    0    0 -0.15077037162E+01  0.13646441946E+02  0.64247877428E+01  0.15158378733E+02  0.00000000000E+00 0. -1.
</event>
<event>
 8    1  0.1229038E-006  0.9118800E+02  0.7816164E-02  0.1184000E+00
        -11   -1    0    0    0    0  0.00000000000E+00  0.00000000000E+00  0.45593999997E+02  0.45594000000E+02  0.51100000000E-03 0.  1.
         11   -1    0    0    0    0 -0.00000000000E+00 -0.00000000000E+00 -0.45593999997E+02  0.45594000000E+02  0.51100000000E-03 0. -1.
         23    2    1    2    0    0 -0.35527136788E-14  0.88817841970E-15  0.00000000000E+00  0.91188000000E+02  0.91188000000E+02 0.  0.
    9900012    2    3    3    0    0 -0.16712464623E+02  0.71042425981E+01  0.32031300307E+02  0.54367069321E+02  0.39999966131E+02 0.  0.
         12    1    3    3    0    0  0.16712464623E+02 -0.71042425981E+01 -0.32031300307E+02  0.36820930679E+02  0.00000000000E+00 0. -1.
         11    1    4    4    0    0  0.19501517875E+01  0.44166068006E+00 -0.92376747797E+00  0.22026127134E+01  0.51100000000E-03 0. -1.
        -11    1    4    4    0    0 -0.15750469380E+02  0.49891637277E+01 -0.23604864687E+01  0.16689545740E+02  0.51100000000E-03 0.  1.
        -12    1    4    4    0    0 -0.29121470309E+01  0.16734181903E+01  0.35315554254E+02  0.35474910867E+02  0.00000000000E+00 0.  1.
</event>
<event>
 8    1  0.1229038E-006  0.9118800E+02  0.7816164E-02  0.1184000E+00
        -11   -1    0    0    0    0  0.00000000000E+00  0.00000000000E+00  0.45593999997E+02  0.45594000000E+02  0.51100000000E-03 0.  1.
         11   -1    0    0    0    0 -0.00000000000E+00 -0.00000000000E+00 -0.45593999997E+02  0.45594000000E+02  0.51100000000E-03 0. -1.
         23    2    1    2    0    0 -0.35527136788E-14  0.88817841970E-15  0.00000000000E+00  0.91188000000E+02  0.91188000000E+02 0.  0.
    9900012    2    3    3    0    0 -0.15050000441E+02  0.41732238702E+01 -0.33344586285E+02  0.54367085492E+02  0.40000002995E+02 0.  0.
        -12    1    3    3    0    0  0.15050000441E+02 -0.41732238702E+01  0.33344586285E+02  0.36820914508E+02  0.00000000000E+00 0.  1.
         11    1    4    4    0    0 -0.33404152235E+01  0.13147176286E+01 -0.92714173711E+01  0.99421344106E+01  0.51100000000E-03 0. -1.
        -11    1    4    4    0    0 -0.11190317241E+02  0.17514330002E+02 -0.70296161628E+01  0.21940612094E+02  0.51100000000E-03 0.  1.
        -12    1    4    4    0    0 -0.51926797598E+00 -0.14655823760E+02 -0.17043552751E+02  0.22484338987E+02  0.00000000000E+00 0.  1.
</event>
<event>
 8    1  0.1229038E-006  0.9118800E+02  0.7816164E-02  0.1184000E+00
        -11   -1    0    0    0    0  0.00000000000E+00  0.00000000000E+00  0.45593999997E+02  0.45594000000E+02  0.51100000000E-03 0. -1.
         11   -1    0    0    0    0 -0.00000000000E+00 -0.00000000000E+00 -0.45593999997E+02  0.45594000000E+02  0.51100000000E-03 0.  1.
         23    2    1    2    0    0 -0.17763568394E-14  0.35527136788E-14  0.35527136788E-14  0.91188000000E+02  0.91188000000E+02 0.  0.
    9900012    2    3    3    0    0  0.14152234356E+02 -0.12571598006E+02  0.31582501629E+02  0.54367011110E+02  0.39999833427E+02 0.  0.
        -12    1    3    3    0    0 -0.14152234356E+02  0.12571598006E+02 -0.31582501629E+02  0.36820988890E+02  0.00000000000E+00 0.  1.
         11    1    4    4    0    0  0.87237495695E+01  0.85253383286E+01  0.10977314479E+02  0.16409955320E+02  0.51100000000E-03 0. -1.
        -11    1    4    4    0    0  0.26445843458E+01  0.10928877354E+01 -0.38636825077E+01  0.48079385131E+01  0.51100000000E-03 0.  1.
        -12    1    4    4    0    0  0.27839004408E+01 -0.22189824070E+02  0.24468869658E+02  0.33149117277E+02  0.00000000000E+00 0.  1.
</event>
<event>
 8    1  0.1229038E-006  0.9118800E+02  0.7816164E-02  0.1184000E+00
        -11   -1    0    0    0    0  0.00000000000E+00  0.00000000000E+00  0.45593999997E+02  0.45594000000E+02  0.51100000000E-03 0.  1.
         11   -1    0    0    0    0 -0.00000000000E+00 -0.00000000000E+00 -0.45593999997E+02  0.45594000000E+02  0.51100000000E-03 0. -1.
         23    2    1    2    0    0 -0.17763568394E-14  0.17763568394E-14  0.00000000000E+00  0.91188000000E+02  0.91188000000E+02 0.  0.
    9900012    2    3    3    0    0 -0.14822958801E+01 -0.14192905053E+02  0.33943249982E+02  0.54367082381E+02  0.39999995904E+02 0.  0.
         12    1    3    3    0    0  0.14822958801E+01  0.14192905053E+02 -0.33943249982E+02  0.36820917619E+02  0.00000000000E+00 0. -1.
         11    1    4    4    0    0  0.64393683497E+01  0.49018635991E+01  0.12027268897E+02  0.14496514370E+02  0.51100000000E-03 0. -1.
        -11    1    4    4    0    0 -0.12861170314E+02 -0.22711590576E+02  0.21354081550E+02  0.33722734875E+02  0.51100000000E-03 0.  1.
        -12    1    4    4    0    0  0.49395060838E+01  0.36168219241E+01  0.56189953476E+00  0.61478331361E+01  0.00000000000E+00 0.  1.
</event>
<event>
 8    1  0.1229038E-006  0.9118800E+02  0.7816164E-02  0.1184000E+00
        -11   -1    0    0    0    0  0.00000000000E+00  0.00000000000E+00  0.45593999997E+02  0.45594000000E+02  0.51100000000E-03 0. -1.
         11   -1    0    0    0    0 -0.00000000000E+00 -0.00000000000E+00 -0.45593999997E+02  0.45594000000E+02  0.51100000000E-03 0.  1.
         23    2    1    2    0    0  0.00000000000E+00  0.00000000000E+00  0.00000000000E+00  0.91188000000E+02  0.91188000000E+02 0.  0.
    9900012    2    3    3    0    0 -0.17120709613E+02 -0.24071132827E+02  0.21982743081E+02  0.54367093892E+02  0.40000022146E+02 0.  0.
        -12    1    3    3    0    0  0.17120709613E+02  0.24071132827E+02 -0.21982743081E+02  0.36820906108E+02  0.00000000000E+00 0.  1.
         11    1    4    4    0    0  0.29898810270E+01 -0.11698028514E+02  0.19149962754E+02  0.22638558554E+02  0.51100000000E-03 0. -1.
        -11    1    4    4    0    0 -0.47130121172E+01 -0.71780707065E+01 -0.83695546904E+01  0.11991106215E+02  0.51100000000E-03 0.  1.
         12    1    4    4    0    0 -0.15397578523E+02 -0.51950336059E+01  0.11202335018E+02  0.19737429123E+02  0.00000000000E+00 0. -1.
</event>
<event>
 8    1  0.1229038E-006  0.9118800E+02  0.7816164E-02  0.1184000E+00
        -11   -1    0    0    0    0  0.00000000000E+00  0.00000000000E+00  0.45593999997E+02  0.45594000000E+02  0.51100000000E-03 0.  1.
         11   -1    0    0    0    0 -0.00000000000E+00 -0.00000000000E+00 -0.45593999997E+02  0.45594000000E+02  0.51100000000E-03 0. -1.
         23    2    1    2    0    0 -0.17763568394E-14  0.00000000000E+00  0.00000000000E+00  0.91188000000E+02  0.91188000000E+02 0.  0.
    9900012    2    3    3    0    0 -0.13743332645E+02 -0.31161835756E+02  0.13994335666E+02  0.54367073469E+02  0.39999975587E+02 0.  0.
         12    1    3    3    0    0  0.13743332645E+02  0.31161835756E+02 -0.13994335666E+02  0.36820926531E+02  0.00000000000E+00 0. -1.
         11    1    4    4    0    0  0.42640083847E+01 -0.35901595822E+01 -0.85970640040E+01  0.10246000346E+02  0.51100000000E-03 0. -1.
        -11    1    4    4    0    0  0.18219826345E+01 -0.72678536321E+00  0.70272692441E+01  0.72959133064E+01  0.51100000000E-03 0.  1.
         12    1    4    4    0    0 -0.19829323664E+02 -0.26844890811E+02  0.15564130426E+02  0.36825159817E+02  0.00000000000E+00 0. -1.
</event>
<event>
 8    1  0.1229038E-006  0.9118800E+02  0.7816164E-02  0.1184000E+00
        -11   -1    0    0    0    0  0.00000000000E+00  0.00000000000E+00  0.45593999997E+02  0.45594000000E+02  0.51100000000E-03 0.  1.
         11   -1    0    0    0    0 -0.00000000000E+00 -0.00000000000E+00 -0.45593999997E+02  0.45594000000E+02  0.51100000000E-03 0. -1.
         23    2    1    2    0    0  0.35527136788E-14  0.00000000000E+00  0.00000000000E+00  0.91188000000E+02  0.91188000000E+02 0.  0.
    9900012    2    3    3    0    0 -0.22767758612E+02  0.24363011666E+02  0.15615810424E+02  0.54367072461E+02  0.39999973288E+02 0.  0.
         12    1    3    3    0    0  0.22767758612E+02 -0.24363011666E+02 -0.15615810424E+02  0.36820927539E+02  0.00000000000E+00 0. -1.
         11    1    4    4    0    0 -0.25338736802E+02  0.80599914521E+01  0.81323254681E+01  0.27805570714E+02  0.51100000000E-03 0. -1.
        -11    1    4    4    0    0  0.11363894120E+01  0.19529620667E+02  0.15080520723E+01  0.19620695339E+02  0.51100000000E-03 0.  1.
        -12    1    4    4    0    0  0.14345887779E+01 -0.32266004526E+01  0.59754328838E+01  0.69408064078E+01  0.00000000000E+00 0.  1.
</event>
<event>
 8    1  0.1229038E-006  0.9118800E+02  0.7816164E-02  0.1184000E+00
        -11   -1    0    0    0    0  0.00000000000E+00  0.00000000000E+00  0.45593999997E+02  0.45594000000E+02  0.51100000000E-03 0. -1.
         11   -1    0    0    0    0 -0.00000000000E+00 -0.00000000000E+00 -0.45593999997E+02  0.45594000000E+02  0.51100000000E-03 0.  1.
         23    2    1    2    0    0 -0.71054273576E-14 -0.88817841970E-15  0.00000000000E+00  0.91188000000E+02  0.91188000000E+02 0.  0.
    9900012    2    3    3    0    0  0.34743413111E+02  0.24548894734E+01  0.11943600165E+02  0.54367070872E+02  0.39999969667E+02 0.  0.
        -12    1    3    3    0    0 -0.34743413111E+02 -0.24548894734E+01 -0.11943600165E+02  0.36820929128E+02  0.00000000000E+00 0.  1.
         11    1    4    4    0    0  0.75323590360E+01  0.85335782685E+01  0.97533762432E+01  0.14989554333E+02  0.51100000000E-03 0. -1.
        -11    1    4    4    0    0  0.32350436825E+01 -0.10907802654E+02  0.84019717787E+01  0.14143507217E+02  0.51100000000E-03 0.  1.
        -12    1    4    4    0    0  0.23976010392E+02  0.48291138594E+01 -0.62117478565E+01  0.25234009321E+02  0.00000000000E+00 0.  1.
</event>
<event>
 8    1  0.1229038E-006  0.9118800E+02  0.7816164E-02  0.1184000E+00
        -11   -1    0    0    0    0  0.00000000000E+00  0.00000000000E+00  0.45593999997E+02  0.45594000000E+02  0.51100000000E-03 0. -1.
         11   -1    0    0    0    0 -0.00000000000E+00 -0.00000000000E+00 -0.45593999997E+02  0.45594000000E+02  0.51100000000E-03 0.  1.
         23    2    1    2    0    0  0.00000000000E+00  0.17763568394E-14  0.00000000000E+00  0.91188000000E+02  0.91188000000E+02 0.  0.
    9900012    2    3    3    0    0 -0.14263196459E+02 -0.10353727466E+02 -0.32328653987E+02  0.54367077764E+02  0.39999985379E+02 0.  0.
         12    1    3    3    0    0  0.14263196459E+02  0.10353727466E+02  0.32328653987E+02  0.36820922236E+02  0.00000000000E+00 0. -1.
         11    1    4    4    0    0  0.43797384161E+01  0.34428625844E+01 -0.16805913465E+02  0.17705200903E+02  0.51100000000E-03 0. -1.
        -11    1    4    4    0    0 -0.85050254611E+01 -0.17478675638E+02 -0.16939385150E+02  0.25783373124E+02  0.51100000000E-03 0.  1.
         12    1    4    4    0    0 -0.10137909414E+02  0.36820855874E+01  0.14166446277E+01  0.10878503737E+02  0.00000000000E+00 0. -1.
</event>
<event>
 8    1  0.1229038E-006  0.9118800E+02  0.7816164E-02  0.1184000E+00
        -11   -1    0    0    0    0  0.00000000000E+00  0.00000000000E+00  0.45593999997E+02  0.45594000000E+02  0.51100000000E-03 0.  1.
         11   -1    0    0    0    0 -0.00000000000E+00 -0.00000000000E+00 -0.45593999997E+02  0.45594000000E+02  0.51100000000E-03 0. -1.
         23    2    1    2    0    0 -0.35527136788E-14  0.00000000000E+00 -0.17763568394E-14  0.91188000000E+02  0.91188000000E+02 0.  0.
    9900012    2    3    3    0    0 -0.25193836430E+02  0.25787450040E+02 -0.74874118012E+01  0.54367037097E+02  0.39999892669E+02 0.  0.
         12    1    3    3    0    0  0.25193836430E+02 -0.25787450040E+02  0.74874118012E+01  0.36820962903E+02  0.00000000000E+00 0. -1.
         11    1    4    4    0    0  0.12118574198E+01 -0.37592378511E+01 -0.13486188632E+01  0.41736363913E+01  0.51100000000E-03 0. -1.
        -11    1    4    4    0    0 -0.82166147786E+01 -0.57951751555E+01 -0.17193195366E+01  0.10200631031E+02  0.51100000000E-03 0.  1.
        -12    1    4    4    0    0 -0.18189079072E+02  0.35341863047E+02 -0.44194734014E+01  0.39992769674E+02  0.00000000000E+00 0.  1.
</event>
<event>
 8    1  0.1229038E-006  0.9118800E+02  0.7816164E-02  0.1184000E+00
        -11   -1    0    0    0    0  0.00000000000E+00  0.00000000000E+00  0.45593999997E+02  0.45594000000E+02  0.51100000000E-03 0. -1.
         11   -1    0    0    0    0 -0.00000000000E+00 -0.00000000000E+00 -0.45593999997E+02  0.45594000000E+02  0.51100000000E-03 0.  1.
         23    2    1    2    0    0  0.00000000000E+00  0.00000000000E+00  0.00000000000E+00  0.91188000000E+02  0.91188000000E+02 0.  0.
    9900012    2    3    3    0    0  0.23686393312E+02 -0.27556960396E+02 -0.59454895420E+01  0.54367080127E+02  0.39999990765E+02 0.  0.
         12    1    3    3    0    0 -0.23686393312E+02  0.27556960396E+02  0.59454895420E+01  0.36820919873E+02  0.00000000000E+00 0. -1.
         11    1    4    4    0    0  0.20318517799E+02 -0.38319796940E+01 -0.64178600774E+01  0.21649830534E+02  0.51100000000E-03 0. -1.
        -11    1    4    4    0    0  0.19556814327E+01 -0.11059890691E+02 -0.10889786177E+02  0.15643954589E+02  0.51100000000E-03 0.  1.
         12    1    4    4    0    0  0.14121940799E+01 -0.12665090012E+02  0.11362156712E+02  0.17073295003E+02  0.00000000000E+00 0. -1.
</event>
<event>
 8    1  0.1229038E-006  0.9118800E+02  0.7816164E-02  0.1184000E+00
        -11   -1    0    0    0    0  0.00000000000E+00  0.00000000000E+00  0.45593999997E+02  0.45594000000E+02  0.51100000000E-03 0.  1.
         11   -1    0    0    0    0 -0.00000000000E+00 -0.00000000000E+00 -0.45593999997E+02  0.45594000000E+02  0.51100000000E-03 0. -1.
         23    2    1    2    0    0  0.00000000000E+00  0.00000000000E+00 -0.35527136788E-14  0.91188000000E+02  0.91188000000E+02 0.  0.
    9900012    2    3    3    0    0  0.91814895729E+01  0.26015493363E+02 -0.24385976912E+02  0.54367061451E+02  0.39999948189E+02 0.  0.
        -12    1    3    3    0    0 -0.91814895729E+01 -0.26015493363E+02  0.24385976912E+02  0.36820938549E+02  0.00000000000E+00 0.  1.
         11    1    4    4    0    0  0.74215953410E+01  0.70301441699E+00 -0.73965281116E+01  0.10501568218E+02  0.51100000000E-03 0. -1.
        -11    1    4    4    0    0  0.60796060893E+01 -0.86955630043E+00  0.61252554213E+01  0.86738971978E+01  0.51100000000E-03 0.  1.
         12    1    4    4    0    0 -0.43197118574E+01  0.26182035246E+02 -0.23114704222E+02  0.35191596034E+02  0.00000000000E+00 0. -1.
</event>
<event>
 8    1  0.1229038E-006  0.9118800E+02  0.7816164E-02  0.1184000E+00
        -11   -1    0    0    0    0  0.00000000000E+00  0.00000000000E+00  0.45593999997E+02  0.45594000000E+02  0.51100000000E-03 0. -1.
         11   -1    0    0    0    0 -0.00000000000E+00 -0.00000000000E+00 -0.45593999997E+02  0.45594000000E+02  0.51100000000E-03 0.  1.
         23    2    1    2    0    0  0.35527136788E-14 -0.35527136788E-14  0.00000000000E+00  0.91188000000E+02  0.91188000000E+02 0.  0.
    9900012    2    3    3    0    0 -0.31818739684E+02  0.13615038543E+02 -0.12568988347E+02  0.54367069299E+02  0.39999966081E+02 0.  0.
         12    1    3    3    0    0  0.31818739684E+02 -0.13615038543E+02  0.12568988347E+02  0.36820930701E+02  0.00000000000E+00 0. -1.
         11    1    4    4    0    0 -0.10389384583E+01  0.10729390952E+02  0.95674567468E+01  0.14413030638E+02  0.51100000000E-03 0. -1.
        -11    1    4    4    0    0 -0.71767991325E+01  0.51374788020E+01 -0.25138552656E+01  0.91771238842E+01  0.51100000000E-03 0.  1.
         12    1    4    4    0    0 -0.23603002093E+02 -0.22518312107E+01 -0.19622589828E+02  0.30776914777E+02  0.00000000000E+00 0. -1.
</event>
<event>
 8    1  0.1229038E-006  0.9118800E+02  0.7816164E-02  0.1184000E+00
        -11   -1    0    0    0    0  0.00000000000E+00  0.00000000000E+00  0.45593999997E+02  0.45594000000E+02  0.51100000000E-03 0.  1.
         11   -1    0    0    0    0 -0.00000000000E+00 -0.00000000000E+00 -0.45593999997E+02  0.45594000000E+02  0.51100000000E-03 0. -1.
         23    2    1    2    0    0 -0.35527136788E-14 -0.17763568394E-14 -0.35527136788E-14  0.91188000000E+02  0.91188000000E+02 0.  0.
    9900012    2    3    3    0    0 -0.16885480612E+02 -0.12158327118E+02 -0.30378187633E+02  0.54367100260E+02  0.40000036662E+02 0.  0.
        -12    1    3    3    0    0  0.16885480612E+02  0.12158327118E+02  0.30378187633E+02  0.36820899740E+02  0.00000000000E+00 0.  1.
         11    1    4    4    0    0 -0.24569823624E+02  0.26121771769E+01 -0.20440850089E+02  0.32067554555E+02  0.51100000000E-03 0. -1.
        -11    1    4    4    0    0  0.21789307893E+01  0.15125453343E+01 -0.52952952297E+00  0.27047984305E+01  0.51100000000E-03 0.  1.
         12    1    4    4    0    0  0.55054122225E+01 -0.16283049630E+02 -0.94078080211E+01  0.19594747274E+02  0.00000000000E+00 0. -1.
</event>
<event>
 8    1  0.1229038E-006  0.9118800E+02  0.7816164E-02  0.1184000E+00
        -11   -1    0    0    0    0  0.00000000000E+00  0.00000000000E+00  0.45593999997E+02  0.45594000000E+02  0.51100000000E-03 0.  1.
         11   -1    0    0    0    0 -0.00000000000E+00 -0.00000000000E+00 -0.45593999997E+02  0.45594000000E+02  0.51100000000E-03 0. -1.
         23    2    1    2    0    0 -0.17763568394E-14 -0.35527136788E-14  0.00000000000E+00  0.91188000000E+02  0.91188000000E+02 0.  0.
    9900012    2    3    3    0    0 -0.15637760947E+02 -0.19577388585E+02 -0.26980847645E+02  0.54367084057E+02  0.39999999725E+02 0.  0.
        -12    1    3    3    0    0  0.15637760947E+02  0.19577388585E+02  0.26980847645E+02  0.36820915943E+02  0.00000000000E+00 0.  1.
         11    1    4    4    0    0 -0.19730191476E+02 -0.13497199324E+02 -0.16292548561E+02  0.28929258272E+02  0.51100000000E-03 0. -1.
        -11    1    4    4    0    0 -0.73342666346E+01 -0.32949540698E+01 -0.11056362119E+02  0.13670820493E+02  0.51100000000E-03 0.  1.
        -12    1    4    4    0    0  0.11426697164E+02 -0.27852351916E+01  0.36806303548E+00  0.11767005292E+02  0.00000000000E+00 0.  1.
</event>
<event>
 8    1  0.1229038E-006  0.9118800E+02  0.7816164E-02  0.1184000E+00
        -11   -1    0    0    0    0  0.00000000000E+00  0.00000000000E+00  0.45593999997E+02  0.45594000000E+02  0.51100000000E-03 0. -1.
         11   -1    0    0    0    0 -0.00000000000E+00 -0.00000000000E+00 -0.45593999997E+02  0.45594000000E+02  0.51100000000E-03 0.  1.
         23    2    1    2    0    0 -0.35527136788E-14 -0.17763568394E-14  0.00000000000E+00  0.91188000000E+02  0.91188000000E+02 0.  0.
    9900012    2    3    3    0    0  0.31546107101E+02  0.13332699318E+02  0.13522548865E+02  0.54367121790E+02  0.40000085745E+02 0.  0.
        -12    1    3    3    0    0 -0.31546107101E+02 -0.13332699318E+02 -0.13522548865E+02  0.36820878210E+02  0.00000000000E+00 0.  1.
         11    1    4    4    0    0  0.14229845843E+02 -0.50183379994E+01  0.16029168944E+01  0.15173713185E+02  0.51100000000E-03 0. -1.
        -11    1    4    4    0    0 -0.91811058053E+00  0.17501354631E+02  0.11448004707E+02  0.20933159174E+02  0.51100000000E-03 0.  1.
        -12    1    4    4    0    0  0.18234371839E+02  0.84968268627E+00  0.47162726345E+00  0.18260249431E+02  0.00000000000E+00 0.  1.
</event>
<event>
 8    1  0.1229038E-006  0.9118800E+02  0.7816164E-02  0.1184000E+00
        -11   -1    0    0    0    0  0.00000000000E+00  0.00000000000E+00  0.45593999997E+02  0.45594000000E+02  0.51100000000E-03 0. -1.
         11   -1    0    0    0    0 -0.00000000000E+00 -0.00000000000E+00 -0.45593999997E+02  0.45594000000E+02  0.51100000000E-03 0.  1.
         23    2    1    2    0    0  0.44408920985E-15  0.00000000000E+00  0.00000000000E+00  0.91188000000E+02  0.91188000000E+02 0.  0.
    9900012    2    3    3    0    0  0.18929307380E+01  0.28966124774E+02  0.22653006797E+02  0.54367105278E+02  0.40000048103E+02 0.  0.
        -12    1    3    3    0    0 -0.18929307380E+01 -0.28966124774E+02 -0.22653006797E+02  0.36820894722E+02  0.00000000000E+00 0.  1.
         11    1    4    4    0    0  0.70153628100E+01  0.27093080065E+02  0.15651135862E+02  0.32065688154E+02  0.51100000000E-03 0. -1.
        -11    1    4    4    0    0 -0.19958775683E+01 -0.92733753982E+01  0.42937370347E+01  0.10412261835E+02  0.51100000000E-03 0.  1.
        -12    1    4    4    0    0 -0.31265545037E+01  0.11146420106E+02  0.27081339001E+01  0.11889155288E+02  0.00000000000E+00 0.  1.
</event>
<event>
 8    1  0.1229038E-006  0.9118800E+02  0.7816164E-02  0.1184000E+00
        -11   -1    0    0    0    0  0.00000000000E+00  0.00000000000E+00  0.45593999997E+02  0.45594000000E+02  0.51100000000E-03 0. -1.
         11   -1    0    0    0    0 -0.00000000000E+00 -0.00000000000E+00 -0.45593999997E+02  0.45594000000E+02  0.51100000000E-03 0.  1.
         23    2    1    2    0    0  0.35527136788E-14  0.00000000000E+00  0.17763568394E-14  0.91188000000E+02  0.91188000000E+02 0.  0.
    9900012    2    3    3    0    0 -0.21039005317E+02  0.28240724543E+02 -0.10751840897E+02  0.54367077277E+02  0.39999984269E+02 0.  0.
         12    1    3    3    0    0  0.21039005317E+02 -0.28240724543E+02  0.10751840897E+02  0.36820922723E+02  0.00000000000E+00 0. -1.
         11    1    4    4    0    0  0.28916206284E+01  0.58097995016E+01  0.76932293463E+01  0.10064840691E+02  0.51100000000E-03 0. -1.
        -11    1    4    4    0    0 -0.10550145726E+02 -0.33548279871E+01 -0.68786039365E+01  0.13033634875E+02  0.51100000000E-03 0.  1.
        -12    1    4    4    0    0 -0.13380480220E+02  0.25785753029E+02 -0.11566466306E+02  0.31268601711E+02  0.00000000000E+00 0.  1.
</event>
<event>
 8    1  0.1229038E-006  0.9118800E+02  0.7816164E-02  0.1184000E+00
        -11   -1    0    0    0    0  0.00000000000E+00  0.00000000000E+00  0.45593999997E+02  0.45594000000E+02  0.51100000000E-03 0. -1.
         11   -1    0    0    0    0 -0.00000000000E+00 -0.00000000000E+00 -0.45593999997E+02  0.45594000000E+02  0.51100000000E-03 0.  1.
         23    2    1    2    0    0 -0.35527136788E-14  0.00000000000E+00  0.00000000000E+00  0.91188000000E+02  0.91188000000E+02 0.  0.
    9900012    2    3    3    0    0  0.19221705171E+02  0.28025077578E+02  0.14173956777E+02  0.54367082390E+02  0.39999995925E+02 0.  0.
        -12    1    3    3    0    0 -0.19221705171E+02 -0.28025077578E+02 -0.14173956777E+02  0.36820917610E+02  0.00000000000E+00 0.  1.
         11    1    4    4    0    0  0.19580270886E+02  0.23347520972E+02  0.25372237490E+01  0.30576645469E+02  0.51100000000E-03 0. -1.
        -11    1    4    4    0    0 -0.60492723461E+01  0.10803156654E+02  0.66284139388E+01  0.14044136186E+02  0.51100000000E-03 0.  1.
        -12    1    4    4    0    0  0.56907066309E+01 -0.61256000486E+01  0.50083190888E+01  0.97463007346E+01  0.00000000000E+00 0.  1.
</event>
<event>
 8    1  0.1229038E-006  0.9118800E+02  0.7816164E-02  0.1184000E+00
        -11   -1    0    0    0    0  0.00000000000E+00  0.00000000000E+00  0.45593999997E+02  0.45594000000E+02  0.51100000000E-03 0. -1.
         11   -1    0    0    0    0 -0.00000000000E+00 -0.00000000000E+00 -0.45593999997E+02  0.45594000000E+02  0.51100000000E-03 0.  1.
         23    2    1    2    0    0  0.35527136788E-14  0.17763568394E-14 -0.35527136788E-14  0.91188000000E+02  0.91188000000E+02 0.  0.
    9900012    2    3    3    0    0 -0.28821358948E+02 -0.11498998354E+02 -0.19821222280E+02  0.54367101757E+02  0.40000040075E+02 0.  0.
        -12    1    3    3    0    0  0.28821358948E+02  0.11498998354E+02  0.19821222280E+02  0.36820898243E+02  0.00000000000E+00 0.  1.
         11    1    4    4    0    0 -0.57273393394E+01 -0.61559999142E+01 -0.14925882245E+02  0.17131278759E+02  0.51100000000E-03 0.  1.
        -11    1    4    4    0    0 -0.65634270553E+01  0.11544966995E+02 -0.18584894416E+01  0.13409654018E+02  0.51100000000E-03 0. -1.
         12    1    4    4    0    0 -0.16530592553E+02 -0.16887965435E+02 -0.30368505934E+01  0.23826168979E+02  0.00000000000E+00 0. -1.
</event>
<event>
 8    1  0.1229038E-006  0.9118800E+02  0.7816164E-02  0.1184000E+00
        -11   -1    0    0    0    0  0.00000000000E+00  0.00000000000E+00  0.45593999997E+02  0.45594000000E+02  0.51100000000E-03 0.  1.
         11   -1    0    0    0    0 -0.00000000000E+00 -0.00000000000E+00 -0.45593999997E+02  0.45594000000E+02  0.51100000000E-03 0. -1.
         23    2    1    2    0    0  0.88817841970E-15  0.00000000000E+00  0.00000000000E+00  0.91188000000E+02  0.91188000000E+02 0.  0.
    9900012    2    3    3    0    0 -0.73296759898E+01  0.14382604452E+02 -0.33093777082E+02  0.54367061086E+02  0.39999947359E+02 0.  0.
        -12    1    3    3    0    0  0.73296759898E+01 -0.14382604452E+02  0.33093777082E+02  0.36820938914E+02  0.00000000000E+00 0.  1.
         11    1    4    4    0    0 -0.28922733752E+01  0.18447437102E+02  0.18914070501E+01  0.18768340412E+02  0.51100000000E-03 0. -1.
        -11    1    4    4    0    0 -0.48297482889E+00 -0.19886525088E+01 -0.13498816649E+02  0.13653060267E+02  0.51100000000E-03 0.  1.
         12    1    4    4    0    0 -0.39544277857E+01 -0.20761801414E+01 -0.21486367483E+02  0.21945660407E+02  0.00000000000E+00 0. -1.
</event>
<event>
 8    1  0.1229038E-006  0.9118800E+02  0.7816164E-02  0.1184000E+00
        -11   -1    0    0    0    0  0.00000000000E+00  0.00000000000E+00  0.45593999997E+02  0.45594000000E+02  0.51100000000E-03 0.  1.
         11   -1    0    0    0    0 -0.00000000000E+00 -0.00000000000E+00 -0.45593999997E+02  0.45594000000E+02  0.51100000000E-03 0. -1.
         23    2    1    2    0    0  0.35527136788E-14  0.35527136788E-14  0.17763568394E-14  0.91188000000E+02  0.91188000000E+02 0.  0.
    9900012    2    3    3    0    0 -0.19002406280E+02  0.28599598170E+02 -0.13294859499E+02  0.54367058282E+02  0.39999940964E+02 0.  0.
        -12    1    3    3    0    0  0.19002406280E+02 -0.28599598170E+02  0.13294859499E+02  0.36820941718E+02  0.00000000000E+00 0.  1.
         11    1    4    4    0    0 -0.10454728924E+02  0.91812738326E+01  0.22426564517E+01  0.14093496879E+02  0.51100000000E-03 0. -1.
        -11    1    4    4    0    0  0.64479672841E+01 -0.46394054596E+01  0.54648748646E-02  0.79435757214E+01  0.51100000000E-03 0.  1.
        -12    1    4    4    0    0 -0.14995644640E+02  0.24057729797E+02 -0.15542980826E+02  0.32329985681E+02  0.00000000000E+00 0.  1.
</event>
<event>
 8    1  0.1229038E-006  0.9118800E+02  0.7816164E-02  0.1184000E+00
        -11   -1    0    0    0    0  0.00000000000E+00  0.00000000000E+00  0.45593999997E+02  0.45594000000E+02  0.51100000000E-03 0.  1.
         11   -1    0    0    0    0 -0.00000000000E+00 -0.00000000000E+00 -0.45593999997E+02  0.45594000000E+02  0.51100000000E-03 0. -1.
         23    2    1    2    0    0 -0.17763568394E-14 -0.35527136788E-14  0.00000000000E+00  0.91188000000E+02  0.91188000000E+02 0.  0.
    9900012    2    3    3    0    0 -0.12825552381E+02 -0.10877024495E+02  0.32756304491E+02  0.54367082852E+02  0.39999996977E+02 0.  0.
         12    1    3    3    0    0  0.12825552381E+02  0.10877024495E+02 -0.32756304491E+02  0.36820917148E+02  0.00000000000E+00 0. -1.
         11    1    4    4    0    0 -0.60176445144E+01  0.16592492493E+01  0.35095866575E+01  0.71611697606E+01  0.51100000000E-03 0.  1.
        -11    1    4    4    0    0  0.65399999015E+01 -0.15714945944E+02  0.25796413944E+01  0.17215855330E+02  0.51100000000E-03 0. -1.
         12    1    4    4    0    0 -0.13347907769E+02  0.31786721998E+01  0.26667076439E+02  0.29990057762E+02  0.00000000000E+00 0. -1.
</event>
<event>
 8    1  0.1229038E-006  0.9118800E+02  0.7816164E-02  0.1184000E+00
        -11   -1    0    0    0    0  0.00000000000E+00  0.00000000000E+00  0.45593999997E+02  0.45594000000E+02  0.51100000000E-03 0. -1.
         11   -1    0    0    0    0 -0.00000000000E+00 -0.00000000000E+00 -0.45593999997E+02  0.45594000000E+02  0.51100000000E-03 0.  1.
         23    2    1    2    0    0  0.00000000000E+00  0.00000000000E+00  0.00000000000E+00  0.91188000000E+02  0.91188000000E+02 0.  0.
    9900012    2    3    3    0    0  0.19838889201E+02  0.29402921177E+02 -0.98826644430E+01  0.54367077212E+02  0.39999984121E+02 0.  0.
         12    1    3    3    0    0 -0.19838889201E+02 -0.29402921177E+02  0.98826644430E+01  0.36820922788E+02  0.00000000000E+00 0. -1.
         11    1    4    4    0    0 -0.53094438337E+01  0.22520687376E+02 -0.26858759161E+01  0.23293464392E+02  0.51100000000E-03 0. -1.
        -11    1    4    4    0    0  0.25259876989E+02  0.90562961815E+01 -0.38902357599E+01  0.27114789701E+02  0.51100000000E-03 0.  1.
         12    1    4    4    0    0 -0.11154395433E+00 -0.21740623802E+01 -0.33065527669E+01  0.39588231189E+01  0.00000000000E+00 0. -1.
</event>
<event>
 8    1  0.1229038E-006  0.9118800E+02  0.7816164E-02  0.1184000E+00
        -11   -1    0    0    0    0  0.00000000000E+00  0.00000000000E+00  0.45593999997E+02  0.45594000000E+02  0.51100000000E-03 0.  1.
         11   -1    0    0    0    0 -0.00000000000E+00 -0.00000000000E+00 -0.45593999997E+02  0.45594000000E+02  0.51100000000E-03 0. -1.
         23    2    1    2    0    0  0.00000000000E+00 -0.35527136788E-14  0.00000000000E+00  0.91188000000E+02  0.91188000000E+02 0.  0.
    9900012    2    3    3    0    0  0.34198556460E+01 -0.22137474792E+02 -0.29223568562E+02  0.54367079828E+02  0.39999990085E+02 0.  0.
        -12    1    3    3    0    0 -0.34198556460E+01  0.22137474792E+02  0.29223568562E+02  0.36820920172E+02  0.00000000000E+00 0.  1.
         11    1    4    4    0    0  0.40415060799E+01 -0.80235776006E+01 -0.96606438619E+01  0.13192407248E+02  0.51100000000E-03 0. -1.
        -11    1    4    4    0    0 -0.43883688892E+00 -0.25131656893E+02 -0.12359652126E+02  0.28009886771E+02  0.51100000000E-03 0.  1.
        -12    1    4    4    0    0 -0.18281354492E+00  0.11017759702E+02 -0.72032725742E+01  0.13164785810E+02  0.00000000000E+00 0.  1.
</event>
<event>
 8    1  0.1229038E-006  0.9118800E+02  0.7816164E-02  0.1184000E+00
        -11   -1    0    0    0    0  0.00000000000E+00  0.00000000000E+00  0.45593999997E+02  0.45594000000E+02  0.51100000000E-03 0. -1.
         11   -1    0    0    0    0 -0.00000000000E+00 -0.00000000000E+00 -0.45593999997E+02  0.45594000000E+02  0.51100000000E-03 0.  1.
         23    2    1    2    0    0 -0.35527136788E-14  0.88817841970E-15  0.00000000000E+00  0.91188000000E+02  0.91188000000E+02 0.  0.
    9900012    2    3    3    0    0 -0.18264344577E+02  0.76884948791E+01 -0.31033558135E+02  0.54367068903E+02  0.39999965178E+02 0.  0.
         12    1    3    3    0    0  0.18264344577E+02 -0.76884948791E+01  0.31033558135E+02  0.36820931097E+02  0.00000000000E+00 0. -1.
         11    1    4    4    0    0 -0.15253354742E+02  0.17892704708E+02 -0.23396094772E+02  0.33169126662E+02  0.51100000000E-03 0. -1.
        -11    1    4    4    0    0  0.69320934350E+01 -0.45478682995E+01 -0.39107063953E+01  0.91668233447E+01  0.51100000000E-03 0.  1.
        -12    1    4    4    0    0 -0.99430832698E+01 -0.56563415290E+01 -0.37267569675E+01  0.12031118896E+02  0.00000000000E+00 0.  1.
</event>
<event>
 8    1  0.1229038E-006  0.9118800E+02  0.7816164E-02  0.1184000E+00
        -11   -1    0    0    0    0  0.00000000000E+00  0.00000000000E+00  0.45593999997E+02  0.45594000000E+02  0.51100000000E-03 0.  1.
         11   -1    0    0    0    0 -0.00000000000E+00 -0.00000000000E+00 -0.45593999997E+02  0.45594000000E+02  0.51100000000E-03 0. -1.
         23    2    1    2    0    0  0.17763568394E-14 -0.71054273576E-14 -0.26645352591E-14  0.91188000000E+02  0.91188000000E+02 0.  0.
    9900012    2    3    3    0    0  0.74406511639E+01 -0.35359900805E+02 -0.70777746904E+01  0.54367071587E+02  0.39999971296E+02 0.  0.
         12    1    3    3    0    0 -0.74406511639E+01  0.35359900805E+02  0.70777746904E+01  0.36820928413E+02  0.00000000000E+00 0. -1.
         11    1    4    4    0    0  0.12398955684E+02 -0.82477427541E+01 -0.10040966071E+02  0.17960522333E+02  0.51100000000E-03 0. -1.
        -11    1    4    4    0    0  0.49547330372E+01 -0.67094808107E+00  0.62205726335E+01  0.79809194300E+01  0.51100000000E-03 0.  1.
        -12    1    4    4    0    0 -0.99130375569E+01 -0.26441209969E+02 -0.32573812534E+01  0.28425629824E+02  0.00000000000E+00 0.  1.
</event>
<event>
 8    1  0.1229038E-006  0.9118800E+02  0.7816164E-02  0.1184000E+00
        -11   -1    0    0    0    0  0.00000000000E+00  0.00000000000E+00  0.45593999997E+02  0.45594000000E+02  0.51100000000E-03 0. -1.
         11   -1    0    0    0    0 -0.00000000000E+00 -0.00000000000E+00 -0.45593999997E+02  0.45594000000E+02  0.51100000000E-03 0.  1.
         23    2    1    2    0    0 -0.35527136788E-14  0.00000000000E+00  0.35527136788E-14  0.91188000000E+02  0.91188000000E+02 0.  0.
    9900012    2    3    3    0    0 -0.23238389764E+02  0.17425877093E+02  0.22629587024E+02  0.54367052699E+02  0.39999928237E+02 0.  0.
        -12    1    3    3    0    0  0.23238389764E+02 -0.17425877093E+02 -0.22629587024E+02  0.36820947301E+02  0.00000000000E+00 0.  1.
         11    1    4    4    0    0 -0.54590676881E+01  0.11751932311E+02  0.22806695492E+02  0.26230796645E+02  0.51100000000E-03 0. -1.
        -11    1    4    4    0    0 -0.20407593941E+02  0.72100192614E+01  0.49230594631E+01  0.22196639001E+02  0.51100000000E-03 0.  1.
        -12    1    4    4    0    0  0.26282718652E+01 -0.15360744795E+01 -0.51001679315E+01  0.59396170528E+01  0.00000000000E+00 0.  1.
</event>
<event>
 8    1  0.1229038E-006  0.9118800E+02  0.7816164E-02  0.1184000E+00
        -11   -1    0    0    0    0  0.00000000000E+00  0.00000000000E+00  0.45593999997E+02  0.45594000000E+02  0.51100000000E-03 0. -1.
         11   -1    0    0    0    0 -0.00000000000E+00 -0.00000000000E+00 -0.45593999997E+02  0.45594000000E+02  0.51100000000E-03 0.  1.
         23    2    1    2    0    0  0.35527136788E-14  0.00000000000E+00 -0.53290705182E-14  0.91188000000E+02  0.91188000000E+02 0.  0.
    9900012    2    3    3    0    0 -0.20362361463E+02  0.29447050307E+02  0.86038202117E+01  0.54367078524E+02  0.39999987110E+02 0.  0.
        -12    1    3    3    0    0  0.20362361463E+02 -0.29447050307E+02 -0.86038202117E+01  0.36820921476E+02  0.00000000000E+00 0.  1.
         11    1    4    4    0    0 -0.62164371471E+01  0.37578971641E+00 -0.77919641595E+01  0.99749693953E+01  0.51100000000E-03 0.  1.
        -11    1    4    4    0    0  0.30612429399E+00  0.15962433538E+02  0.18877242367E+02  0.24723334649E+02  0.51100000000E-03 0. -1.
         12    1    4    4    0    0 -0.14452048610E+02  0.13108827053E+02 -0.24814579957E+01  0.19668774479E+02  0.00000000000E+00 0. -1.
</event>
<event>
 8    1  0.1229038E-006  0.9118800E+02  0.7816164E-02  0.1184000E+00
        -11   -1    0    0    0    0  0.00000000000E+00  0.00000000000E+00  0.45593999997E+02  0.45594000000E+02  0.51100000000E-03 0.  1.
         11   -1    0    0    0    0 -0.00000000000E+00 -0.00000000000E+00 -0.45593999997E+02  0.45594000000E+02  0.51100000000E-03 0. -1.
         23    2    1    2    0    0 -0.88817841970E-15  0.00000000000E+00  0.00000000000E+00  0.91188000000E+02  0.91188000000E+02 0.  0.
    9900012    2    3    3    0    0  0.74915173232E+01  0.35249737128E+02  0.75567254378E+01  0.54367205620E+02  0.40000276851E+02 0.  0.
         12    1    3    3    0    0 -0.74915173232E+01 -0.35249737128E+02 -0.75567254378E+01  0.36820794380E+02  0.00000000000E+00 0. -1.
         11    1    4    4    0    0  0.66345695138E+01  0.29291839934E+00  0.51275676955E+01  0.83901885888E+01  0.51100000000E-03 0. -1.
        -11    1    4    4    0    0  0.33869529547E+01  0.30577416472E+02  0.13659345613E+02  0.33660474912E+02  0.51100000000E-03 0.  1.
         12    1    4    4    0    0 -0.25300051453E+01  0.43794022566E+01 -0.11230187871E+02  0.12316542119E+02  0.00000000000E+00 0. -1.
</event>
<event>
 8    1  0.1229038E-006  0.9118800E+02  0.7816164E-02  0.1184000E+00
        -11   -1    0    0    0    0  0.00000000000E+00  0.00000000000E+00  0.45593999997E+02  0.45594000000E+02  0.51100000000E-03 0. -1.
         11   -1    0    0    0    0 -0.00000000000E+00 -0.00000000000E+00 -0.45593999997E+02  0.45594000000E+02  0.51100000000E-03 0.  1.
         23    2    1    2    0    0  0.00000000000E+00  0.00000000000E+00  0.17763568394E-14  0.91188000000E+02  0.91188000000E+02 0.  0.
    9900012    2    3    3    0    0  0.33229790920E+02  0.82728519230E+01  0.13532221720E+02  0.54367080563E+02  0.39999991759E+02 0.  0.
        -12    1    3    3    0    0 -0.33229790920E+02 -0.82728519230E+01 -0.13532221720E+02  0.36820919437E+02  0.00000000000E+00 0.  1.
         11    1    4    4    0    0  0.11423459235E+02 -0.10602538637E+01  0.21013522810E+02  0.23941338732E+02  0.51100000000E-03 0. -1.
        -11    1    4    4    0    0  0.17661639371E+02  0.98994778801E+01  0.17184193701E+01  0.20319599724E+02  0.51100000000E-03 0.  1.
        -12    1    4    4    0    0  0.41446923150E+01 -0.56637209339E+00 -0.91997204600E+01  0.10106142106E+02  0.00000000000E+00 0.  1.
</event>
<event>
 8    1  0.1229038E-006  0.9118800E+02  0.7816164E-02  0.1184000E+00
        -11   -1    0    0    0    0  0.00000000000E+00  0.00000000000E+00  0.45593999997E+02  0.45594000000E+02  0.51100000000E-03 0.  1.
         11   -1    0    0    0    0 -0.00000000000E+00 -0.00000000000E+00 -0.45593999997E+02  0.45594000000E+02  0.51100000000E-03 0. -1.
         23    2    1    2    0    0 -0.88817841970E-15 -0.35527136788E-14  0.00000000000E+00  0.91188000000E+02  0.91188000000E+02 0.  0.
    9900012    2    3    3    0    0 -0.64435916571E+01 -0.24874937538E+02 -0.26372281775E+02  0.54367086961E+02  0.40000006346E+02 0.  0.
        -12    1    3    3    0    0  0.64435916571E+01  0.24874937538E+02  0.26372281775E+02  0.36820913039E+02  0.00000000000E+00 0.  1.
         11    1    4    4    0    0  0.86862361769E+01  0.36512157142E+01 -0.22388973596E+01  0.96847682863E+01  0.51100000000E-03 0. -1.
        -11    1    4    4    0    0 -0.38937877561E+01 -0.63268467109E+01  0.28698050624E+01  0.79640664079E+01  0.51100000000E-03 0.  1.
         12    1    4    4    0    0 -0.11236040078E+02 -0.22199306541E+02 -0.27003189478E+02  0.36718252267E+02  0.00000000000E+00 0. -1.
</event>
<event>
 8    1  0.1229038E-006  0.9118800E+02  0.7816164E-02  0.1184000E+00
        -11   -1    0    0    0    0  0.00000000000E+00  0.00000000000E+00  0.45593999997E+02  0.45594000000E+02  0.51100000000E-03 0. -1.
         11   -1    0    0    0    0 -0.00000000000E+00 -0.00000000000E+00 -0.45593999997E+02  0.45594000000E+02  0.51100000000E-03 0.  1.
         23    2    1    2    0    0 -0.17763568394E-14  0.00000000000E+00 -0.71054273576E-14  0.91188000000E+02  0.91188000000E+02 0.  0.
    9900012    2    3    3    0    0  0.91018267439E+01 -0.59119830143E+01  0.35185015935E+02  0.54367080137E+02  0.39999990788E+02 0.  0.
        -12    1    3    3    0    0 -0.91018267439E+01  0.59119830143E+01 -0.35185015935E+02  0.36820919863E+02  0.00000000000E+00 0.  1.
         11    1    4    4    0    0 -0.66711353914E+01  0.88672420671E+01  0.12686310298E+01  0.11168771384E+02  0.51100000000E-03 0. -1.
        -11    1    4    4    0    0  0.10952183732E+01 -0.46921891838E+01 -0.80497112039E-01  0.48189856472E+01  0.51100000000E-03 0.  1.
         12    1    4    4    0    0  0.14677743762E+02 -0.10087035898E+02  0.33996882017E+02  0.38379323105E+02  0.00000000000E+00 0. -1.
</event>
<event>
 8    1  0.1229038E-006  0.9118800E+02  0.7816164E-02  0.1184000E+00
        -11   -1    0    0    0    0  0.00000000000E+00  0.00000000000E+00  0.45593999997E+02  0.45594000000E+02  0.51100000000E-03 0.  1.
         11   -1    0    0    0    0 -0.00000000000E+00 -0.00000000000E+00 -0.45593999997E+02  0.45594000000E+02  0.51100000000E-03 0. -1.
         23    2    1    2    0    0 -0.17763568394E-14  0.35527136788E-14  0.00000000000E+00  0.91188000000E+02  0.91188000000E+02 0.  0.
    9900012    2    3    3    0    0 -0.86762152868E+01  0.31216679025E+02 -0.17493497679E+02  0.54367079016E+02  0.39999988233E+02 0.  0.
         12    1    3    3    0    0  0.86762152868E+01 -0.31216679025E+02  0.17493497679E+02  0.36820920984E+02  0.00000000000E+00 0. -1.
         11    1    4    4    0    0  0.85729235360E+01  0.36829691267E+01 -0.19064363892E+02  0.21225203189E+02  0.51100000000E-03 0. -1.
        -11    1    4    4    0    0 -0.93186219321E+01  0.11409541331E+02  0.32790982818E+01  0.15091945994E+02  0.51100000000E-03 0.  1.
         12    1    4    4    0    0 -0.79305168908E+01  0.16124168568E+02 -0.17082320684E+01  0.18049929833E+02  0.00000000000E+00 0. -1.
</event>
<event>
 8    1  0.1229038E-006  0.9118800E+02  0.7816164E-02  0.1184000E+00
        -11   -1    0    0    0    0  0.00000000000E+00  0.00000000000E+00  0.45593999997E+02  0.45594000000E+02  0.51100000000E-03 0.  1.
         11   -1    0    0    0    0 -0.00000000000E+00 -0.00000000000E+00 -0.45593999997E+02  0.45594000000E+02  0.51100000000E-03 0. -1.
         23    2    1    2    0    0  0.00000000000E+00 -0.35527136788E-14 -0.35527136788E-14  0.91188000000E+02  0.91188000000E+02 0.  0.
    9900012    2    3    3    0    0 -0.14822085240E+01  0.27681159166E+02  0.24235016494E+02  0.54367088288E+02  0.40000009370E+02 0.  0.
        -12    1    3    3    0    0  0.14822085240E+01 -0.27681159166E+02 -0.24235016494E+02  0.36820911712E+02  0.00000000000E+00 0.  1.
         11    1    4    4    0    0  0.88193204310E+01  0.15645061118E+02  0.34064159632E+01  0.18279825498E+02  0.51100000000E-03 0. -1.
        -11    1    4    4    0    0  0.78944232882E+01  0.70678694298E+01  0.70094893426E+01  0.12704709301E+02  0.51100000000E-03 0.  1.
        -12    1    4    4    0    0 -0.18195952243E+02  0.49682286179E+01  0.13819111188E+02  0.23382553489E+02  0.00000000000E+00 0.  1.
</event>
<event>
 8    1  0.1229038E-006  0.9118800E+02  0.7816164E-02  0.1184000E+00
        -11   -1    0    0    0    0  0.00000000000E+00  0.00000000000E+00  0.45593999997E+02  0.45594000000E+02  0.51100000000E-03 0. -1.
         11   -1    0    0    0    0 -0.00000000000E+00 -0.00000000000E+00 -0.45593999997E+02  0.45594000000E+02  0.51100000000E-03 0.  1.
         23    2    1    2    0    0 -0.13322676296E-14  0.00000000000E+00  0.00000000000E+00  0.91188000000E+02  0.91188000000E+02 0.  0.
    9900012    2    3    3    0    0  0.28987132090E+01  0.31525229004E+02  0.18802603770E+02  0.54367075099E+02  0.39999979303E+02 0.  0.
         12    1    3    3    0    0 -0.28987132090E+01 -0.31525229004E+02 -0.18802603770E+02  0.36820924901E+02  0.00000000000E+00 0. -1.
         11    1    4    4    0    0 -0.71669191448E+01  0.18799269306E+02  0.18698570933E+02  0.27466594468E+02  0.51100000000E-03 0. -1.
        -11    1    4    4    0    0  0.25413360917E+01  0.13441444169E+02  0.80998532488E+01  0.15897749319E+02  0.51100000000E-03 0.  1.
         12    1    4    4    0    0  0.75242962620E+01 -0.71548447137E+00 -0.79958204119E+01  0.11002731312E+02  0.00000000000E+00 0. -1.
</event>
<event>
 8    1  0.1229038E-006  0.9118800E+02  0.7816164E-02  0.1184000E+00
        -11   -1    0    0    0    0  0.00000000000E+00  0.00000000000E+00  0.45593999997E+02  0.45594000000E+02  0.51100000000E-03 0.  1.
         11   -1    0    0    0    0 -0.00000000000E+00 -0.00000000000E+00 -0.45593999997E+02  0.45594000000E+02  0.51100000000E-03 0. -1.
         23    2    1    2    0    0  0.00000000000E+00  0.00000000000E+00 -0.88817841970E-15  0.91188000000E+02  0.91188000000E+02 0.  0.
    9900012    2    3    3    0    0 -0.35220676528E+02 -0.77387767184E+01  0.74425577725E+01  0.54367131102E+02  0.40000106974E+02 0.  0.
         12    1    3    3    0    0  0.35220676528E+02  0.77387767184E+01 -0.74425577725E+01  0.36820868898E+02  0.00000000000E+00 0. -1.
         11    1    4    4    0    0 -0.79033655862E+01 -0.83594961887E+01 -0.50599887011E+00  0.11515224671E+02  0.51100000000E-03 0. -1.
        -11    1    4    4    0    0 -0.30655079275E+02 -0.10280277068E+01 -0.34453785819E+01  0.30865212783E+02  0.51100000000E-03 0.  1.
        -12    1    4    4    0    0  0.33377683333E+01  0.16487471771E+01  0.11393935224E+02  0.11986693648E+02  0.00000000000E+00 0.  1.
</event>
<event>
 8    1  0.1229038E-006  0.9118800E+02  0.7816164E-02  0.1184000E+00
        -11   -1    0    0    0    0  0.00000000000E+00  0.00000000000E+00  0.45593999997E+02  0.45594000000E+02  0.51100000000E-03 0. -1.
         11   -1    0    0    0    0 -0.00000000000E+00 -0.00000000000E+00 -0.45593999997E+02  0.45594000000E+02  0.51100000000E-03 0.  1.
         23    2    1    2    0    0  0.35527136788E-14  0.00000000000E+00  0.66613381478E-15  0.91188000000E+02  0.91188000000E+02 0.  0.
    9900012    2    3    3    0    0 -0.30393939996E+02  0.20697644194E+02 -0.18963495730E+01  0.54367079244E+02  0.39999988752E+02 0.  0.
        -12    1    3    3    0    0  0.30393939996E+02 -0.20697644194E+02  0.18963495730E+01  0.36820920756E+02  0.00000000000E+00 0.  1.
         11    1    4    4    0    0 -0.68023345591E+01 -0.59415165672E+00  0.49146398038E+01  0.84129933025E+01  0.51100000000E-03 0. -1.
        -11    1    4    4    0    0 -0.17688389176E+02  0.21901650493E+01  0.94586069199E+01  0.20177739707E+02  0.51100000000E-03 0.  1.
        -12    1    4    4    0    0 -0.59032162608E+01  0.19101630802E+02 -0.16269596297E+02  0.25776346234E+02  0.00000000000E+00 0.  1.
</event>
<event>
 8    1  0.1229038E-006  0.9118800E+02  0.7816164E-02  0.1184000E+00
        -11   -1    0    0    0    0  0.00000000000E+00  0.00000000000E+00  0.45593999997E+02  0.45594000000E+02  0.51100000000E-03 0.  1.
         11   -1    0    0    0    0 -0.00000000000E+00 -0.00000000000E+00 -0.45593999997E+02  0.45594000000E+02  0.51100000000E-03 0. -1.
         23    2    1    2    0    0  0.35527136788E-14  0.22204460493E-15 -0.35527136788E-14  0.91188000000E+02  0.91188000000E+02 0.  0.
    9900012    2    3    3    0    0 -0.26112728040E+02 -0.13765794384E+01  0.25923170706E+02  0.54367077740E+02  0.39999985323E+02 0.  0.
         12    1    3    3    0    0  0.26112728040E+02  0.13765794384E+01 -0.25923170706E+02  0.36820922260E+02  0.00000000000E+00 0. -1.
         11    1    4    4    0    0 -0.29807889162E+01  0.29375884390E+01  0.11517288106E+02  0.12254079075E+02  0.51100000000E-03 0. -1.
        -11    1    4    4    0    0  0.78640311428E+00  0.10949740227E+02  0.20598321545E+01  0.11169518775E+02  0.51100000000E-03 0.  1.
        -12    1    4    4    0    0 -0.23918342239E+02 -0.15263908105E+02  0.12346050446E+02  0.30943479889E+02  0.00000000000E+00 0.  1.
</event>
<event>
 8    1  0.1229038E-006  0.9118800E+02  0.7816164E-02  0.1184000E+00
        -11   -1    0    0    0    0  0.00000000000E+00  0.00000000000E+00  0.45593999997E+02  0.45594000000E+02  0.51100000000E-03 0. -1.
         11   -1    0    0    0    0 -0.00000000000E+00 -0.00000000000E+00 -0.45593999997E+02  0.45594000000E+02  0.51100000000E-03 0.  1.
         23    2    1    2    0    0  0.00000000000E+00 -0.17763568394E-14  0.00000000000E+00  0.91188000000E+02  0.91188000000E+02 0.  0.
    9900012    2    3    3    0    0 -0.25452061029E+02  0.13602778984E+02 -0.22867795763E+02  0.54367094392E+02  0.40000023286E+02 0.  0.
        -12    1    3    3    0    0  0.25452061029E+02 -0.13602778984E+02  0.22867795763E+02  0.36820905608E+02  0.00000000000E+00 0.  1.
         11    1    4    4    0    0 -0.14248984145E+02  0.14960971195E+02 -0.62041387654E+01  0.21572101111E+02  0.51100000000E-03 0. -1.
        -11    1    4    4    0    0 -0.42199675362E+01  0.10065009310E+02 -0.16028512459E+02  0.19391383404E+02  0.51100000000E-03 0.  1.
        -12    1    4    4    0    0 -0.69831093481E+01 -0.11423201521E+02 -0.63514453831E+00  0.13403609877E+02  0.00000000000E+00 0.  1.
</event>
<event>
 8    1  0.1229038E-006  0.9118800E+02  0.7816164E-02  0.1184000E+00
        -11   -1    0    0    0    0  0.00000000000E+00  0.00000000000E+00  0.45593999997E+02  0.45594000000E+02  0.51100000000E-03 0.  1.
         11   -1    0    0    0    0 -0.00000000000E+00 -0.00000000000E+00 -0.45593999997E+02  0.45594000000E+02  0.51100000000E-03 0. -1.
         23    2    1    2    0    0  0.00000000000E+00  0.00000000000E+00  0.00000000000E+00  0.91188000000E+02  0.91188000000E+02 0.  0.
    9900012    2    3    3    0    0 -0.75557157038E+01 -0.23487190419E+02 -0.27332080831E+02  0.54367087516E+02  0.40000007610E+02 0.  0.
        -12    1    3    3    0    0  0.75557157038E+01  0.23487190419E+02  0.27332080831E+02  0.36820912484E+02  0.00000000000E+00 0.  1.
         11    1    4    4    0    0  0.39543753980E+01 -0.21372993122E+02 -0.97434988398E+01  0.23819691217E+02  0.51100000000E-03 0. -1.
        -11    1    4    4    0    0  0.31491449355E+01  0.69621542843E+01 -0.66409691182E+01  0.10123792629E+02  0.51100000000E-03 0.  1.
        -12    1    4    4    0    0 -0.14659236037E+02 -0.90763515816E+01 -0.10947612873E+02  0.20423603670E+02  0.00000000000E+00 0.  1.
</event>
<event>
 8    1  0.1229038E-006  0.9118800E+02  0.7816164E-02  0.1184000E+00
        -11   -1    0    0    0    0  0.00000000000E+00  0.00000000000E+00  0.45593999997E+02  0.45594000000E+02  0.51100000000E-03 0. -1.
         11   -1    0    0    0    0 -0.00000000000E+00 -0.00000000000E+00 -0.45593999997E+02  0.45594000000E+02  0.51100000000E-03 0.  1.
         23    2    1    2    0    0 -0.13322676296E-14  0.71054273576E-14  0.00000000000E+00  0.91188000000E+02  0.91188000000E+02 0.  0.
    9900012    2    3    3    0    0  0.25008654113E+01 -0.36338392118E+02 -0.53895930186E+01  0.54367071408E+02  0.39999970888E+02 0.  0.
        -12    1    3    3    0    0 -0.25008654113E+01  0.36338392118E+02  0.53895930186E+01  0.36820928592E+02  0.00000000000E+00 0.  1.
         11    1    4    4    0    0 -0.12278140422E+00  0.28777937603E+00  0.28519361647E+00  0.42335316520E+00  0.51100000000E-03 0. -1.
        -11    1    4    4    0    0 -0.95437975240E+01 -0.43228016328E+01  0.11357072002E+02  0.15451659130E+02  0.51100000000E-03 0.  1.
        -12    1    4    4    0    0  0.12167444340E+02 -0.32303369861E+02 -0.17031858637E+02  0.38492059113E+02  0.00000000000E+00 0.  1.
</event>
<event>
 8    1  0.1229038E-006  0.9118800E+02  0.7816164E-02  0.1184000E+00
        -11   -1    0    0    0    0  0.00000000000E+00  0.00000000000E+00  0.45593999997E+02  0.45594000000E+02  0.51100000000E-03 0. -1.
         11   -1    0    0    0    0 -0.00000000000E+00 -0.00000000000E+00 -0.45593999997E+02  0.45594000000E+02  0.51100000000E-03 0.  1.
         23    2    1    2    0    0 -0.71054273576E-14  0.17763568394E-14  0.17763568394E-14  0.91188000000E+02  0.91188000000E+02 0.  0.
    9900012    2    3    3    0    0 -0.31350199808E+02  0.14577148978E+02  0.12666924947E+02  0.54367091702E+02  0.40000017152E+02 0.  0.
        -12    1    3    3    0    0  0.31350199808E+02 -0.14577148978E+02 -0.12666924947E+02  0.36820908298E+02  0.00000000000E+00 0.  1.
         11    1    4    4    0    0 -0.71592605687E+00 -0.36563664153E-01  0.17925025649E+01  0.19305317212E+01  0.51100000000E-03 0. -1.
        -11    1    4    4    0    0 -0.12493358296E+02 -0.13066861859E+02  0.55829810971E+01  0.18920796985E+02  0.51100000000E-03 0.  1.
         12    1    4    4    0    0 -0.18140915455E+02  0.27680574501E+02  0.52914412850E+01  0.33515762995E+02  0.00000000000E+00 0. -1.
</event>
<event>
 8    1  0.1229038E-006  0.9118800E+02  0.7816164E-02  0.1184000E+00
        -11   -1    0    0    0    0  0.00000000000E+00  0.00000000000E+00  0.45593999997E+02  0.45594000000E+02  0.51100000000E-03 0.  1.
         11   -1    0    0    0    0 -0.00000000000E+00 -0.00000000000E+00 -0.45593999997E+02  0.45594000000E+02  0.51100000000E-03 0. -1.
         23    2    1    2    0    0  0.00000000000E+00 -0.17763568394E-14 -0.17763568394E-14  0.91188000000E+02  0.91188000000E+02 0.  0.
    9900012    2    3    3    0    0 -0.33064373844E+02 -0.14336880328E+02  0.75485467944E+01  0.54367088632E+02  0.40000010154E+02 0.  0.
        -12    1    3    3    0    0  0.33064373844E+02  0.14336880328E+02 -0.75485467944E+01  0.36820911368E+02  0.00000000000E+00 0.  1.
         11    1    4    4    0    0 -0.27338343465E+02 -0.98587529994E+01  0.19356198098E+02  0.34917652257E+02  0.51100000000E-03 0. -1.
        -11    1    4    4    0    0 -0.17950620507E+01  0.44685355384E+01 -0.10744124417E+01  0.49340064836E+01  0.51100000000E-03 0.  1.
         12    1    4    4    0    0 -0.39309683289E+01 -0.89466628671E+01 -0.10733238862E+02  0.14515429891E+02  0.00000000000E+00 0. -1.
</event>
<event>
 8    1  0.1229038E-006  0.9118800E+02  0.7816164E-02  0.1184000E+00
        -11   -1    0    0    0    0  0.00000000000E+00  0.00000000000E+00  0.45593999997E+02  0.45594000000E+02  0.51100000000E-03 0.  1.
         11   -1    0    0    0    0 -0.00000000000E+00 -0.00000000000E+00 -0.45593999997E+02  0.45594000000E+02  0.51100000000E-03 0. -1.
         23    2    1    2    0    0 -0.35527136788E-14  0.00000000000E+00 -0.35527136788E-14  0.91188000000E+02  0.91188000000E+02 0.  0.
    9900012    2    3    3    0    0 -0.29916651750E+02 -0.61405669236E+01 -0.20568686648E+02  0.54367034716E+02  0.39999887241E+02 0.  0.
        -12    1    3    3    0    0  0.29916651750E+02  0.61405669236E+01  0.20568686648E+02  0.36820965284E+02  0.00000000000E+00 0.  1.
         11    1    4    4    0    0 -0.12035964936E+02  0.11650482638E+02 -0.16095413794E+02  0.23230594980E+02  0.51100000000E-03 0. -1.
        -11    1    4    4    0    0 -0.29729409584E+01 -0.10530855172E+02  0.50096362297E+01  0.12034689195E+02  0.51100000000E-03 0.  1.
        -12    1    4    4    0    0 -0.14907745855E+02 -0.72601943898E+01 -0.94829090832E+01  0.19101750541E+02  0.00000000000E+00 0.  1.
</event>
<event>
 8    1  0.1229038E-006  0.9118800E+02  0.7816164E-02  0.1184000E+00
        -11   -1    0    0    0    0  0.00000000000E+00  0.00000000000E+00  0.45593999997E+02  0.45594000000E+02  0.51100000000E-03 0.  1.
         11   -1    0    0    0    0 -0.00000000000E+00 -0.00000000000E+00 -0.45593999997E+02  0.45594000000E+02  0.51100000000E-03 0. -1.
         23    2    1    2    0    0 -0.44408920985E-15 -0.17763568394E-14  0.00000000000E+00  0.91188000000E+02  0.91188000000E+02 0.  0.
    9900012    2    3    3    0    0  0.23244681392E+01 -0.14543630286E+02  0.33746982753E+02  0.54367093182E+02  0.40000020526E+02 0.  0.
         12    1    3    3    0    0 -0.23244681392E+01  0.14543630286E+02 -0.33746982753E+02  0.36820906818E+02  0.00000000000E+00 0. -1.
         11    1    4    4    0    0  0.16465322472E+02  0.37670739586E+01  0.11774096914E+02  0.20589488792E+02  0.51100000000E-03 0. -1.
        -11    1    4    4    0    0 -0.13372433422E+02 -0.13691958516E+02  0.11556360688E+02  0.22357128086E+02  0.51100000000E-03 0.  1.
         12    1    4    4    0    0 -0.76842091057E+00 -0.46187457283E+01  0.10416525150E+02  0.11420476304E+02  0.00000000000E+00 0. -1.
</event>
<event>
 8    1  0.1229038E-006  0.9118800E+02  0.7816164E-02  0.1184000E+00
        -11   -1    0    0    0    0  0.00000000000E+00  0.00000000000E+00  0.45593999997E+02  0.45594000000E+02  0.51100000000E-03 0. -1.
         11   -1    0    0    0    0 -0.00000000000E+00 -0.00000000000E+00 -0.45593999997E+02  0.45594000000E+02  0.51100000000E-03 0.  1.
         23    2    1    2    0    0  0.88817841970E-15 -0.17763568394E-14  0.00000000000E+00  0.91188000000E+02  0.91188000000E+02 0.  0.
    9900012    2    3    3    0    0  0.46081001932E+01 -0.19616820759E+01  0.36478796297E+02  0.54367009203E+02  0.39999829080E+02 0.  0.
        -12    1    3    3    0    0 -0.46081001932E+01  0.19616820759E+01 -0.36478796297E+02  0.36820990797E+02  0.00000000000E+00 0.  1.
         11    1    4    4    0    0  0.15159320478E+01 -0.15880162368E+02  0.12374496712E+02  0.20189249019E+02  0.51100000000E-03 0. -1.
        -11    1    4    4    0    0  0.60205139029E+01  0.36519672169E+01 -0.79493282092E+00  0.70862804531E+01  0.51100000000E-03 0.  1.
         12    1    4    4    0    0 -0.29283457575E+01  0.10266513075E+02  0.24899232407E+02  0.27091479731E+02  0.00000000000E+00 0. -1.
</event>
<event>
 8    1  0.1229038E-006  0.9118800E+02  0.7816164E-02  0.1184000E+00
        -11   -1    0    0    0    0  0.00000000000E+00  0.00000000000E+00  0.45593999997E+02  0.45594000000E+02  0.51100000000E-03 0. -1.
         11   -1    0    0    0    0 -0.00000000000E+00 -0.00000000000E+00 -0.45593999997E+02  0.45594000000E+02  0.51100000000E-03 0.  1.
         23    2    1    2    0    0 -0.17763568394E-14  0.00000000000E+00  0.00000000000E+00  0.91188000000E+02  0.91188000000E+02 0.  0.
    9900012    2    3    3    0    0 -0.14994415352E+02  0.18542337010E+02  0.28055798847E+02  0.54367101009E+02  0.40000038371E+02 0.  0.
        -12    1    3    3    0    0  0.14994415352E+02 -0.18542337010E+02 -0.28055798847E+02  0.36820898991E+02  0.00000000000E+00 0.  1.
         11    1    4    4    0    0 -0.20824786009E+02  0.22702057502E+02  0.18901483868E+02  0.36143065999E+02  0.51100000000E-03 0. -1.
        -11    1    4    4    0    0  0.27764440941E+01  0.88485517061E+00 -0.33252194752E+01  0.44213906523E+01  0.51100000000E-03 0.  1.
         12    1    4    4    0    0  0.30539265631E+01 -0.50445756626E+01  0.12479534454E+02  0.13802644358E+02  0.00000000000E+00 0. -1.
</event>
<event>
 8    1  0.1229038E-006  0.9118800E+02  0.7816164E-02  0.1184000E+00
        -11   -1    0    0    0    0  0.00000000000E+00  0.00000000000E+00  0.45593999997E+02  0.45594000000E+02  0.51100000000E-03 0.  1.
         11   -1    0    0    0    0 -0.00000000000E+00 -0.00000000000E+00 -0.45593999997E+02  0.45594000000E+02  0.51100000000E-03 0. -1.
         23    2    1    2    0    0 -0.35527136788E-14 -0.17763568394E-14  0.00000000000E+00  0.91188000000E+02  0.91188000000E+02 0.  0.
    9900012    2    3    3    0    0 -0.20518469725E+02  0.80906233738E+01 -0.29484154755E+02  0.54367066171E+02  0.39999958950E+02 0.  0.
        -12    1    3    3    0    0  0.20518469725E+02 -0.80906233738E+01  0.29484154755E+02  0.36820933829E+02  0.00000000000E+00 0.  1.
         11    1    4    4    0    0 -0.15423573615E+02 -0.91749014728E+01 -0.24455288230E+02  0.30333588030E+02  0.51100000000E-03 0. -1.
        -11    1    4    4    0    0  0.20120835338E+01 -0.11871255496E+01  0.19715673958E+01  0.30569307279E+01  0.51100000000E-03 0.  1.
         12    1    4    4    0    0 -0.71069796437E+01  0.18452650396E+02 -0.70004339203E+01  0.20976547413E+02  0.00000000000E+00 0. -1.
</event>
<event>
 8    1  0.1229038E-006  0.9118800E+02  0.7816164E-02  0.1184000E+00
        -11   -1    0    0    0    0  0.00000000000E+00  0.00000000000E+00  0.45593999997E+02  0.45594000000E+02  0.51100000000E-03 0.  1.
         11   -1    0    0    0    0 -0.00000000000E+00 -0.00000000000E+00 -0.45593999997E+02  0.45594000000E+02  0.51100000000E-03 0. -1.
         23    2    1    2    0    0  0.00000000000E+00 -0.44408920985E-15  0.00000000000E+00  0.91188000000E+02  0.91188000000E+02 0.  0.
    9900012    2    3    3    0    0 -0.22504119146E+02  0.36960005219E+01 -0.28908383050E+02  0.54366940687E+02  0.39999672882E+02 0.  0.
        -12    1    3    3    0    0  0.22504119146E+02 -0.36960005219E+01  0.28908383050E+02  0.36821059313E+02  0.00000000000E+00 0.  1.
         11    1    4    4    0    0  0.57305683486E+01  0.27642447604E+01  0.17392559188E+01  0.65958679569E+01  0.51100000000E-03 0. -1.
        -11    1    4    4    0    0 -0.32238378455E+02  0.99096777257E+00 -0.29216271272E+02  0.43518795592E+02  0.51100000000E-03 0.  1.
        -12    1    4    4    0    0  0.40036909604E+01 -0.59212011063E-01 -0.14313676974E+01  0.42522771374E+01  0.00000000000E+00 0.  1.
</event>
<event>
 8    1  0.1229038E-006  0.9118800E+02  0.7816164E-02  0.1184000E+00
        -11   -1    0    0    0    0  0.00000000000E+00  0.00000000000E+00  0.45593999997E+02  0.45594000000E+02  0.51100000000E-03 0. -1.
         11   -1    0    0    0    0 -0.00000000000E+00 -0.00000000000E+00 -0.45593999997E+02  0.45594000000E+02  0.51100000000E-03 0.  1.
         23    2    1    2    0    0  0.00000000000E+00  0.00000000000E+00  0.00000000000E+00  0.91188000000E+02  0.91188000000E+02 0.  0.
    9900012    2    3    3    0    0  0.89784427252E+01  0.26958472284E+02 -0.23418080263E+02  0.54367107223E+02  0.40000052537E+02 0.  0.
         12    1    3    3    0    0 -0.89784427252E+01 -0.26958472284E+02  0.23418080263E+02  0.36820892777E+02  0.00000000000E+00 0. -1.
         11    1    4    4    0    0  0.66549359910E+01  0.12150912588E+01 -0.13101627611E+02  0.14745075996E+02  0.51100000000E-03 0. -1.
        -11    1    4    4    0    0 -0.16620719803E+01  0.16105024765E+02  0.83668263443E+01  0.18224656081E+02  0.51100000000E-03 0.  1.
        -12    1    4    4    0    0  0.39855787144E+01  0.96383562603E+01 -0.18683278996E+02  0.21397375146E+02  0.00000000000E+00 0.  1.
</event>
<event>
 8    1  0.1229038E-006  0.9118800E+02  0.7816164E-02  0.1184000E+00
        -11   -1    0    0    0    0  0.00000000000E+00  0.00000000000E+00  0.45593999997E+02  0.45594000000E+02  0.51100000000E-03 0.  1.
         11   -1    0    0    0    0 -0.00000000000E+00 -0.00000000000E+00 -0.45593999997E+02  0.45594000000E+02  0.51100000000E-03 0. -1.
         23    2    1    2    0    0  0.00000000000E+00  0.35527136788E-14  0.00000000000E+00  0.91188000000E+02  0.91188000000E+02 0.  0.
    9900012    2    3    3    0    0 -0.16964835732E+02 -0.14678309304E+02 -0.29197972735E+02  0.54367081662E+02  0.39999994264E+02 0.  0.
        -12    1    3    3    0    0  0.16964835732E+02  0.14678309304E+02  0.29197972735E+02  0.36820918338E+02  0.00000000000E+00 0.  1.
         11    1    4    4    0    0 -0.46087564504E+01 -0.52405457306E+01 -0.15328921228E+02  0.16842796141E+02  0.51100000000E-03 0. -1.
        -11    1    4    4    0    0 -0.18119476965E+02 -0.16553982680E+02 -0.55724725289E+01  0.25167483752E+02  0.51100000000E-03 0.  1.
         12    1    4    4    0    0  0.57633976834E+01  0.71162191061E+01 -0.82965789777E+01  0.12356801769E+02  0.00000000000E+00 0. -1.
</event>
<event>
 8    1  0.1229038E-006  0.9118800E+02  0.7816164E-02  0.1184000E+00
        -11   -1    0    0    0    0  0.00000000000E+00  0.00000000000E+00  0.45593999997E+02  0.45594000000E+02  0.51100000000E-03 0. -1.
         11   -1    0    0    0    0 -0.00000000000E+00 -0.00000000000E+00 -0.45593999997E+02  0.45594000000E+02  0.51100000000E-03 0.  1.
         23    2    1    2    0    0  0.00000000000E+00  0.00000000000E+00  0.00000000000E+00  0.91188000000E+02  0.91188000000E+02 0.  0.
    9900012    2    3    3    0    0  0.10430537632E+02  0.17709459034E+02 -0.30550921634E+02  0.54367083835E+02  0.39999999218E+02 0.  0.
         12    1    3    3    0    0 -0.10430537632E+02 -0.17709459034E+02  0.30550921634E+02  0.36820916165E+02  0.00000000000E+00 0. -1.
         11    1    4    4    0    0  0.11118240341E+02  0.34861644854E+01  0.22105242668E+01  0.11859807287E+02  0.51100000000E-03 0. -1.
        -11    1    4    4    0    0  0.10803356422E+02  0.71006712151E+01 -0.20611998342E+02  0.24330773058E+02  0.51100000000E-03 0.  1.
        -12    1    4    4    0    0 -0.11491059131E+02  0.71226233333E+01 -0.12149447559E+02  0.18176503489E+02  0.00000000000E+00 0.  1.
</event>
<event>
 8    1  0.1229038E-006  0.9118800E+02  0.7816164E-02  0.1184000E+00
        -11   -1    0    0    0    0  0.00000000000E+00  0.00000000000E+00  0.45593999997E+02  0.45594000000E+02  0.51100000000E-03 0. -1.
         11   -1    0    0    0    0 -0.00000000000E+00 -0.00000000000E+00 -0.45593999997E+02  0.45594000000E+02  0.51100000000E-03 0.  1.
         23    2    1    2    0    0 -0.71054273576E-14 -0.35527136788E-14  0.00000000000E+00  0.91188000000E+02  0.91188000000E+02 0.  0.
    9900012    2    3    3    0    0  0.22093506206E+02  0.29152649633E+02 -0.42177672678E+01  0.54366952244E+02  0.39999699230E+02 0.  0.
         12    1    3    3    0    0 -0.22093506206E+02 -0.29152649633E+02  0.42177672678E+01  0.36821047756E+02  0.00000000000E+00 0. -1.
         11    1    4    4    0    0  0.87059456402E+01  0.23632542758E+02 -0.19093694627E+01  0.25257400078E+02  0.51100000000E-03 0. -1.
        -11    1    4    4    0    0  0.31899493022E+01  0.12602967530E+02 -0.81959870730E+01  0.15368304118E+02  0.51100000000E-03 0.  1.
        -12    1    4    4    0    0  0.10197611263E+02 -0.70828606543E+01  0.58875892680E+01  0.13741248048E+02  0.00000000000E+00 0.  1.
</event>
<event>
 8    1  0.1229038E-006  0.9118800E+02  0.7816164E-02  0.1184000E+00
        -11   -1    0    0    0    0  0.00000000000E+00  0.00000000000E+00  0.45593999997E+02  0.45594000000E+02  0.51100000000E-03 0.  1.
         11   -1    0    0    0    0 -0.00000000000E+00 -0.00000000000E+00 -0.45593999997E+02  0.45594000000E+02  0.51100000000E-03 0. -1.
         23    2    1    2    0    0  0.00000000000E+00  0.17763568394E-14 -0.35527136788E-14  0.91188000000E+02  0.91188000000E+02 0.  0.
    9900012    2    3    3    0    0  0.23867099114E+02 -0.14535336792E+02 -0.23976383575E+02  0.54367062952E+02  0.39999951611E+02 0.  0.
         12    1    3    3    0    0 -0.23867099114E+02  0.14535336792E+02  0.23976383575E+02  0.36820937048E+02  0.00000000000E+00 0. -1.
         11    1    4    4    0    0  0.22592401350E+02 -0.94513318125E+00 -0.31469405168E+02  0.38750914020E+02  0.51100000000E-03 0. -1.
        -11    1    4    4    0    0  0.11142902606E+01 -0.91437105333E+01  0.44836549916E+01  0.10244620415E+02  0.51100000000E-03 0.  1.
         12    1    4    4    0    0  0.16040750418E+00 -0.44464930778E+01  0.30093666023E+01  0.53715285166E+01  0.00000000000E+00 0. -1.
</event>
<event>
 8    1  0.1229038E-006  0.9118800E+02  0.7816164E-02  0.1184000E+00
        -11   -1    0    0    0    0  0.00000000000E+00  0.00000000000E+00  0.45593999997E+02  0.45594000000E+02  0.51100000000E-03 0.  1.
         11   -1    0    0    0    0 -0.00000000000E+00 -0.00000000000E+00 -0.45593999997E+02  0.45594000000E+02  0.51100000000E-03 0. -1.
         23    2    1    2    0    0  0.00000000000E+00  0.00000000000E+00 -0.35527136788E-14  0.91188000000E+02  0.91188000000E+02 0.  0.
    9900012    2    3    3    0    0 -0.11791851627E+02  0.28493810708E+02 -0.20120506921E+02  0.54367084582E+02  0.40000000921E+02 0.  0.
        -12    1    3    3    0    0  0.11791851627E+02 -0.28493810708E+02  0.20120506921E+02  0.36820915418E+02  0.00000000000E+00 0.  1.
         11    1    4    4    0    0  0.68313104039E+01  0.20795546367E+01  0.37258222733E+01  0.80543839737E+01  0.51100000000E-03 0.  1.
        -11    1    4    4    0    0 -0.22655921560E+02  0.25857569681E+02 -0.17011849530E+02  0.38357629179E+02  0.51100000000E-03 0. -1.
         12    1    4    4    0    0  0.40327595287E+01  0.55668639013E+00 -0.68344796647E+01  0.79550714290E+01  0.00000000000E+00 0. -1.
</event>
<event>
 8    1  0.1229038E-006  0.9118800E+02  0.7816164E-02  0.1184000E+00
        -11   -1    0    0    0    0  0.00000000000E+00  0.00000000000E+00  0.45593999997E+02  0.45594000000E+02  0.51100000000E-03 0.  1.
         11   -1    0    0    0    0 -0.00000000000E+00 -0.00000000000E+00 -0.45593999997E+02  0.45594000000E+02  0.51100000000E-03 0. -1.
         23    2    1    2    0    0  0.17763568394E-14  0.00000000000E+00  0.00000000000E+00  0.91188000000E+02  0.91188000000E+02 0.  0.
    9900012    2    3    3    0    0  0.11787915104E+02 -0.10795911323E+02 -0.33170370173E+02  0.54367080658E+02  0.39999991976E+02 0.  0.
        -12    1    3    3    0    0 -0.11787915104E+02  0.10795911323E+02  0.33170370173E+02  0.36820919342E+02  0.00000000000E+00 0.  1.
         11    1    4    4    0    0  0.44838542322E+01 -0.99224991369E+01 -0.35736600044E+02  0.37358607052E+02  0.51100000000E-03 0. -1.
        -11    1    4    4    0    0  0.23373342484E+01 -0.23304446760E+01 -0.60876058848E+01  0.69248140369E+01  0.51100000000E-03 0.  1.
        -12    1    4    4    0    0  0.49667266232E+01  0.14570324896E+01  0.86538357557E+01  0.10083659569E+02  0.00000000000E+00 0.  1.
</event>
<event>
 8    1  0.1229038E-006  0.9118800E+02  0.7816164E-02  0.1184000E+00
        -11   -1    0    0    0    0  0.00000000000E+00  0.00000000000E+00  0.45593999997E+02  0.45594000000E+02  0.51100000000E-03 0.  1.
         11   -1    0    0    0    0 -0.00000000000E+00 -0.00000000000E+00 -0.45593999997E+02  0.45594000000E+02  0.51100000000E-03 0. -1.
         23    2    1    2    0    0 -0.17763568394E-14  0.00000000000E+00  0.00000000000E+00  0.91188000000E+02  0.91188000000E+02 0.  0.
    9900012    2    3    3    0    0  0.15884188364E+02 -0.24615746836E+02  0.22305696223E+02  0.54366993546E+02  0.39999793386E+02 0.  0.
         12    1    3    3    0    0 -0.15884188364E+02  0.24615746836E+02 -0.22305696223E+02  0.36821006454E+02  0.00000000000E+00 0. -1.
         11    1    4    4    0    0 -0.81326242910E+01 -0.19333518396E+02  0.19412111111E+02  0.28578918270E+02  0.51100000000E-03 0. -1.
        -11    1    4    4    0    0  0.80334459710E+00 -0.19525955876E+01  0.74430189709E+00  0.22387446584E+01  0.51100000000E-03 0.  1.
         12    1    4    4    0    0  0.23213468058E+02 -0.33296328518E+01  0.21492832156E+01  0.23549330618E+02  0.00000000000E+00 0. -1.
</event>
<event>
 8    1  0.1229038E-006  0.9118800E+02  0.7816164E-02  0.1184000E+00
        -11   -1    0    0    0    0  0.00000000000E+00  0.00000000000E+00  0.45593999997E+02  0.45594000000E+02  0.51100000000E-03 0.  1.
         11   -1    0    0    0    0 -0.00000000000E+00 -0.00000000000E+00 -0.45593999997E+02  0.45594000000E+02  0.51100000000E-03 0. -1.
         23    2    1    2    0    0  0.35527136788E-14  0.00000000000E+00  0.71054273576E-14  0.91188000000E+02  0.91188000000E+02 0.  0.
    9900012    2    3    3    0    0  0.11194378450E+02  0.22056236548E+02  0.27276255129E+02  0.54367003634E+02  0.39999816384E+02 0.  0.
         12    1    3    3    0    0 -0.11194378450E+02 -0.22056236548E+02 -0.27276255129E+02  0.36820996366E+02  0.00000000000E+00 0. -1.
         11    1    4    4    0    0 -0.59040650848E+01  0.12963293386E+01 -0.18532889686E+01  0.63224310627E+01  0.51100000000E-03 0. -1.
        -11    1    4    4    0    0 -0.37080758391E+01  0.16320942320E+02  0.10436670615E+02  0.19724276372E+02  0.51100000000E-03 0.  1.
        -12    1    4    4    0    0  0.20806519374E+02  0.44389648897E+01  0.18692873483E+02  0.28320296199E+02  0.00000000000E+00 0.  1.
</event>
<event>
 8    1  0.1229038E-006  0.9118800E+02  0.7816164E-02  0.1184000E+00
        -11   -1    0    0    0    0  0.00000000000E+00  0.00000000000E+00  0.45593999997E+02  0.45594000000E+02  0.51100000000E-03 0. -1.
         11   -1    0    0    0    0 -0.00000000000E+00 -0.00000000000E+00 -0.45593999997E+02  0.45594000000E+02  0.51100000000E-03 0.  1.
         23    2    1    2    0    0 -0.44408920985E-15  0.71054273576E-14  0.00000000000E+00  0.91188000000E+02  0.91188000000E+02 0.  0.
    9900012    2    3    3    0    0  0.39418934338E+01 -0.24982178304E+02 -0.26760637857E+02  0.54367088888E+02  0.40000010737E+02 0.  0.
         12    1    3    3    0    0 -0.39418934338E+01  0.24982178304E+02  0.26760637857E+02  0.36820911112E+02  0.00000000000E+00 0. -1.
         11    1    4    4    0    0  0.10062982827E+02  0.24409513468E+01 -0.10223632596E+02  0.14551444278E+02  0.51100000000E-03 0. -1.
        -11    1    4    4    0    0  0.73416828689E+01 -0.78684796556E+01  0.20775685173E+00  0.10763663067E+02  0.51100000000E-03 0.  1.
        -12    1    4    4    0    0 -0.13462772262E+02 -0.19554649995E+02 -0.16744762112E+02  0.29051981543E+02  0.00000000000E+00 0.  1.
</event>
<event>
 8    1  0.1229038E-006  0.9118800E+02  0.7816164E-02  0.1184000E+00
        -11   -1    0    0    0    0  0.00000000000E+00  0.00000000000E+00  0.45593999997E+02  0.45594000000E+02  0.51100000000E-03 0.  1.
         11   -1    0    0    0    0 -0.00000000000E+00 -0.00000000000E+00 -0.45593999997E+02  0.45594000000E+02  0.51100000000E-03 0. -1.
         23    2    1    2    0    0  0.17763568394E-14 -0.35527136788E-14  0.00000000000E+00  0.91188000000E+02  0.91188000000E+02 0.  0.
    9900012    2    3    3    0    0  0.15931546638E+02  0.20022987316E+02 -0.26477227265E+02  0.54367112409E+02  0.40000064359E+02 0.  0.
        -12    1    3    3    0    0 -0.15931546638E+02 -0.20022987316E+02  0.26477227265E+02  0.36820887591E+02  0.00000000000E+00 0.  1.
         11    1    4    4    0    0  0.12447389615E+02  0.15884855513E+02 -0.11478573900E+02  0.23216886138E+02  0.51100000000E-03 0. -1.
        -11    1    4    4    0    0 -0.32290335261E+00  0.33780077378E+01 -0.22473020123E+02  0.22727776762E+02  0.51100000000E-03 0.  1.
         12    1    4    4    0    0  0.38070603757E+01  0.76012406440E+00  0.74743667580E+01  0.84224495089E+01  0.00000000000E+00 0. -1.
</event>
<event>
 8    1  0.1229038E-006  0.9118800E+02  0.7816164E-02  0.1184000E+00
        -11   -1    0    0    0    0  0.00000000000E+00  0.00000000000E+00  0.45593999997E+02  0.45594000000E+02  0.51100000000E-03 0.  1.
         11   -1    0    0    0    0 -0.00000000000E+00 -0.00000000000E+00 -0.45593999997E+02  0.45594000000E+02  0.51100000000E-03 0. -1.
         23    2    1    2    0    0  0.35527136788E-14 -0.35527136788E-14  0.00000000000E+00  0.91188000000E+02  0.91188000000E+02 0.  0.
    9900012    2    3    3    0    0  0.29233836031E+02  0.20291766207E+02  0.94555093669E+01  0.54367087433E+02  0.40000007421E+02 0.  0.
        -12    1    3    3    0    0 -0.29233836031E+02 -0.20291766207E+02 -0.94555093669E+01  0.36820912567E+02  0.00000000000E+00 0.  1.
         11    1    4    4    0    0  0.24939010565E+02  0.71811108423E+01 -0.39635651358E+01  0.26253236938E+02  0.51100000000E-03 0. -1.
        -11    1    4    4    0    0 -0.33919444299E+01 -0.17527164032E+01 -0.28583689503E+01  0.47694418042E+01  0.51100000000E-03 0.  1.
        -12    1    4    4    0    0  0.76867698959E+01  0.14863371768E+02  0.16277443453E+02  0.23344408690E+02  0.00000000000E+00 0.  1.
</event>
<event>
 8    1  0.1229038E-006  0.9118800E+02  0.7816164E-02  0.1184000E+00
        -11   -1    0    0    0    0  0.00000000000E+00  0.00000000000E+00  0.45593999997E+02  0.45594000000E+02  0.51100000000E-03 0. -1.
         11   -1    0    0    0    0 -0.00000000000E+00 -0.00000000000E+00 -0.45593999997E+02  0.45594000000E+02  0.51100000000E-03 0.  1.
         23    2    1    2    0    0 -0.71054273576E-14 -0.22204460493E-15 -0.44408920985E-15  0.91188000000E+02  0.91188000000E+02 0.  0.
    9900012    2    3    3    0    0 -0.36724318641E+02  0.11609248429E+01 -0.23994618371E+01  0.54367071939E+02  0.39999972100E+02 0.  0.
         12    1    3    3    0    0  0.36724318641E+02 -0.11609248429E+01  0.23994618371E+01  0.36820928061E+02  0.00000000000E+00 0. -1.
         11    1    4    4    0    0 -0.26710844981E+01  0.10978103300E+02 -0.48112954862E+01  0.12280146945E+02  0.51100000000E-03 0. -1.
        -11    1    4    4    0    0 -0.17464422494E+01 -0.12068518185E+01  0.79219140538E+01  0.82014190467E+01  0.51100000000E-03 0.  1.
        -12    1    4    4    0    0 -0.32306791894E+02 -0.86103266387E+01 -0.55100804047E+01  0.33885505948E+02  0.00000000000E+00 0.  1.
</event>
<event>
 8    1  0.1229038E-006  0.9118800E+02  0.7816164E-02  0.1184000E+00
        -11   -1    0    0    0    0  0.00000000000E+00  0.00000000000E+00  0.45593999997E+02  0.45594000000E+02  0.51100000000E-03 0.  1.
         11   -1    0    0    0    0 -0.00000000000E+00 -0.00000000000E+00 -0.45593999997E+02  0.45594000000E+02  0.51100000000E-03 0. -1.
         23    2    1    2    0    0 -0.88817841970E-15 -0.17763568394E-14 -0.71054273576E-14  0.91188000000E+02  0.91188000000E+02 0.  0.
    9900012    2    3    3    0    0  0.64100310433E+01  0.11439595755E+02  0.34406785068E+02  0.54367086001E+02  0.40000004156E+02 0.  0.
         12    1    3    3    0    0 -0.64100310433E+01 -0.11439595755E+02 -0.34406785068E+02  0.36820913999E+02  0.00000000000E+00 0. -1.
         11    1    4    4    0    0  0.13887779313E+02  0.16320762867E+02  0.10933493464E+02  0.24057826053E+02  0.51100000000E-03 0. -1.
        -11    1    4    4    0    0  0.61062620308E+00 -0.25587154489E+01  0.21507148599E+02  0.21667425556E+02  0.51100000000E-03 0.  1.
         12    1    4    4    0    0 -0.80883744731E+01 -0.23224516626E+01  0.19661430049E+01  0.86418343920E+01  0.00000000000E+00 0. -1.
</event>
<event>
 8    1  0.1229038E-006  0.9118800E+02  0.7816164E-02  0.1184000E+00
        -11   -1    0    0    0    0  0.00000000000E+00  0.00000000000E+00  0.45593999997E+02  0.45594000000E+02  0.51100000000E-03 0. -1.
         11   -1    0    0    0    0 -0.00000000000E+00 -0.00000000000E+00 -0.45593999997E+02  0.45594000000E+02  0.51100000000E-03 0.  1.
         23    2    1    2    0    0  0.00000000000E+00 -0.35527136788E-14  0.00000000000E+00  0.91188000000E+02  0.91188000000E+02 0.  0.
    9900012    2    3    3    0    0  0.83829700035E+01  0.30549527185E+02 -0.18767851681E+02  0.54367081299E+02  0.39999993436E+02 0.  0.
         12    1    3    3    0    0 -0.83829700035E+01 -0.30549527185E+02  0.18767851681E+02  0.36820918701E+02  0.00000000000E+00 0. -1.
         11    1    4    4    0    0 -0.62360188534E+01  0.77246818685E+01  0.22505051889E+01  0.10179558683E+02  0.51100000000E-03 0. -1.
        -11    1    4    4    0    0 -0.29370361862E+01  0.97460825853E+01  0.40057574751E+01  0.10938848227E+02  0.51100000000E-03 0.  1.
         12    1    4    4    0    0  0.17556025043E+02  0.13078762731E+02 -0.25024114345E+02  0.33248674389E+02  0.00000000000E+00 0. -1.
</event>
<event>
 8    1  0.1229038E-006  0.9118800E+02  0.7816164E-02  0.1184000E+00
        -11   -1    0    0    0    0  0.00000000000E+00  0.00000000000E+00  0.45593999997E+02  0.45594000000E+02  0.51100000000E-03 0.  1.
         11   -1    0    0    0    0 -0.00000000000E+00 -0.00000000000E+00 -0.45593999997E+02  0.45594000000E+02  0.51100000000E-03 0. -1.
         23    2    1    2    0    0  0.35527136788E-14  0.00000000000E+00 -0.35527136788E-14  0.91188000000E+02  0.91188000000E+02 0.  0.
    9900012    2    3    3    0    0  0.18910397776E+02  0.23589807755E+02 -0.21016603324E+02  0.54367084894E+02  0.40000001633E+02 0.  0.
        -12    1    3    3    0    0 -0.18910397776E+02 -0.23589807755E+02  0.21016603324E+02  0.36820915106E+02  0.00000000000E+00 0.  1.
         11    1    4    4    0    0  0.19096908789E+02  0.28355468758E+01  0.10850617142E+00  0.19306579842E+02  0.51100000000E-03 0. -1.
        -11    1    4    4    0    0 -0.87604823092E+01  0.13600192587E+02 -0.87505978596E+01  0.18392505318E+02  0.51100000000E-03 0.  1.
        -12    1    4    4    0    0  0.85739712962E+01  0.71540682919E+01 -0.12374511636E+02  0.16667999734E+02  0.00000000000E+00 0.  1.
</event>
<event>
 8    1  0.1229038E-006  0.9118800E+02  0.7816164E-02  0.1184000E+00
        -11   -1    0    0    0    0  0.00000000000E+00  0.00000000000E+00  0.45593999997E+02  0.45594000000E+02  0.51100000000E-03 0.  1.
         11   -1    0    0    0    0 -0.00000000000E+00 -0.00000000000E+00 -0.45593999997E+02  0.45594000000E+02  0.51100000000E-03 0. -1.
         23    2    1    2    0    0 -0.17763568394E-14  0.35527136788E-14  0.00000000000E+00  0.91188000000E+02  0.91188000000E+02 0.  0.
    9900012    2    3    3    0    0 -0.11052214332E+02  0.24144145875E+02  0.25508660379E+02  0.54367041620E+02  0.39999902982E+02 0.  0.
         12    1    3    3    0    0  0.11052214332E+02 -0.24144145875E+02 -0.25508660379E+02  0.36820958380E+02  0.00000000000E+00 0. -1.
         11    1    4    4    0    0  0.16507903568E+01  0.20092343304E+02  0.13170350816E+02  0.24080812053E+02  0.51100000000E-03 0. -1.
        -11    1    4    4    0    0 -0.14834360510E+02  0.74147568044E+01 -0.75453793415E+00  0.16601391447E+02  0.51100000000E-03 0.  1.
         12    1    4    4    0    0  0.21313558214E+01 -0.33629542330E+01  0.13092847497E+02  0.13684838121E+02  0.00000000000E+00 0. -1.
</event>
<event>
 8    1  0.1229038E-006  0.9118800E+02  0.7816164E-02  0.1184000E+00
        -11   -1    0    0    0    0  0.00000000000E+00  0.00000000000E+00  0.45593999997E+02  0.45594000000E+02  0.51100000000E-03 0.  1.
         11   -1    0    0    0    0 -0.00000000000E+00 -0.00000000000E+00 -0.45593999997E+02  0.45594000000E+02  0.51100000000E-03 0. -1.
         23    2    1    2    0    0 -0.35527136788E-14 -0.44408920985E-15  0.00000000000E+00  0.91188000000E+02  0.91188000000E+02 0.  0.
    9900012    2    3    3    0    0  0.29833919277E+02 -0.26735128797E+01  0.21414183817E+02  0.54367113548E+02  0.40000066956E+02 0.  0.
         12    1    3    3    0    0 -0.29833919277E+02  0.26735128797E+01 -0.21414183817E+02  0.36820886452E+02  0.00000000000E+00 0. -1.
         11    1    4    4    0    0  0.75168129770E+01  0.32662176694E+01  0.26757977160E+02  0.27984995929E+02  0.51100000000E-03 0. -1.
        -11    1    4    4    0    0  0.15922622955E+02 -0.63314726864E+01  0.12598485841E+01  0.17181521669E+02  0.51100000000E-03 0.  1.
         12    1    4    4    0    0  0.63944833447E+01  0.39174213732E+00 -0.66036419264E+01  0.92005959503E+01  0.00000000000E+00 0. -1.
</event>
<event>
 8    1  0.1229038E-006  0.9118800E+02  0.7816164E-02  0.1184000E+00
        -11   -1    0    0    0    0  0.00000000000E+00  0.00000000000E+00  0.45593999997E+02  0.45594000000E+02  0.51100000000E-03 0. -1.
         11   -1    0    0    0    0 -0.00000000000E+00 -0.00000000000E+00 -0.45593999997E+02  0.45594000000E+02  0.51100000000E-03 0.  1.
         23    2    1    2    0    0 -0.26645352591E-14 -0.35527136788E-14  0.00000000000E+00  0.91188000000E+02  0.91188000000E+02 0.  0.
    9900012    2    3    3    0    0 -0.60877847879E+01  0.16046163812E+02  0.32576610820E+02  0.54367135409E+02  0.40000116792E+02 0.  0.
        -12    1    3    3    0    0  0.60877847879E+01 -0.16046163812E+02 -0.32576610820E+02  0.36820864591E+02  0.00000000000E+00 0.  1.
         11    1    4    4    0    0 -0.21260497598E+02  0.84932903278E+01  0.28646852123E+02  0.36671335884E+02  0.51100000000E-03 0. -1.
        -11    1    4    4    0    0  0.62781555302E+01  0.33696872985E+01  0.32833766817E+01  0.78454185386E+01  0.51100000000E-03 0.  1.
         12    1    4    4    0    0  0.88945572799E+01  0.41831861859E+01  0.64638201559E+00  0.98503809866E+01  0.00000000000E+00 0. -1.
</event>
<event>
 8    1  0.1229038E-006  0.9118800E+02  0.7816164E-02  0.1184000E+00
        -11   -1    0    0    0    0  0.00000000000E+00  0.00000000000E+00  0.45593999997E+02  0.45594000000E+02  0.51100000000E-03 0. -1.
         11   -1    0    0    0    0 -0.00000000000E+00 -0.00000000000E+00 -0.45593999997E+02  0.45594000000E+02  0.51100000000E-03 0.  1.
         23    2    1    2    0    0  0.71054273576E-14 -0.88817841970E-15  0.17763568394E-14  0.91188000000E+02  0.91188000000E+02 0.  0.
    9900012    2    3    3    0    0 -0.33368139179E+02  0.14286294188E+01 -0.15501804350E+02  0.54367087024E+02  0.40000006488E+02 0.  0.
         12    1    3    3    0    0  0.33368139179E+02 -0.14286294188E+01  0.15501804350E+02  0.36820912976E+02  0.00000000000E+00 0. -1.
         11    1    4    4    0    0 -0.10195528266E+02  0.90089402063E+01  0.61696645282E+01  0.14939028111E+02  0.51100000000E-03 0. -1.
        -11    1    4    4    0    0 -0.19653852711E+02 -0.13422452573E+02 -0.98032373726E+01  0.25739845041E+02  0.51100000000E-03 0.  1.
        -12    1    4    4    0    0 -0.35187582019E+01  0.58421417859E+01 -0.11868231505E+02  0.13688213872E+02  0.00000000000E+00 0.  1.
</event>
<event>
 8    1  0.1229038E-006  0.9118800E+02  0.7816164E-02  0.1184000E+00
        -11   -1    0    0    0    0  0.00000000000E+00  0.00000000000E+00  0.45593999997E+02  0.45594000000E+02  0.51100000000E-03 0. -1.
         11   -1    0    0    0    0 -0.00000000000E+00 -0.00000000000E+00 -0.45593999997E+02  0.45594000000E+02  0.51100000000E-03 0.  1.
         23    2    1    2    0    0 -0.35527136788E-14  0.00000000000E+00 -0.35527136788E-14  0.91188000000E+02  0.91188000000E+02 0.  0.
    9900012    2    3    3    0    0 -0.20724761592E+02 -0.24236604270E+02 -0.18407907696E+02  0.54367084811E+02  0.40000001444E+02 0.  0.
         12    1    3    3    0    0  0.20724761592E+02  0.24236604270E+02  0.18407907696E+02  0.36820915189E+02  0.00000000000E+00 0. -1.
         11    1    4    4    0    0  0.45405968995E+01 -0.11947517145E+02  0.72308179536E+01  0.14684853240E+02  0.51100000000E-03 0. -1.
        -11    1    4    4    0    0 -0.86376037468E+01 -0.92267442327E+00 -0.25720099326E+01  0.90595122348E+01  0.51100000000E-03 0.  1.
         12    1    4    4    0    0 -0.16627754745E+02 -0.11366412702E+02 -0.23066715717E+02  0.30622719336E+02  0.00000000000E+00 0. -1.
</event>
<event>
 8    1  0.1229038E-006  0.9118800E+02  0.7816164E-02  0.1184000E+00
        -11   -1    0    0    0    0  0.00000000000E+00  0.00000000000E+00  0.45593999997E+02  0.45594000000E+02  0.51100000000E-03 0. -1.
         11   -1    0    0    0    0 -0.00000000000E+00 -0.00000000000E+00 -0.45593999997E+02  0.45594000000E+02  0.51100000000E-03 0.  1.
         23    2    1    2    0    0  0.00000000000E+00  0.35527136788E-14  0.00000000000E+00  0.91188000000E+02  0.91188000000E+02 0.  0.
    9900012    2    3    3    0    0  0.27648392872E+02  0.23541429917E+02  0.60948668511E+01  0.54367082672E+02  0.39999996568E+02 0.  0.
         12    1    3    3    0    0 -0.27648392872E+02 -0.23541429917E+02 -0.60948668511E+01  0.36820917328E+02  0.00000000000E+00 0. -1.
         11    1    4    4    0    0 -0.56410578924E+01  0.20420694034E+01  0.11289199134E+02  0.12784271545E+02  0.51100000000E-03 0. -1.
        -11    1    4    4    0    0  0.30499037365E+02  0.16480251185E+02 -0.13906668302E+01  0.34694724582E+02  0.51100000000E-03 0.  1.
        -12    1    4    4    0    0  0.27904133993E+01  0.50191093284E+01 -0.38036654523E+01  0.68880865458E+01  0.00000000000E+00 0.  1.
</event>
<event>
 8    1  0.1229038E-006  0.9118800E+02  0.7816164E-02  0.1184000E+00
        -11   -1    0    0    0    0  0.00000000000E+00  0.00000000000E+00  0.45593999997E+02  0.45594000000E+02  0.51100000000E-03 0.  1.
         11   -1    0    0    0    0 -0.00000000000E+00 -0.00000000000E+00 -0.45593999997E+02  0.45594000000E+02  0.51100000000E-03 0. -1.
         23    2    1    2    0    0  0.00000000000E+00 -0.44408920985E-15  0.00000000000E+00  0.91188000000E+02  0.91188000000E+02 0.  0.
    9900012    2    3    3    0    0 -0.12829030819E+02 -0.20133879322E+01  0.34454926350E+02  0.54367085936E+02  0.40000004009E+02 0.  0.
         12    1    3    3    0    0  0.12829030819E+02  0.20133879322E+01 -0.34454926350E+02  0.36820914064E+02  0.00000000000E+00 0. -1.
         11    1    4    4    0    0 -0.17055779007E+02  0.99801504543E+01  0.14346182236E+02  0.24419581193E+02  0.51100000000E-03 0. -1.
        -11    1    4    4    0    0 -0.35566703156E+01  0.13545224449E+01  0.11810567635E+02  0.12408631790E+02  0.51100000000E-03 0.  1.
        -12    1    4    4    0    0  0.77834185041E+01 -0.13348060831E+02  0.82981764788E+01  0.17538872952E+02  0.00000000000E+00 0.  1.
</event>
<event>
 8    1  0.1229038E-006  0.9118800E+02  0.7816164E-02  0.1184000E+00
        -11   -1    0    0    0    0  0.00000000000E+00  0.00000000000E+00  0.45593999997E+02  0.45594000000E+02  0.51100000000E-03 0. -1.
         11   -1    0    0    0    0 -0.00000000000E+00 -0.00000000000E+00 -0.45593999997E+02  0.45594000000E+02  0.51100000000E-03 0.  1.
         23    2    1    2    0    0  0.00000000000E+00  0.17763568394E-14  0.00000000000E+00  0.91188000000E+02  0.91188000000E+02 0.  0.
    9900012    2    3    3    0    0  0.85146128296E+01 -0.12990003703E+02  0.33384758679E+02  0.54367069269E+02  0.39999966012E+02 0.  0.
        -12    1    3    3    0    0 -0.85146128296E+01  0.12990003703E+02 -0.33384758679E+02  0.36820930731E+02  0.00000000000E+00 0.  1.
         11    1    4    4    0    0 -0.48665213307E+01 -0.12455935069E+02  0.18325455602E+02  0.22686023705E+02  0.51100000000E-03 0. -1.
        -11    1    4    4    0    0  0.57768624455E+01  0.81917671593E+01  0.17202579654E+02  0.19909945653E+02  0.51100000000E-03 0.  1.
        -12    1    4    4    0    0  0.76042717148E+01 -0.87258357939E+01 -0.21432765760E+01  0.11771099910E+02  0.00000000000E+00 0.  1.
</event>
<event>
 8    1  0.1229038E-006  0.9118800E+02  0.7816164E-02  0.1184000E+00
        -11   -1    0    0    0    0  0.00000000000E+00  0.00000000000E+00  0.45593999997E+02  0.45594000000E+02  0.51100000000E-03 0.  1.
         11   -1    0    0    0    0 -0.00000000000E+00 -0.00000000000E+00 -0.45593999997E+02  0.45594000000E+02  0.51100000000E-03 0. -1.
         23    2    1    2    0    0  0.00000000000E+00 -0.71054273576E-14  0.35527136788E-14  0.91188000000E+02  0.91188000000E+02 0.  0.
    9900012    2    3    3    0    0  0.16579860407E+02 -0.16080194360E+02  0.28676040302E+02  0.54367085982E+02  0.40000004112E+02 0.  0.
         12    1    3    3    0    0 -0.16579860407E+02  0.16080194360E+02 -0.28676040302E+02  0.36820914018E+02  0.00000000000E+00 0. -1.
         11    1    4    4    0    0  0.10968045727E+01 -0.11649987779E+01  0.14385889105E+00  0.16065173715E+01  0.51100000000E-03 0. -1.
        -11    1    4    4    0    0 -0.75786275568E+01 -0.19420792378E+02  0.12365168645E+02  0.24238402755E+02  0.51100000000E-03 0.  1.
         12    1    4    4    0    0  0.23061683391E+02  0.45055967957E+01  0.16167012766E+02  0.28522165856E+02  0.00000000000E+00 0. -1.
</event>
<event>
 8    1  0.1229038E-006  0.9118800E+02  0.7816164E-02  0.1184000E+00
        -11   -1    0    0    0    0  0.00000000000E+00  0.00000000000E+00  0.45593999997E+02  0.45594000000E+02  0.51100000000E-03 0. -1.
         11   -1    0    0    0    0 -0.00000000000E+00 -0.00000000000E+00 -0.45593999997E+02  0.45594000000E+02  0.51100000000E-03 0.  1.
         23    2    1    2    0    0 -0.17763568394E-14  0.00000000000E+00 -0.35527136788E-14  0.91188000000E+02  0.91188000000E+02 0.  0.
    9900012    2    3    3    0    0 -0.64344207575E+01 -0.17578075672E+02 -0.31707874886E+02  0.54367084142E+02  0.39999999919E+02 0.  0.
         12    1    3    3    0    0  0.64344207575E+01  0.17578075672E+02  0.31707874886E+02  0.36820915858E+02  0.00000000000E+00 0. -1.
         11    1    4    4    0    0 -0.79364000712E+01  0.17496056479E+01  0.99631881378E+00  0.81878090753E+01  0.51100000000E-03 0. -1.
        -11    1    4    4    0    0 -0.22535241101E+01 -0.23016133563E+02 -0.14656121617E+02  0.27379238050E+02  0.51100000000E-03 0.  1.
        -12    1    4    4    0    0  0.37555034238E+01  0.36884522431E+01 -0.18048072083E+02  0.18800037017E+02  0.00000000000E+00 0.  1.
</event>
<event>
 8    1  0.1229038E-006  0.9118800E+02  0.7816164E-02  0.1184000E+00
        -11   -1    0    0    0    0  0.00000000000E+00  0.00000000000E+00  0.45593999997E+02  0.45594000000E+02  0.51100000000E-03 0.  1.
         11   -1    0    0    0    0 -0.00000000000E+00 -0.00000000000E+00 -0.45593999997E+02  0.45594000000E+02  0.51100000000E-03 0. -1.
         23    2    1    2    0    0  0.35527136788E-14  0.00000000000E+00 -0.35527136788E-14  0.91188000000E+02  0.91188000000E+02 0.  0.
    9900012    2    3    3    0    0  0.19036282055E+02 -0.25189895015E+02 -0.18943946911E+02  0.54367028123E+02  0.39999872213E+02 0.  0.
        -12    1    3    3    0    0 -0.19036282055E+02  0.25189895015E+02  0.18943946911E+02  0.36820971877E+02  0.00000000000E+00 0.  1.
         11    1    4    4    0    0 -0.49799302121E+01 -0.10290374984E+02  0.34053293915E+01  0.11928444607E+02  0.51100000000E-03 0. -1.
        -11    1    4    4    0    0 -0.12714311518E+01  0.22114263931E+01 -0.85681289517E+01  0.89397862313E+01  0.51100000000E-03 0.  1.
         12    1    4    4    0    0  0.25287643419E+02 -0.17110946425E+02 -0.13781147351E+02  0.33498797285E+02  0.00000000000E+00 0. -1.
</event>
<event>
 8    1  0.1229038E-006  0.9118800E+02  0.7816164E-02  0.1184000E+00
        -11   -1    0    0    0    0  0.00000000000E+00  0.00000000000E+00  0.45593999997E+02  0.45594000000E+02  0.51100000000E-03 0.  1.
         11   -1    0    0    0    0 -0.00000000000E+00 -0.00000000000E+00 -0.45593999997E+02  0.45594000000E+02  0.51100000000E-03 0. -1.
         23    2    1    2    0    0 -0.35527136788E-14  0.35527136788E-14  0.17763568394E-14  0.91188000000E+02  0.91188000000E+02 0.  0.
    9900012    2    3    3    0    0 -0.22131267548E+02  0.24826610724E+02 -0.15799559360E+02  0.54367086387E+02  0.40000005036E+02 0.  0.
        -12    1    3    3    0    0  0.22131267548E+02 -0.24826610724E+02  0.15799559360E+02  0.36820913613E+02  0.00000000000E+00 0.  1.
         11    1    4    4    0    0 -0.65567578976E+01 -0.40283568237E+01 -0.45065847584E+01  0.89178494758E+01  0.51100000000E-03 0. -1.
        -11    1    4    4    0    0  0.47452906589E+01 -0.31490710090E+01  0.57773309900E+00  0.57243521426E+01  0.51100000000E-03 0.  1.
         12    1    4    4    0    0 -0.20319800309E+02  0.32004038557E+02 -0.11870707700E+02  0.39724884769E+02  0.00000000000E+00 0. -1.
</event>
<event>
 8    1  0.1229038E-006  0.9118800E+02  0.7816164E-02  0.1184000E+00
        -11   -1    0    0    0    0  0.00000000000E+00  0.00000000000E+00  0.45593999997E+02  0.45594000000E+02  0.51100000000E-03 0. -1.
         11   -1    0    0    0    0 -0.00000000000E+00 -0.00000000000E+00 -0.45593999997E+02  0.45594000000E+02  0.51100000000E-03 0.  1.
         23    2    1    2    0    0  0.00000000000E+00  0.00000000000E+00  0.00000000000E+00  0.91188000000E+02  0.91188000000E+02 0.  0.
    9900012    2    3    3    0    0 -0.92796081801E+01 -0.29468893297E+02 -0.20031306384E+02  0.54367081549E+02  0.39999994007E+02 0.  0.
         12    1    3    3    0    0  0.92796081801E+01  0.29468893297E+02  0.20031306384E+02  0.36820918451E+02  0.00000000000E+00 0. -1.
         11    1    4    4    0    0  0.26242625740E+01  0.82718795109E+01 -0.62397787660E+01  0.10688572590E+02  0.51100000000E-03 0. -1.
        -11    1    4    4    0    0  0.23435200246E+01 -0.84104497498E+01 -0.42062845094E+01  0.96912631134E+01  0.51100000000E-03 0.  1.
         12    1    4    4    0    0 -0.14247390779E+02 -0.29330323058E+02 -0.95852431088E+01  0.33987245845E+02  0.00000000000E+00 0. -1.
</event>
<event>
 8    1  0.1229038E-006  0.9118800E+02  0.7816164E-02  0.1184000E+00
        -11   -1    0    0    0    0  0.00000000000E+00  0.00000000000E+00  0.45593999997E+02  0.45594000000E+02  0.51100000000E-03 0.  1.
         11   -1    0    0    0    0 -0.00000000000E+00 -0.00000000000E+00 -0.45593999997E+02  0.45594000000E+02  0.51100000000E-03 0. -1.
         23    2    1    2    0    0  0.35527136788E-14  0.23314683517E-14  0.35527136788E-14  0.91188000000E+02  0.91188000000E+02 0.  0.
    9900012    2    3    3    0    0 -0.24924512945E+02  0.73742002522E+00 -0.27092503221E+02  0.54367097450E+02  0.40000030256E+02 0.  0.
        -12    1    3    3    0    0  0.24924512945E+02 -0.73742002522E+00  0.27092503221E+02  0.36820902550E+02  0.00000000000E+00 0.  1.
         11    1    4    4    0    0 -0.25409523096E+02  0.47996352273E+00 -0.10145024653E+02  0.27364132627E+02  0.51100000000E-03 0.  1.
        -11    1    4    4    0    0 -0.24117882580E+01  0.90765885267E+01 -0.14713353240E+02  0.17455198243E+02  0.51100000000E-03 0. -1.
        -12    1    4    4    0    0  0.28967984089E+01 -0.88191320243E+01 -0.22341253276E+01  0.95477665798E+01  0.00000000000E+00 0.  1.
</event>
<event>
 8    1  0.1229038E-006  0.9118800E+02  0.7816164E-02  0.1184000E+00
        -11   -1    0    0    0    0  0.00000000000E+00  0.00000000000E+00  0.45593999997E+02  0.45594000000E+02  0.51100000000E-03 0.  1.
         11   -1    0    0    0    0 -0.00000000000E+00 -0.00000000000E+00 -0.45593999997E+02  0.45594000000E+02  0.51100000000E-03 0. -1.
         23    2    1    2    0    0  0.44408920985E-15 -0.17763568394E-14  0.00000000000E+00  0.91188000000E+02  0.91188000000E+02 0.  0.
    9900012    2    3    3    0    0  0.38062745504E+01 -0.15356739141E+02  0.33248499258E+02  0.54367083853E+02  0.39999999259E+02 0.  0.
         12    1    3    3    0    0 -0.38062745504E+01  0.15356739141E+02 -0.33248499258E+02  0.36820916147E+02  0.00000000000E+00 0. -1.
         11    1    4    4    0    0 -0.14853257297E+01  0.30236373368E+01 -0.20338498550E+01  0.39351138181E+01  0.51100000000E-03 0. -1.
        -11    1    4    4    0    0  0.23051989405E+00 -0.16910835672E+02  0.23432838226E+01  0.17073970888E+02  0.51100000000E-03 0.  1.
        -12    1    4    4    0    0  0.50610803860E+01 -0.14695408062E+01  0.32939065291E+02  0.33357999147E+02  0.00000000000E+00 0.  1.
</event>
<event>
 8    1  0.1229038E-006  0.9118800E+02  0.7816164E-02  0.1184000E+00
        -11   -1    0    0    0    0  0.00000000000E+00  0.00000000000E+00  0.45593999997E+02  0.45594000000E+02  0.51100000000E-03 0.  1.
         11   -1    0    0    0    0 -0.00000000000E+00 -0.00000000000E+00 -0.45593999997E+02  0.45594000000E+02  0.51100000000E-03 0. -1.
         23    2    1    2    0    0 -0.35527136788E-14  0.00000000000E+00  0.00000000000E+00  0.91188000000E+02  0.91188000000E+02 0.  0.
    9900012    2    3    3    0    0  0.20404995530E+02  0.17119716215E+02 -0.25423043479E+02  0.54367086573E+02  0.40000005461E+02 0.  0.
        -12    1    3    3    0    0 -0.20404995530E+02 -0.17119716215E+02  0.25423043479E+02  0.36820913427E+02  0.00000000000E+00 0.  1.
         11    1    4    4    0    0  0.71144635049E+01  0.15949163493E+02 -0.17980475206E+02  0.25065691612E+02  0.51100000000E-03 0. -1.
        -11    1    4    4    0    0 -0.47701198878E+01  0.36142207062E+01  0.45209508732E+01  0.75003754650E+01  0.51100000000E-03 0.  1.
        -12    1    4    4    0    0  0.18060651913E+02 -0.24436679837E+01 -0.11963519146E+02  0.21801019496E+02  0.00000000000E+00 0.  1.
</event>
<event>
 8    1  0.1229038E-006  0.9118800E+02  0.7816164E-02  0.1184000E+00
        -11   -1    0    0    0    0  0.00000000000E+00  0.00000000000E+00  0.45593999997E+02  0.45594000000E+02  0.51100000000E-03 0. -1.
         11   -1    0    0    0    0 -0.00000000000E+00 -0.00000000000E+00 -0.45593999997E+02  0.45594000000E+02  0.51100000000E-03 0.  1.
         23    2    1    2    0    0 -0.71054273576E-14  0.00000000000E+00  0.17763568394E-14  0.91188000000E+02  0.91188000000E+02 0.  0.
    9900012    2    3    3    0    0 -0.27843241512E+02  0.18594267825E+02  0.15322728499E+02  0.54367096935E+02  0.40000029084E+02 0.  0.
        -12    1    3    3    0    0  0.27843241512E+02 -0.18594267825E+02 -0.15322728499E+02  0.36820903065E+02  0.00000000000E+00 0.  1.
         11    1    4    4    0    0 -0.25534873337E+02  0.14030360817E+02  0.99893896175E+01  0.30800465682E+02  0.51100000000E-03 0. -1.
        -11    1    4    4    0    0  0.41288814833E+01  0.55193741123E+01  0.12258519231E+02  0.14063514742E+02  0.51100000000E-03 0.  1.
        -12    1    4    4    0    0 -0.64372496579E+01 -0.95546710470E+00 -0.69251803501E+01  0.95031165114E+01  0.00000000000E+00 0.  1.
</event>
<event>
 8    1  0.1229038E-006  0.9118800E+02  0.7816164E-02  0.1184000E+00
        -11   -1    0    0    0    0  0.00000000000E+00  0.00000000000E+00  0.45593999997E+02  0.45594000000E+02  0.51100000000E-03 0.  1.
         11   -1    0    0    0    0 -0.00000000000E+00 -0.00000000000E+00 -0.45593999997E+02  0.45594000000E+02  0.51100000000E-03 0. -1.
         23    2    1    2    0    0 -0.17763568394E-14  0.00000000000E+00  0.00000000000E+00  0.91188000000E+02  0.91188000000E+02 0.  0.
    9900012    2    3    3    0    0  0.88453969298E+01  0.11362323093E+02  0.33888585643E+02  0.54367086516E+02  0.40000005331E+02 0.  0.
         12    1    3    3    0    0 -0.88453969298E+01 -0.11362323093E+02 -0.33888585643E+02  0.36820913484E+02  0.00000000000E+00 0. -1.
         11    1    4    4    0    0 -0.37230114411E+01 -0.47870062383E+01  0.21888935714E+02  0.22713470670E+02  0.51100000000E-03 0. -1.
        -11    1    4    4    0    0 -0.18401648923E+00 -0.47772876613E+01  0.17654722987E+01  0.50963940355E+01  0.51100000000E-03 0.  1.
        -12    1    4    4    0    0  0.12752424860E+02  0.20926616992E+02  0.10234177630E+02  0.26557221811E+02  0.00000000000E+00 0.  1.
</event>
<event>
 8    1  0.1229038E-006  0.9118800E+02  0.7816164E-02  0.1184000E+00
        -11   -1    0    0    0    0  0.00000000000E+00  0.00000000000E+00  0.45593999997E+02  0.45594000000E+02  0.51100000000E-03 0. -1.
         11   -1    0    0    0    0 -0.00000000000E+00 -0.00000000000E+00 -0.45593999997E+02  0.45594000000E+02  0.51100000000E-03 0.  1.
         23    2    1    2    0    0  0.00000000000E+00 -0.35527136788E-14  0.00000000000E+00  0.91188000000E+02  0.91188000000E+02 0.  0.
    9900012    2    3    3    0    0  0.10797670018E+02  0.31290441118E+02  0.16127569343E+02  0.54367083715E+02  0.39999998945E+02 0.  0.
        -12    1    3    3    0    0 -0.10797670018E+02 -0.31290441118E+02 -0.16127569343E+02  0.36820916285E+02  0.00000000000E+00 0.  1.
         11    1    4    4    0    0 -0.15055099002E+01  0.21033608847E+02  0.10012240166E+02  0.23343611859E+02  0.51100000000E-03 0. -1.
        -11    1    4    4    0    0  0.11813120225E+02  0.17281174371E+02 -0.10737109471E+01  0.20960478348E+02  0.51100000000E-03 0.  1.
         12    1    4    4    0    0  0.49005969227E+00 -0.70243421005E+01  0.71890401243E+01  0.10062993509E+02  0.00000000000E+00 0. -1.
</event>
<event>
 8    1  0.1229038E-006  0.9118800E+02  0.7816164E-02  0.1184000E+00
        -11   -1    0    0    0    0  0.00000000000E+00  0.00000000000E+00  0.45593999997E+02  0.45594000000E+02  0.51100000000E-03 0.  1.
         11   -1    0    0    0    0 -0.00000000000E+00 -0.00000000000E+00 -0.45593999997E+02  0.45594000000E+02  0.51100000000E-03 0. -1.
         23    2    1    2    0    0  0.00000000000E+00  0.00000000000E+00  0.55511151231E-15  0.91188000000E+02  0.91188000000E+02 0.  0.
    9900012    2    3    3    0    0  0.92263533398E+01  0.35644079735E+02  0.39169523405E+00  0.54367089619E+02  0.40000012405E+02 0.  0.
        -12    1    3    3    0    0 -0.92263533398E+01 -0.35644079735E+02 -0.39169523405E+00  0.36820910381E+02  0.00000000000E+00 0.  1.
         11    1    4    4    0    0  0.39030362201E+01  0.30148322420E+02 -0.17336767624E+01  0.30449313159E+02  0.51100000000E-03 0. -1.
        -11    1    4    4    0    0  0.79842782408E+01  0.81054195083E+01  0.10037170532E+02  0.15172057111E+02  0.51100000000E-03 0.  1.
        -12    1    4    4    0    0 -0.26609611211E+01 -0.26096621934E+01 -0.79117985358E+01  0.87457193485E+01  0.00000000000E+00 0.  1.
</event>
<event>
 8    1  0.1229038E-006  0.9118800E+02  0.7816164E-02  0.1184000E+00
        -11   -1    0    0    0    0  0.00000000000E+00  0.00000000000E+00  0.45593999997E+02  0.45594000000E+02  0.51100000000E-03 0.  1.
         11   -1    0    0    0    0 -0.00000000000E+00 -0.00000000000E+00 -0.45593999997E+02  0.45594000000E+02  0.51100000000E-03 0. -1.
         23    2    1    2    0    0 -0.35527136788E-14  0.00000000000E+00  0.00000000000E+00  0.91188000000E+02  0.91188000000E+02 0.  0.
    9900012    2    3    3    0    0  0.29299587465E+02  0.43183927702E+01 -0.21878387654E+02  0.54367106637E+02  0.40000051200E+02 0.  0.
        -12    1    3    3    0    0 -0.29299587465E+02 -0.43183927702E+01  0.21878387654E+02  0.36820893363E+02  0.00000000000E+00 0.  1.
         11    1    4    4    0    0 -0.51079689221E+01 -0.95054754031E+00 -0.71315666170E+01  0.88234987284E+01  0.51100000000E-03 0. -1.
        -11    1    4    4    0    0  0.13656266499E+02  0.17163161053E+01 -0.19588815518E+02  0.23940782137E+02  0.51100000000E-03 0.  1.
         12    1    4    4    0    0  0.20751289888E+02  0.35526242052E+01  0.48419944809E+01  0.21602825772E+02  0.00000000000E+00 0. -1.
</event>
<event>
 8    1  0.1229038E-006  0.9118800E+02  0.7816164E-02  0.1184000E+00
        -11   -1    0    0    0    0  0.00000000000E+00  0.00000000000E+00  0.45593999997E+02  0.45594000000E+02  0.51100000000E-03 0.  1.
         11   -1    0    0    0    0 -0.00000000000E+00 -0.00000000000E+00 -0.45593999997E+02  0.45594000000E+02  0.51100000000E-03 0. -1.
         23    2    1    2    0    0  0.00000000000E+00 -0.88817841970E-15  0.00000000000E+00  0.91188000000E+02  0.91188000000E+02 0.  0.
    9900012    2    3    3    0    0 -0.91017319946E+01  0.39523340000E+01 -0.35458656172E+02  0.54367098777E+02  0.40000033281E+02 0.  0.
        -12    1    3    3    0    0  0.91017319946E+01 -0.39523340000E+01  0.35458656172E+02  0.36820901223E+02  0.00000000000E+00 0.  1.
         11    1    4    4    0    0  0.40589908953E+01  0.86570522827E+01 -0.25768795682E+02  0.27485465113E+02  0.51100000000E-03 0. -1.
        -11    1    4    4    0    0  0.37364391663E+01 -0.10324312252E+01  0.34300107842E+01  0.51760859845E+01  0.51100000000E-03 0.  1.
         12    1    4    4    0    0 -0.16897162056E+02 -0.36722870575E+01 -0.13119871275E+02  0.21705547679E+02  0.00000000000E+00 0. -1.
</event>
<event>
 8    1  0.1229038E-006  0.9118800E+02  0.7816164E-02  0.1184000E+00
        -11   -1    0    0    0    0  0.00000000000E+00  0.00000000000E+00  0.45593999997E+02  0.45594000000E+02  0.51100000000E-03 0. -1.
         11   -1    0    0    0    0 -0.00000000000E+00 -0.00000000000E+00 -0.45593999997E+02  0.45594000000E+02  0.51100000000E-03 0.  1.
         23    2    1    2    0    0  0.00000000000E+00  0.00000000000E+00  0.00000000000E+00  0.91188000000E+02  0.91188000000E+02 0.  0.
    9900012    2    3    3    0    0 -0.23324292295E+02  0.20684851495E+02 -0.19593209174E+02  0.54367088304E+02  0.40000009407E+02 0.  0.
         12    1    3    3    0    0  0.23324292295E+02 -0.20684851495E+02  0.19593209174E+02  0.36820911696E+02  0.00000000000E+00 0. -1.
         11    1    4    4    0    0 -0.52975267921E+01 -0.42656662778E+01 -0.21640846613E+02  0.22684486799E+02  0.51100000000E-03 0. -1.
        -11    1    4    4    0    0 -0.75777520614E+01  0.86319924447E+01 -0.25534230121E+01  0.11766630325E+02  0.51100000000E-03 0.  1.
         12    1    4    4    0    0 -0.10449013441E+02  0.16318525328E+02  0.46010604519E+01  0.19915971180E+02  0.00000000000E+00 0. -1.
</event>
<event>
 8    1  0.1229038E-006  0.9118800E+02  0.7816164E-02  0.1184000E+00
        -11   -1    0    0    0    0  0.00000000000E+00  0.00000000000E+00  0.45593999997E+02  0.45594000000E+02  0.51100000000E-03 0.  1.
         11   -1    0    0    0    0 -0.00000000000E+00 -0.00000000000E+00 -0.45593999997E+02  0.45594000000E+02  0.51100000000E-03 0. -1.
         23    2    1    2    0    0 -0.22204460493E-15 -0.35527136788E-14 -0.35527136788E-14  0.91188000000E+02  0.91188000000E+02 0.  0.
    9900012    2    3    3    0    0 -0.18064355666E+01  0.21442423966E+02  0.29878729556E+02  0.54367092422E+02  0.40000018795E+02 0.  0.
         12    1    3    3    0    0  0.18064355666E+01 -0.21442423966E+02 -0.29878729556E+02  0.36820907578E+02  0.00000000000E+00 0. -1.
         11    1    4    4    0    0 -0.36470430975E+01  0.26457146227E+02  0.60451891753E+01  0.27382947654E+02  0.51100000000E-03 0. -1.
        -11    1    4    4    0    0  0.24855024049E+01  0.33751438689E+01  0.68577197534E+01  0.80372656307E+01  0.51100000000E-03 0.  1.
        -12    1    4    4    0    0 -0.64489487404E+00 -0.83898661298E+01  0.16975820627E+02  0.18946879137E+02  0.00000000000E+00 0.  1.
</event>
<event>
 8    1  0.1229038E-006  0.9118800E+02  0.7816164E-02  0.1184000E+00
        -11   -1    0    0    0    0  0.00000000000E+00  0.00000000000E+00  0.45593999997E+02  0.45594000000E+02  0.51100000000E-03 0.  1.
         11   -1    0    0    0    0 -0.00000000000E+00 -0.00000000000E+00 -0.45593999997E+02  0.45594000000E+02  0.51100000000E-03 0. -1.
         23    2    1    2    0    0 -0.35527136788E-14  0.00000000000E+00 -0.13322676296E-14  0.91188000000E+02  0.91188000000E+02 0.  0.
    9900012    2    3    3    0    0  0.19161371491E+02 -0.31319319957E+02  0.27789160628E+01  0.54367077490E+02  0.39999984754E+02 0.  0.
         12    1    3    3    0    0 -0.19161371491E+02  0.31319319957E+02 -0.27789160628E+01  0.36820922510E+02  0.00000000000E+00 0. -1.
         11    1    4    4    0    0 -0.31387045705E+01 -0.25363899825E+02  0.10274614046E+02  0.27545354867E+02  0.51100000000E-03 0. -1.
        -11    1    4    4    0    0  0.82688277469E+01 -0.73530222648E+01 -0.48882627891E+00  0.11076073317E+02  0.51100000000E-03 0.  1.
        -12    1    4    4    0    0  0.14031248314E+02  0.13976021322E+01 -0.70068717044E+01  0.15745649306E+02  0.00000000000E+00 0.  1.
</event>
<event>
 8    1  0.1229038E-006  0.9118800E+02  0.7816164E-02  0.1184000E+00
        -11   -1    0    0    0    0  0.00000000000E+00  0.00000000000E+00  0.45593999997E+02  0.45594000000E+02  0.51100000000E-03 0. -1.
         11   -1    0    0    0    0 -0.00000000000E+00 -0.00000000000E+00 -0.45593999997E+02  0.45594000000E+02  0.51100000000E-03 0.  1.
         23    2    1    2    0    0  0.00000000000E+00  0.00000000000E+00 -0.71054273576E-14  0.91188000000E+02  0.91188000000E+02 0.  0.
    9900012    2    3    3    0    0  0.14458694017E+02 -0.51852674947E+01  0.33463988477E+02  0.54367090771E+02  0.40000015032E+02 0.  0.
        -12    1    3    3    0    0 -0.14458694017E+02  0.51852674947E+01 -0.33463988477E+02  0.36820909229E+02  0.00000000000E+00 0.  1.
         11    1    4    4    0    0 -0.78012805399E+01 -0.72982690740E+01  0.26241704847E+01  0.11000499104E+02  0.51100000000E-03 0. -1.
        -11    1    4    4    0    0  0.24754722458E+01 -0.21168509413E+00 -0.31241964108E+01  0.39916634243E+01  0.51100000000E-03 0.  1.
         12    1    4    4    0    0  0.19784502311E+02  0.23246866735E+01  0.33964014403E+02  0.39374928243E+02  0.00000000000E+00 0. -1.
</event>
<event>
 8    1  0.1229038E-006  0.9118800E+02  0.7816164E-02  0.1184000E+00
        -11   -1    0    0    0    0  0.00000000000E+00  0.00000000000E+00  0.45593999997E+02  0.45594000000E+02  0.51100000000E-03 0.  1.
         11   -1    0    0    0    0 -0.00000000000E+00 -0.00000000000E+00 -0.45593999997E+02  0.45594000000E+02  0.51100000000E-03 0. -1.
         23    2    1    2    0    0  0.00000000000E+00  0.00000000000E+00  0.00000000000E+00  0.91188000000E+02  0.91188000000E+02 0.  0.
    9900012    2    3    3    0    0  0.24265708929E+02  0.24515817746E+02 -0.12881392102E+02  0.54367079153E+02  0.39999988544E+02 0.  0.
        -12    1    3    3    0    0 -0.24265708929E+02 -0.24515817746E+02  0.12881392102E+02  0.36820920847E+02  0.00000000000E+00 0.  1.
         11    1    4    4    0    0  0.10971472698E+02 -0.43136443464E+01 -0.14036530035E+02  0.18330436885E+02  0.51100000000E-03 0. -1.
        -11    1    4    4    0    0  0.49680808332E+00 -0.18281984128E+01  0.20654290402E+01  0.28026996075E+01  0.51100000000E-03 0.  1.
         12    1    4    4    0    0  0.12797428148E+02  0.30657660505E+02 -0.91029110694E+00  0.33233942660E+02  0.00000000000E+00 0. -1.
</event>
<event>
 8    1  0.1229038E-006  0.9118800E+02  0.7816164E-02  0.1184000E+00
        -11   -1    0    0    0    0  0.00000000000E+00  0.00000000000E+00  0.45593999997E+02  0.45594000000E+02  0.51100000000E-03 0.  1.
         11   -1    0    0    0    0 -0.00000000000E+00 -0.00000000000E+00 -0.45593999997E+02  0.45594000000E+02  0.51100000000E-03 0. -1.
         23    2    1    2    0    0  0.00000000000E+00  0.00000000000E+00  0.00000000000E+00  0.91188000000E+02  0.91188000000E+02 0.  0.
    9900012    2    3    3    0    0  0.11721292201E+02 -0.33677892980E+02  0.91756029753E+01  0.54367070403E+02  0.39999968598E+02 0.  0.
         12    1    3    3    0    0 -0.11721292201E+02  0.33677892980E+02 -0.91756029753E+01  0.36820929597E+02  0.00000000000E+00 0. -1.
         11    1    4    4    0    0  0.14547586138E+02 -0.12609252598E+02  0.21379555072E+01  0.19369986255E+02  0.51100000000E-03 0. -1.
        -11    1    4    4    0    0  0.10015872625E+02 -0.11761348730E+02 -0.36479083226E+01  0.15873067246E+02  0.51100000000E-03 0.  1.
         12    1    4    4    0    0 -0.12842166563E+02 -0.93072916518E+01  0.10685555791E+02  0.19124016902E+02  0.00000000000E+00 0. -1.
</event>
<event>
 8    1  0.1229038E-006  0.9118800E+02  0.7816164E-02  0.1184000E+00
        -11   -1    0    0    0    0  0.00000000000E+00  0.00000000000E+00  0.45593999997E+02  0.45594000000E+02  0.51100000000E-03 0.  1.
         11   -1    0    0    0    0 -0.00000000000E+00 -0.00000000000E+00 -0.45593999997E+02  0.45594000000E+02  0.51100000000E-03 0. -1.
         23    2    1    2    0    0  0.88817841970E-15  0.22204460493E-15  0.00000000000E+00  0.91188000000E+02  0.91188000000E+02 0.  0.
    9900012    2    3    3    0    0 -0.52209007487E+01 -0.19144796363E+01 -0.36398580490E+02  0.54367086125E+02  0.40000004439E+02 0.  0.
        -12    1    3    3    0    0  0.52209007487E+01  0.19144796363E+01  0.36398580490E+02  0.36820913875E+02  0.00000000000E+00 0.  1.
         11    1    4    4    0    0  0.55620694741E+01 -0.47054723341E+01 -0.50778744216E+01  0.88804783444E+01  0.51100000000E-03 0. -1.
        -11    1    4    4    0    0 -0.44006799513E+01 -0.27719725394E+01 -0.35615444419E+02  0.35993189595E+02  0.51100000000E-03 0.  1.
        -12    1    4    4    0    0 -0.63822902716E+01  0.55629652372E+01  0.42947383505E+01  0.94934181852E+01  0.00000000000E+00 0.  1.
</event>
<event>
 8    1  0.1229038E-006  0.9118800E+02  0.7816164E-02  0.1184000E+00
        -11   -1    0    0    0    0  0.00000000000E+00  0.00000000000E+00  0.45593999997E+02  0.45594000000E+02  0.51100000000E-03 0.  1.
         11   -1    0    0    0    0 -0.00000000000E+00 -0.00000000000E+00 -0.45593999997E+02  0.45594000000E+02  0.51100000000E-03 0. -1.
         23    2    1    2    0    0  0.00000000000E+00 -0.22204460493E-14  0.00000000000E+00  0.91188000000E+02  0.91188000000E+02 0.  0.
    9900012    2    3    3    0    0 -0.23041290250E+02  0.14908069326E+01 -0.28681984449E+02  0.54367084834E+02  0.40000001497E+02 0.  0.
        -12    1    3    3    0    0  0.23041290250E+02 -0.14908069326E+01  0.28681984449E+02  0.36820915166E+02  0.00000000000E+00 0.  1.
         11    1    4    4    0    0 -0.92076238087E+01 -0.28355053746E+01 -0.12434521345E+02  0.15730154108E+02  0.51100000000E-03 0. -1.
        -11    1    4    4    0    0 -0.11317982048E+02  0.17859912269E+02 -0.81096346410E+01  0.22645956773E+02  0.51100000000E-03 0.  1.
        -12    1    4    4    0    0 -0.25156843935E+01 -0.13533599961E+02 -0.81378284632E+01  0.15990973953E+02  0.00000000000E+00 0.  1.
</event>
<event>
 8    1  0.1229038E-006  0.9118800E+02  0.7816164E-02  0.1184000E+00
        -11   -1    0    0    0    0  0.00000000000E+00  0.00000000000E+00  0.45593999997E+02  0.45594000000E+02  0.51100000000E-03 0.  1.
         11   -1    0    0    0    0 -0.00000000000E+00 -0.00000000000E+00 -0.45593999997E+02  0.45594000000E+02  0.51100000000E-03 0. -1.
         23    2    1    2    0    0 -0.88817841970E-15  0.35527136788E-14  0.00000000000E+00  0.91188000000E+02  0.91188000000E+02 0.  0.
    9900012    2    3    3    0    0  0.71189343473E+01 -0.28355717063E+02  0.22384234618E+02  0.54367083718E+02  0.39999998953E+02 0.  0.
         12    1    3    3    0    0 -0.71189343473E+01  0.28355717063E+02 -0.22384234618E+02  0.36820916282E+02  0.00000000000E+00 0. -1.
         11    1    4    4    0    0  0.71163263427E+01  0.36636552270E+01  0.17509017812E+02  0.19251757718E+02  0.51100000000E-03 0. -1.
        -11    1    4    4    0    0  0.56499486278E+00 -0.55310754192E+01  0.65216599303E+01  0.85699511664E+01  0.51100000000E-03 0.  1.
         12    1    4    4    0    0 -0.56238685826E+00 -0.26488296871E+02 -0.16464431245E+01  0.26545374834E+02  0.00000000000E+00 0. -1.
</event>
<event>
 8    1  0.1229038E-006  0.9118800E+02  0.7816164E-02  0.1184000E+00
        -11   -1    0    0    0    0  0.00000000000E+00  0.00000000000E+00  0.45593999997E+02  0.45594000000E+02  0.51100000000E-03 0. -1.
         11   -1    0    0    0    0 -0.00000000000E+00 -0.00000000000E+00 -0.45593999997E+02  0.45594000000E+02  0.51100000000E-03 0.  1.
         23    2    1    2    0    0  0.00000000000E+00  0.00000000000E+00  0.00000000000E+00  0.91188000000E+02  0.91188000000E+02 0.  0.
    9900012    2    3    3    0    0 -0.12777582204E+02 -0.21788286240E+02 -0.26791483709E+02  0.54367087144E+02  0.40000006762E+02 0.  0.
         12    1    3    3    0    0  0.12777582204E+02  0.21788286240E+02  0.26791483709E+02  0.36820912856E+02  0.00000000000E+00 0. -1.
         11    1    4    4    0    0 -0.71032643756E+01 -0.58410016919E+01 -0.30228786363E+02  0.31596727533E+02  0.51100000000E-03 0. -1.
        -11    1    4    4    0    0 -0.99129789881E+01 -0.96398588281E+01 -0.11811803787E+01  0.13877651746E+02  0.51100000000E-03 0.  1.
        -12    1    4    4    0    0  0.42386611594E+01 -0.63074257195E+01  0.46184830334E+01  0.88927078644E+01  0.00000000000E+00 0.  1.
</event>
<event>
 8    1  0.1229038E-006  0.9118800E+02  0.7816164E-02  0.1184000E+00
        -11   -1    0    0    0    0  0.00000000000E+00  0.00000000000E+00  0.45593999997E+02  0.45594000000E+02  0.51100000000E-03 0.  1.
         11   -1    0    0    0    0 -0.00000000000E+00 -0.00000000000E+00 -0.45593999997E+02  0.45594000000E+02  0.51100000000E-03 0. -1.
         23    2    1    2    0    0  0.00000000000E+00  0.00000000000E+00 -0.35527136788E-14  0.91188000000E+02  0.91188000000E+02 0.  0.
    9900012    2    3    3    0    0  0.20644890726E+02  0.10523668687E+02 -0.28614989599E+02  0.54367126226E+02  0.40000095857E+02 0.  0.
        -12    1    3    3    0    0 -0.20644890726E+02 -0.10523668687E+02  0.28614989599E+02  0.36820873774E+02  0.00000000000E+00 0.  1.
         11    1    4    4    0    0  0.18970321319E+02  0.11607530087E+02 -0.23697616786E+02  0.32498998251E+02  0.51100000000E-03 0. -1.
        -11    1    4    4    0    0 -0.95349749182E+01  0.16143190901E+01 -0.11514188966E+01  0.97389700971E+01  0.51100000000E-03 0.  1.
         12    1    4    4    0    0  0.11209544325E+02 -0.26981804903E+01 -0.37659539164E+01  0.12129157878E+02  0.00000000000E+00 0. -1.
</event>
<event>
 8    1  0.1229038E-006  0.9118800E+02  0.7816164E-02  0.1184000E+00
        -11   -1    0    0    0    0  0.00000000000E+00  0.00000000000E+00  0.45593999997E+02  0.45594000000E+02  0.51100000000E-03 0. -1.
         11   -1    0    0    0    0 -0.00000000000E+00 -0.00000000000E+00 -0.45593999997E+02  0.45594000000E+02  0.51100000000E-03 0.  1.
         23    2    1    2    0    0  0.00000000000E+00  0.00000000000E+00  0.17763568394E-14  0.91188000000E+02  0.91188000000E+02 0.  0.
    9900012    2    3    3    0    0  0.23319952504E+01 -0.36407089428E+02 -0.49864225217E+01  0.54367098707E+02  0.40000033122E+02 0.  0.
        -12    1    3    3    0    0 -0.23319952504E+01  0.36407089428E+02  0.49864225217E+01  0.36820901293E+02  0.00000000000E+00 0.  1.
         11    1    4    4    0    0 -0.11567008664E+01 -0.12062091193E+02  0.99345193998E+01  0.15669290884E+02  0.51100000000E-03 0. -1.
        -11    1    4    4    0    0  0.55192719717E+01 -0.21921739471E+02  0.84140977505E+00  0.22621516200E+02  0.51100000000E-03 0.  1.
        -12    1    4    4    0    0 -0.20305758549E+01 -0.24232587648E+01 -0.15762351696E+02  0.16076291623E+02  0.00000000000E+00 0.  1.
</event>
<event>
 8    1  0.1229038E-006  0.9118800E+02  0.7816164E-02  0.1184000E+00
        -11   -1    0    0    0    0  0.00000000000E+00  0.00000000000E+00  0.45593999997E+02  0.45594000000E+02  0.51100000000E-03 0. -1.
         11   -1    0    0    0    0 -0.00000000000E+00 -0.00000000000E+00 -0.45593999997E+02  0.45594000000E+02  0.51100000000E-03 0.  1.
         23    2    1    2    0    0  0.35527136788E-14  0.00000000000E+00  0.00000000000E+00  0.91188000000E+02  0.91188000000E+02 0.  0.
    9900012    2    3    3    0    0 -0.21327054594E+02  0.28450198026E+02 -0.95665516169E+01  0.54367137229E+02  0.40000120940E+02 0.  0.
        -12    1    3    3    0    0  0.21327054594E+02 -0.28450198026E+02  0.95665516169E+01  0.36820862771E+02  0.00000000000E+00 0.  1.
         11    1    4    4    0    0  0.54679592887E+01 -0.15125625207E+00 -0.56481578347E+00  0.54991339652E+01  0.51100000000E-03 0. -1.
        -11    1    4    4    0    0  0.48755291457E+01  0.17233511525E+00 -0.33904990677E+01  0.59410409889E+01  0.51100000000E-03 0.  1.
         12    1    4    4    0    0 -0.31670543028E+02  0.28429119163E+02 -0.56112367658E+01  0.42926962275E+02  0.00000000000E+00 0. -1.
</event>
<event>
 8    1  0.1229038E-006  0.9118800E+02  0.7816164E-02  0.1184000E+00
        -11   -1    0    0    0    0  0.00000000000E+00  0.00000000000E+00  0.45593999997E+02  0.45594000000E+02  0.51100000000E-03 0.  1.
         11   -1    0    0    0    0 -0.00000000000E+00 -0.00000000000E+00 -0.45593999997E+02  0.45594000000E+02  0.51100000000E-03 0. -1.
         23    2    1    2    0    0  0.00000000000E+00  0.00000000000E+00 -0.71054273576E-14  0.91188000000E+02  0.91188000000E+02 0.  0.
    9900012    2    3    3    0    0 -0.63169746657E+01  0.14474254622E+02  0.33262215153E+02  0.54367038950E+02  0.39999896893E+02 0.  0.
         12    1    3    3    0    0  0.63169746657E+01 -0.14474254622E+02 -0.33262215153E+02  0.36820961050E+02  0.00000000000E+00 0. -1.
         11    1    4    4    0    0 -0.81927487119E+01  0.89293384845E+01 -0.13980811380E+01  0.12198723227E+02  0.51100000000E-03 0. -1.
        -11    1    4    4    0    0  0.27202093435E+01  0.12985078267E+02  0.31231741229E+02  0.33932778503E+02  0.51100000000E-03 0.  1.
        -12    1    4    4    0    0 -0.84443529728E+00 -0.74401621300E+01  0.34285550626E+01  0.82355372205E+01  0.00000000000E+00 0.  1.
</event>
<event>
 8    1  0.1229038E-006  0.9118800E+02  0.7816164E-02  0.1184000E+00
        -11   -1    0    0    0    0  0.00000000000E+00  0.00000000000E+00  0.45593999997E+02  0.45594000000E+02  0.51100000000E-03 0.  1.
         11   -1    0    0    0    0 -0.00000000000E+00 -0.00000000000E+00 -0.45593999997E+02  0.45594000000E+02  0.51100000000E-03 0. -1.
         23    2    1    2    0    0  0.35527136788E-14  0.00000000000E+00  0.00000000000E+00  0.91188000000E+02  0.91188000000E+02 0.  0.
    9900012    2    3    3    0    0  0.19116483963E+02 -0.29226365696E+02  0.11668710323E+02  0.54367092739E+02  0.40000019517E+02 0.  0.
         12    1    3    3    0    0 -0.19116483963E+02  0.29226365696E+02 -0.11668710323E+02  0.36820907261E+02  0.00000000000E+00 0. -1.
         11    1    4    4    0    0 -0.38850978564E-01 -0.17129010576E+02  0.10439282759E+02  0.20059489961E+02  0.51100000000E-03 0. -1.
        -11    1    4    4    0    0  0.12622361561E+02 -0.55723607072E+01  0.13263872874E+02  0.19139110197E+02  0.51100000000E-03 0.  1.
         12    1    4    4    0    0  0.65329733801E+01 -0.65249944133E+01 -0.12034445310E+02  0.15168492582E+02  0.00000000000E+00 0. -1.
</event>
<event>
 8    1  0.1229038E-006  0.9118800E+02  0.7816164E-02  0.1184000E+00
        -11   -1    0    0    0    0  0.00000000000E+00  0.00000000000E+00  0.45593999997E+02  0.45594000000E+02  0.51100000000E-03 0. -1.
         11   -1    0    0    0    0 -0.00000000000E+00 -0.00000000000E+00 -0.45593999997E+02  0.45594000000E+02  0.51100000000E-03 0.  1.
         23    2    1    2    0    0  0.00000000000E+00  0.44408920985E-15  0.35527136788E-14  0.91188000000E+02  0.91188000000E+02 0.  0.
    9900012    2    3    3    0    0  0.26560815746E+02 -0.28768024079E+01 -0.25338269005E+02  0.54367071150E+02  0.39999970301E+02 0.  0.
         12    1    3    3    0    0 -0.26560815746E+02  0.28768024079E+01  0.25338269005E+02  0.36820928850E+02  0.00000000000E+00 0. -1.
         11    1    4    4    0    0  0.17543875791E+02  0.37336426807E+01  0.35159943472E+01  0.18278125777E+02  0.51100000000E-03 0. -1.
        -11    1    4    4    0    0  0.32884036709E+01 -0.12311020118E+01  0.21413133644E+01  0.41127161405E+01  0.51100000000E-03 0.  1.
         12    1    4    4    0    0  0.57285362844E+01 -0.53793430769E+01 -0.30995576717E+02  0.31976229232E+02  0.00000000000E+00 0. -1.
</event>
<event>
 8    1  0.1229038E-006  0.9118800E+02  0.7816164E-02  0.1184000E+00
        -11   -1    0    0    0    0  0.00000000000E+00  0.00000000000E+00  0.45593999997E+02  0.45594000000E+02  0.51100000000E-03 0. -1.
         11   -1    0    0    0    0 -0.00000000000E+00 -0.00000000000E+00 -0.45593999997E+02  0.45594000000E+02  0.51100000000E-03 0.  1.
         23    2    1    2    0    0  0.00000000000E+00  0.00000000000E+00  0.00000000000E+00  0.91188000000E+02  0.91188000000E+02 0.  0.
    9900012    2    3    3    0    0  0.30705346541E+02  0.17487773008E+02  0.10350785625E+02  0.54367091890E+02  0.40000017581E+02 0.  0.
        -12    1    3    3    0    0 -0.30705346541E+02 -0.17487773008E+02 -0.10350785625E+02  0.36820908110E+02  0.00000000000E+00 0.  1.
         11    1    4    4    0    0  0.13632918623E+02  0.52462761826E+01 -0.11663809745E+02  0.18692895495E+02  0.51100000000E-03 0. -1.
        -11    1    4    4    0    0  0.78927826015E+01 -0.16810230509E+00  0.18104461287E+02  0.19750842876E+02  0.51100000000E-03 0.  1.
        -12    1    4    4    0    0  0.91796453170E+01  0.12409599131E+02  0.39101340829E+01  0.15923353518E+02  0.00000000000E+00 0.  1.
</event>
<event>
 8    1  0.1229038E-006  0.9118800E+02  0.7816164E-02  0.1184000E+00
        -11   -1    0    0    0    0  0.00000000000E+00  0.00000000000E+00  0.45593999997E+02  0.45594000000E+02  0.51100000000E-03 0. -1.
         11   -1    0    0    0    0 -0.00000000000E+00 -0.00000000000E+00 -0.45593999997E+02  0.45594000000E+02  0.51100000000E-03 0.  1.
         23    2    1    2    0    0  0.00000000000E+00  0.00000000000E+00 -0.31086244690E-14  0.91188000000E+02  0.91188000000E+02 0.  0.
    9900012    2    3    3    0    0  0.29012893607E+02 -0.22438195195E+02  0.32494279956E+01  0.54367090433E+02  0.40000014259E+02 0.  0.
         12    1    3    3    0    0 -0.29012893607E+02  0.22438195195E+02 -0.32494279956E+01  0.36820909567E+02  0.00000000000E+00 0. -1.
         11    1    4    4    0    0  0.19237224814E+02 -0.16589546474E+02 -0.10418952509E+02  0.27456118488E+02  0.51100000000E-03 0.  1.
        -11    1    4    4    0    0  0.12757288329E+02 -0.57748829326E+01  0.17270479952E+02  0.22234368811E+02  0.51100000000E-03 0. -1.
        -12    1    4    4    0    0 -0.29816195356E+01 -0.73765787952E-01 -0.36020994469E+01  0.46766031339E+01  0.00000000000E+00 0.  1.
</event>
<event>
 8    1  0.1229038E-006  0.9118800E+02  0.7816164E-02  0.1184000E+00
        -11   -1    0    0    0    0  0.00000000000E+00  0.00000000000E+00  0.45593999997E+02  0.45594000000E+02  0.51100000000E-03 0.  1.
         11   -1    0    0    0    0 -0.00000000000E+00 -0.00000000000E+00 -0.45593999997E+02  0.45594000000E+02  0.51100000000E-03 0. -1.
         23    2    1    2    0    0  0.88817841970E-15  0.00000000000E+00  0.31918911958E-15  0.91188000000E+02  0.91188000000E+02 0.  0.
    9900012    2    3    3    0    0  0.45357028200E+01 -0.36540476000E+02  0.58684284794E-01  0.54367049031E+02  0.39999919876E+02 0.  0.
         12    1    3    3    0    0 -0.45357028200E+01  0.36540476000E+02 -0.58684284794E-01  0.36820950969E+02  0.00000000000E+00 0. -1.
         11    1    4    4    0    0  0.85627365111E+01 -0.14801043803E+00  0.49875102182E+01  0.99104804165E+01  0.51100000000E-03 0. -1.
        -11    1    4    4    0    0 -0.91916538430E+01 -0.30071256452E+02 -0.12000309280E+02  0.33656713863E+02  0.51100000000E-03 0.  1.
        -12    1    4    4    0    0  0.51646201519E+01 -0.63212091101E+01  0.70714833469E+01  0.10799854751E+02  0.00000000000E+00 0.  1.
</event>
<event>
 8    1  0.1229038E-006  0.9118800E+02  0.7816164E-02  0.1184000E+00
        -11   -1    0    0    0    0  0.00000000000E+00  0.00000000000E+00  0.45593999997E+02  0.45594000000E+02  0.51100000000E-03 0.  1.
         11   -1    0    0    0    0 -0.00000000000E+00 -0.00000000000E+00 -0.45593999997E+02  0.45594000000E+02  0.51100000000E-03 0. -1.
         23    2    1    2    0    0  0.16653345369E-15  0.00000000000E+00  0.35527136788E-14  0.91188000000E+02  0.91188000000E+02 0.  0.
    9900012    2    3    3    0    0  0.44834589845E+00  0.23527931375E+02 -0.28319867103E+02  0.54367089615E+02  0.40000012396E+02 0.  0.
        -12    1    3    3    0    0 -0.44834589845E+00 -0.23527931375E+02  0.28319867103E+02  0.36820910385E+02  0.00000000000E+00 0.  1.
         11    1    4    4    0    0 -0.88534268459E+01  0.15773087115E+02 -0.46306748101E+01  0.18671277233E+02  0.51100000000E-03 0. -1.
        -11    1    4    4    0    0  0.66355101309E+01  0.14677842769E+02 -0.72584494795E+01  0.17667884767E+02  0.51100000000E-03 0.  1.
        -12    1    4    4    0    0  0.26662626134E+01 -0.69229985091E+01 -0.16430742813E+02  0.18027927615E+02  0.00000000000E+00 0.  1.
</event>
<event>
 8    1  0.1229038E-006  0.9118800E+02  0.7816164E-02  0.1184000E+00
        -11   -1    0    0    0    0  0.00000000000E+00  0.00000000000E+00  0.45593999997E+02  0.45594000000E+02  0.51100000000E-03 0.  1.
         11   -1    0    0    0    0 -0.00000000000E+00 -0.00000000000E+00 -0.45593999997E+02  0.45594000000E+02  0.51100000000E-03 0. -1.
         23    2    1    2    0    0  0.00000000000E+00  0.00000000000E+00  0.17763568394E-14  0.91188000000E+02  0.91188000000E+02 0.  0.
    9900012    2    3    3    0    0 -0.69892856932E+01 -0.33239968288E+02 -0.14214019507E+02  0.54367028301E+02  0.39999872619E+02 0.  0.
         12    1    3    3    0    0  0.69892856932E+01  0.33239968288E+02  0.14214019507E+02  0.36820971699E+02  0.00000000000E+00 0. -1.
         11    1    4    4    0    0 -0.37684677850E+01 -0.50851424718E+00 -0.52163376082E+01  0.64552393054E+01  0.51100000000E-03 0. -1.
        -11    1    4    4    0    0 -0.39355927071E+01 -0.34909008922E+02  0.34090239653E+01  0.35295173020E+02  0.51100000000E-03 0.  1.
        -12    1    4    4    0    0  0.71477479885E+00  0.21775548814E+01 -0.12406705865E+02  0.12616615976E+02  0.00000000000E+00 0.  1.
</event>
<event>
 8    1  0.1229038E-006  0.9118800E+02  0.7816164E-02  0.1184000E+00
        -11   -1    0    0    0    0  0.00000000000E+00  0.00000000000E+00  0.45593999997E+02  0.45594000000E+02  0.51100000000E-03 0.  1.
         11   -1    0    0    0    0 -0.00000000000E+00 -0.00000000000E+00 -0.45593999997E+02  0.45594000000E+02  0.51100000000E-03 0. -1.
         23    2    1    2    0    0  0.35527136788E-14  0.00000000000E+00 -0.35527136788E-14  0.91188000000E+02  0.91188000000E+02 0.  0.
    9900012    2    3    3    0    0 -0.18191485289E+02  0.17273886092E+02  0.26952992844E+02  0.54367067082E+02  0.39999961026E+02 0.  0.
         12    1    3    3    0    0  0.18191485289E+02 -0.17273886092E+02 -0.26952992844E+02  0.36820932918E+02  0.00000000000E+00 0. -1.
         11    1    4    4    0    0 -0.11897705324E+02  0.14270825238E+02 -0.14084891308E+01  0.18633187780E+02  0.51100000000E-03 0. -1.
        -11    1    4    4    0    0  0.58338174615E+01  0.64155184269E+01  0.15300796301E+02  0.17587116607E+02  0.51100000000E-03 0.  1.
        -12    1    4    4    0    0 -0.12127597427E+02 -0.34124575729E+01  0.13060685674E+02  0.18146762695E+02  0.00000000000E+00 0.  1.
</event>
<event>
 8    1  0.1229038E-006  0.9118800E+02  0.7816164E-02  0.1184000E+00
        -11   -1    0    0    0    0  0.00000000000E+00  0.00000000000E+00  0.45593999997E+02  0.45594000000E+02  0.51100000000E-03 0. -1.
         11   -1    0    0    0    0 -0.00000000000E+00 -0.00000000000E+00 -0.45593999997E+02  0.45594000000E+02  0.51100000000E-03 0.  1.
         23    2    1    2    0    0  0.00000000000E+00  0.17763568394E-14  0.00000000000E+00  0.91188000000E+02  0.91188000000E+02 0.  0.
    9900012    2    3    3    0    0  0.21288959792E+02 -0.12773626577E+02  0.27191787137E+02  0.54367100600E+02  0.40000037437E+02 0.  0.
        -12    1    3    3    0    0 -0.21288959792E+02  0.12773626577E+02 -0.27191787137E+02  0.36820899400E+02  0.00000000000E+00 0.  1.
         11    1    4    4    0    0  0.10238281387E+02  0.33441923134E+00  0.30429419772E+02  0.32107379680E+02  0.51100000000E-03 0. -1.
        -11    1    4    4    0    0  0.12737318765E+02 -0.49127412780E+01 -0.18001092452E+01  0.13770065713E+02  0.51100000000E-03 0.  1.
         12    1    4    4    0    0 -0.16866403597E+01 -0.81953045299E+01 -0.14375233901E+01  0.84896552072E+01  0.00000000000E+00 0. -1.
</event>
<event>
 8    1  0.1229038E-006  0.9118800E+02  0.7816164E-02  0.1184000E+00
        -11   -1    0    0    0    0  0.00000000000E+00  0.00000000000E+00  0.45593999997E+02  0.45594000000E+02  0.51100000000E-03 0.  1.
         11   -1    0    0    0    0 -0.00000000000E+00 -0.00000000000E+00 -0.45593999997E+02  0.45594000000E+02  0.51100000000E-03 0. -1.
         23    2    1    2    0    0  0.00000000000E+00  0.35527136788E-14  0.00000000000E+00  0.91188000000E+02  0.91188000000E+02 0.  0.
    9900012    2    3    3    0    0 -0.21660365994E+02  0.25516208809E+02  0.15347069257E+02  0.54367069786E+02  0.39999967192E+02 0.  0.
         12    1    3    3    0    0  0.21660365994E+02 -0.25516208809E+02 -0.15347069257E+02  0.36820930214E+02  0.00000000000E+00 0. -1.
         11    1    4    4    0    0 -0.52500106957E+01 -0.24265183461E+01  0.66984659603E+01  0.88498615849E+01  0.51100000000E-03 0. -1.
        -11    1    4    4    0    0 -0.14075082103E+02 -0.22908004749E+01  0.13245092979E+01  0.14321662898E+02  0.51100000000E-03 0.  1.
        -12    1    4    4    0    0 -0.23352731958E+01  0.30233527630E+02  0.73240939989E+01  0.31195545304E+02  0.00000000000E+00 0.  1.
</event>
<event>
 8    1  0.1229038E-006  0.9118800E+02  0.7816164E-02  0.1184000E+00
        -11   -1    0    0    0    0  0.00000000000E+00  0.00000000000E+00  0.45593999997E+02  0.45594000000E+02  0.51100000000E-03 0. -1.
         11   -1    0    0    0    0 -0.00000000000E+00 -0.00000000000E+00 -0.45593999997E+02  0.45594000000E+02  0.51100000000E-03 0.  1.
         23    2    1    2    0    0 -0.17763568394E-14  0.00000000000E+00  0.88817841970E-15  0.91188000000E+02  0.91188000000E+02 0.  0.
    9900012    2    3    3    0    0 -0.12597672313E+02  0.33944400689E+02  0.66975171212E+01  0.54367076310E+02  0.39999982063E+02 0.  0.
        -12    1    3    3    0    0  0.12597672313E+02 -0.33944400689E+02 -0.66975171212E+01  0.36820923690E+02  0.00000000000E+00 0.  1.
         11    1    4    4    0    0  0.42425060739E+01  0.21838383138E+02  0.83580912661E+01  0.23764922170E+02  0.51100000000E-03 0. -1.
        -11    1    4    4    0    0 -0.15609816262E+02  0.18339568781E+02 -0.20706671245E+00  0.24084206935E+02  0.51100000000E-03 0.  1.
        -12    1    4    4    0    0 -0.12303621254E+01 -0.62335512306E+01 -0.14535074324E+01  0.65179472045E+01  0.00000000000E+00 0.  1.
</event>
<event>
 8    1  0.1229038E-006  0.9118800E+02  0.7816164E-02  0.1184000E+00
        -11   -1    0    0    0    0  0.00000000000E+00  0.00000000000E+00  0.45593999997E+02  0.45594000000E+02  0.51100000000E-03 0. -1.
         11   -1    0    0    0    0 -0.00000000000E+00 -0.00000000000E+00 -0.45593999997E+02  0.45594000000E+02  0.51100000000E-03 0.  1.
         23    2    1    2    0    0  0.00000000000E+00 -0.44408920985E-14  0.35527136788E-14  0.91188000000E+02  0.91188000000E+02 0.  0.
    9900012    2    3    3    0    0  0.21847811076E+02  0.78302761363E+01 -0.28585628729E+02  0.54367105890E+02  0.40000049498E+02 0.  0.
         12    1    3    3    0    0 -0.21847811076E+02 -0.78302761363E+01  0.28585628729E+02  0.36820894110E+02  0.00000000000E+00 0. -1.
         11    1    4    4    0    0  0.11272155051E+01  0.62393537168E+01  0.33074814572E+01  0.71511945470E+01  0.51100000000E-03 0.  1.
        -11    1    4    4    0    0  0.63811602511E+01 -0.12149765087E+02 -0.19363841441E+02  0.23733822983E+02  0.51100000000E-03 0. -1.
        -12    1    4    4    0    0  0.14339435320E+02  0.13740687506E+02 -0.12529268746E+02  0.23482088360E+02  0.00000000000E+00 0.  1.
</event>
<event>
 8    1  0.1229038E-006  0.9118800E+02  0.7816164E-02  0.1184000E+00
        -11   -1    0    0    0    0  0.00000000000E+00  0.00000000000E+00  0.45593999997E+02  0.45594000000E+02  0.51100000000E-03 0. -1.
         11   -1    0    0    0    0 -0.00000000000E+00 -0.00000000000E+00 -0.45593999997E+02  0.45594000000E+02  0.51100000000E-03 0.  1.
         23    2    1    2    0    0  0.13322676296E-14 -0.35527136788E-14 -0.35527136788E-14  0.91188000000E+02  0.91188000000E+02 0.  0.
    9900012    2    3    3    0    0 -0.18865444071E+01 -0.30693325856E+02  0.20251933649E+02  0.54367080424E+02  0.39999991442E+02 0.  0.
        -12    1    3    3    0    0  0.18865444071E+01  0.30693325856E+02 -0.20251933649E+02  0.36820919576E+02  0.00000000000E+00 0.  1.
         11    1    4    4    0    0  0.93551185705E+00 -0.24143665989E+01  0.14033698719E+02  0.14270565809E+02  0.51100000000E-03 0. -1.
        -11    1    4    4    0    0 -0.11398646706E+02 -0.61432903142E+01  0.95979817102E+01  0.16118015256E+02  0.51100000000E-03 0.  1.
        -12    1    4    4    0    0  0.85765904424E+01 -0.22135668943E+02 -0.33797467808E+01  0.23978499358E+02  0.00000000000E+00 0.  1.
</event>
<event>
 8    1  0.1229038E-006  0.9118800E+02  0.7816164E-02  0.1184000E+00
        -11   -1    0    0    0    0  0.00000000000E+00  0.00000000000E+00  0.45593999997E+02  0.45594000000E+02  0.51100000000E-03 0.  1.
         11   -1    0    0    0    0 -0.00000000000E+00 -0.00000000000E+00 -0.45593999997E+02  0.45594000000E+02  0.51100000000E-03 0. -1.
         23    2    1    2    0    0 -0.35527136788E-14 -0.35527136788E-14  0.22204460493E-14  0.91188000000E+02  0.91188000000E+02 0.  0.
    9900012    2    3    3    0    0 -0.27366817485E+02 -0.24621510377E+02  0.78627557683E+00  0.54367086082E+02  0.40000004341E+02 0.  0.
        -12    1    3    3    0    0  0.27366817485E+02  0.24621510377E+02 -0.78627557683E+00  0.36820913918E+02  0.00000000000E+00 0.  1.
         11    1    4    4    0    0 -0.95007790695E+01 -0.10324339778E+02  0.60660317321E+01  0.15285729816E+02  0.51100000000E-03 0. -1.
        -11    1    4    4    0    0  0.43909031922E+01 -0.10898047223E+02 -0.10734862718E+02  0.15914921990E+02  0.51100000000E-03 0.  1.
        -12    1    4    4    0    0 -0.22256941607E+02 -0.33991233753E+01  0.54551065626E+01  0.23166434276E+02  0.00000000000E+00 0.  1.
</event>
<event>
 8    1  0.1229038E-006  0.9118800E+02  0.7816164E-02  0.1184000E+00
        -11   -1    0    0    0    0  0.00000000000E+00  0.00000000000E+00  0.45593999997E+02  0.45594000000E+02  0.51100000000E-03 0. -1.
         11   -1    0    0    0    0 -0.00000000000E+00 -0.00000000000E+00 -0.45593999997E+02  0.45594000000E+02  0.51100000000E-03 0.  1.
         23    2    1    2    0    0  0.17763568394E-14  0.00000000000E+00  0.35527136788E-14  0.91188000000E+02  0.91188000000E+02 0.  0.
    9900012    2    3    3    0    0 -0.11609536663E+02 -0.22081570755E+02 -0.27081458264E+02  0.54367048216E+02  0.39999918018E+02 0.  0.
         12    1    3    3    0    0  0.11609536663E+02  0.22081570755E+02  0.27081458264E+02  0.36820951784E+02  0.00000000000E+00 0. -1.
         11    1    4    4    0    0 -0.63185674537E+01 -0.17119510096E+02 -0.52006585694E+01  0.18974951131E+02  0.51100000000E-03 0. -1.
        -11    1    4    4    0    0 -0.56513537309E+01  0.81138681214E+00 -0.27042923030E+02  0.27639027368E+02  0.51100000000E-03 0.  1.
        -12    1    4    4    0    0  0.36038452149E+00 -0.57734474716E+01  0.51621233357E+01  0.77530697174E+01  0.00000000000E+00 0.  1.
</event>
<event>
 8    1  0.1229038E-006  0.9118800E+02  0.7816164E-02  0.1184000E+00
        -11   -1    0    0    0    0  0.00000000000E+00  0.00000000000E+00  0.45593999997E+02  0.45594000000E+02  0.51100000000E-03 0.  1.
         11   -1    0    0    0    0 -0.00000000000E+00 -0.00000000000E+00 -0.45593999997E+02  0.45594000000E+02  0.51100000000E-03 0. -1.
         23    2    1    2    0    0 -0.17763568394E-14  0.00000000000E+00  0.00000000000E+00  0.91188000000E+02  0.91188000000E+02 0.  0.
    9900012    2    3    3    0    0  0.12373109411E+02  0.67073931105E+01  0.34024940645E+02  0.54367088214E+02  0.40000009203E+02 0.  0.
         12    1    3    3    0    0 -0.12373109411E+02 -0.67073931105E+01 -0.34024940645E+02  0.36820911786E+02  0.00000000000E+00 0. -1.
         11    1    4    4    0    0  0.10205253419E+02 -0.30923262695E+01 -0.32490535780E+00  0.10668422698E+02  0.51100000000E-03 0. -1.
        -11    1    4    4    0    0  0.17945274593E+01  0.89578381697E+01 -0.19857005373E+00  0.91379770083E+01  0.51100000000E-03 0.  1.
        -12    1    4    4    0    0  0.37332853253E+00  0.84188121041E+00  0.34548416056E+02  0.34560688508E+02  0.00000000000E+00 0.  1.
</event>
<event>
 8    1  0.1229038E-006  0.9118800E+02  0.7816164E-02  0.1184000E+00
        -11   -1    0    0    0    0  0.00000000000E+00  0.00000000000E+00  0.45593999997E+02  0.45594000000E+02  0.51100000000E-03 0. -1.
         11   -1    0    0    0    0 -0.00000000000E+00 -0.00000000000E+00 -0.45593999997E+02  0.45594000000E+02  0.51100000000E-03 0.  1.
         23    2    1    2    0    0  0.00000000000E+00  0.00000000000E+00  0.88817841970E-15  0.91188000000E+02  0.91188000000E+02 0.  0.
    9900012    2    3    3    0    0  0.27397676069E+02  0.23923731388E+02 -0.57274802519E+01  0.54367060203E+02  0.39999945345E+02 0.  0.
         12    1    3    3    0    0 -0.27397676069E+02 -0.23923731388E+02  0.57274802519E+01  0.36820939797E+02  0.00000000000E+00 0. -1.
         11    1    4    4    0    0  0.17093673913E+02 -0.25733268013E+00 -0.92443346564E+01  0.19434959003E+02  0.51100000000E-03 0.  1.
        -11    1    4    4    0    0  0.12135209642E+02  0.14005509509E+02  0.11552529192E+02  0.21837548870E+02  0.51100000000E-03 0. -1.
        -12    1    4    4    0    0 -0.18312074855E+01  0.10175554559E+02 -0.80356747874E+01  0.13094552330E+02  0.00000000000E+00 0.  1.
</event>
<event>
 8    1  0.1229038E-006  0.9118800E+02  0.7816164E-02  0.1184000E+00
        -11   -1    0    0    0    0  0.00000000000E+00  0.00000000000E+00  0.45593999997E+02  0.45594000000E+02  0.51100000000E-03 0.  1.
         11   -1    0    0    0    0 -0.00000000000E+00 -0.00000000000E+00 -0.45593999997E+02  0.45594000000E+02  0.51100000000E-03 0. -1.
         23    2    1    2    0    0 -0.17763568394E-14  0.00000000000E+00  0.00000000000E+00  0.91188000000E+02  0.91188000000E+02 0.  0.
    9900012    2    3    3    0    0  0.11818186862E+02  0.11941101368E+02  0.32764606657E+02  0.54367097078E+02  0.40000029409E+02 0.  0.
         12    1    3    3    0    0 -0.11818186862E+02 -0.11941101368E+02 -0.32764606657E+02  0.36820902922E+02  0.00000000000E+00 0. -1.
         11    1    4    4    0    0  0.12378661872E+02  0.12022997218E+02  0.21827215617E+01  0.17393907138E+02  0.51100000000E-03 0. -1.
        -11    1    4    4    0    0 -0.31542687933E+01  0.97221474679E+01  0.19031500632E+02  0.21602490124E+02  0.51100000000E-03 0.  1.
        -12    1    4    4    0    0  0.25937937834E+01 -0.98040433180E+01  0.11550384463E+02  0.15370699816E+02  0.00000000000E+00 0.  1.
</event>
<event>
 8    1  0.1229038E-006  0.9118800E+02  0.7816164E-02  0.1184000E+00
        -11   -1    0    0    0    0  0.00000000000E+00  0.00000000000E+00  0.45593999997E+02  0.45594000000E+02  0.51100000000E-03 0. -1.
         11   -1    0    0    0    0 -0.00000000000E+00 -0.00000000000E+00 -0.45593999997E+02  0.45594000000E+02  0.51100000000E-03 0.  1.
         23    2    1    2    0    0 -0.35527136788E-14  0.00000000000E+00 -0.35527136788E-14  0.91188000000E+02  0.91188000000E+02 0.  0.
    9900012    2    3    3    0    0 -0.26758595789E+02 -0.88888704972E+01 -0.23680070753E+02  0.54367079069E+02  0.39999988354E+02 0.  0.
         12    1    3    3    0    0  0.26758595789E+02  0.88888704972E+01  0.23680070753E+02  0.36820920931E+02  0.00000000000E+00 0. -1.
         11    1    4    4    0    0 -0.86350533586E+01  0.14266911439E+01  0.44100465158E+01  0.98004134943E+01  0.51100000000E-03 0. -1.
        -11    1    4    4    0    0 -0.16033292242E+02  0.20752901533E+01 -0.27605746448E+02  0.31991413326E+02  0.51100000000E-03 0.  1.
         12    1    4    4    0    0 -0.20902501878E+01 -0.12390851794E+02 -0.48437082084E+00  0.12575252249E+02  0.00000000000E+00 0. -1.
</event>
<event>
 8    1  0.1229038E-006  0.9118800E+02  0.7816164E-02  0.1184000E+00
        -11   -1    0    0    0    0  0.00000000000E+00  0.00000000000E+00  0.45593999997E+02  0.45594000000E+02  0.51100000000E-03 0. -1.
         11   -1    0    0    0    0 -0.00000000000E+00 -0.00000000000E+00 -0.45593999997E+02  0.45594000000E+02  0.51100000000E-03 0.  1.
         23    2    1    2    0    0  0.00000000000E+00 -0.35527136788E-14  0.00000000000E+00  0.91188000000E+02  0.91188000000E+02 0.  0.
    9900012    2    3    3    0    0 -0.35109929134E+02 -0.10694311690E+02  0.29502188852E+01  0.54367092654E+02  0.40000019324E+02 0.  0.
         12    1    3    3    0    0  0.35109929134E+02  0.10694311690E+02 -0.29502188852E+01  0.36820907346E+02  0.00000000000E+00 0. -1.
         11    1    4    4    0    0 -0.18190051486E+01 -0.18276323301E+01  0.30744198663E+01  0.40126147884E+01  0.51100000000E-03 0. -1.
        -11    1    4    4    0    0 -0.35529717684E+02  0.53730732187E+01  0.26139097049E+00  0.35934650131E+02  0.51100000000E-03 0.  1.
        -12    1    4    4    0    0  0.22387936995E+01 -0.14239752579E+02 -0.38559195166E+00  0.14419827735E+02  0.00000000000E+00 0.  1.
</event>
<event>
 8    1  0.1229038E-006  0.9118800E+02  0.7816164E-02  0.1184000E+00
        -11   -1    0    0    0    0  0.00000000000E+00  0.00000000000E+00  0.45593999997E+02  0.45594000000E+02  0.51100000000E-03 0. -1.
         11   -1    0    0    0    0 -0.00000000000E+00 -0.00000000000E+00 -0.45593999997E+02  0.45594000000E+02  0.51100000000E-03 0.  1.
         23    2    1    2    0    0 -0.35527136788E-14  0.00000000000E+00 -0.35527136788E-14  0.91188000000E+02  0.91188000000E+02 0.  0.
    9900012    2    3    3    0    0 -0.21386830227E+02 -0.81220718383E+01  0.28851604850E+02  0.54367086642E+02  0.40000005617E+02 0.  0.
        -12    1    3    3    0    0  0.21386830227E+02  0.81220718383E+01 -0.28851604850E+02  0.36820913358E+02  0.00000000000E+00 0.  1.
         11    1    4    4    0    0 -0.11134295630E+02  0.87553145199E+00  0.22072833735E+02  0.24737604651E+02  0.51100000000E-03 0. -1.
        -11    1    4    4    0    0 -0.18499865631E+02 -0.53779193443E+01  0.73129769784E+01  0.20606957014E+02  0.51100000000E-03 0.  1.
         12    1    4    4    0    0  0.82473310339E+01 -0.36196839459E+01 -0.53420586362E+00  0.90225249767E+01  0.00000000000E+00 0. -1.
</event>
<event>
 8    1  0.1229038E-006  0.9118800E+02  0.7816164E-02  0.1184000E+00
        -11   -1    0    0    0    0  0.00000000000E+00  0.00000000000E+00  0.45593999997E+02  0.45594000000E+02  0.51100000000E-03 0.  1.
         11   -1    0    0    0    0 -0.00000000000E+00 -0.00000000000E+00 -0.45593999997E+02  0.45594000000E+02  0.51100000000E-03 0. -1.
         23    2    1    2    0    0  0.00000000000E+00  0.00000000000E+00  0.00000000000E+00  0.91188000000E+02  0.91188000000E+02 0.  0.
    9900012    2    3    3    0    0 -0.32472715576E+02  0.30404122970E+01 -0.17089742647E+02  0.54367072967E+02  0.39999974443E+02 0.  0.
         12    1    3    3    0    0  0.32472715576E+02 -0.30404122970E+01  0.17089742647E+02  0.36820927033E+02  0.00000000000E+00 0. -1.
         11    1    4    4    0    0 -0.26124822021E+02  0.78232393071E+01 -0.21235026926E+02  0.34563503406E+02  0.51100000000E-03 0. -1.
        -11    1    4    4    0    0 -0.35514627051E+01 -0.10120008059E+01 -0.68866574043E+01  0.78142871359E+01  0.51100000000E-03 0.  1.
        -12    1    4    4    0    0 -0.27964308500E+01 -0.37708262042E+01  0.11031941683E+02  0.11989282425E+02  0.00000000000E+00 0.  1.
</event>
<event>
 8    1  0.1229038E-006  0.9118800E+02  0.7816164E-02  0.1184000E+00
        -11   -1    0    0    0    0  0.00000000000E+00  0.00000000000E+00  0.45593999997E+02  0.45594000000E+02  0.51100000000E-03 0. -1.
         11   -1    0    0    0    0 -0.00000000000E+00 -0.00000000000E+00 -0.45593999997E+02  0.45594000000E+02  0.51100000000E-03 0.  1.
         23    2    1    2    0    0  0.00000000000E+00  0.35527136788E-14 -0.35527136788E-14  0.91188000000E+02  0.91188000000E+02 0.  0.
    9900012    2    3    3    0    0  0.16983757842E+02 -0.17380350987E+02  0.27663088350E+02  0.54367203052E+02  0.40000270996E+02 0.  0.
        -12    1    3    3    0    0 -0.16983757842E+02  0.17380350987E+02 -0.27663088350E+02  0.36820796948E+02  0.00000000000E+00 0.  1.
         11    1    4    4    0    0  0.13140162774E+02 -0.18754158533E+02  0.10669138370E+02  0.25262875011E+02  0.51100000000E-03 0. -1.
        -11    1    4    4    0    0  0.13495415117E+02  0.10147664638E+01  0.12608801785E+02  0.18496969018E+02  0.51100000000E-03 0.  1.
        -12    1    4    4    0    0 -0.96518200485E+01  0.35904108206E+00  0.43851481946E+01  0.10607359023E+02  0.00000000000E+00 0.  1.
</event>
<event>
 8    1  0.1229038E-006  0.9118800E+02  0.7816164E-02  0.1184000E+00
        -11   -1    0    0    0    0  0.00000000000E+00  0.00000000000E+00  0.45593999997E+02  0.45594000000E+02  0.51100000000E-03 0.  1.
         11   -1    0    0    0    0 -0.00000000000E+00 -0.00000000000E+00 -0.45593999997E+02  0.45594000000E+02  0.51100000000E-03 0. -1.
         23    2    1    2    0    0  0.00000000000E+00 -0.17763568394E-14  0.00000000000E+00  0.91188000000E+02  0.91188000000E+02 0.  0.
    9900012    2    3    3    0    0  0.50691671444E+01  0.53093982879E+01 -0.36081780296E+02  0.54367067977E+02  0.39999963067E+02 0.  0.
        -12    1    3    3    0    0 -0.50691671444E+01 -0.53093982879E+01  0.36081780296E+02  0.36820932023E+02  0.00000000000E+00 0.  1.
         11    1    4    4    0    0 -0.43698149793E+01  0.16976548518E+02 -0.17126559509E+02  0.24507499330E+02  0.51100000000E-03 0. -1.
        -11    1    4    4    0    0  0.68237561914E+01 -0.54584637292E+01  0.10022942876E+01  0.87956278310E+01  0.51100000000E-03 0.  1.
         12    1    4    4    0    0  0.26152259323E+01 -0.62086865011E+01 -0.19957515074E+02  0.21063940816E+02  0.00000000000E+00 0. -1.
</event>
<event>
 8    1  0.1229038E-006  0.9118800E+02  0.7816164E-02  0.1184000E+00
        -11   -1    0    0    0    0  0.00000000000E+00  0.00000000000E+00  0.45593999997E+02  0.45594000000E+02  0.51100000000E-03 0. -1.
         11   -1    0    0    0    0 -0.00000000000E+00 -0.00000000000E+00 -0.45593999997E+02  0.45594000000E+02  0.51100000000E-03 0.  1.
         23    2    1    2    0    0  0.00000000000E+00  0.00000000000E+00  0.35527136788E-14  0.91188000000E+02  0.91188000000E+02 0.  0.
    9900012    2    3    3    0    0 -0.18790996274E+02 -0.24159328286E+02  0.20469528584E+02  0.54367132483E+02  0.40000110122E+02 0.  0.
         12    1    3    3    0    0  0.18790996274E+02  0.24159328286E+02 -0.20469528584E+02  0.36820867517E+02  0.00000000000E+00 0. -1.
         11    1    4    4    0    0 -0.54919609898E+01  0.91064170205E+01  0.10648234453E+02  0.15049031985E+02  0.51100000000E-03 0. -1.
        -11    1    4    4    0    0 -0.29072572150E+01  0.30847949460E+00  0.63547930978E+00  0.29918453046E+01  0.51100000000E-03 0.  1.
        -12    1    4    4    0    0 -0.10391778069E+02 -0.33574224801E+02  0.91858148220E+01  0.36326255194E+02  0.00000000000E+00 0.  1.
</event>
<event>
 8    1  0.1229038E-006  0.9118800E+02  0.7816164E-02  0.1184000E+00
        -11   -1    0    0    0    0  0.00000000000E+00  0.00000000000E+00  0.45593999997E+02  0.45594000000E+02  0.51100000000E-03 0.  1.
         11   -1    0    0    0    0 -0.00000000000E+00 -0.00000000000E+00 -0.45593999997E+02  0.45594000000E+02  0.51100000000E-03 0. -1.
         23    2    1    2    0    0  0.17763568394E-14  0.00000000000E+00  0.00000000000E+00  0.91188000000E+02  0.91188000000E+02 0.  0.
    9900012    2    3    3    0    0  0.10833085926E+02  0.22647375885E+02  0.26935472976E+02  0.54367094395E+02  0.40000023293E+02 0.  0.
         12    1    3    3    0    0 -0.10833085926E+02 -0.22647375885E+02 -0.26935472976E+02  0.36820905605E+02  0.00000000000E+00 0. -1.
         11    1    4    4    0    0 -0.93683987445E+00 -0.48252675816E+01  0.63751281465E+01  0.80500394614E+01  0.51100000000E-03 0. -1.
        -11    1    4    4    0    0 -0.16735700172E+01  0.14001606418E+02  0.23153644073E+02  0.27109722482E+02  0.51100000000E-03 0.  1.
        -12    1    4    4    0    0  0.13443495818E+02  0.13471037048E+02 -0.25932992445E+01  0.19207332452E+02  0.00000000000E+00 0.  1.
</event>
<event>
 8    1  0.1229038E-006  0.9118800E+02  0.7816164E-02  0.1184000E+00
        -11   -1    0    0    0    0  0.00000000000E+00  0.00000000000E+00  0.45593999997E+02  0.45594000000E+02  0.51100000000E-03 0. -1.
         11   -1    0    0    0    0 -0.00000000000E+00 -0.00000000000E+00 -0.45593999997E+02  0.45594000000E+02  0.51100000000E-03 0.  1.
         23    2    1    2    0    0  0.00000000000E+00  0.00000000000E+00  0.00000000000E+00  0.91188000000E+02  0.91188000000E+02 0.  0.
    9900012    2    3    3    0    0 -0.24248906208E+02 -0.19407035864E+02 -0.19777198181E+02  0.54367081201E+02  0.39999993214E+02 0.  0.
         12    1    3    3    0    0  0.24248906208E+02  0.19407035864E+02  0.19777198181E+02  0.36820918799E+02  0.00000000000E+00 0. -1.
         11    1    4    4    0    0 -0.22038649935E+02 -0.64794540221E+01 -0.21646411305E+02  0.31563468409E+02  0.51100000000E-03 0. -1.
        -11    1    4    4    0    0 -0.19740688556E+01  0.30920409241E+01 -0.42850754933E+01  0.56408808857E+01  0.51100000000E-03 0.  1.
         12    1    4    4    0    0 -0.23618741763E+00 -0.16019622766E+02  0.61542886182E+01  0.17162731906E+02  0.00000000000E+00 0. -1.
</event>
<event>
 8    1  0.1229038E-006  0.9118800E+02  0.7816164E-02  0.1184000E+00
        -11   -1    0    0    0    0  0.00000000000E+00  0.00000000000E+00  0.45593999997E+02  0.45594000000E+02  0.51100000000E-03 0. -1.
         11   -1    0    0    0    0 -0.00000000000E+00 -0.00000000000E+00 -0.45593999997E+02  0.45594000000E+02  0.51100000000E-03 0.  1.
         23    2    1    2    0    0  0.35527136788E-14  0.00000000000E+00  0.00000000000E+00  0.91188000000E+02  0.91188000000E+02 0.  0.
    9900012    2    3    3    0    0 -0.17818450991E+02 -0.14008396732E+02 -0.29018058957E+02  0.54367080398E+02  0.39999991383E+02 0.  0.
         12    1    3    3    0    0  0.17818450991E+02  0.14008396732E+02  0.29018058957E+02  0.36820919602E+02  0.00000000000E+00 0. -1.
         11    1    4    4    0    0 -0.11186530750E+01 -0.12923459471E+02  0.20859415458E+01  0.13138429959E+02  0.51100000000E-03 0. -1.
        -11    1    4    4    0    0 -0.10604017006E+02 -0.10917575824E+02 -0.20524236540E+02  0.25551573813E+02  0.51100000000E-03 0.  1.
         12    1    4    4    0    0 -0.60957809101E+01  0.98326385626E+01 -0.10579763963E+02  0.15677076625E+02  0.00000000000E+00 0. -1.
</event>
<event>
 8    1  0.1229038E-006  0.9118800E+02  0.7816164E-02  0.1184000E+00
        -11   -1    0    0    0    0  0.00000000000E+00  0.00000000000E+00  0.45593999997E+02  0.45594000000E+02  0.51100000000E-03 0.  1.
         11   -1    0    0    0    0 -0.00000000000E+00 -0.00000000000E+00 -0.45593999997E+02  0.45594000000E+02  0.51100000000E-03 0. -1.
         23    2    1    2    0    0  0.00000000000E+00  0.00000000000E+00  0.00000000000E+00  0.91188000000E+02  0.91188000000E+02 0.  0.
    9900012    2    3    3    0    0  0.25244825238E+02  0.23789821137E+02  0.12350014066E+02  0.54367086942E+02  0.40000006301E+02 0.  0.
         12    1    3    3    0    0 -0.25244825238E+02 -0.23789821137E+02 -0.12350014066E+02  0.36820913058E+02  0.00000000000E+00 0. -1.
         11    1    4    4    0    0  0.22864109640E+02  0.22596772079E+02  0.13136670825E+02  0.34726844640E+02  0.51100000000E-03 0. -1.
        -11    1    4    4    0    0  0.41007439630E+01 -0.23959302243E+01  0.83881752098E+01  0.96394017605E+01  0.51100000000E-03 0.  1.
         12    1    4    4    0    0 -0.17200283654E+01  0.35889792821E+01 -0.91748319690E+01  0.10000840541E+02  0.00000000000E+00 0. -1.
</event>
<event>
 8    1  0.1229038E-006  0.9118800E+02  0.7816164E-02  0.1184000E+00
        -11   -1    0    0    0    0  0.00000000000E+00  0.00000000000E+00  0.45593999997E+02  0.45594000000E+02  0.51100000000E-03 0. -1.
         11   -1    0    0    0    0 -0.00000000000E+00 -0.00000000000E+00 -0.45593999997E+02  0.45594000000E+02  0.51100000000E-03 0.  1.
         23    2    1    2    0    0  0.00000000000E+00  0.00000000000E+00  0.00000000000E+00  0.91188000000E+02  0.91188000000E+02 0.  0.
    9900012    2    3    3    0    0  0.20553021374E+02 -0.49845491355E+01 -0.30141434600E+02  0.54367102436E+02  0.40000041623E+02 0.  0.
         12    1    3    3    0    0 -0.20553021374E+02  0.49845491355E+01  0.30141434600E+02  0.36820897564E+02  0.00000000000E+00 0. -1.
         11    1    4    4    0    0  0.14264337685E+02  0.27241167843E+00 -0.13234975226E+02  0.19460475513E+02  0.51100000000E-03 0. -1.
        -11    1    4    4    0    0  0.15324041349E+02  0.36129026780E+01 -0.15623306449E+02  0.22180329432E+02  0.51100000000E-03 0.  1.
         12    1    4    4    0    0 -0.90353576596E+01 -0.88698634919E+01 -0.12831529242E+01  0.12726297491E+02  0.00000000000E+00 0. -1.
</event>
<event>
 8    1  0.1229038E-006  0.9118800E+02  0.7816164E-02  0.1184000E+00
        -11   -1    0    0    0    0  0.00000000000E+00  0.00000000000E+00  0.45593999997E+02  0.45594000000E+02  0.51100000000E-03 0.  1.
         11   -1    0    0    0    0 -0.00000000000E+00 -0.00000000000E+00 -0.45593999997E+02  0.45594000000E+02  0.51100000000E-03 0. -1.
         23    2    1    2    0    0  0.00000000000E+00  0.35527136788E-14 -0.35527136788E-14  0.91188000000E+02  0.91188000000E+02 0.  0.
    9900012    2    3    3    0    0 -0.21349188818E+02 -0.21521346182E+02  0.20900321379E+02  0.54367086942E+02  0.40000006301E+02 0.  0.
         12    1    3    3    0    0  0.21349188818E+02  0.21521346182E+02 -0.20900321379E+02  0.36820913058E+02  0.00000000000E+00 0. -1.
         11    1    4    4    0    0 -0.14544431747E+02  0.72991128271E+01  0.11876852134E+02  0.20146393220E+02  0.51100000000E-03 0. -1.
        -11    1    4    4    0    0  0.14479006940E+01  0.11421349895E+01 -0.50274334033E-01  0.18448350939E+01  0.51100000000E-03 0.  1.
        -12    1    4    4    0    0 -0.82526577651E+01 -0.29962593999E+02  0.90737435798E+01  0.32375858627E+02  0.00000000000E+00 0.  1.
</event>
<event>
 8    1  0.1229038E-006  0.9118800E+02  0.7816164E-02  0.1184000E+00
        -11   -1    0    0    0    0  0.00000000000E+00  0.00000000000E+00  0.45593999997E+02  0.45594000000E+02  0.51100000000E-03 0.  1.
         11   -1    0    0    0    0 -0.00000000000E+00 -0.00000000000E+00 -0.45593999997E+02  0.45594000000E+02  0.51100000000E-03 0. -1.
         23    2    1    2    0    0  0.00000000000E+00  0.00000000000E+00  0.00000000000E+00  0.91188000000E+02  0.91188000000E+02 0.  0.
    9900012    2    3    3    0    0 -0.18546030350E+02 -0.31284854818E+02  0.57516900096E+01  0.54367091256E+02  0.40000016137E+02 0.  0.
        -12    1    3    3    0    0  0.18546030350E+02  0.31284854818E+02 -0.57516900096E+01  0.36820908744E+02  0.00000000000E+00 0.  1.
         11    1    4    4    0    0  0.20455539932E+01 -0.12520257115E+02  0.79827580817E+01  0.14988847728E+02  0.51100000000E-03 0. -1.
        -11    1    4    4    0    0  0.27858096193E+01 -0.15351260800E+02  0.39857336135E+00  0.15607075459E+02  0.51100000000E-03 0.  1.
         12    1    4    4    0    0 -0.23377393963E+02 -0.34133369027E+01 -0.26296414335E+01  0.23771168069E+02  0.00000000000E+00 0. -1.
</event>
<event>
 8    1  0.1229038E-006  0.9118800E+02  0.7816164E-02  0.1184000E+00
        -11   -1    0    0    0    0  0.00000000000E+00  0.00000000000E+00  0.45593999997E+02  0.45594000000E+02  0.51100000000E-03 0.  1.
         11   -1    0    0    0    0 -0.00000000000E+00 -0.00000000000E+00 -0.45593999997E+02  0.45594000000E+02  0.51100000000E-03 0. -1.
         23    2    1    2    0    0  0.88817841970E-15 -0.17763568394E-14  0.71054273576E-14  0.91188000000E+02  0.91188000000E+02 0.  0.
    9900012    2    3    3    0    0  0.66637096072E+01  0.11891994939E+02 -0.34204612911E+02  0.54367080487E+02  0.39999991587E+02 0.  0.
        -12    1    3    3    0    0 -0.66637096072E+01 -0.11891994939E+02  0.34204612911E+02  0.36820919513E+02  0.00000000000E+00 0.  1.
         11    1    4    4    0    0  0.16317912488E+02  0.16933320681E+00 -0.28145357530E+02  0.32534045129E+02  0.51100000000E-03 0. -1.
        -11    1    4    4    0    0 -0.29651623555E+01  0.59625532694E+01 -0.10121648629E+02  0.12115774863E+02  0.51100000000E-03 0.  1.
        -12    1    4    4    0    0 -0.66890405250E+01  0.57601084624E+01  0.40623932479E+01  0.97172604959E+01  0.00000000000E+00 0.  1.
</event>
<event>
 8    1  0.1229038E-006  0.9118800E+02  0.7816164E-02  0.1184000E+00
        -11   -1    0    0    0    0  0.00000000000E+00  0.00000000000E+00  0.45593999997E+02  0.45594000000E+02  0.51100000000E-03 0.  1.
         11   -1    0    0    0    0 -0.00000000000E+00 -0.00000000000E+00 -0.45593999997E+02  0.45594000000E+02  0.51100000000E-03 0. -1.
         23    2    1    2    0    0  0.00000000000E+00  0.00000000000E+00 -0.35527136788E-14  0.91188000000E+02  0.91188000000E+02 0.  0.
    9900012    2    3    3    0    0 -0.16563545856E+02 -0.27305797736E+02 -0.18325429378E+02  0.54367095568E+02  0.40000025965E+02 0.  0.
        -12    1    3    3    0    0  0.16563545856E+02  0.27305797736E+02  0.18325429378E+02  0.36820904432E+02  0.00000000000E+00 0.  1.
         11    1    4    4    0    0 -0.15163315976E+02 -0.23172269424E+02 -0.10840726166E+02  0.29738889786E+02  0.51100000000E-03 0. -1.
        -11    1    4    4    0    0  0.85786462193E+01 -0.30128447980E+01  0.35024600603E+01  0.97435943813E+01  0.51100000000E-03 0.  1.
        -12    1    4    4    0    0 -0.99788760996E+01 -0.11206835138E+01 -0.10987163273E+02  0.14884611400E+02  0.00000000000E+00 0.  1.
</event>
<event>
 8    1  0.1229038E-006  0.9118800E+02  0.7816164E-02  0.1184000E+00
        -11   -1    0    0    0    0  0.00000000000E+00  0.00000000000E+00  0.45593999997E+02  0.45594000000E+02  0.51100000000E-03 0. -1.
         11   -1    0    0    0    0 -0.00000000000E+00 -0.00000000000E+00 -0.45593999997E+02  0.45594000000E+02  0.51100000000E-03 0.  1.
         23    2    1    2    0    0 -0.35527136788E-14  0.35527136788E-14 -0.17763568394E-14  0.91188000000E+02  0.91188000000E+02 0.  0.
    9900012    2    3    3    0    0  0.24455617788E+02 -0.23933146338E+02 -0.13598040017E+02  0.54367089809E+02  0.40000012837E+02 0.  0.
        -12    1    3    3    0    0 -0.24455617788E+02  0.23933146338E+02  0.13598040017E+02  0.36820910191E+02  0.00000000000E+00 0.  1.
         11    1    4    4    0    0  0.25578904460E+01 -0.69332081684E+01 -0.77594175191E+00  0.74306301821E+01  0.51100000000E-03 0. -1.
        -11    1    4    4    0    0  0.29842946848E+02 -0.16334405566E+02 -0.16893250031E+02  0.37984156943E+02  0.51100000000E-03 0.  1.
        -12    1    4    4    0    0 -0.79452195054E+01 -0.66553260272E+00  0.40711517663E+01  0.89523026836E+01  0.00000000000E+00 0.  1.
</event>
<event>
 8    1  0.1229038E-006  0.9118800E+02  0.7816164E-02  0.1184000E+00
        -11   -1    0    0    0    0  0.00000000000E+00  0.00000000000E+00  0.45593999997E+02  0.45594000000E+02  0.51100000000E-03 0. -1.
         11   -1    0    0    0    0 -0.00000000000E+00 -0.00000000000E+00 -0.45593999997E+02  0.45594000000E+02  0.51100000000E-03 0.  1.
         23    2    1    2    0    0 -0.88817841970E-15 -0.88817841970E-15  0.71054273576E-14  0.91188000000E+02  0.91188000000E+02 0.  0.
    9900012    2    3    3    0    0 -0.79797427026E+01  0.61008044523E+01  0.35424316546E+02  0.54367104963E+02  0.40000047384E+02 0.  0.
        -12    1    3    3    0    0  0.79797427026E+01 -0.61008044523E+01 -0.35424316546E+02  0.36820895037E+02  0.00000000000E+00 0.  1.
         11    1    4    4    0    0 -0.17169620386E+02 -0.72259539580E+01  0.11942005875E+02  0.22127398839E+02  0.51100000000E-03 0. -1.
        -11    1    4    4    0    0  0.12751126987E+01  0.20004951526E+01 -0.20973955743E+01  0.31665378107E+01  0.51100000000E-03 0.  1.
         12    1    4    4    0    0  0.79147649850E+01  0.11326263258E+02  0.25579706245E+02  0.29073168313E+02  0.00000000000E+00 0. -1.
</event>
<event>
 8    1  0.1229038E-006  0.9118800E+02  0.7816164E-02  0.1184000E+00
        -11   -1    0    0    0    0  0.00000000000E+00  0.00000000000E+00  0.45593999997E+02  0.45594000000E+02  0.51100000000E-03 0.  1.
         11   -1    0    0    0    0 -0.00000000000E+00 -0.00000000000E+00 -0.45593999997E+02  0.45594000000E+02  0.51100000000E-03 0. -1.
         23    2    1    2    0    0  0.13322676296E-14  0.71054273576E-14  0.00000000000E+00  0.91188000000E+02  0.91188000000E+02 0.  0.
    9900012    2    3    3    0    0 -0.36579736304E+01 -0.35243717969E+02 -0.10013944281E+02  0.54367088721E+02  0.40000010358E+02 0.  0.
        -12    1    3    3    0    0  0.36579736304E+01  0.35243717969E+02  0.10013944281E+02  0.36820911279E+02  0.00000000000E+00 0.  1.
         11    1    4    4    0    0 -0.51012861204E+01 -0.10127267214E+02 -0.35268987505E+01  0.11875339000E+02  0.51100000000E-03 0. -1.
        -11    1    4    4    0    0 -0.12311715006E+02 -0.16406795066E+02  0.66589683944E+01  0.21566249351E+02  0.51100000000E-03 0.  1.
         12    1    4    4    0    0  0.13755027496E+02 -0.87096556879E+01 -0.13146013925E+02  0.20925500370E+02  0.00000000000E+00 0. -1.
</event>
<event>
 8    1  0.1229038E-006  0.9118800E+02  0.7816164E-02  0.1184000E+00
        -11   -1    0    0    0    0  0.00000000000E+00  0.00000000000E+00  0.45593999997E+02  0.45594000000E+02  0.51100000000E-03 0.  1.
         11   -1    0    0    0    0 -0.00000000000E+00 -0.00000000000E+00 -0.45593999997E+02  0.45594000000E+02  0.51100000000E-03 0. -1.
         23    2    1    2    0    0  0.00000000000E+00 -0.35527136788E-14 -0.35527136788E-14  0.91188000000E+02  0.91188000000E+02 0.  0.
    9900012    2    3    3    0    0  0.16174813074E+02 -0.16887783655E+02 -0.28442187056E+02  0.54367084486E+02  0.40000000703E+02 0.  0.
        -12    1    3    3    0    0 -0.16174813074E+02  0.16887783655E+02  0.28442187056E+02  0.36820915514E+02  0.00000000000E+00 0.  1.
         11    1    4    4    0    0  0.20300955935E+01 -0.39671645388E+00 -0.29527826322E+02  0.29600189182E+02  0.51100000000E-03 0. -1.
        -11    1    4    4    0    0  0.69897679821E+01 -0.20525904381E+01  0.41205598705E+01  0.83695279352E+01  0.51100000000E-03 0.  1.
        -12    1    4    4    0    0  0.71549494988E+01 -0.14438476763E+02 -0.30349206046E+01  0.16397367369E+02  0.00000000000E+00 0.  1.
</event>
<event>
 8    1  0.1229038E-006  0.9118800E+02  0.7816164E-02  0.1184000E+00
        -11   -1    0    0    0    0  0.00000000000E+00  0.00000000000E+00  0.45593999997E+02  0.45594000000E+02  0.51100000000E-03 0. -1.
         11   -1    0    0    0    0 -0.00000000000E+00 -0.00000000000E+00 -0.45593999997E+02  0.45594000000E+02  0.51100000000E-03 0.  1.
         23    2    1    2    0    0  0.00000000000E+00  0.00000000000E+00  0.35527136788E-14  0.91188000000E+02  0.91188000000E+02 0.  0.
    9900012    2    3    3    0    0 -0.12839506439E+02 -0.24136150651E+02  0.24665216720E+02  0.54367087332E+02  0.40000007191E+02 0.  0.
        -12    1    3    3    0    0  0.12839506439E+02  0.24136150651E+02 -0.24665216720E+02  0.36820912668E+02  0.00000000000E+00 0.  1.
         11    1    4    4    0    0 -0.87244864411E+01 -0.10188130660E+02  0.26567007992E+02  0.29761058179E+02  0.51100000000E-03 0. -1.
        -11    1    4    4    0    0  0.23299383933E+01  0.44029303115E+01  0.50919266944E+00  0.50073631464E+01  0.51100000000E-03 0.  1.
        -12    1    4    4    0    0 -0.64449583916E+01 -0.18350950303E+02 -0.24109839417E+01  0.19598666007E+02  0.00000000000E+00 0.  1.
</event>
<event>
 8    1  0.1229038E-006  0.9118800E+02  0.7816164E-02  0.1184000E+00
        -11   -1    0    0    0    0  0.00000000000E+00  0.00000000000E+00  0.45593999997E+02  0.45594000000E+02  0.51100000000E-03 0. -1.
         11   -1    0    0    0    0 -0.00000000000E+00 -0.00000000000E+00 -0.45593999997E+02  0.45594000000E+02  0.51100000000E-03 0.  1.
         23    2    1    2    0    0  0.00000000000E+00 -0.35527136788E-14  0.35527136788E-14  0.91188000000E+02  0.91188000000E+02 0.  0.
    9900012    2    3    3    0    0 -0.16977055411E+02  0.25678190250E+02 -0.20203707116E+02  0.54367086837E+02  0.40000006062E+02 0.  0.
         12    1    3    3    0    0  0.16977055411E+02 -0.25678190250E+02  0.20203707116E+02  0.36820913163E+02  0.00000000000E+00 0. -1.
         11    1    4    4    0    0 -0.56563879285E+01  0.14394056368E+02  0.51149461320E+01  0.16289452334E+02  0.51100000000E-03 0. -1.
        -11    1    4    4    0    0  0.47117563610E+00 -0.42345667134E+01  0.18466326762E+01  0.46436638802E+01  0.51100000000E-03 0.  1.
        -12    1    4    4    0    0 -0.11791843119E+02  0.15518700595E+02 -0.27165285924E+02  0.33433970623E+02  0.00000000000E+00 0.  1.
</event>
<event>
 8    1  0.1229038E-006  0.9118800E+02  0.7816164E-02  0.1184000E+00
        -11   -1    0    0    0    0  0.00000000000E+00  0.00000000000E+00  0.45593999997E+02  0.45594000000E+02  0.51100000000E-03 0. -1.
         11   -1    0    0    0    0 -0.00000000000E+00 -0.00000000000E+00 -0.45593999997E+02  0.45594000000E+02  0.51100000000E-03 0.  1.
         23    2    1    2    0    0  0.00000000000E+00  0.00000000000E+00 -0.35527136788E-14  0.91188000000E+02  0.91188000000E+02 0.  0.
    9900012    2    3    3    0    0  0.24370406154E+02  0.10536454415E+02  0.25511685085E+02  0.54367086871E+02  0.40000006141E+02 0.  0.
        -12    1    3    3    0    0 -0.24370406154E+02 -0.10536454415E+02 -0.25511685085E+02  0.36820913129E+02  0.00000000000E+00 0.  1.
         11    1    4    4    0    0 -0.11787622847E+01 -0.44685880865E+01  0.63311029119E+01  0.78384070035E+01  0.51100000000E-03 0. -1.
        -11    1    4    4    0    0  0.20315966707E+02  0.70867142433E+01  0.26791985715E+02  0.34362341608E+02  0.51100000000E-03 0.  1.
        -12    1    4    4    0    0  0.52332017316E+01  0.79183282584E+01 -0.76114035416E+01  0.12166338259E+02  0.00000000000E+00 0.  1.
</event>
<event>
 8    1  0.1229038E-006  0.9118800E+02  0.7816164E-02  0.1184000E+00
        -11   -1    0    0    0    0  0.00000000000E+00  0.00000000000E+00  0.45593999997E+02  0.45594000000E+02  0.51100000000E-03 0.  1.
         11   -1    0    0    0    0 -0.00000000000E+00 -0.00000000000E+00 -0.45593999997E+02  0.45594000000E+02  0.51100000000E-03 0. -1.
         23    2    1    2    0    0  0.35527136788E-14  0.10658141036E-13 -0.35527136788E-14  0.91188000000E+02  0.91188000000E+02 0.  0.
    9900012    2    3    3    0    0 -0.12303242364E+02 -0.25515890083E+02  0.23523394907E+02  0.54367074871E+02  0.39999978784E+02 0.  0.
         12    1    3    3    0    0  0.12303242364E+02  0.25515890083E+02 -0.23523394907E+02  0.36820925129E+02  0.00000000000E+00 0. -1.
         11    1    4    4    0    0  0.14021165482E+01 -0.12176180978E+02 -0.40405667943E+01  0.12905483110E+02  0.51100000000E-03 0. -1.
        -11    1    4    4    0    0  0.35408540639E+01  0.20714993179E+01  0.14132222564E+02  0.14715586016E+02  0.51100000000E-03 0.  1.
        -12    1    4    4    0    0 -0.17246212976E+02 -0.15411208423E+02  0.13431739137E+02  0.26746005745E+02  0.00000000000E+00 0.  1.
</event>
<event>
 8    1  0.1229038E-006  0.9118800E+02  0.7816164E-02  0.1184000E+00
        -11   -1    0    0    0    0  0.00000000000E+00  0.00000000000E+00  0.45593999997E+02  0.45594000000E+02  0.51100000000E-03 0.  1.
         11   -1    0    0    0    0 -0.00000000000E+00 -0.00000000000E+00 -0.45593999997E+02  0.45594000000E+02  0.51100000000E-03 0. -1.
         23    2    1    2    0    0  0.88817841970E-15  0.00000000000E+00  0.00000000000E+00  0.91188000000E+02  0.91188000000E+02 0.  0.
    9900012    2    3    3    0    0  0.51578453546E+01  0.35291573851E+02  0.91477333062E+01  0.54367087759E+02  0.40000008164E+02 0.  0.
         12    1    3    3    0    0 -0.51578453546E+01 -0.35291573851E+02 -0.91477333062E+01  0.36820912241E+02  0.00000000000E+00 0. -1.
         11    1    4    4    0    0  0.10826704471E+02  0.16941878453E+02 -0.89470842808E+01  0.22006705629E+02  0.51100000000E-03 0. -1.
        -11    1    4    4    0    0 -0.60021941508E+01  0.21691516194E+02  0.12262896546E+02  0.25630584101E+02  0.51100000000E-03 0.  1.
        -12    1    4    4    0    0  0.33333503408E+00 -0.33418207962E+01  0.58319210411E+01  0.67297980288E+01  0.00000000000E+00 0.  1.
</event>
<event>
 8    1  0.1229038E-006  0.9118800E+02  0.7816164E-02  0.1184000E+00
        -11   -1    0    0    0    0  0.00000000000E+00  0.00000000000E+00  0.45593999997E+02  0.45594000000E+02  0.51100000000E-03 0. -1.
         11   -1    0    0    0    0 -0.00000000000E+00 -0.00000000000E+00 -0.45593999997E+02  0.45594000000E+02  0.51100000000E-03 0.  1.
         23    2    1    2    0    0  0.17763568394E-14  0.00000000000E+00  0.00000000000E+00  0.91188000000E+02  0.91188000000E+02 0.  0.
    9900012    2    3    3    0    0  0.11381144157E+02  0.10005570790E+02 -0.33557991741E+02  0.54367072542E+02  0.39999973474E+02 0.  0.
         12    1    3    3    0    0 -0.11381144157E+02 -0.10005570790E+02  0.33557991741E+02  0.36820927458E+02  0.00000000000E+00 0. -1.
         11    1    4    4    0    0  0.37821423262E+00 -0.90059825051E+01 -0.12303461286E+02  0.15252079424E+02  0.51100000000E-03 0. -1.
        -11    1    4    4    0    0  0.67146218616E+00 -0.43697039512E+01 -0.10481048373E+02  0.11375304363E+02  0.51100000000E-03 0.  1.
        -12    1    4    4    0    0  0.10331467738E+02  0.23381257247E+02 -0.10773482082E+02  0.27739688755E+02  0.00000000000E+00 0.  1.
</event>
<event>
 8    1  0.1229038E-006  0.9118800E+02  0.7816164E-02  0.1184000E+00
        -11   -1    0    0    0    0  0.00000000000E+00  0.00000000000E+00  0.45593999997E+02  0.45594000000E+02  0.51100000000E-03 0.  1.
         11   -1    0    0    0    0 -0.00000000000E+00 -0.00000000000E+00 -0.45593999997E+02  0.45594000000E+02  0.51100000000E-03 0. -1.
         23    2    1    2    0    0  0.00000000000E+00 -0.17763568394E-14  0.00000000000E+00  0.91188000000E+02  0.91188000000E+02 0.  0.
    9900012    2    3    3    0    0 -0.19750545389E+02 -0.51605009578E+01 -0.30644174122E+02  0.54367079033E+02  0.39999988271E+02 0.  0.
        -12    1    3    3    0    0  0.19750545389E+02  0.51605009578E+01  0.30644174122E+02  0.36820920967E+02  0.00000000000E+00 0.  1.
         11    1    4    4    0    0 -0.24929292288E+02 -0.91385912986E+01 -0.31560423565E+02  0.41243712257E+02  0.51100000000E-03 0. -1.
        -11    1    4    4    0    0  0.55704390277E+01 -0.11249995713E+01  0.41787271625E+01  0.70538766616E+01  0.51100000000E-03 0.  1.
         12    1    4    4    0    0 -0.39169212829E+00  0.51030899121E+01 -0.32624777194E+01  0.60694901140E+01  0.00000000000E+00 0. -1.
</event>
<event>
 8    1  0.1229038E-006  0.9118800E+02  0.7816164E-02  0.1184000E+00
        -11   -1    0    0    0    0  0.00000000000E+00  0.00000000000E+00  0.45593999997E+02  0.45594000000E+02  0.51100000000E-03 0. -1.
         11   -1    0    0    0    0 -0.00000000000E+00 -0.00000000000E+00 -0.45593999997E+02  0.45594000000E+02  0.51100000000E-03 0.  1.
         23    2    1    2    0    0 -0.66613381478E-15  0.00000000000E+00  0.71054273576E-14  0.91188000000E+02  0.91188000000E+02 0.  0.
    9900012    2    3    3    0    0 -0.17116692701E+01 -0.46857839924E+01 -0.36481417582E+02  0.54367079152E+02  0.39999988543E+02 0.  0.
         12    1    3    3    0    0  0.17116692701E+01  0.46857839924E+01  0.36481417582E+02  0.36820920848E+02  0.00000000000E+00 0. -1.
         11    1    4    4    0    0 -0.50895692665E+01 -0.44586873297E+01 -0.76978672626E+01  0.10248939881E+02  0.51100000000E-03 0.  1.
        -11    1    4    4    0    0 -0.59202954753E+01 -0.78112973461E+01  0.29141249189E+01  0.10225379653E+02  0.51100000000E-03 0. -1.
         12    1    4    4    0    0  0.92981954717E+01  0.75842006835E+01 -0.31697675238E+02  0.33892759618E+02  0.00000000000E+00 0. -1.
</event>
<event>
 8    1  0.1229038E-006  0.9118800E+02  0.7816164E-02  0.1184000E+00
        -11   -1    0    0    0    0  0.00000000000E+00  0.00000000000E+00  0.45593999997E+02  0.45594000000E+02  0.51100000000E-03 0.  1.
         11   -1    0    0    0    0 -0.00000000000E+00 -0.00000000000E+00 -0.45593999997E+02  0.45594000000E+02  0.51100000000E-03 0. -1.
         23    2    1    2    0    0  0.00000000000E+00 -0.35527136788E-14  0.35527136788E-14  0.91188000000E+02  0.91188000000E+02 0.  0.
    9900012    2    3    3    0    0  0.13582587051E+02 -0.18237355107E+02  0.28960183574E+02  0.54367081693E+02  0.39999994337E+02 0.  0.
         12    1    3    3    0    0 -0.13582587051E+02  0.18237355107E+02 -0.28960183574E+02  0.36820918307E+02  0.00000000000E+00 0. -1.
         11    1    4    4    0    0  0.16371826343E+02 -0.10468015501E+01 -0.28123600405E+01  0.16644574508E+02  0.51100000000E-03 0. -1.
        -11    1    4    4    0    0 -0.37433145948E+01 -0.66892756311E+01  0.55628615358E+01  0.94712323038E+01  0.51100000000E-03 0.  1.
        -12    1    4    4    0    0  0.95407530233E+00 -0.10501277926E+02  0.26209682079E+02  0.28251274881E+02  0.00000000000E+00 0.  1.
</event>
<event>
 8    1  0.1229038E-006  0.9118800E+02  0.7816164E-02  0.1184000E+00
        -11   -1    0    0    0    0  0.00000000000E+00  0.00000000000E+00  0.45593999997E+02  0.45594000000E+02  0.51100000000E-03 0. -1.
         11   -1    0    0    0    0 -0.00000000000E+00 -0.00000000000E+00 -0.45593999997E+02  0.45594000000E+02  0.51100000000E-03 0.  1.
         23    2    1    2    0    0 -0.71054273576E-14  0.17763568394E-14  0.00000000000E+00  0.91188000000E+02  0.91188000000E+02 0.  0.
    9900012    2    3    3    0    0 -0.35426141824E+02  0.43958111216E+01  0.90248107559E+01  0.54367056379E+02  0.39999936628E+02 0.  0.
        -12    1    3    3    0    0  0.35426141824E+02 -0.43958111216E+01 -0.90248107559E+01  0.36820943621E+02  0.00000000000E+00 0.  1.
         11    1    4    4    0    0 -0.13727669695E+01  0.13066367588E+02  0.56267169125E+01  0.14292459360E+02  0.51100000000E-03 0. -1.
        -11    1    4    4    0    0 -0.18645371846E+01 -0.47363414519E+01  0.56048253722E+01  0.75712282343E+01  0.51100000000E-03 0.  1.
        -12    1    4    4    0    0 -0.32188837670E+02 -0.39342150144E+01 -0.22067315287E+01  0.32503368785E+02  0.00000000000E+00 0.  1.
</event>
<event>
 8    1  0.1229038E-006  0.9118800E+02  0.7816164E-02  0.1184000E+00
        -11   -1    0    0    0    0  0.00000000000E+00  0.00000000000E+00  0.45593999997E+02  0.45594000000E+02  0.51100000000E-03 0.  1.
         11   -1    0    0    0    0 -0.00000000000E+00 -0.00000000000E+00 -0.45593999997E+02  0.45594000000E+02  0.51100000000E-03 0. -1.
         23    2    1    2    0    0 -0.35527136788E-14  0.00000000000E+00  0.00000000000E+00  0.91188000000E+02  0.91188000000E+02 0.  0.
    9900012    2    3    3    0    0 -0.16904603188E+02  0.27537968428E+02 -0.17654286723E+02  0.54367093524E+02  0.40000021306E+02 0.  0.
        -12    1    3    3    0    0  0.16904603188E+02 -0.27537968428E+02  0.17654286723E+02  0.36820906476E+02  0.00000000000E+00 0.  1.
         11    1    4    4    0    0  0.16845558737E+01  0.22930240761E+01 -0.10466426488E+02  0.10846279159E+02  0.51100000000E-03 0. -1.
        -11    1    4    4    0    0 -0.89540486073E+01 -0.41349882623E+01  0.39950649628E+01  0.10641130518E+02  0.51100000000E-03 0.  1.
        -12    1    4    4    0    0 -0.96351104540E+01  0.29379932614E+02 -0.11182925198E+02  0.32879683846E+02  0.00000000000E+00 0.  1.
</event>
<event>
 8    1  0.1229038E-006  0.9118800E+02  0.7816164E-02  0.1184000E+00
        -11   -1    0    0    0    0  0.00000000000E+00  0.00000000000E+00  0.45593999997E+02  0.45594000000E+02  0.51100000000E-03 0.  1.
         11   -1    0    0    0    0 -0.00000000000E+00 -0.00000000000E+00 -0.45593999997E+02  0.45594000000E+02  0.51100000000E-03 0. -1.
         23    2    1    2    0    0  0.00000000000E+00  0.00000000000E+00  0.00000000000E+00  0.91188000000E+02  0.91188000000E+02 0.  0.
    9900012    2    3    3    0    0 -0.33979917976E+02 -0.85739072419E+01  0.11297493006E+02  0.54367081228E+02  0.39999993274E+02 0.  0.
        -12    1    3    3    0    0  0.33979917976E+02  0.85739072419E+01 -0.11297493006E+02  0.36820918772E+02  0.00000000000E+00 0.  1.
         11    1    4    4    0    0  0.60531486278E+00 -0.11994976694E+02  0.42311194940E+01  0.12733744320E+02  0.51100000000E-03 0. -1.
        -11    1    4    4    0    0 -0.10201886801E+02 -0.67879792493E+00  0.12669767896E+02  0.16280733390E+02  0.51100000000E-03 0.  1.
        -12    1    4    4    0    0 -0.24383346037E+02  0.40998673769E+01 -0.56033943843E+01  0.25352603517E+02  0.00000000000E+00 0.  1.
</event>
<event>
 8    1  0.1229038E-006  0.9118800E+02  0.7816164E-02  0.1184000E+00
        -11   -1    0    0    0    0  0.00000000000E+00  0.00000000000E+00  0.45593999997E+02  0.45594000000E+02  0.51100000000E-03 0. -1.
         11   -1    0    0    0    0 -0.00000000000E+00 -0.00000000000E+00 -0.45593999997E+02  0.45594000000E+02  0.51100000000E-03 0.  1.
         23    2    1    2    0    0  0.00000000000E+00  0.00000000000E+00  0.00000000000E+00  0.91188000000E+02  0.91188000000E+02 0.  0.
    9900012    2    3    3    0    0 -0.15801472622E+02 -0.32610402339E+02 -0.65311025424E+01  0.54367079612E+02  0.39999989593E+02 0.  0.
         12    1    3    3    0    0  0.15801472622E+02  0.32610402339E+02  0.65311025424E+01  0.36820920388E+02  0.00000000000E+00 0. -1.
         11    1    4    4    0    0 -0.46077635601E+01  0.52625853695E-01 -0.36104437540E+01  0.58540207437E+01  0.51100000000E-03 0.  1.
        -11    1    4    4    0    0 -0.13229791113E+02 -0.39010762350E+02  0.10281048632E+00  0.41193173248E+02  0.51100000000E-03 0. -1.
        -12    1    4    4    0    0  0.20360820515E+01  0.63477341565E+01 -0.30234692748E+01  0.73198856205E+01  0.00000000000E+00 0.  1.
</event>
<event>
 8    1  0.1229038E-006  0.9118800E+02  0.7816164E-02  0.1184000E+00
        -11   -1    0    0    0    0  0.00000000000E+00  0.00000000000E+00  0.45593999997E+02  0.45594000000E+02  0.51100000000E-03 0.  1.
         11   -1    0    0    0    0 -0.00000000000E+00 -0.00000000000E+00 -0.45593999997E+02  0.45594000000E+02  0.51100000000E-03 0. -1.
         23    2    1    2    0    0 -0.35527136788E-14  0.00000000000E+00  0.00000000000E+00  0.91188000000E+02  0.91188000000E+02 0.  0.
    9900012    2    3    3    0    0 -0.27372842035E+02 -0.11801723377E+02 -0.21615429064E+02  0.54367082991E+02  0.39999997296E+02 0.  0.
        -12    1    3    3    0    0  0.27372842035E+02  0.11801723377E+02  0.21615429064E+02  0.36820917009E+02  0.00000000000E+00 0.  1.
         11    1    4    4    0    0 -0.17160066736E+02 -0.86922215628E+00  0.54166729124E+01  0.18015653839E+02  0.51100000000E-03 0.  1.
        -11    1    4    4    0    0  0.10494625361E+01 -0.27903091210E+01 -0.20984753761E+02  0.21195449683E+02  0.51100000000E-03 0. -1.
         12    1    4    4    0    0 -0.11262237835E+02 -0.81421920995E+01 -0.60473482156E+01  0.15155979469E+02  0.00000000000E+00 0. -1.
</event>
<event>
 8    1  0.1229038E-006  0.9118800E+02  0.7816164E-02  0.1184000E+00
        -11   -1    0    0    0    0  0.00000000000E+00  0.00000000000E+00  0.45593999997E+02  0.45594000000E+02  0.51100000000E-03 0.  1.
         11   -1    0    0    0    0 -0.00000000000E+00 -0.00000000000E+00 -0.45593999997E+02  0.45594000000E+02  0.51100000000E-03 0. -1.
         23    2    1    2    0    0  0.35527136788E-14  0.00000000000E+00  0.00000000000E+00  0.91188000000E+02  0.91188000000E+02 0.  0.
    9900012    2    3    3    0    0  0.24671859095E+02  0.23294814445E+02  0.14297948464E+02  0.54367077394E+02  0.39999984536E+02 0.  0.
        -12    1    3    3    0    0 -0.24671859095E+02 -0.23294814445E+02 -0.14297948464E+02  0.36820922606E+02  0.00000000000E+00 0.  1.
         11    1    4    4    0    0  0.11466956951E+02  0.13958205842E+02  0.17128896914E+02  0.24894210608E+02  0.51100000000E-03 0. -1.
        -11    1    4    4    0    0  0.18058467794E+02  0.12147106928E+02  0.22825959171E+01  0.21883114727E+02  0.51100000000E-03 0.  1.
         12    1    4    4    0    0 -0.48535656494E+01 -0.28104983247E+01 -0.51135443663E+01  0.75897520600E+01  0.00000000000E+00 0. -1.
</event>
<event>
 8    1  0.1229038E-006  0.9118800E+02  0.7816164E-02  0.1184000E+00
        -11   -1    0    0    0    0  0.00000000000E+00  0.00000000000E+00  0.45593999997E+02  0.45594000000E+02  0.51100000000E-03 0.  1.
         11   -1    0    0    0    0 -0.00000000000E+00 -0.00000000000E+00 -0.45593999997E+02  0.45594000000E+02  0.51100000000E-03 0. -1.
         23    2    1    2    0    0 -0.35527136788E-14  0.00000000000E+00  0.17763568394E-14  0.91188000000E+02  0.91188000000E+02 0.  0.
    9900012    2    3    3    0    0  0.23150983131E+02  0.25020499238E+02 -0.13920757228E+02  0.54367070030E+02  0.39999967747E+02 0.  0.
        -12    1    3    3    0    0 -0.23150983131E+02 -0.25020499238E+02  0.13920757228E+02  0.36820929970E+02  0.00000000000E+00 0.  1.
         11    1    4    4    0    0  0.18563454471E+02  0.26375620442E+02 -0.14442405102E+02  0.35339188742E+02  0.51100000000E-03 0. -1.
        -11    1    4    4    0    0  0.96954622066E+01 -0.40614245392E+01  0.50717785420E+01  0.11671336450E+02  0.51100000000E-03 0.  1.
         12    1    4    4    0    0 -0.51079335458E+01  0.27063033357E+01 -0.45501306682E+01  0.73565448378E+01  0.00000000000E+00 0. -1.
</event>
<event>
 8    1  0.1229038E-006  0.9118800E+02  0.7816164E-02  0.1184000E+00
        -11   -1    0    0    0    0  0.00000000000E+00  0.00000000000E+00  0.45593999997E+02  0.45594000000E+02  0.51100000000E-03 0. -1.
         11   -1    0    0    0    0 -0.00000000000E+00 -0.00000000000E+00 -0.45593999997E+02  0.45594000000E+02  0.51100000000E-03 0.  1.
         23    2    1    2    0    0  0.00000000000E+00 -0.17763568394E-14  0.00000000000E+00  0.91188000000E+02  0.91188000000E+02 0.  0.
    9900012    2    3    3    0    0  0.36081855450E+02 -0.42665166187E+01 -0.59729622655E+01  0.54367085630E+02  0.40000003311E+02 0.  0.
        -12    1    3    3    0    0 -0.36081855450E+02  0.42665166187E+01  0.59729622655E+01  0.36820914370E+02  0.00000000000E+00 0.  1.
         11    1    4    4    0    0  0.14519913358E+02 -0.95910530586E+01  0.33845659288E+01  0.17727703446E+02  0.51100000000E-03 0. -1.
        -11    1    4    4    0    0 -0.55738690189E+01  0.41258651618E+01 -0.61854760724E+01  0.92925181559E+01  0.51100000000E-03 0.  1.
        -12    1    4    4    0    0  0.27135811111E+02  0.11986712781E+01 -0.31720521219E+01  0.27346864028E+02  0.00000000000E+00 0.  1.
</event>
<event>
 8    1  0.1229038E-006  0.9118800E+02  0.7816164E-02  0.1184000E+00
        -11   -1    0    0    0    0  0.00000000000E+00  0.00000000000E+00  0.45593999997E+02  0.45594000000E+02  0.51100000000E-03 0.  1.
         11   -1    0    0    0    0 -0.00000000000E+00 -0.00000000000E+00 -0.45593999997E+02  0.45594000000E+02  0.51100000000E-03 0. -1.
         23    2    1    2    0    0  0.00000000000E+00  0.88817841970E-15  0.00000000000E+00  0.91188000000E+02  0.91188000000E+02 0.  0.
    9900012    2    3    3    0    0  0.23134135866E+02 -0.70844631206E+01 -0.27756139587E+02  0.54367066488E+02  0.39999959672E+02 0.  0.
        -12    1    3    3    0    0 -0.23134135866E+02  0.70844631206E+01  0.27756139587E+02  0.36820933512E+02  0.00000000000E+00 0.  1.
         11    1    4    4    0    0  0.11391157764E+02  0.77455801003E+01 -0.14191471074E+02  0.19777521023E+02  0.51100000000E-03 0. -1.
        -11    1    4    4    0    0 -0.49613405341E+01 -0.25388658903E+00 -0.11251515535E+02  0.12299429271E+02  0.51100000000E-03 0.  1.
        -12    1    4    4    0    0  0.16704318635E+02 -0.14576156632E+02 -0.23131529778E+01  0.22290116194E+02  0.00000000000E+00 0.  1.
</event>
<event>
 8    1  0.1229038E-006  0.9118800E+02  0.7816164E-02  0.1184000E+00
        -11   -1    0    0    0    0  0.00000000000E+00  0.00000000000E+00  0.45593999997E+02  0.45594000000E+02  0.51100000000E-03 0. -1.
         11   -1    0    0    0    0 -0.00000000000E+00 -0.00000000000E+00 -0.45593999997E+02  0.45594000000E+02  0.51100000000E-03 0.  1.
         23    2    1    2    0    0  0.31086244690E-14  0.00000000000E+00 -0.71054273576E-14  0.91188000000E+02  0.91188000000E+02 0.  0.
    9900012    2    3    3    0    0  0.25176376474E+01 -0.13908436272E+02  0.33999972801E+02  0.54367065067E+02  0.39999956433E+02 0.  0.
        -12    1    3    3    0    0 -0.25176376474E+01  0.13908436272E+02 -0.33999972801E+02  0.36820934933E+02  0.00000000000E+00 0.  1.
         11    1    4    4    0    0  0.16516299876E+02 -0.10531365117E+02  0.19436042444E+02  0.27594520452E+02  0.51100000000E-03 0. -1.
        -11    1    4    4    0    0 -0.85831580402E+01  0.20583765274E+00  0.17616556722E+02  0.19597347833E+02  0.51100000000E-03 0.  1.
        -12    1    4    4    0    0 -0.54155041887E+01 -0.35829088074E+01 -0.30526263648E+01  0.71751967822E+01  0.00000000000E+00 0.  1.
</event>
<event>
 8    1  0.1229038E-006  0.9118800E+02  0.7816164E-02  0.1184000E+00
        -11   -1    0    0    0    0  0.00000000000E+00  0.00000000000E+00  0.45593999997E+02  0.45594000000E+02  0.51100000000E-03 0.  1.
         11   -1    0    0    0    0 -0.00000000000E+00 -0.00000000000E+00 -0.45593999997E+02  0.45594000000E+02  0.51100000000E-03 0. -1.
         23    2    1    2    0    0  0.00000000000E+00  0.00000000000E+00  0.35527136788E-14  0.91188000000E+02  0.91188000000E+02 0.  0.
    9900012    2    3    3    0    0  0.11025134329E+02 -0.34188707138E+02  0.80842435070E+01  0.54367132603E+02  0.40000110396E+02 0.  0.
         12    1    3    3    0    0 -0.11025134329E+02  0.34188707138E+02 -0.80842435070E+01  0.36820867397E+02  0.00000000000E+00 0. -1.
         11    1    4    4    0    0  0.23060511024E+01 -0.17955129365E+02 -0.15465284487E+02  0.23809232804E+02  0.51100000000E-03 0. -1.
        -11    1    4    4    0    0  0.94257117580E+01 -0.15287614812E+02  0.20320154255E+02  0.27119437273E+02  0.51100000000E-03 0.  1.
         12    1    4    4    0    0 -0.70662853140E+00 -0.94596296136E+00  0.32293737381E+01  0.34384625264E+01  0.00000000000E+00 0. -1.
</event>
<event>
 8    1  0.1229038E-006  0.9118800E+02  0.7816164E-02  0.1184000E+00
        -11   -1    0    0    0    0  0.00000000000E+00  0.00000000000E+00  0.45593999997E+02  0.45594000000E+02  0.51100000000E-03 0. -1.
         11   -1    0    0    0    0 -0.00000000000E+00 -0.00000000000E+00 -0.45593999997E+02  0.45594000000E+02  0.51100000000E-03 0.  1.
         23    2    1    2    0    0  0.00000000000E+00  0.00000000000E+00  0.00000000000E+00  0.91188000000E+02  0.91188000000E+02 0.  0.
    9900012    2    3    3    0    0  0.12279481735E+02  0.33531026198E+02 -0.89813269388E+01  0.54367087150E+02  0.40000006775E+02 0.  0.
        -12    1    3    3    0    0 -0.12279481735E+02 -0.33531026198E+02  0.89813269388E+01  0.36820912850E+02  0.00000000000E+00 0.  1.
         11    1    4    4    0    0  0.75730109527E+01  0.17228557050E+02 -0.25260917905E+01  0.18988280937E+02  0.51100000000E-03 0. -1.
        -11    1    4    4    0    0  0.97292864976E+01 -0.20193512254E+00  0.82131523766E+01  0.12734035722E+02  0.51100000000E-03 0.  1.
        -12    1    4    4    0    0 -0.50228157150E+01  0.16504404270E+02 -0.14668387525E+02  0.22644770491E+02  0.00000000000E+00 0.  1.
</event>
<event>
 8    1  0.1229038E-006  0.9118800E+02  0.7816164E-02  0.1184000E+00
        -11   -1    0    0    0    0  0.00000000000E+00  0.00000000000E+00  0.45593999997E+02  0.45594000000E+02  0.51100000000E-03 0.  1.
         11   -1    0    0    0    0 -0.00000000000E+00 -0.00000000000E+00 -0.45593999997E+02  0.45594000000E+02  0.51100000000E-03 0. -1.
         23    2    1    2    0    0  0.88817841970E-15  0.35527136788E-14 -0.35527136788E-14  0.91188000000E+02  0.91188000000E+02 0.  0.
    9900012    2    3    3    0    0 -0.79842502157E+01 -0.16566839145E+02  0.31899450394E+02  0.54367036594E+02  0.39999891522E+02 0.  0.
         12    1    3    3    0    0  0.79842502157E+01  0.16566839145E+02 -0.31899450394E+02  0.36820963406E+02  0.00000000000E+00 0. -1.
         11    1    4    4    0    0 -0.29124944636E+00  0.78852562150E+01  0.12352130155E+02  0.14657326203E+02  0.51100000000E-03 0. -1.
        -11    1    4    4    0    0 -0.16905717732E+01 -0.12260341554E+02  0.22613563689E+02  0.25778814381E+02  0.51100000000E-03 0.  1.
         12    1    4    4    0    0 -0.60024289961E+01 -0.12191753806E+02 -0.30662434498E+01  0.13930896009E+02  0.00000000000E+00 0. -1.
</event>
<event>
 8    1  0.1229038E-006  0.9118800E+02  0.7816164E-02  0.1184000E+00
        -11   -1    0    0    0    0  0.00000000000E+00  0.00000000000E+00  0.45593999997E+02  0.45594000000E+02  0.51100000000E-03 0.  1.
         11   -1    0    0    0    0 -0.00000000000E+00 -0.00000000000E+00 -0.45593999997E+02  0.45594000000E+02  0.51100000000E-03 0. -1.
         23    2    1    2    0    0  0.00000000000E+00  0.00000000000E+00  0.00000000000E+00  0.91188000000E+02  0.91188000000E+02 0.  0.
    9900012    2    3    3    0    0  0.14568413891E+02  0.10547734532E+02  0.32129220569E+02  0.54367079297E+02  0.39999988873E+02 0.  0.
         12    1    3    3    0    0 -0.14568413891E+02 -0.10547734532E+02 -0.32129220569E+02  0.36820920703E+02  0.00000000000E+00 0. -1.
         11    1    4    4    0    0  0.13512658864E+02  0.10298304120E+02  0.23940267079E+02  0.29356147659E+02  0.51100000000E-03 0. -1.
        -11    1    4    4    0    0  0.53999106962E+01  0.82557860012E+01  0.11650852978E+02  0.15266283549E+02  0.51100000000E-03 0.  1.
        -12    1    4    4    0    0 -0.43441556692E+01 -0.80063555891E+01 -0.34618994881E+01  0.97446480882E+01  0.00000000000E+00 0.  1.
</event>
<event>
 8    1  0.1229038E-006  0.9118800E+02  0.7816164E-02  0.1184000E+00
        -11   -1    0    0    0    0  0.00000000000E+00  0.00000000000E+00  0.45593999997E+02  0.45594000000E+02  0.51100000000E-03 0.  1.
         11   -1    0    0    0    0 -0.00000000000E+00 -0.00000000000E+00 -0.45593999997E+02  0.45594000000E+02  0.51100000000E-03 0. -1.
         23    2    1    2    0    0  0.00000000000E+00  0.00000000000E+00  0.00000000000E+00  0.91188000000E+02  0.91188000000E+02 0.  0.
    9900012    2    3    3    0    0  0.12299295228E+02 -0.93967434385E+01  0.33409727287E+02  0.54367064003E+02  0.39999954007E+02 0.  0.
         12    1    3    3    0    0 -0.12299295228E+02  0.93967434385E+01 -0.33409727287E+02  0.36820935997E+02  0.00000000000E+00 0. -1.
         11    1    4    4    0    0  0.11870858271E+02 -0.10042727118E+02  0.12374612300E+02  0.19872208581E+02  0.51100000000E-03 0. -1.
        -11    1    4    4    0    0  0.18600541094E+01 -0.42528774636E+01 -0.56578550896E+01  0.73183394624E+01  0.51100000000E-03 0.  1.
        -12    1    4    4    0    0 -0.14316171531E+01  0.48988611436E+01  0.26692970076E+02  0.27176515959E+02  0.00000000000E+00 0.  1.
</event>
<event>
 8    1  0.1229038E-006  0.9118800E+02  0.7816164E-02  0.1184000E+00
        -11   -1    0    0    0    0  0.00000000000E+00  0.00000000000E+00  0.45593999997E+02  0.45594000000E+02  0.51100000000E-03 0. -1.
         11   -1    0    0    0    0 -0.00000000000E+00 -0.00000000000E+00 -0.45593999997E+02  0.45594000000E+02  0.51100000000E-03 0.  1.
         23    2    1    2    0    0 -0.88817841970E-15  0.00000000000E+00 -0.88817841970E-15  0.91188000000E+02  0.91188000000E+02 0.  0.
    9900012    2    3    3    0    0 -0.40179920578E+01 -0.36219690961E+02  0.52696936589E+01  0.54367082783E+02  0.39999996820E+02 0.  0.
        -12    1    3    3    0    0  0.40179920578E+01  0.36219690961E+02 -0.52696936589E+01  0.36820917217E+02  0.00000000000E+00 0.  1.
         11    1    4    4    0    0  0.34768946660E+01 -0.18085776482E+02 -0.14231212153E+01  0.18471853771E+02  0.51100000000E-03 0.  1.
        -11    1    4    4    0    0  0.96851473559E+01 -0.12472285031E+02  0.81080518314E+01  0.17751069770E+02  0.51100000000E-03 0. -1.
         12    1    4    4    0    0 -0.17180034080E+02 -0.56616294478E+01 -0.14152369572E+01  0.18144159243E+02  0.00000000000E+00 0. -1.
</event>
<event>
 8    1  0.1229038E-006  0.9118800E+02  0.7816164E-02  0.1184000E+00
        -11   -1    0    0    0    0  0.00000000000E+00  0.00000000000E+00  0.45593999997E+02  0.45594000000E+02  0.51100000000E-03 0.  1.
         11   -1    0    0    0    0 -0.00000000000E+00 -0.00000000000E+00 -0.45593999997E+02  0.45594000000E+02  0.51100000000E-03 0. -1.
         23    2    1    2    0    0  0.35527136788E-14  0.00000000000E+00  0.00000000000E+00  0.91188000000E+02  0.91188000000E+02 0.  0.
    9900012    2    3    3    0    0 -0.26234814738E+02 -0.24881362806E+02  0.69591331370E+01  0.54367119328E+02  0.40000080133E+02 0.  0.
         12    1    3    3    0    0  0.26234814738E+02  0.24881362806E+02 -0.69591331370E+01  0.36820880672E+02  0.00000000000E+00 0. -1.
         11    1    4    4    0    0 -0.26401850853E+02 -0.11140581464E+01  0.19362064135E+01  0.26496183679E+02  0.51100000000E-03 0. -1.
        -11    1    4    4    0    0  0.39919031654E+01 -0.22691817916E+02  0.59392258277E+01  0.23793450673E+02  0.51100000000E-03 0.  1.
        -12    1    4    4    0    0 -0.38248670507E+01 -0.10754867434E+01 -0.91629910421E+00  0.40774849772E+01  0.00000000000E+00 0.  1.
</event>
<event>
 8    1  0.1229038E-006  0.9118800E+02  0.7816164E-02  0.1184000E+00
        -11   -1    0    0    0    0  0.00000000000E+00  0.00000000000E+00  0.45593999997E+02  0.45594000000E+02  0.51100000000E-03 0. -1.
         11   -1    0    0    0    0 -0.00000000000E+00 -0.00000000000E+00 -0.45593999997E+02  0.45594000000E+02  0.51100000000E-03 0.  1.
         23    2    1    2    0    0  0.35527136788E-14  0.00000000000E+00 -0.35527136788E-14  0.91188000000E+02  0.91188000000E+02 0.  0.
    9900012    2    3    3    0    0  0.31856427698E+02  0.15728423433E+02 -0.96728681913E+01  0.54367086535E+02  0.40000005373E+02 0.  0.
         12    1    3    3    0    0 -0.31856427698E+02 -0.15728423433E+02  0.96728681913E+01  0.36820913465E+02  0.00000000000E+00 0. -1.
         11    1    4    4    0    0  0.21678882401E+02  0.11198884727E+02  0.12070308035E+02  0.27222808408E+02  0.51100000000E-03 0. -1.
        -11    1    4    4    0    0  0.12734012286E+02  0.30705088617E+01 -0.15893666748E+02  0.20595915530E+02  0.51100000000E-03 0.  1.
         12    1    4    4    0    0 -0.25564669890E+01  0.14590298440E+01 -0.58495094791E+01  0.65483625967E+01  0.00000000000E+00 0. -1.
</event>
<event>
 8    1  0.1229038E-006  0.9118800E+02  0.7816164E-02  0.1184000E+00
        -11   -1    0    0    0    0  0.00000000000E+00  0.00000000000E+00  0.45593999997E+02  0.45594000000E+02  0.51100000000E-03 0.  1.
         11   -1    0    0    0    0 -0.00000000000E+00 -0.00000000000E+00 -0.45593999997E+02  0.45594000000E+02  0.51100000000E-03 0. -1.
         23    2    1    2    0    0  0.00000000000E+00  0.88817841970E-15  0.00000000000E+00  0.91188000000E+02  0.91188000000E+02 0.  0.
    9900012    2    3    3    0    0 -0.96664560318E+01 -0.42244505952E+01 -0.35277372446E+02  0.54367090700E+02  0.40000014868E+02 0.  0.
        -12    1    3    3    0    0  0.96664560318E+01  0.42244505952E+01  0.35277372446E+02  0.36820909300E+02  0.00000000000E+00 0.  1.
         11    1    4    4    0    0  0.11312891210E+02  0.43661639556E+01 -0.23667616274E+02  0.26593250188E+02  0.51100000000E-03 0.  1.
        -11    1    4    4    0    0 -0.16943881357E+02 -0.50053546418E+01 -0.13303465407E+02  0.22116303548E+02  0.51100000000E-03 0. -1.
        -12    1    4    4    0    0 -0.40354658846E+01 -0.35852599091E+01  0.16937092348E+01  0.56575369635E+01  0.00000000000E+00 0.  1.
</event>
<event>
 8    1  0.1229038E-006  0.9118800E+02  0.7816164E-02  0.1184000E+00
        -11   -1    0    0    0    0  0.00000000000E+00  0.00000000000E+00  0.45593999997E+02  0.45594000000E+02  0.51100000000E-03 0.  1.
         11   -1    0    0    0    0 -0.00000000000E+00 -0.00000000000E+00 -0.45593999997E+02  0.45594000000E+02  0.51100000000E-03 0. -1.
         23    2    1    2    0    0 -0.35527136788E-14  0.17763568394E-14  0.00000000000E+00  0.91188000000E+02  0.91188000000E+02 0.  0.
    9900012    2    3    3    0    0 -0.31581434248E+02 -0.15973565775E+02  0.10160589322E+02  0.54367090613E+02  0.40000014670E+02 0.  0.
        -12    1    3    3    0    0  0.31581434248E+02  0.15973565775E+02 -0.10160589322E+02  0.36820909387E+02  0.00000000000E+00 0.  1.
         11    1    4    4    0    0  0.11740664491E+01 -0.19749450196E+02 -0.66196934893E-01  0.19784428154E+02  0.51100000000E-03 0. -1.
        -11    1    4    4    0    0 -0.15286906492E+02  0.14393960738E+01  0.37474858771E+01  0.15805221347E+02  0.51100000000E-03 0.  1.
         12    1    4    4    0    0 -0.17468594205E+02  0.23364883480E+01  0.64793003793E+01  0.18777441112E+02  0.00000000000E+00 0. -1.
</event>
<event>
 8    1  0.1229038E-006  0.9118800E+02  0.7816164E-02  0.1184000E+00
        -11   -1    0    0    0    0  0.00000000000E+00  0.00000000000E+00  0.45593999997E+02  0.45594000000E+02  0.51100000000E-03 0.  1.
         11   -1    0    0    0    0 -0.00000000000E+00 -0.00000000000E+00 -0.45593999997E+02  0.45594000000E+02  0.51100000000E-03 0. -1.
         23    2    1    2    0    0  0.00000000000E+00  0.00000000000E+00  0.71054273576E-14  0.91188000000E+02  0.91188000000E+02 0.  0.
    9900012    2    3    3    0    0  0.91815606493E+01  0.59753079226E+01 -0.35153621678E+02  0.54367048385E+02  0.39999918403E+02 0.  0.
        -12    1    3    3    0    0 -0.91815606493E+01 -0.59753079226E+01  0.35153621678E+02  0.36820951615E+02  0.00000000000E+00 0.  1.
         11    1    4    4    0    0  0.63502929786E+01 -0.61007604899E+01 -0.34981969755E+02  0.36073310184E+02  0.51100000000E-03 0. -1.
        -11    1    4    4    0    0  0.61365419908E+01  0.12718040491E+02 -0.23046408807E+01  0.14307937356E+02  0.51100000000E-03 0.  1.
        -12    1    4    4    0    0 -0.33052743201E+01 -0.64197207835E+00  0.21329889573E+01  0.39858008445E+01  0.00000000000E+00 0.  1.
</event>
<event>
 8    1  0.1229038E-006  0.9118800E+02  0.7816164E-02  0.1184000E+00
        -11   -1    0    0    0    0  0.00000000000E+00  0.00000000000E+00  0.45593999997E+02  0.45594000000E+02  0.51100000000E-03 0.  1.
         11   -1    0    0    0    0 -0.00000000000E+00 -0.00000000000E+00 -0.45593999997E+02  0.45594000000E+02  0.51100000000E-03 0. -1.
         23    2    1    2    0    0  0.00000000000E+00  0.00000000000E+00  0.00000000000E+00  0.91188000000E+02  0.91188000000E+02 0.  0.
    9900012    2    3    3    0    0  0.20962434135E+02 -0.17265643968E+02  0.24864683617E+02  0.54367101072E+02  0.40000038514E+02 0.  0.
         12    1    3    3    0    0 -0.20962434135E+02  0.17265643968E+02 -0.24864683617E+02  0.36820898928E+02  0.00000000000E+00 0. -1.
         11    1    4    4    0    0  0.19651032837E+01 -0.10927340113E+02 -0.31416048016E+01  0.11538547302E+02  0.51100000000E-03 0. -1.
        -11    1    4    4    0    0  0.23317156809E+02 -0.11217512396E+02  0.21922509941E+02  0.33913401900E+02  0.51100000000E-03 0.  1.
        -12    1    4    4    0    0 -0.43198259581E+01  0.48792085417E+01  0.60837784777E+01  0.89151518702E+01  0.00000000000E+00 0.  1.
</event>
<event>
 8    1  0.1229038E-006  0.9118800E+02  0.7816164E-02  0.1184000E+00
        -11   -1    0    0    0    0  0.00000000000E+00  0.00000000000E+00  0.45593999997E+02  0.45594000000E+02  0.51100000000E-03 0.  1.
         11   -1    0    0    0    0 -0.00000000000E+00 -0.00000000000E+00 -0.45593999997E+02  0.45594000000E+02  0.51100000000E-03 0. -1.
         23    2    1    2    0    0 -0.35527136788E-14 -0.13322676296E-14  0.00000000000E+00  0.91188000000E+02  0.91188000000E+02 0.  0.
    9900012    2    3    3    0    0 -0.28762219240E+02 -0.17559074204E+01 -0.22922288003E+02  0.54367085375E+02  0.40000002731E+02 0.  0.
        -12    1    3    3    0    0  0.28762219240E+02  0.17559074204E+01  0.22922288003E+02  0.36820914625E+02  0.00000000000E+00 0.  1.
         11    1    4    4    0    0 -0.11722956105E+02 -0.13582015768E+02 -0.15336817009E+01  0.18006971761E+02  0.51100000000E-03 0. -1.
        -11    1    4    4    0    0 -0.18066671551E+02  0.12029099392E+01 -0.16946227354E+02  0.24799722479E+02  0.51100000000E-03 0.  1.
        -12    1    4    4    0    0  0.10274084163E+01  0.10623198409E+02 -0.44423789488E+01  0.11560391136E+02  0.00000000000E+00 0.  1.
</event>
<event>
 8    1  0.1229038E-006  0.9118800E+02  0.7816164E-02  0.1184000E+00
        -11   -1    0    0    0    0  0.00000000000E+00  0.00000000000E+00  0.45593999997E+02  0.45594000000E+02  0.51100000000E-03 0.  1.
         11   -1    0    0    0    0 -0.00000000000E+00 -0.00000000000E+00 -0.45593999997E+02  0.45594000000E+02  0.51100000000E-03 0. -1.
         23    2    1    2    0    0  0.00000000000E+00  0.35527136788E-14  0.35527136788E-14  0.91188000000E+02  0.91188000000E+02 0.  0.
    9900012    2    3    3    0    0  0.15797594651E+02 -0.20301407974E+02 -0.26345392056E+02  0.54366934765E+02  0.39999659383E+02 0.  0.
        -12    1    3    3    0    0 -0.15797594651E+02  0.20301407974E+02  0.26345392056E+02  0.36821065235E+02  0.00000000000E+00 0.  1.
         11    1    4    4    0    0 -0.22473349255E+01  0.31394606103E+01 -0.35449127520E+01  0.52414820301E+01  0.51100000000E-03 0. -1.
        -11    1    4    4    0    0 -0.94554780385E+00  0.61517896340E+01 -0.98555228757E+01  0.11656324797E+02  0.51100000000E-03 0.  1.
         12    1    4    4    0    0  0.18990477380E+02 -0.29592658218E+02 -0.12944956428E+02  0.37469127938E+02  0.00000000000E+00 0. -1.
</event>
<event>
 8    1  0.1229038E-006  0.9118800E+02  0.7816164E-02  0.1184000E+00
        -11   -1    0    0    0    0  0.00000000000E+00  0.00000000000E+00  0.45593999997E+02  0.45594000000E+02  0.51100000000E-03 0. -1.
         11   -1    0    0    0    0 -0.00000000000E+00 -0.00000000000E+00 -0.45593999997E+02  0.45594000000E+02  0.51100000000E-03 0.  1.
         23    2    1    2    0    0 -0.35527136788E-14  0.00000000000E+00  0.00000000000E+00  0.91188000000E+02  0.91188000000E+02 0.  0.
    9900012    2    3    3    0    0 -0.25855256316E+02  0.10353769546E+02 -0.24084951580E+02  0.54367085894E+02  0.40000003913E+02 0.  0.
        -12    1    3    3    0    0  0.25855256316E+02 -0.10353769546E+02  0.24084951580E+02  0.36820914106E+02  0.00000000000E+00 0.  1.
         11    1    4    4    0    0 -0.57949660672E+01  0.12351114187E+01  0.54650479314E+01  0.80606377595E+01  0.51100000000E-03 0. -1.
        -11    1    4    4    0    0  0.51141769490E+01 -0.27928176366E+01 -0.17783377310E+00  0.58297736945E+01  0.51100000000E-03 0.  1.
        -12    1    4    4    0    0 -0.25174467198E+02  0.11911475764E+02 -0.29372165738E+02  0.40476674440E+02  0.00000000000E+00 0.  1.
</event>
<event>
 8    1  0.1229038E-006  0.9118800E+02  0.7816164E-02  0.1184000E+00
        -11   -1    0    0    0    0  0.00000000000E+00  0.00000000000E+00  0.45593999997E+02  0.45594000000E+02  0.51100000000E-03 0.  1.
         11   -1    0    0    0    0 -0.00000000000E+00 -0.00000000000E+00 -0.45593999997E+02  0.45594000000E+02  0.51100000000E-03 0. -1.
         23    2    1    2    0    0 -0.35527136788E-14 -0.88817841970E-15 -0.10658141036E-13  0.91188000000E+02  0.91188000000E+02 0.  0.
    9900012    2    3    3    0    0  0.19012539316E+02 -0.30441605600E+01  0.31385276514E+02  0.54367093620E+02  0.40000021526E+02 0.  0.
         12    1    3    3    0    0 -0.19012539316E+02  0.30441605600E+01 -0.31385276514E+02  0.36820906380E+02  0.00000000000E+00 0. -1.
         11    1    4    4    0    0  0.14242736694E+02  0.67277966685E+00 -0.23564200685E+01  0.14452020510E+02  0.51100000000E-03 0. -1.
        -11    1    4    4    0    0  0.32629133162E+01 -0.82298644334E+01  0.38617494250E+01  0.96586945693E+01  0.51100000000E-03 0.  1.
        -12    1    4    4    0    0  0.15068893055E+01  0.45129242066E+01  0.29879947158E+02  0.30256378541E+02  0.00000000000E+00 0.  1.
</event>
<event>
 8    1  0.1229038E-006  0.9118800E+02  0.7816164E-02  0.1184000E+00
        -11   -1    0    0    0    0  0.00000000000E+00  0.00000000000E+00  0.45593999997E+02  0.45594000000E+02  0.51100000000E-03 0. -1.
         11   -1    0    0    0    0 -0.00000000000E+00 -0.00000000000E+00 -0.45593999997E+02  0.45594000000E+02  0.51100000000E-03 0.  1.
         23    2    1    2    0    0  0.00000000000E+00  0.00000000000E+00  0.00000000000E+00  0.91188000000E+02  0.91188000000E+02 0.  0.
    9900012    2    3    3    0    0  0.23406220820E+02 -0.23130500490E+02  0.16519877876E+02  0.54367114744E+02  0.40000069682E+02 0.  0.
        -12    1    3    3    0    0 -0.23406220820E+02  0.23130500490E+02 -0.16519877876E+02  0.36820885256E+02  0.00000000000E+00 0.  1.
         11    1    4    4    0    0  0.17556744653E+02 -0.23232692866E+01  0.24787885593E+01  0.17882428693E+02  0.51100000000E-03 0. -1.
        -11    1    4    4    0    0  0.71991237973E+01 -0.21131221252E+02  0.20239406205E+02  0.30132863436E+02  0.51100000000E-03 0.  1.
        -12    1    4    4    0    0 -0.13496476297E+01  0.32399004862E+00 -0.61983168891E+01  0.63518226151E+01  0.00000000000E+00 0.  1.
</event>
<event>
 8    1  0.1229038E-006  0.9118800E+02  0.7816164E-02  0.1184000E+00
        -11   -1    0    0    0    0  0.00000000000E+00  0.00000000000E+00  0.45593999997E+02  0.45594000000E+02  0.51100000000E-03 0.  1.
         11   -1    0    0    0    0 -0.00000000000E+00 -0.00000000000E+00 -0.45593999997E+02  0.45594000000E+02  0.51100000000E-03 0. -1.
         23    2    1    2    0    0 -0.17763568394E-14  0.00000000000E+00 -0.35527136788E-14  0.91188000000E+02  0.91188000000E+02 0.  0.
    9900012    2    3    3    0    0  0.15094636170E+02 -0.24236926275E+02  0.23248725501E+02  0.54367083746E+02  0.39999999016E+02 0.  0.
        -12    1    3    3    0    0 -0.15094636170E+02  0.24236926275E+02 -0.23248725501E+02  0.36820916254E+02  0.00000000000E+00 0.  1.
         11    1    4    4    0    0 -0.12167544799E+02 -0.11273951973E+02  0.21974916527E+01  0.16732606173E+02  0.51100000000E-03 0.  1.
        -11    1    4    4    0    0  0.26245713933E+02 -0.11450258181E+02  0.17276587772E+02  0.33442882615E+02  0.51100000000E-03 0. -1.
        -12    1    4    4    0    0  0.10164670351E+01 -0.15127161208E+01  0.37746460762E+01  0.41915949585E+01  0.00000000000E+00 0.  1.
</event>
<event>
 8    1  0.1229038E-006  0.9118800E+02  0.7816164E-02  0.1184000E+00
        -11   -1    0    0    0    0  0.00000000000E+00  0.00000000000E+00  0.45593999997E+02  0.45594000000E+02  0.51100000000E-03 0.  1.
         11   -1    0    0    0    0 -0.00000000000E+00 -0.00000000000E+00 -0.45593999997E+02  0.45594000000E+02  0.51100000000E-03 0. -1.
         23    2    1    2    0    0  0.99920072216E-15  0.00000000000E+00  0.00000000000E+00  0.91188000000E+02  0.91188000000E+02 0.  0.
    9900012    2    3    3    0    0  0.74262731886E+00 -0.35430874344E+02  0.99940998674E+01  0.54367076814E+02  0.39999983212E+02 0.  0.
         12    1    3    3    0    0 -0.74262731886E+00  0.35430874344E+02 -0.99940998674E+01  0.36820923186E+02  0.00000000000E+00 0. -1.
         11    1    4    4    0    0 -0.38992851664E+01  0.12521557408E+01 -0.58335315749E+01  0.71275809153E+01  0.51100000000E-03 0. -1.
        -11    1    4    4    0    0 -0.44876368003E+01  0.14127361444E+01  0.43767697850E+01  0.64257934512E+01  0.51100000000E-03 0.  1.
         12    1    4    4    0    0  0.91295492855E+01 -0.38095766229E+02  0.11450861657E+02  0.40813702447E+02  0.00000000000E+00 0. -1.
</event>
<event>
 8    1  0.1229038E-006  0.9118800E+02  0.7816164E-02  0.1184000E+00
        -11   -1    0    0    0    0  0.00000000000E+00  0.00000000000E+00  0.45593999997E+02  0.45594000000E+02  0.51100000000E-03 0. -1.
         11   -1    0    0    0    0 -0.00000000000E+00 -0.00000000000E+00 -0.45593999997E+02  0.45594000000E+02  0.51100000000E-03 0.  1.
         23    2    1    2    0    0  0.00000000000E+00  0.00000000000E+00  0.00000000000E+00  0.91188000000E+02  0.91188000000E+02 0.  0.
    9900012    2    3    3    0    0 -0.28824782385E+02 -0.18655051223E+02 -0.13300390461E+02  0.54367090151E+02  0.40000013617E+02 0.  0.
        -12    1    3    3    0    0  0.28824782385E+02  0.18655051223E+02  0.13300390461E+02  0.36820909849E+02  0.00000000000E+00 0.  1.
         11    1    4    4    0    0  0.33939084138E+01  0.97895252548E+00  0.39483872339E+01  0.52978037316E+01  0.51100000000E-03 0. -1.
        -11    1    4    4    0    0 -0.20112228722E+02 -0.16223920828E+02 -0.23585522104E+02  0.34985628540E+02  0.51100000000E-03 0.  1.
        -12    1    4    4    0    0 -0.12106462077E+02 -0.34100829212E+01  0.63367444089E+01  0.14083657879E+02  0.00000000000E+00 0.  1.
</event>
<event>
 8    1  0.1229038E-006  0.9118800E+02  0.7816164E-02  0.1184000E+00
        -11   -1    0    0    0    0  0.00000000000E+00  0.00000000000E+00  0.45593999997E+02  0.45594000000E+02  0.51100000000E-03 0.  1.
         11   -1    0    0    0    0 -0.00000000000E+00 -0.00000000000E+00 -0.45593999997E+02  0.45594000000E+02  0.51100000000E-03 0. -1.
         23    2    1    2    0    0 -0.17763568394E-14 -0.35527136788E-14 -0.35527136788E-14  0.91188000000E+02  0.91188000000E+02 0.  0.
    9900012    2    3    3    0    0 -0.12754783424E+02 -0.17402088471E+02 -0.29837257455E+02  0.54367094039E+02  0.40000022482E+02 0.  0.
        -12    1    3    3    0    0  0.12754783424E+02  0.17402088471E+02  0.29837257455E+02  0.36820905961E+02  0.00000000000E+00 0.  1.
         11    1    4    4    0    0 -0.59024552840E+01 -0.81259511740E+01 -0.59964302659E+01  0.11697317515E+02  0.51100000000E-03 0. -1.
        -11    1    4    4    0    0 -0.17661335664E+02 -0.76299881724E+01 -0.25142549652E+02  0.31658921336E+02  0.51100000000E-03 0.  1.
        -12    1    4    4    0    0  0.10809007524E+02 -0.16461491244E+01  0.13017224627E+01  0.11010855188E+02  0.00000000000E+00 0.  1.
</event>
<event>
 8    1  0.1229038E-006  0.9118800E+02  0.7816164E-02  0.1184000E+00
        -11   -1    0    0    0    0  0.00000000000E+00  0.00000000000E+00  0.45593999997E+02  0.45594000000E+02  0.51100000000E-03 0. -1.
         11   -1    0    0    0    0 -0.00000000000E+00 -0.00000000000E+00 -0.45593999997E+02  0.45594000000E+02  0.51100000000E-03 0.  1.
         23    2    1    2    0    0 -0.35527136788E-14  0.44408920985E-15 -0.71054273576E-14  0.91188000000E+02  0.91188000000E+02 0.  0.
    9900012    2    3    3    0    0  0.22108541154E+02 -0.29033435973E+01  0.29301243362E+02  0.54367083952E+02  0.39999999486E+02 0.  0.
        -12    1    3    3    0    0 -0.22108541154E+02  0.29033435973E+01 -0.29301243362E+02  0.36820916048E+02  0.00000000000E+00 0.  1.
         11    1    4    4    0    0  0.99746092671E+01 -0.14571261292E+01 -0.38395336164E+00  0.10087788015E+02  0.51100000000E-03 0. -1.
        -11    1    4    4    0    0  0.42699118850E+01 -0.17202585943E+01 -0.60983632751E+01  0.76407769261E+01  0.51100000000E-03 0.  1.
         12    1    4    4    0    0  0.78640200020E+01  0.27404112626E+00  0.35783559999E+02  0.36638519011E+02  0.00000000000E+00 0. -1.
</event>
<event>
 8    1  0.1229038E-006  0.9118800E+02  0.7816164E-02  0.1184000E+00
        -11   -1    0    0    0    0  0.00000000000E+00  0.00000000000E+00  0.45593999997E+02  0.45594000000E+02  0.51100000000E-03 0. -1.
         11   -1    0    0    0    0 -0.00000000000E+00 -0.00000000000E+00 -0.45593999997E+02  0.45594000000E+02  0.51100000000E-03 0.  1.
         23    2    1    2    0    0  0.00000000000E+00  0.00000000000E+00 -0.35527136788E-14  0.91188000000E+02  0.91188000000E+02 0.  0.
    9900012    2    3    3    0    0 -0.90464730885E+01 -0.29521609415E+02  0.20060324261E+02  0.54367072428E+02  0.39999973214E+02 0.  0.
        -12    1    3    3    0    0  0.90464730885E+01  0.29521609415E+02 -0.20060324261E+02  0.36820927572E+02  0.00000000000E+00 0.  1.
         11    1    4    4    0    0  0.12761481860E+01 -0.24807427635E+02 -0.34772445347E+01  0.25082429106E+02  0.51100000000E-03 0. -1.
        -11    1    4    4    0    0 -0.54808969442E+01  0.43261823364E+01  0.11674921434E+02  0.13603671405E+02  0.51100000000E-03 0.  1.
         12    1    4    4    0    0 -0.48417243303E+01 -0.90403641161E+01  0.11862647362E+02  0.15680971917E+02  0.00000000000E+00 0. -1.
</event>
<event>
 8    1  0.1229038E-006  0.9118800E+02  0.7816164E-02  0.1184000E+00
        -11   -1    0    0    0    0  0.00000000000E+00  0.00000000000E+00  0.45593999997E+02  0.45594000000E+02  0.51100000000E-03 0.  1.
         11   -1    0    0    0    0 -0.00000000000E+00 -0.00000000000E+00 -0.45593999997E+02  0.45594000000E+02  0.51100000000E-03 0. -1.
         23    2    1    2    0    0  0.00000000000E+00  0.00000000000E+00 -0.35527136788E-14  0.91188000000E+02  0.91188000000E+02 0.  0.
    9900012    2    3    3    0    0 -0.83182287961E+01  0.22132945117E+02 -0.28226158149E+02  0.54367133719E+02  0.40000112940E+02 0.  0.
        -12    1    3    3    0    0  0.83182287961E+01 -0.22132945117E+02  0.28226158149E+02  0.36820866281E+02  0.00000000000E+00 0.  1.
         11    1    4    4    0    0  0.24304751741E+01  0.62580505537E+01 -0.13847534298E+02  0.15389106949E+02  0.51100000000E-03 0. -1.
        -11    1    4    4    0    0 -0.14449301483E+02  0.16128964629E+02 -0.21771317737E+02  0.30706938786E+02  0.51100000000E-03 0.  1.
        -12    1    4    4    0    0  0.37005975124E+01 -0.25407006642E+00  0.73926938860E+01  0.82710879840E+01  0.00000000000E+00 0.  1.
</event>
<event>
 8    1  0.1229038E-006  0.9118800E+02  0.7816164E-02  0.1184000E+00
        -11   -1    0    0    0    0  0.00000000000E+00  0.00000000000E+00  0.45593999997E+02  0.45594000000E+02  0.51100000000E-03 0.  1.
         11   -1    0    0    0    0 -0.00000000000E+00 -0.00000000000E+00 -0.45593999997E+02  0.45594000000E+02  0.51100000000E-03 0. -1.
         23    2    1    2    0    0  0.00000000000E+00  0.88817841970E-15  0.00000000000E+00  0.91188000000E+02  0.91188000000E+02 0.  0.
    9900012    2    3    3    0    0 -0.29626784046E+02 -0.45104511660E+01  0.21393686219E+02  0.54367077787E+02  0.39999985430E+02 0.  0.
         12    1    3    3    0    0  0.29626784046E+02  0.45104511660E+01 -0.21393686219E+02  0.36820922213E+02  0.00000000000E+00 0. -1.
         11    1    4    4    0    0 -0.76678632068E+01 -0.32832749645E+01  0.10146116113E+02  0.13134675218E+02  0.51100000000E-03 0.  1.
        -11    1    4    4    0    0 -0.20162788300E+02  0.13574280910E+02  0.39247929055E+01  0.24621192779E+02  0.51100000000E-03 0. -1.
         12    1    4    4    0    0 -0.17961325392E+01 -0.14801457112E+02  0.73227772006E+01  0.16611209789E+02  0.00000000000E+00 0. -1.
</event>
<event>
 8    1  0.1229038E-006  0.9118800E+02  0.7816164E-02  0.1184000E+00
        -11   -1    0    0    0    0  0.00000000000E+00  0.00000000000E+00  0.45593999997E+02  0.45594000000E+02  0.51100000000E-03 0.  1.
         11   -1    0    0    0    0 -0.00000000000E+00 -0.00000000000E+00 -0.45593999997E+02  0.45594000000E+02  0.51100000000E-03 0. -1.
         23    2    1    2    0    0  0.00000000000E+00  0.00000000000E+00 -0.35527136788E-14  0.91188000000E+02  0.91188000000E+02 0.  0.
    9900012    2    3    3    0    0 -0.25881546293E+02 -0.19309993909E+02 -0.17693207597E+02  0.54367083413E+02  0.39999998256E+02 0.  0.
        -12    1    3    3    0    0  0.25881546293E+02  0.19309993909E+02  0.17693207597E+02  0.36820916587E+02  0.00000000000E+00 0.  1.
         11    1    4    4    0    0 -0.11510963757E+02 -0.28246690066E+01 -0.15501929883E+02  0.19513863584E+02  0.51100000000E-03 0. -1.
        -11    1    4    4    0    0 -0.19319262567E+02 -0.50992661334E+01 -0.75116891574E+01  0.21346238439E+02  0.51100000000E-03 0.  1.
        -12    1    4    4    0    0  0.49486800314E+01 -0.11386058769E+02  0.53204114434E+01  0.13506981390E+02  0.00000000000E+00 0.  1.
</event>
<event>
 8    1  0.1229038E-006  0.9118800E+02  0.7816164E-02  0.1184000E+00
        -11   -1    0    0    0    0  0.00000000000E+00  0.00000000000E+00  0.45593999997E+02  0.45594000000E+02  0.51100000000E-03 0. -1.
         11   -1    0    0    0    0 -0.00000000000E+00 -0.00000000000E+00 -0.45593999997E+02  0.45594000000E+02  0.51100000000E-03 0.  1.
         23    2    1    2    0    0  0.44408920985E-15  0.00000000000E+00  0.17763568394E-14  0.91188000000E+02  0.91188000000E+02 0.  0.
    9900012    2    3    3    0    0  0.31879607953E+01 -0.33957223254E+02  0.13875270568E+02  0.54367092373E+02  0.40000018682E+02 0.  0.
        -12    1    3    3    0    0 -0.31879607953E+01  0.33957223254E+02 -0.13875270568E+02  0.36820907627E+02  0.00000000000E+00 0.  1.
         11    1    4    4    0    0  0.37204919277E+01 -0.10018283595E+02 -0.56108430212E+01  0.12070195775E+02  0.51100000000E-03 0.  1.
        -11    1    4    4    0    0  0.11123555709E+02 -0.17395700579E+02  0.26772335399E+01  0.20820938258E+02  0.51100000000E-03 0. -1.
         12    1    4    4    0    0 -0.11656086842E+02 -0.65432390804E+01  0.16808880049E+02  0.21475958340E+02  0.00000000000E+00 0. -1.
</event>
<event>
 8    1  0.1229038E-006  0.9118800E+02  0.7816164E-02  0.1184000E+00
        -11   -1    0    0    0    0  0.00000000000E+00  0.00000000000E+00  0.45593999997E+02  0.45594000000E+02  0.51100000000E-03 0.  1.
         11   -1    0    0    0    0 -0.00000000000E+00 -0.00000000000E+00 -0.45593999997E+02  0.45594000000E+02  0.51100000000E-03 0. -1.
         23    2    1    2    0    0  0.00000000000E+00  0.17763568394E-14  0.35527136788E-14  0.91188000000E+02  0.91188000000E+02 0.  0.
    9900012    2    3    3    0    0  0.11073737411E+02 -0.15547788058E+02  0.31486786068E+02  0.54367094652E+02  0.40000023877E+02 0.  0.
         12    1    3    3    0    0 -0.11073737411E+02  0.15547788058E+02 -0.31486786068E+02  0.36820905348E+02  0.00000000000E+00 0. -1.
         11    1    4    4    0    0  0.13973064055E+02 -0.23260298668E+02  0.12290164968E+02  0.29788188405E+02  0.51100000000E-03 0. -1.
        -11    1    4    4    0    0 -0.32043030199E+01  0.21780495980E+01 -0.68898761158E+00  0.39352461276E+01  0.51100000000E-03 0.  1.
        -12    1    4    4    0    0  0.30497637650E+00  0.55344610125E+01  0.19885608712E+02  0.20643660119E+02  0.00000000000E+00 0.  1.
</event>
<event>
 8    1  0.1229038E-006  0.9118800E+02  0.7816164E-02  0.1184000E+00
        -11   -1    0    0    0    0  0.00000000000E+00  0.00000000000E+00  0.45593999997E+02  0.45594000000E+02  0.51100000000E-03 0. -1.
         11   -1    0    0    0    0 -0.00000000000E+00 -0.00000000000E+00 -0.45593999997E+02  0.45594000000E+02  0.51100000000E-03 0.  1.
         23    2    1    2    0    0  0.00000000000E+00  0.00000000000E+00  0.44408920985E-15  0.91188000000E+02  0.91188000000E+02 0.  0.
    9900012    2    3    3    0    0 -0.31534743395E+02  0.18969555098E+02  0.12229170509E+01  0.54367087631E+02  0.40000007872E+02 0.  0.
         12    1    3    3    0    0  0.31534743395E+02 -0.18969555098E+02 -0.12229170509E+01  0.36820912369E+02  0.00000000000E+00 0. -1.
         11    1    4    4    0    0  0.66539167566E+01 -0.28844743495E+01  0.18878987034E+01  0.74939283592E+01  0.51100000000E-03 0. -1.
        -11    1    4    4    0    0 -0.10382366028E+02  0.80202422197E+01 -0.74445273785E+01  0.15084389207E+02  0.51100000000E-03 0.  1.
        -12    1    4    4    0    0 -0.27806294124E+02  0.13833787228E+02  0.67795457260E+01  0.31788770064E+02  0.00000000000E+00 0.  1.
</event>
<event>
 8    1  0.1229038E-006  0.9118800E+02  0.7816164E-02  0.1184000E+00
        -11   -1    0    0    0    0  0.00000000000E+00  0.00000000000E+00  0.45593999997E+02  0.45594000000E+02  0.51100000000E-03 0.  1.
         11   -1    0    0    0    0 -0.00000000000E+00 -0.00000000000E+00 -0.45593999997E+02  0.45594000000E+02  0.51100000000E-03 0. -1.
         23    2    1    2    0    0  0.00000000000E+00  0.00000000000E+00  0.88817841970E-15  0.91188000000E+02  0.91188000000E+02 0.  0.
    9900012    2    3    3    0    0  0.13462199346E+02 -0.33473120990E+02  0.73551943631E+01  0.54367088494E+02  0.40000009840E+02 0.  0.
         12    1    3    3    0    0 -0.13462199346E+02  0.33473120990E+02 -0.73551943631E+01  0.36820911506E+02  0.00000000000E+00 0. -1.
         11    1    4    4    0    0  0.38683836033E+01 -0.16710020712E+02 -0.14709770878E+02  0.22595719582E+02  0.51100000000E-03 0. -1.
        -11    1    4    4    0    0  0.99263847635E+01 -0.55491972983E+01  0.86781224429E+01  0.14305121968E+02  0.51100000000E-03 0.  1.
         12    1    4    4    0    0 -0.33256902079E+00 -0.11213902979E+02  0.13386842798E+02  0.17466246943E+02  0.00000000000E+00 0. -1.
</event>
<event>
 8    1  0.1229038E-006  0.9118800E+02  0.7816164E-02  0.1184000E+00
        -11   -1    0    0    0    0  0.00000000000E+00  0.00000000000E+00  0.45593999997E+02  0.45594000000E+02  0.51100000000E-03 0. -1.
         11   -1    0    0    0    0 -0.00000000000E+00 -0.00000000000E+00 -0.45593999997E+02  0.45594000000E+02  0.51100000000E-03 0.  1.
         23    2    1    2    0    0  0.00000000000E+00  0.17763568394E-14  0.00000000000E+00  0.91188000000E+02  0.91188000000E+02 0.  0.
    9900012    2    3    3    0    0  0.35734145547E+02 -0.77307316185E+01 -0.43689201666E+01  0.54367070724E+02  0.39999969330E+02 0.  0.
         12    1    3    3    0    0 -0.35734145547E+02  0.77307316185E+01  0.43689201666E+01  0.36820929276E+02  0.00000000000E+00 0. -1.
         11    1    4    4    0    0  0.84397080816E+01  0.41654797076E+01 -0.40521225916E+01  0.10246930831E+02  0.51100000000E-03 0. -1.
        -11    1    4    4    0    0  0.21726481719E+02 -0.21257639318E+02 -0.71975288306E+01  0.31236703712E+02  0.51100000000E-03 0.  1.
         12    1    4    4    0    0  0.55679557457E+01  0.93614279916E+01  0.68807312556E+01  0.12883436181E+02  0.00000000000E+00 0. -1.
</event>
<event>
 8    1  0.1229038E-006  0.9118800E+02  0.7816164E-02  0.1184000E+00
        -11   -1    0    0    0    0  0.00000000000E+00  0.00000000000E+00  0.45593999997E+02  0.45594000000E+02  0.51100000000E-03 0. -1.
         11   -1    0    0    0    0 -0.00000000000E+00 -0.00000000000E+00 -0.45593999997E+02  0.45594000000E+02  0.51100000000E-03 0.  1.
         23    2    1    2    0    0 -0.88817841970E-15 -0.17763568394E-14  0.00000000000E+00  0.91188000000E+02  0.91188000000E+02 0.  0.
    9900012    2    3    3    0    0  0.51376179137E+01  0.69463948822E+01 -0.35792908562E+02  0.54367084436E+02  0.40000000589E+02 0.  0.
         12    1    3    3    0    0 -0.51376179137E+01 -0.69463948822E+01  0.35792908562E+02  0.36820915564E+02  0.00000000000E+00 0. -1.
         11    1    4    4    0    0  0.45309373516E+01 -0.30399766035E+01  0.49079461736E+01  0.73388546067E+01  0.51100000000E-03 0. -1.
        -11    1    4    4    0    0  0.38902943423E+00  0.16712454712E+02 -0.26844108516E+02  0.31623782960E+02  0.51100000000E-03 0.  1.
        -12    1    4    4    0    0  0.21765112783E+00 -0.67260832262E+01 -0.13856746219E+02  0.15404446870E+02  0.00000000000E+00 0.  1.
</event>
<event>
 8    1  0.1229038E-006  0.9118800E+02  0.7816164E-02  0.1184000E+00
        -11   -1    0    0    0    0  0.00000000000E+00  0.00000000000E+00  0.45593999997E+02  0.45594000000E+02  0.51100000000E-03 0. -1.
         11   -1    0    0    0    0 -0.00000000000E+00 -0.00000000000E+00 -0.45593999997E+02  0.45594000000E+02  0.51100000000E-03 0.  1.
         23    2    1    2    0    0 -0.17763568394E-14  0.00000000000E+00  0.00000000000E+00  0.91188000000E+02  0.91188000000E+02 0.  0.
    9900012    2    3    3    0    0  0.11295821109E+02  0.93776342679E+01 -0.33767581813E+02  0.54367011685E+02  0.39999834738E+02 0.  0.
         12    1    3    3    0    0 -0.11295821109E+02 -0.93776342679E+01  0.33767581813E+02  0.36820988315E+02  0.00000000000E+00 0. -1.
         11    1    4    4    0    0  0.19296409053E+01 -0.53698356787E+01 -0.24273856168E+02  0.24935491629E+02  0.51100000000E-03 0.  1.
        -11    1    4    4    0    0  0.45463882087E+01  0.19942633156E+02 -0.89419474316E+01  0.22323455984E+02  0.51100000000E-03 0. -1.
         12    1    4    4    0    0  0.48197919950E+01 -0.51951632098E+01 -0.55177821344E+00  0.71080640718E+01  0.00000000000E+00 0. -1.
</event>
<event>
 8    1  0.1229038E-006  0.9118800E+02  0.7816164E-02  0.1184000E+00
        -11   -1    0    0    0    0  0.00000000000E+00  0.00000000000E+00  0.45593999997E+02  0.45594000000E+02  0.51100000000E-03 0.  1.
         11   -1    0    0    0    0 -0.00000000000E+00 -0.00000000000E+00 -0.45593999997E+02  0.45594000000E+02  0.51100000000E-03 0. -1.
         23    2    1    2    0    0  0.00000000000E+00 -0.35527136788E-14  0.00000000000E+00  0.91188000000E+02  0.91188000000E+02 0.  0.
    9900012    2    3    3    0    0 -0.33151632969E+01  0.23611093512E+02 -0.28058953710E+02  0.54367096592E+02  0.40000028300E+02 0.  0.
        -12    1    3    3    0    0  0.33151632969E+01 -0.23611093512E+02  0.28058953710E+02  0.36820903408E+02  0.00000000000E+00 0.  1.
         11    1    4    4    0    0 -0.65006987412E+01  0.99819777991E+01 -0.15401972204E+02  0.19470996712E+02  0.51100000000E-03 0. -1.
        -11    1    4    4    0    0 -0.11723372869E+02  0.13856987495E+01 -0.99029381306E+01  0.15408627983E+02  0.51100000000E-03 0.  1.
        -12    1    4    4    0    0  0.14908908313E+02  0.12243416963E+02 -0.27540433751E+01  0.19487471897E+02  0.00000000000E+00 0.  1.
</event>
<event>
 8    1  0.1229038E-006  0.9118800E+02  0.7816164E-02  0.1184000E+00
        -11   -1    0    0    0    0  0.00000000000E+00  0.00000000000E+00  0.45593999997E+02  0.45594000000E+02  0.51100000000E-03 0.  1.
         11   -1    0    0    0    0 -0.00000000000E+00 -0.00000000000E+00 -0.45593999997E+02  0.45594000000E+02  0.51100000000E-03 0. -1.
         23    2    1    2    0    0  0.00000000000E+00  0.00000000000E+00  0.00000000000E+00  0.91188000000E+02  0.91188000000E+02 0.  0.
    9900012    2    3    3    0    0 -0.16349448288E+02  0.15925311864E+02  0.28893926984E+02  0.54367095152E+02  0.40000025018E+02 0.  0.
         12    1    3    3    0    0  0.16349448288E+02 -0.15925311864E+02 -0.28893926984E+02  0.36820904848E+02  0.00000000000E+00 0. -1.
         11    1    4    4    0    0 -0.13810228624E+02  0.51764402795E+01  0.50303396548E+01  0.15582755402E+02  0.51100000000E-03 0. -1.
        -11    1    4    4    0    0 -0.10616664163E+02  0.16406906819E+01  0.24335628003E+02  0.26601282195E+02  0.51100000000E-03 0.  1.
         12    1    4    4    0    0  0.80774444988E+01  0.91081809025E+01 -0.47204067421E+00  0.12183057555E+02  0.00000000000E+00 0. -1.
</event>
<event>
 8    1  0.1229038E-006  0.9118800E+02  0.7816164E-02  0.1184000E+00
        -11   -1    0    0    0    0  0.00000000000E+00  0.00000000000E+00  0.45593999997E+02  0.45594000000E+02  0.51100000000E-03 0. -1.
         11   -1    0    0    0    0 -0.00000000000E+00 -0.00000000000E+00 -0.45593999997E+02  0.45594000000E+02  0.51100000000E-03 0.  1.
         23    2    1    2    0    0 -0.88817841970E-15 -0.26645352591E-14  0.00000000000E+00  0.91188000000E+02  0.91188000000E+02 0.  0.
    9900012    2    3    3    0    0 -0.45104136241E+01 -0.57537764354E+01  0.36087789696E+02  0.54367104581E+02  0.40000046513E+02 0.  0.
        -12    1    3    3    0    0  0.45104136241E+01  0.57537764354E+01 -0.36087789696E+02  0.36820895419E+02  0.00000000000E+00 0.  1.
         11    1    4    4    0    0 -0.64587262327E+01  0.10875755509E+02  0.67868780526E+01  0.14354752398E+02  0.51100000000E-03 0.  1.
        -11    1    4    4    0    0 -0.38870882263E+01 -0.16022886390E+02  0.29869644037E+02  0.34118000796E+02  0.51100000000E-03 0. -1.
         12    1    4    4    0    0  0.58354008349E+01 -0.60664555457E+00 -0.56873239385E+00  0.58943513866E+01  0.00000000000E+00 0. -1.
</event>
<event>
 8    1  0.1229038E-006  0.9118800E+02  0.7816164E-02  0.1184000E+00
        -11   -1    0    0    0    0  0.00000000000E+00  0.00000000000E+00  0.45593999997E+02  0.45594000000E+02  0.51100000000E-03 0.  1.
         11   -1    0    0    0    0 -0.00000000000E+00 -0.00000000000E+00 -0.45593999997E+02  0.45594000000E+02  0.51100000000E-03 0. -1.
         23    2    1    2    0    0 -0.17763568394E-14 -0.35527136788E-14  0.00000000000E+00  0.91188000000E+02  0.91188000000E+02 0.  0.
    9900012    2    3    3    0    0 -0.98661610766E+01 -0.27743057607E+02 -0.22107956657E+02  0.54367080303E+02  0.39999991167E+02 0.  0.
        -12    1    3    3    0    0  0.98661610766E+01  0.27743057607E+02  0.22107956657E+02  0.36820919697E+02  0.00000000000E+00 0.  1.
         11    1    4    4    0    0  0.32864536820E+00 -0.22852339544E+02 -0.15491120248E+02  0.27610002485E+02  0.51100000000E-03 0. -1.
        -11    1    4    4    0    0 -0.89781545270E+01 -0.11081373741E+02 -0.11863720066E+02  0.18551333018E+02  0.51100000000E-03 0.  1.
        -12    1    4    4    0    0 -0.12166519178E+01  0.61906556778E+01  0.52468836571E+01  0.82057448000E+01  0.00000000000E+00 0.  1.
</event>
<event>
 8    1  0.1229038E-006  0.9118800E+02  0.7816164E-02  0.1184000E+00
        -11   -1    0    0    0    0  0.00000000000E+00  0.00000000000E+00  0.45593999997E+02  0.45594000000E+02  0.51100000000E-03 0.  1.
         11   -1    0    0    0    0 -0.00000000000E+00 -0.00000000000E+00 -0.45593999997E+02  0.45594000000E+02  0.51100000000E-03 0. -1.
         23    2    1    2    0    0  0.35527136788E-14  0.00000000000E+00  0.35527136788E-14  0.91188000000E+02  0.91188000000E+02 0.  0.
    9900012    2    3    3    0    0 -0.26190179456E+02  0.11945934719E+02 -0.22959694630E+02  0.54367103301E+02  0.40000043595E+02 0.  0.
        -12    1    3    3    0    0  0.26190179456E+02 -0.11945934719E+02  0.22959694630E+02  0.36820896699E+02  0.00000000000E+00 0.  1.
         11    1    4    4    0    0 -0.44703809993E+01 -0.69788018213E+01 -0.86193835318E+01  0.11957497810E+02  0.51100000000E-03 0. -1.
        -11    1    4    4    0    0 -0.26474339052E+02  0.18505449171E+02 -0.60779148117E+01  0.32867663835E+02  0.51100000000E-03 0.  1.
        -12    1    4    4    0    0  0.47545405953E+01  0.41928736916E+00 -0.82623962867E+01  0.95419416561E+01  0.00000000000E+00 0.  1.
</event>
<event>
 8    1  0.1229038E-006  0.9118800E+02  0.7816164E-02  0.1184000E+00
        -11   -1    0    0    0    0  0.00000000000E+00  0.00000000000E+00  0.45593999997E+02  0.45594000000E+02  0.51100000000E-03 0. -1.
         11   -1    0    0    0    0 -0.00000000000E+00 -0.00000000000E+00 -0.45593999997E+02  0.45594000000E+02  0.51100000000E-03 0.  1.
         23    2    1    2    0    0  0.00000000000E+00  0.00000000000E+00  0.00000000000E+00  0.91188000000E+02  0.91188000000E+02 0.  0.
    9900012    2    3    3    0    0  0.50879384906E+01 -0.25217266197E+02 -0.26343545151E+02  0.54367081982E+02  0.39999994995E+02 0.  0.
         12    1    3    3    0    0 -0.50879384906E+01  0.25217266197E+02  0.26343545151E+02  0.36820918018E+02  0.00000000000E+00 0. -1.
         11    1    4    4    0    0 -0.34619852761E+01  0.35356328943E+01 -0.11293199279E+00  0.49496258354E+01  0.51100000000E-03 0. -1.
        -11    1    4    4    0    0 -0.50208946742E+01 -0.24238243108E+02 -0.24807994866E+02  0.35044805918E+02  0.51100000000E-03 0.  1.
        -12    1    4    4    0    0  0.13570818441E+02 -0.45146559840E+01 -0.14226182921E+01  0.14372650229E+02  0.00000000000E+00 0.  1.
</event>
<event>
 8    1  0.1229038E-006  0.9118800E+02  0.7816164E-02  0.1184000E+00
        -11   -1    0    0    0    0  0.00000000000E+00  0.00000000000E+00  0.45593999997E+02  0.45594000000E+02  0.51100000000E-03 0. -1.
         11   -1    0    0    0    0 -0.00000000000E+00 -0.00000000000E+00 -0.45593999997E+02  0.45594000000E+02  0.51100000000E-03 0.  1.
         23    2    1    2    0    0  0.35527136788E-14  0.00000000000E+00  0.00000000000E+00  0.91188000000E+02  0.91188000000E+02 0.  0.
    9900012    2    3    3    0    0  0.16110633088E+02 -0.22662129290E+02 -0.24138264763E+02  0.54367076217E+02  0.39999981852E+02 0.  0.
         12    1    3    3    0    0 -0.16110633088E+02  0.22662129290E+02  0.24138264763E+02  0.36820923783E+02  0.00000000000E+00 0. -1.
         11    1    4    4    0    0 -0.13215130294E+01 -0.96874005649E+01 -0.11350620027E+02  0.14980944618E+02  0.51100000000E-03 0. -1.
        -11    1    4    4    0    0  0.11203570368E+02 -0.20279153115E+01 -0.21322517693E+02  0.24171929806E+02  0.51100000000E-03 0.  1.
         12    1    4    4    0    0  0.62285757486E+01 -0.10946813414E+02  0.85348729579E+01  0.15214201793E+02  0.00000000000E+00 0. -1.
</event>
<event>
 8    1  0.1229038E-006  0.9118800E+02  0.7816164E-02  0.1184000E+00
        -11   -1    0    0    0    0  0.00000000000E+00  0.00000000000E+00  0.45593999997E+02  0.45594000000E+02  0.51100000000E-03 0. -1.
         11   -1    0    0    0    0 -0.00000000000E+00 -0.00000000000E+00 -0.45593999997E+02  0.45594000000E+02  0.51100000000E-03 0.  1.
         23    2    1    2    0    0 -0.17763568394E-14  0.00000000000E+00  0.71054273576E-14  0.91188000000E+02  0.91188000000E+02 0.  0.
    9900012    2    3    3    0    0  0.13009799033E+02 -0.12449196788E+02 -0.32117635357E+02  0.54367083764E+02  0.39999999057E+02 0.  0.
         12    1    3    3    0    0 -0.13009799033E+02  0.12449196788E+02  0.32117635357E+02  0.36820916236E+02  0.00000000000E+00 0. -1.
         11    1    4    4    0    0  0.48098719125E+01 -0.46673764229E+01  0.57115168209E+01  0.88057194564E+01  0.51100000000E-03 0. -1.
        -11    1    4    4    0    0  0.31119241431E+01 -0.52356737530E+01 -0.39231577297E+02  0.39701549202E+02  0.51100000000E-03 0.  1.
        -12    1    4    4    0    0  0.50880029771E+01 -0.25461466116E+01  0.14024251190E+01  0.58598151060E+01  0.00000000000E+00 0.  1.
</event>
<event>
 8    1  0.1229038E-006  0.9118800E+02  0.7816164E-02  0.1184000E+00
        -11   -1    0    0    0    0  0.00000000000E+00  0.00000000000E+00  0.45593999997E+02  0.45594000000E+02  0.51100000000E-03 0. -1.
         11   -1    0    0    0    0 -0.00000000000E+00 -0.00000000000E+00 -0.45593999997E+02  0.45594000000E+02  0.51100000000E-03 0.  1.
         23    2    1    2    0    0  0.00000000000E+00  0.88817841970E-15  0.10658141036E-13  0.91188000000E+02  0.91188000000E+02 0.  0.
    9900012    2    3    3    0    0  0.19482528094E+02  0.46424115985E+01 -0.30897554960E+02  0.54367084899E+02  0.40000001644E+02 0.  0.
         12    1    3    3    0    0 -0.19482528094E+02 -0.46424115985E+01  0.30897554960E+02  0.36820915101E+02  0.00000000000E+00 0. -1.
         11    1    4    4    0    0  0.11690600624E+02  0.66031198034E+01 -0.14056778966E+01  0.13499898692E+02  0.51100000000E-03 0.  1.
        -11    1    4    4    0    0 -0.12760585466E-02 -0.53479214290E+01  0.37660202463E+01  0.65408848022E+01  0.51100000000E-03 0. -1.
        -12    1    4    4    0    0  0.77932035286E+01  0.33872132241E+01 -0.33257897309E+02  0.34326301404E+02  0.00000000000E+00 0.  1.
</event>
<event>
 8    1  0.1229038E-006  0.9118800E+02  0.7816164E-02  0.1184000E+00
        -11   -1    0    0    0    0  0.00000000000E+00  0.00000000000E+00  0.45593999997E+02  0.45594000000E+02  0.51100000000E-03 0. -1.
         11   -1    0    0    0    0 -0.00000000000E+00 -0.00000000000E+00 -0.45593999997E+02  0.45594000000E+02  0.51100000000E-03 0.  1.
         23    2    1    2    0    0 -0.88817841970E-15 -0.35527136788E-14  0.00000000000E+00  0.91188000000E+02  0.91188000000E+02 0.  0.
    9900012    2    3    3    0    0  0.27678910208E+01 -0.20601450008E+02  0.30392422396E+02  0.54367077928E+02  0.39999985752E+02 0.  0.
        -12    1    3    3    0    0 -0.27678910208E+01  0.20601450008E+02 -0.30392422396E+02  0.36820922072E+02  0.00000000000E+00 0.  1.
         11    1    4    4    0    0 -0.13737680719E+01 -0.93823319000E+00  0.26813015887E+02  0.26864574098E+02  0.51100000000E-03 0. -1.
        -11    1    4    4    0    0  0.96080768582E+01 -0.70290641725E+01  0.63018945541E+01  0.13469846298E+02  0.51100000000E-03 0.  1.
         12    1    4    4    0    0 -0.54664177654E+01 -0.12634152645E+02 -0.27224880455E+01  0.14032657532E+02  0.00000000000E+00 0. -1.
</event>
<event>
 8    1  0.1229038E-006  0.9118800E+02  0.7816164E-02  0.1184000E+00
        -11   -1    0    0    0    0  0.00000000000E+00  0.00000000000E+00  0.45593999997E+02  0.45594000000E+02  0.51100000000E-03 0.  1.
         11   -1    0    0    0    0 -0.00000000000E+00 -0.00000000000E+00 -0.45593999997E+02  0.45594000000E+02  0.51100000000E-03 0. -1.
         23    2    1    2    0    0  0.00000000000E+00  0.00000000000E+00  0.00000000000E+00  0.91188000000E+02  0.91188000000E+02 0.  0.
    9900012    2    3    3    0    0  0.19651852236E+02  0.20980286352E+02 -0.23008943541E+02  0.54367092969E+02  0.40000020042E+02 0.  0.
        -12    1    3    3    0    0 -0.19651852236E+02 -0.20980286352E+02  0.23008943541E+02  0.36820907031E+02  0.00000000000E+00 0.  1.
         11    1    4    4    0    0 -0.93894916182E+01  0.73647427910E+01 -0.16712135585E+02  0.20535273684E+02  0.51100000000E-03 0. -1.
        -11    1    4    4    0    0  0.19010410096E+02  0.53471531210E+01 -0.66205450245E+01  0.20828330591E+02  0.51100000000E-03 0.  1.
         12    1    4    4    0    0  0.10030933758E+02  0.82683904398E+01  0.32373706881E+00  0.13003488694E+02  0.00000000000E+00 0. -1.
</event>
<event>
 8    1  0.1229038E-006  0.9118800E+02  0.7816164E-02  0.1184000E+00
        -11   -1    0    0    0    0  0.00000000000E+00  0.00000000000E+00  0.45593999997E+02  0.45594000000E+02  0.51100000000E-03 0.  1.
         11   -1    0    0    0    0 -0.00000000000E+00 -0.00000000000E+00 -0.45593999997E+02  0.45594000000E+02  0.51100000000E-03 0. -1.
         23    2    1    2    0    0  0.17763568394E-14  0.71054273576E-14  0.35527136788E-14  0.91188000000E+02  0.91188000000E+02 0.  0.
    9900012    2    3    3    0    0  0.14725352739E+02  0.31523653970E+02  0.12050073659E+02  0.54367067800E+02  0.39999962663E+02 0.  0.
         12    1    3    3    0    0 -0.14725352739E+02 -0.31523653970E+02 -0.12050073659E+02  0.36820932200E+02  0.00000000000E+00 0. -1.
         11    1    4    4    0    0 -0.18353339518E+01 -0.32902499097E+00  0.33342025727E+01  0.38201590564E+01  0.51100000000E-03 0. -1.
        -11    1    4    4    0    0  0.20524839185E+02  0.30912275029E+01  0.35780011485E+01  0.21062450084E+02  0.51100000000E-03 0.  1.
         12    1    4    4    0    0 -0.39641524938E+01  0.28761451458E+02  0.51378699381E+01  0.29484458660E+02  0.00000000000E+00 0. -1.
</event>
<event>
 8    1  0.1229038E-006  0.9118800E+02  0.7816164E-02  0.1184000E+00
        -11   -1    0    0    0    0  0.00000000000E+00  0.00000000000E+00  0.45593999997E+02  0.45594000000E+02  0.51100000000E-03 0.  1.
         11   -1    0    0    0    0 -0.00000000000E+00 -0.00000000000E+00 -0.45593999997E+02  0.45594000000E+02  0.51100000000E-03 0. -1.
         23    2    1    2    0    0 -0.35527136788E-14  0.00000000000E+00 -0.17763568394E-14  0.91188000000E+02  0.91188000000E+02 0.  0.
    9900012    2    3    3    0    0 -0.24925775113E+02 -0.25978610044E+02 -0.77199374634E+01  0.54367083672E+02  0.39999998847E+02 0.  0.
        -12    1    3    3    0    0  0.24925775113E+02  0.25978610044E+02  0.77199374634E+01  0.36820916328E+02  0.00000000000E+00 0.  1.
         11    1    4    4    0    0 -0.30036934384E+01  0.74510316037E+01 -0.55966656742E-01  0.80338769445E+01  0.51100000000E-03 0. -1.
        -11    1    4    4    0    0 -0.14856792383E+02 -0.11814040975E+02 -0.12959781831E+02  0.22983728797E+02  0.51100000000E-03 0.  1.
        -12    1    4    4    0    0 -0.70652892912E+01 -0.21615600673E+02  0.52958110239E+01  0.23349477930E+02  0.00000000000E+00 0.  1.
</event>
<event>
 8    1  0.1229038E-006  0.9118800E+02  0.7816164E-02  0.1184000E+00
        -11   -1    0    0    0    0  0.00000000000E+00  0.00000000000E+00  0.45593999997E+02  0.45594000000E+02  0.51100000000E-03 0. -1.
         11   -1    0    0    0    0 -0.00000000000E+00 -0.00000000000E+00 -0.45593999997E+02  0.45594000000E+02  0.51100000000E-03 0.  1.
         23    2    1    2    0    0  0.71054273576E-14 -0.35527136788E-14 -0.35527136788E-14  0.91188000000E+02  0.91188000000E+02 0.  0.
    9900012    2    3    3    0    0 -0.29073461269E+02  0.17774841578E+02  0.13948701144E+02  0.54367117245E+02  0.40000075382E+02 0.  0.
        -12    1    3    3    0    0  0.29073461269E+02 -0.17774841578E+02 -0.13948701144E+02  0.36820882755E+02  0.00000000000E+00 0.  1.
         11    1    4    4    0    0 -0.64370915380E+00 -0.16907994780E+01 -0.25865238815E+01  0.31564648581E+01  0.51100000000E-03 0. -1.
        -11    1    4    4    0    0 -0.44154533502E+00  0.76261711196E+01 -0.87947279857E+01  0.11649063861E+02  0.51100000000E-03 0.  1.
         12    1    4    4    0    0 -0.27988206780E+02  0.11839469937E+02  0.25329953011E+02  0.39561588526E+02  0.00000000000E+00 0. -1.
</event>
<event>
 8    1  0.1229038E-006  0.9118800E+02  0.7816164E-02  0.1184000E+00
        -11   -1    0    0    0    0  0.00000000000E+00  0.00000000000E+00  0.45593999997E+02  0.45594000000E+02  0.51100000000E-03 0.  1.
         11   -1    0    0    0    0 -0.00000000000E+00 -0.00000000000E+00 -0.45593999997E+02  0.45594000000E+02  0.51100000000E-03 0. -1.
         23    2    1    2    0    0 -0.35527136788E-14 -0.71054273576E-14  0.00000000000E+00  0.91188000000E+02  0.91188000000E+02 0.  0.
    9900012    2    3    3    0    0  0.18142821941E+02  0.31294769862E+02 -0.68741615220E+01  0.54367099613E+02  0.40000035187E+02 0.  0.
         12    1    3    3    0    0 -0.18142821941E+02 -0.31294769862E+02  0.68741615220E+01  0.36820900387E+02  0.00000000000E+00 0. -1.
         11    1    4    4    0    0  0.33039696588E+01  0.31034529393E+01 -0.17740295598E+02  0.18310262801E+02  0.51100000000E-03 0. -1.
        -11    1    4    4    0    0  0.10816071586E+02  0.76571931344E+01  0.61390677502E+01  0.14605073240E+02  0.51100000000E-03 0.  1.
         12    1    4    4    0    0  0.40227806960E+01  0.20534123789E+02  0.47270663260E+01  0.21451763572E+02  0.00000000000E+00 0. -1.
</event>
<event>
 8    1  0.1229038E-006  0.9118800E+02  0.7816164E-02  0.1184000E+00
        -11   -1    0    0    0    0  0.00000000000E+00  0.00000000000E+00  0.45593999997E+02  0.45594000000E+02  0.51100000000E-03 0.  1.
         11   -1    0    0    0    0 -0.00000000000E+00 -0.00000000000E+00 -0.45593999997E+02  0.45594000000E+02  0.51100000000E-03 0. -1.
         23    2    1    2    0    0 -0.11102230246E-14  0.00000000000E+00  0.35527136788E-14  0.91188000000E+02  0.91188000000E+02 0.  0.
    9900012    2    3    3    0    0 -0.17072768782E+01  0.24107747184E+02 -0.27779159841E+02  0.54367082167E+02  0.39999995416E+02 0.  0.
        -12    1    3    3    0    0  0.17072768782E+01 -0.24107747184E+02  0.27779159841E+02  0.36820917833E+02  0.00000000000E+00 0.  1.
         11    1    4    4    0    0  0.56938815455E+01  0.17005280700E+02 -0.21012508563E+01  0.18055888628E+02  0.51100000000E-03 0. -1.
        -11    1    4    4    0    0  0.44816520555E+01 -0.60430588830E+01 -0.47880874273E+01  0.89179340254E+01  0.51100000000E-03 0.  1.
        -12    1    4    4    0    0 -0.11882810479E+02  0.13145525367E+02 -0.20889821557E+02  0.27393259513E+02  0.00000000000E+00 0.  1.
</event>
<event>
 8    1  0.1229038E-006  0.9118800E+02  0.7816164E-02  0.1184000E+00
        -11   -1    0    0    0    0  0.00000000000E+00  0.00000000000E+00  0.45593999997E+02  0.45594000000E+02  0.51100000000E-03 0.  1.
         11   -1    0    0    0    0 -0.00000000000E+00 -0.00000000000E+00 -0.45593999997E+02  0.45594000000E+02  0.51100000000E-03 0. -1.
         23    2    1    2    0    0  0.00000000000E+00  0.00000000000E+00  0.17763568394E-14  0.91188000000E+02  0.91188000000E+02 0.  0.
    9900012    2    3    3    0    0 -0.28372102954E+02 -0.22554607725E+02 -0.64879579083E+01  0.54367079948E+02  0.39999990358E+02 0.  0.
        -12    1    3    3    0    0  0.28372102954E+02  0.22554607725E+02  0.64879579083E+01  0.36820920052E+02  0.00000000000E+00 0.  1.
         11    1    4    4    0    0 -0.11946487632E+02 -0.16739277810E+02  0.47184579166E+01  0.21099427332E+02  0.51100000000E-03 0. -1.
        -11    1    4    4    0    0 -0.22523950252E+02 -0.91765191561E+01 -0.93912085711E+01  0.26071663496E+02  0.51100000000E-03 0.  1.
        -12    1    4    4    0    0  0.60983349305E+01  0.33611892416E+01 -0.18152072538E+01  0.71959891201E+01  0.00000000000E+00 0.  1.
</event>
<event>
 8    1  0.1229038E-006  0.9118800E+02  0.7816164E-02  0.1184000E+00
        -11   -1    0    0    0    0  0.00000000000E+00  0.00000000000E+00  0.45593999997E+02  0.45594000000E+02  0.51100000000E-03 0.  1.
         11   -1    0    0    0    0 -0.00000000000E+00 -0.00000000000E+00 -0.45593999997E+02  0.45594000000E+02  0.51100000000E-03 0. -1.
         23    2    1    2    0    0  0.00000000000E+00 -0.35527136788E-14  0.17763568394E-14  0.91188000000E+02  0.91188000000E+02 0.  0.
    9900012    2    3    3    0    0 -0.23042382528E+02  0.25868716279E+02  0.12475480625E+02  0.54367088940E+02  0.40000010856E+02 0.  0.
         12    1    3    3    0    0  0.23042382528E+02 -0.25868716279E+02 -0.12475480625E+02  0.36820911060E+02  0.00000000000E+00 0. -1.
         11    1    4    4    0    0 -0.13766692899E+02  0.21219898403E+02  0.17183278437E+02  0.30578930323E+02  0.51100000000E-03 0. -1.
        -11    1    4    4    0    0 -0.12416126459E+02  0.92414193488E+01 -0.78961782931E+01  0.17375662857E+02  0.51100000000E-03 0.  1.
         12    1    4    4    0    0  0.31404368293E+01 -0.45926014734E+01  0.31883804819E+01  0.64124957598E+01  0.00000000000E+00 0. -1.
</event>
<event>
 8    1  0.1229038E-006  0.9118800E+02  0.7816164E-02  0.1184000E+00
        -11   -1    0    0    0    0  0.00000000000E+00  0.00000000000E+00  0.45593999997E+02  0.45594000000E+02  0.51100000000E-03 0.  1.
         11   -1    0    0    0    0 -0.00000000000E+00 -0.00000000000E+00 -0.45593999997E+02  0.45594000000E+02  0.51100000000E-03 0. -1.
         23    2    1    2    0    0  0.00000000000E+00  0.35527136788E-14  0.17763568394E-14  0.91188000000E+02  0.91188000000E+02 0.  0.
    9900012    2    3    3    0    0  0.34352088675E+02  0.86718721595E+01 -0.10025581833E+02  0.54367086729E+02  0.40000005815E+02 0.  0.
         12    1    3    3    0    0 -0.34352088675E+02 -0.86718721595E+01  0.10025581833E+02  0.36820913271E+02  0.00000000000E+00 0. -1.
         11    1    4    4    0    0 -0.37587793287E+01  0.18458332918E+01  0.13080398160E+01  0.43870822883E+01  0.51100000000E-03 0. -1.
        -11    1    4    4    0    0  0.30599577728E+02 -0.78942864171E+01 -0.38383078862E+01  0.31833732468E+02  0.51100000000E-03 0.  1.
        -12    1    4    4    0    0  0.75112902755E+01  0.14720325285E+02 -0.74953137623E+01  0.18146271972E+02  0.00000000000E+00 0.  1.
</event>
<event>
 8    1  0.1229038E-006  0.9118800E+02  0.7816164E-02  0.1184000E+00
        -11   -1    0    0    0    0  0.00000000000E+00  0.00000000000E+00  0.45593999997E+02  0.45594000000E+02  0.51100000000E-03 0. -1.
         11   -1    0    0    0    0 -0.00000000000E+00 -0.00000000000E+00 -0.45593999997E+02  0.45594000000E+02  0.51100000000E-03 0.  1.
         23    2    1    2    0    0  0.00000000000E+00  0.71054273576E-14  0.17763568394E-14  0.91188000000E+02  0.91188000000E+02 0.  0.
    9900012    2    3    3    0    0  0.44343865741E+01 -0.34247981649E+02 -0.12774960359E+02  0.54366978240E+02  0.39999758493E+02 0.  0.
         12    1    3    3    0    0 -0.44343865741E+01  0.34247981649E+02  0.12774960359E+02  0.36821021760E+02  0.00000000000E+00 0. -1.
         11    1    4    4    0    0  0.13409661430E+01 -0.28864088766E+02 -0.13435609037E+02  0.31866116816E+02  0.51100000000E-03 0.  1.
        -11    1    4    4    0    0 -0.50731923621E+01  0.45951527108E+01 -0.49410056234E+01  0.84419337838E+01  0.51100000000E-03 0. -1.
         12    1    4    4    0    0  0.81666127932E+01 -0.99790455935E+01  0.56016543015E+01  0.14058927640E+02  0.00000000000E+00 0. -1.
</event>
<event>
 8    1  0.1229038E-006  0.9118800E+02  0.7816164E-02  0.1184000E+00
        -11   -1    0    0    0    0  0.00000000000E+00  0.00000000000E+00  0.45593999997E+02  0.45594000000E+02  0.51100000000E-03 0.  1.
         11   -1    0    0    0    0 -0.00000000000E+00 -0.00000000000E+00 -0.45593999997E+02  0.45594000000E+02  0.51100000000E-03 0. -1.
         23    2    1    2    0    0  0.88817841970E-15  0.00000000000E+00 -0.35527136788E-14  0.91188000000E+02  0.91188000000E+02 0.  0.
    9900012    2    3    3    0    0 -0.66575893580E+01  0.32126126613E+02  0.16714344166E+02  0.54367071058E+02  0.39999970091E+02 0.  0.
         12    1    3    3    0    0  0.66575893580E+01 -0.32126126613E+02 -0.16714344166E+02  0.36820928942E+02  0.00000000000E+00 0. -1.
         11    1    4    4    0    0 -0.11800813118E+02  0.58860508125E+01 -0.26974950856E+01  0.13460359000E+02  0.51100000000E-03 0. -1.
        -11    1    4    4    0    0 -0.27235240420E+01  0.27401394614E+02  0.17812658747E+02  0.32795500025E+02  0.51100000000E-03 0.  1.
        -12    1    4    4    0    0  0.78667478019E+01 -0.11613188130E+01  0.15991805050E+01  0.81112120335E+01  0.00000000000E+00 0.  1.
</event>
<event>
 8    1  0.1229038E-006  0.9118800E+02  0.7816164E-02  0.1184000E+00
        -11   -1    0    0    0    0  0.00000000000E+00  0.00000000000E+00  0.45593999997E+02  0.45594000000E+02  0.51100000000E-03 0. -1.
         11   -1    0    0    0    0 -0.00000000000E+00 -0.00000000000E+00 -0.45593999997E+02  0.45594000000E+02  0.51100000000E-03 0.  1.
         23    2    1    2    0    0 -0.35527136788E-14  0.00000000000E+00 -0.35527136788E-14  0.91188000000E+02  0.91188000000E+02 0.  0.
    9900012    2    3    3    0    0  0.24604980954E+02 -0.19304063366E+02  0.19435220485E+02  0.54367085488E+02  0.40000002988E+02 0.  0.
        -12    1    3    3    0    0 -0.24604980954E+02  0.19304063366E+02 -0.19435220485E+02  0.36820914512E+02  0.00000000000E+00 0.  1.
         11    1    4    4    0    0  0.16413661953E+02 -0.81146638919E+01  0.32710367922E+01  0.18599885772E+02  0.51100000000E-03 0. -1.
        -11    1    4    4    0    0  0.51765851808E+01 -0.38281619285E+01 -0.80337698399E+01  0.10295305531E+02  0.51100000000E-03 0.  1.
         12    1    4    4    0    0  0.30147338206E+01 -0.73612375457E+01  0.24197953532E+02  0.25471894185E+02  0.00000000000E+00 0. -1.
</event>
<event>
 8    1  0.1229038E-006  0.9118800E+02  0.7816164E-02  0.1184000E+00
        -11   -1    0    0    0    0  0.00000000000E+00  0.00000000000E+00  0.45593999997E+02  0.45594000000E+02  0.51100000000E-03 0.  1.
         11   -1    0    0    0    0 -0.00000000000E+00 -0.00000000000E+00 -0.45593999997E+02  0.45594000000E+02  0.51100000000E-03 0. -1.
         23    2    1    2    0    0 -0.35527136788E-14 -0.35527136788E-14  0.00000000000E+00  0.91188000000E+02  0.91188000000E+02 0.  0.
    9900012    2    3    3    0    0  0.28195111928E+02 -0.20655202077E+02  0.11583554779E+02  0.54367075911E+02  0.39999981153E+02 0.  0.
        -12    1    3    3    0    0 -0.28195111928E+02  0.20655202077E+02 -0.11583554779E+02  0.36820924089E+02  0.00000000000E+00 0.  1.
         11    1    4    4    0    0  0.31982087113E+02 -0.17526665474E+02  0.27690333700E+01  0.36574655772E+02  0.51100000000E-03 0. -1.
        -11    1    4    4    0    0  0.40742075089E+01  0.56510229171E+00  0.80911901789E+01  0.90766660288E+01  0.51100000000E-03 0.  1.
         12    1    4    4    0    0 -0.78611826942E+01 -0.36936388942E+01  0.72333122987E+00  0.87157541097E+01  0.00000000000E+00 0. -1.
</event>
<event>
 8    1  0.1229038E-006  0.9118800E+02  0.7816164E-02  0.1184000E+00
        -11   -1    0    0    0    0  0.00000000000E+00  0.00000000000E+00  0.45593999997E+02  0.45594000000E+02  0.51100000000E-03 0. -1.
         11   -1    0    0    0    0 -0.00000000000E+00 -0.00000000000E+00 -0.45593999997E+02  0.45594000000E+02  0.51100000000E-03 0.  1.
         23    2    1    2    0    0  0.00000000000E+00 -0.17763568394E-14 -0.33306690739E-15  0.91188000000E+02  0.91188000000E+02 0.  0.
    9900012    2    3    3    0    0 -0.34465385303E+02  0.12931244350E+02 -0.83685420253E+00  0.54367079460E+02  0.39999989244E+02 0.  0.
        -12    1    3    3    0    0  0.34465385303E+02 -0.12931244350E+02  0.83685420253E+00  0.36820920540E+02  0.00000000000E+00 0.  1.
         11    1    4    4    0    0  0.66298022703E+01  0.48345954534E+01  0.31603119848E+01  0.87929041530E+01  0.51100000000E-03 0. -1.
        -11    1    4    4    0    0 -0.12823548148E+02  0.11087079368E+02 -0.88495941743E+00  0.16974977745E+02  0.51100000000E-03 0.  1.
         12    1    4    4    0    0 -0.28271639425E+02 -0.29904304720E+01 -0.31122067699E+01  0.28599197561E+02  0.00000000000E+00 0. -1.
</event>
<event>
 8    1  0.1229038E-006  0.9118800E+02  0.7816164E-02  0.1184000E+00
        -11   -1    0    0    0    0  0.00000000000E+00  0.00000000000E+00  0.45593999997E+02  0.45594000000E+02  0.51100000000E-03 0.  1.
         11   -1    0    0    0    0 -0.00000000000E+00 -0.00000000000E+00 -0.45593999997E+02  0.45594000000E+02  0.51100000000E-03 0. -1.
         23    2    1    2    0    0  0.00000000000E+00  0.00000000000E+00  0.44408920985E-15  0.91188000000E+02  0.91188000000E+02 0.  0.
    9900012    2    3    3    0    0  0.23069310693E+02  0.28556480953E+02 -0.28485927180E+01  0.54367079577E+02  0.39999989512E+02 0.  0.
        -12    1    3    3    0    0 -0.23069310693E+02 -0.28556480953E+02  0.28485927180E+01  0.36820920423E+02  0.00000000000E+00 0.  1.
         11    1    4    4    0    0  0.72557064922E+01 -0.11750096184E+01 -0.64345311690E+01  0.97687827251E+01  0.51100000000E-03 0.  1.
        -11    1    4    4    0    0  0.22725216424E+02  0.12917379757E+02  0.40609190200E+00  0.26143050170E+02  0.51100000000E-03 0. -1.
        -12    1    4    4    0    0 -0.69116122230E+01  0.16814110815E+02  0.31798465490E+01  0.18455246682E+02  0.00000000000E+00 0.  1.
</event>
<event>
 8    1  0.1229038E-006  0.9118800E+02  0.7816164E-02  0.1184000E+00
        -11   -1    0    0    0    0  0.00000000000E+00  0.00000000000E+00  0.45593999997E+02  0.45594000000E+02  0.51100000000E-03 0.  1.
         11   -1    0    0    0    0 -0.00000000000E+00 -0.00000000000E+00 -0.45593999997E+02  0.45594000000E+02  0.51100000000E-03 0. -1.
         23    2    1    2    0    0 -0.17763568394E-14 -0.71054273576E-14 -0.88817841970E-15  0.91188000000E+02  0.91188000000E+02 0.  0.
    9900012    2    3    3    0    0  0.15612805804E+02 -0.32775836833E+02  0.61453419203E+01  0.54367076430E+02  0.39999982339E+02 0.  0.
        -12    1    3    3    0    0 -0.15612805804E+02  0.32775836833E+02 -0.61453419203E+01  0.36820923570E+02  0.00000000000E+00 0.  1.
         11    1    4    4    0    0  0.18008423126E+02 -0.56177259777E+01 -0.26886831507E+01  0.19054951220E+02  0.51100000000E-03 0. -1.
        -11    1    4    4    0    0 -0.39700957795E+01  0.23278918194E+01  0.19120380741E+01  0.49836362909E+01  0.51100000000E-03 0.  1.
         12    1    4    4    0    0  0.15744784577E+01 -0.29486002675E+02  0.69219869969E+01  0.30328488919E+02  0.00000000000E+00 0. -1.
</event>
<event>
 8    1  0.1229038E-006  0.9118800E+02  0.7816164E-02  0.1184000E+00
        -11   -1    0    0    0    0  0.00000000000E+00  0.00000000000E+00  0.45593999997E+02  0.45594000000E+02  0.51100000000E-03 0.  1.
         11   -1    0    0    0    0 -0.00000000000E+00 -0.00000000000E+00 -0.45593999997E+02  0.45594000000E+02  0.51100000000E-03 0. -1.
         23    2    1    2    0    0 -0.14210854715E-13 -0.88817841970E-15 -0.88817841970E-15  0.91188000000E+02  0.91188000000E+02 0.  0.
    9900012    2    3    3    0    0 -0.36604274281E+02 -0.35802505470E+01  0.17560001575E+01  0.54367155005E+02  0.40000161464E+02 0.  0.
         12    1    3    3    0    0  0.36604274281E+02  0.35802505470E+01 -0.17560001575E+01  0.36820844995E+02  0.00000000000E+00 0. -1.
         11    1    4    4    0    0 -0.33700661707E+01 -0.49697170212E+01 -0.22574875034E+01  0.64149577828E+01  0.51100000000E-03 0. -1.
        -11    1    4    4    0    0 -0.22878327883E+02 -0.12867502807E+02  0.11686845430E+02  0.28732783916E+02  0.51100000000E-03 0.  1.
         12    1    4    4    0    0 -0.10355880227E+02  0.14256969282E+02 -0.76733577686E+01  0.19219413306E+02  0.00000000000E+00 0. -1.
</event>
<event>
 8    1  0.1229038E-006  0.9118800E+02  0.7816164E-02  0.1184000E+00
        -11   -1    0    0    0    0  0.00000000000E+00  0.00000000000E+00  0.45593999997E+02  0.45594000000E+02  0.51100000000E-03 0.  1.
         11   -1    0    0    0    0 -0.00000000000E+00 -0.00000000000E+00 -0.45593999997E+02  0.45594000000E+02  0.51100000000E-03 0. -1.
         23    2    1    2    0    0  0.00000000000E+00  0.00000000000E+00  0.00000000000E+00  0.91188000000E+02  0.91188000000E+02 0.  0.
    9900012    2    3    3    0    0  0.57355773627E+01  0.36036678011E+02  0.49233586257E+01  0.54367102810E+02  0.40000042475E+02 0.  0.
        -12    1    3    3    0    0 -0.57355773627E+01 -0.36036678011E+02 -0.49233586257E+01  0.36820897190E+02  0.00000000000E+00 0.  1.
         11    1    4    4    0    0  0.25828420136E+01  0.56905899890E+01 -0.32014647009E+01  0.70216282857E+01  0.51100000000E-03 0.  1.
        -11    1    4    4    0    0 -0.26960539263E+01  0.36694690527E+02  0.21677658457E+01  0.36857403987E+02  0.51100000000E-03 0. -1.
        -12    1    4    4    0    0  0.58487892755E+01 -0.63486025052E+01  0.59570574810E+01  0.10488070537E+02  0.00000000000E+00 0.  1.
</event>
<event>
 8    1  0.1229038E-006  0.9118800E+02  0.7816164E-02  0.1184000E+00
        -11   -1    0    0    0    0  0.00000000000E+00  0.00000000000E+00  0.45593999997E+02  0.45594000000E+02  0.51100000000E-03 0.  1.
         11   -1    0    0    0    0 -0.00000000000E+00 -0.00000000000E+00 -0.45593999997E+02  0.45594000000E+02  0.51100000000E-03 0. -1.
         23    2    1    2    0    0 -0.35527136788E-14  0.35527136788E-14  0.00000000000E+00  0.91188000000E+02  0.91188000000E+02 0.  0.
    9900012    2    3    3    0    0  0.19539228718E+02 -0.27398497453E+02 -0.14944012680E+02  0.54367046230E+02  0.39999913489E+02 0.  0.
        -12    1    3    3    0    0 -0.19539228718E+02  0.27398497453E+02  0.14944012680E+02  0.36820953770E+02  0.00000000000E+00 0.  1.
         11    1    4    4    0    0 -0.68678285262E+01 -0.10027722615E+02 -0.77297090096E+01  0.14403842930E+02  0.51100000000E-03 0. -1.
        -11    1    4    4    0    0  0.20406642298E+02 -0.21907086892E+02 -0.10537827656E+02  0.31739522963E+02  0.51100000000E-03 0.  1.
        -12    1    4    4    0    0  0.60004149465E+01  0.45363120544E+01  0.33235239862E+01  0.82236803361E+01  0.00000000000E+00 0.  1.
</event>
<event>
 8    1  0.1229038E-006  0.9118800E+02  0.7816164E-02  0.1184000E+00
        -11   -1    0    0    0    0  0.00000000000E+00  0.00000000000E+00  0.45593999997E+02  0.45594000000E+02  0.51100000000E-03 0.  1.
         11   -1    0    0    0    0 -0.00000000000E+00 -0.00000000000E+00 -0.45593999997E+02  0.45594000000E+02  0.51100000000E-03 0. -1.
         23    2    1    2    0    0 -0.35527136788E-14  0.00000000000E+00 -0.35527136788E-14  0.91188000000E+02  0.91188000000E+02 0.  0.
    9900012    2    3    3    0    0  0.30941044563E+02 -0.14203985177E+02  0.14024232109E+02  0.54367074974E+02  0.39999979018E+02 0.  0.
         12    1    3    3    0    0 -0.30941044563E+02  0.14203985177E+02 -0.14024232109E+02  0.36820925026E+02  0.00000000000E+00 0. -1.
         11    1    4    4    0    0  0.17356148222E+02 -0.21824436451E+02  0.21663733040E+02  0.35310894028E+02  0.51100000000E-03 0.  1.
        -11    1    4    4    0    0  0.12609205517E+02  0.39268080850E+01 -0.40486350121E+01  0.13813157902E+02  0.51100000000E-03 0. -1.
        -12    1    4    4    0    0  0.97569082375E+00  0.36936431896E+01 -0.35908659195E+01  0.52430230447E+01  0.00000000000E+00 0.  1.
</event>
<event>
 8    1  0.1229038E-006  0.9118800E+02  0.7816164E-02  0.1184000E+00
        -11   -1    0    0    0    0  0.00000000000E+00  0.00000000000E+00  0.45593999997E+02  0.45594000000E+02  0.51100000000E-03 0.  1.
         11   -1    0    0    0    0 -0.00000000000E+00 -0.00000000000E+00 -0.45593999997E+02  0.45594000000E+02  0.51100000000E-03 0. -1.
         23    2    1    2    0    0  0.35527136788E-14 -0.35527136788E-14  0.35527136788E-14  0.91188000000E+02  0.91188000000E+02 0.  0.
    9900012    2    3    3    0    0 -0.23951075889E+02  0.25414679552E+02 -0.11671315890E+02  0.54367087633E+02  0.40000007876E+02 0.  0.
         12    1    3    3    0    0  0.23951075889E+02 -0.25414679552E+02  0.11671315890E+02  0.36820912367E+02  0.00000000000E+00 0. -1.
         11    1    4    4    0    0 -0.20617033850E+02  0.12990867368E+01 -0.71641458624E+01  0.21864919330E+02  0.51100000000E-03 0. -1.
        -11    1    4    4    0    0 -0.70871105136E+01  0.26419950419E+02 -0.56954482794E+01  0.27940634333E+02  0.51100000000E-03 0.  1.
         12    1    4    4    0    0  0.37530684748E+01 -0.23043576045E+01  0.11882782517E+01  0.45615339689E+01  0.00000000000E+00 0. -1.
</event>
<event>
 8    1  0.1229038E-006  0.9118800E+02  0.7816164E-02  0.1184000E+00
        -11   -1    0    0    0    0  0.00000000000E+00  0.00000000000E+00  0.45593999997E+02  0.45594000000E+02  0.51100000000E-03 0. -1.
         11   -1    0    0    0    0 -0.00000000000E+00 -0.00000000000E+00 -0.45593999997E+02  0.45594000000E+02  0.51100000000E-03 0.  1.
         23    2    1    2    0    0  0.35527136788E-14  0.00000000000E+00 -0.17763568394E-14  0.91188000000E+02  0.91188000000E+02 0.  0.
    9900012    2    3    3    0    0 -0.17458789419E+02 -0.28878092297E+02  0.14731762521E+02  0.54367104171E+02  0.40000045578E+02 0.  0.
        -12    1    3    3    0    0  0.17458789419E+02  0.28878092297E+02 -0.14731762521E+02  0.36820895829E+02  0.00000000000E+00 0.  1.
         11    1    4    4    0    0 -0.19904734599E+02 -0.46283053941E+01 -0.39023843577E+01  0.20805005989E+02  0.51100000000E-03 0. -1.
        -11    1    4    4    0    0  0.69467689146E+00 -0.13820161855E+02  0.21886217607E+01  0.14009622235E+02  0.51100000000E-03 0.  1.
        -12    1    4    4    0    0  0.17512682879E+01 -0.10429625048E+02  0.16445525118E+02  0.19552475947E+02  0.00000000000E+00 0.  1.
</event>
<event>
 8    1  0.1229038E-006  0.9118800E+02  0.7816164E-02  0.1184000E+00
        -11   -1    0    0    0    0  0.00000000000E+00  0.00000000000E+00  0.45593999997E+02  0.45594000000E+02  0.51100000000E-03 0.  1.
         11   -1    0    0    0    0 -0.00000000000E+00 -0.00000000000E+00 -0.45593999997E+02  0.45594000000E+02  0.51100000000E-03 0. -1.
         23    2    1    2    0    0  0.00000000000E+00  0.00000000000E+00  0.00000000000E+00  0.91188000000E+02  0.91188000000E+02 0.  0.
    9900012    2    3    3    0    0 -0.72641274862E+01 -0.83782534081E+01 -0.35111484108E+02  0.54367095685E+02  0.40000026233E+02 0.  0.
        -12    1    3    3    0    0  0.72641274862E+01  0.83782534081E+01  0.35111484108E+02  0.36820904315E+02  0.00000000000E+00 0.  1.
         11    1    4    4    0    0  0.10940862139E+02  0.18938046608E+01 -0.23557876609E+02  0.26043473482E+02  0.51100000000E-03 0. -1.
        -11    1    4    4    0    0 -0.86847518718E+01  0.10164964691E+01 -0.10288772455E+02  0.13502481959E+02  0.51100000000E-03 0.  1.
        -12    1    4    4    0    0 -0.95202377533E+01 -0.11288554538E+02 -0.12648350438E+01  0.14821140244E+02  0.00000000000E+00 0.  1.
</event>
<event>
 8    1  0.1229038E-006  0.9118800E+02  0.7816164E-02  0.1184000E+00
        -11   -1    0    0    0    0  0.00000000000E+00  0.00000000000E+00  0.45593999997E+02  0.45594000000E+02  0.51100000000E-03 0.  1.
         11   -1    0    0    0    0 -0.00000000000E+00 -0.00000000000E+00 -0.45593999997E+02  0.45594000000E+02  0.51100000000E-03 0. -1.
         23    2    1    2    0    0 -0.88817841970E-15  0.35527136788E-14  0.00000000000E+00  0.91188000000E+02  0.91188000000E+02 0.  0.
    9900012    2    3    3    0    0 -0.32938375151E+01  0.29471704136E+02 -0.21825447041E+02  0.54367070506E+02  0.39999968833E+02 0.  0.
        -12    1    3    3    0    0  0.32938375151E+01 -0.29471704136E+02  0.21825447041E+02  0.36820929494E+02  0.00000000000E+00 0.  1.
         11    1    4    4    0    0  0.13692300263E+02  0.15706145603E+02 -0.22159071779E+02  0.30416879501E+02  0.51100000000E-03 0. -1.
        -11    1    4    4    0    0  0.79569120998E+00  0.30034319939E+01  0.59515060008E+00  0.31635316881E+01  0.51100000000E-03 0.  1.
         12    1    4    4    0    0 -0.17781828988E+02  0.10762126539E+02 -0.26152586196E+00  0.20786659318E+02  0.00000000000E+00 0. -1.
</event>
<event>
 8    1  0.1229038E-006  0.9118800E+02  0.7816164E-02  0.1184000E+00
        -11   -1    0    0    0    0  0.00000000000E+00  0.00000000000E+00  0.45593999997E+02  0.45594000000E+02  0.51100000000E-03 0.  1.
         11   -1    0    0    0    0 -0.00000000000E+00 -0.00000000000E+00 -0.45593999997E+02  0.45594000000E+02  0.51100000000E-03 0. -1.
         23    2    1    2    0    0  0.00000000000E+00 -0.88817841970E-15  0.71054273576E-14  0.91188000000E+02  0.91188000000E+02 0.  0.
    9900012    2    3    3    0    0  0.16998529030E+02  0.65112471194E+01 -0.32006780123E+02  0.54367077930E+02  0.39999985757E+02 0.  0.
         12    1    3    3    0    0 -0.16998529030E+02 -0.65112471194E+01  0.32006780123E+02  0.36820922070E+02  0.00000000000E+00 0. -1.
         11    1    4    4    0    0  0.98500218223E+01  0.15506122362E+02 -0.24455129667E+02  0.30586208132E+02  0.51100000000E-03 0. -1.
        -11    1    4    4    0    0 -0.18706765954E+01 -0.22155519130E+01  0.56887222408E+01  0.63851125438E+01  0.51100000000E-03 0.  1.
        -12    1    4    4    0    0  0.90191838033E+01 -0.67793233294E+01 -0.13240372697E+02  0.17395757254E+02  0.00000000000E+00 0.  1.
</event>
<event>
 8    1  0.1229038E-006  0.9118800E+02  0.7816164E-02  0.1184000E+00
        -11   -1    0    0    0    0  0.00000000000E+00  0.00000000000E+00  0.45593999997E+02  0.45594000000E+02  0.51100000000E-03 0. -1.
         11   -1    0    0    0    0 -0.00000000000E+00 -0.00000000000E+00 -0.45593999997E+02  0.45594000000E+02  0.51100000000E-03 0.  1.
         23    2    1    2    0    0  0.00000000000E+00  0.00000000000E+00  0.35527136788E-14  0.91188000000E+02  0.91188000000E+02 0.  0.
    9900012    2    3    3    0    0  0.18789194710E+02  0.20177637180E+02  0.24405068922E+02  0.54367105536E+02  0.40000048691E+02 0.  0.
        -12    1    3    3    0    0 -0.18789194710E+02 -0.20177637180E+02 -0.24405068922E+02  0.36820894464E+02  0.00000000000E+00 0.  1.
         11    1    4    4    0    0  0.10525227100E+01  0.10449530870E+02 -0.71302612363E+01  0.12694137427E+02  0.51100000000E-03 0.  1.
        -11    1    4    4    0    0  0.80621985887E+01  0.74806447936E+01  0.29144700811E+01  0.11377751479E+02  0.51100000000E-03 0. -1.
         12    1    4    4    0    0  0.96744734110E+01  0.22474615166E+01  0.28620860078E+02  0.30295216630E+02  0.00000000000E+00 0. -1.
</event>
<event>
 8    1  0.1229038E-006  0.9118800E+02  0.7816164E-02  0.1184000E+00
        -11   -1    0    0    0    0  0.00000000000E+00  0.00000000000E+00  0.45593999997E+02  0.45594000000E+02  0.51100000000E-03 0. -1.
         11   -1    0    0    0    0 -0.00000000000E+00 -0.00000000000E+00 -0.45593999997E+02  0.45594000000E+02  0.51100000000E-03 0.  1.
         23    2    1    2    0    0  0.44408920985E-15  0.17763568394E-14  0.00000000000E+00  0.91188000000E+02  0.91188000000E+02 0.  0.
    9900012    2    3    3    0    0 -0.23030465286E+01  0.10413398898E+02 -0.35242542671E+02  0.54367085918E+02  0.40000003967E+02 0.  0.
         12    1    3    3    0    0  0.23030465286E+01 -0.10413398898E+02  0.35242542671E+02  0.36820914082E+02  0.00000000000E+00 0. -1.
         11    1    4    4    0    0 -0.10895472695E+02  0.45303241903E+01 -0.21158293466E+02  0.24226195434E+02  0.51100000000E-03 0. -1.
        -11    1    4    4    0    0  0.68004319193E+01  0.15401532466E+02 -0.10333454151E+02  0.19754324882E+02  0.51100000000E-03 0.  1.
        -12    1    4    4    0    0  0.17919942474E+01 -0.95184577580E+01 -0.37507950531E+01  0.10386565602E+02  0.00000000000E+00 0.  1.
</event>
<event>
 8    1  0.1229038E-006  0.9118800E+02  0.7816164E-02  0.1184000E+00
        -11   -1    0    0    0    0  0.00000000000E+00  0.00000000000E+00  0.45593999997E+02  0.45594000000E+02  0.51100000000E-03 0. -1.
         11   -1    0    0    0    0 -0.00000000000E+00 -0.00000000000E+00 -0.45593999997E+02  0.45594000000E+02  0.51100000000E-03 0.  1.
         23    2    1    2    0    0 -0.71054273576E-14  0.17763568394E-14  0.17763568394E-14  0.91188000000E+02  0.91188000000E+02 0.  0.
    9900012    2    3    3    0    0  0.34154194001E+02 -0.12921247583E+02  0.47236007016E+01  0.54367081889E+02  0.39999994782E+02 0.  0.
        -12    1    3    3    0    0 -0.34154194001E+02  0.12921247583E+02 -0.47236007016E+01  0.36820918111E+02  0.00000000000E+00 0.  1.
         11    1    4    4    0    0  0.22766097328E+02 -0.92228631739E+01  0.17989711735E+02  0.30446446775E+02  0.51100000000E-03 0. -1.
        -11    1    4    4    0    0 -0.31471574471E+01 -0.39668310744E+00 -0.71257251291E+01  0.77998664323E+01  0.51100000000E-03 0.  1.
         12    1    4    4    0    0  0.14535254120E+02 -0.33017013014E+01 -0.61403859043E+01  0.16120768681E+02  0.00000000000E+00 0. -1.
</event>
<event>
 8    1  0.1229038E-006  0.9118800E+02  0.7816164E-02  0.1184000E+00
        -11   -1    0    0    0    0  0.00000000000E+00  0.00000000000E+00  0.45593999997E+02  0.45594000000E+02  0.51100000000E-03 0. -1.
         11   -1    0    0    0    0 -0.00000000000E+00 -0.00000000000E+00 -0.45593999997E+02  0.45594000000E+02  0.51100000000E-03 0.  1.
         23    2    1    2    0    0  0.00000000000E+00  0.00000000000E+00  0.00000000000E+00  0.91188000000E+02  0.91188000000E+02 0.  0.
    9900012    2    3    3    0    0 -0.25622101086E+02  0.62912864921E+01  0.25684783613E+02  0.54367075799E+02  0.39999980899E+02 0.  0.
        -12    1    3    3    0    0  0.25622101086E+02 -0.62912864921E+01 -0.25684783613E+02  0.36820924201E+02  0.00000000000E+00 0.  1.
         11    1    4    4    0    0 -0.55974416646E+01  0.54355248592E+01  0.14606454558E+02  0.16559734258E+02  0.51100000000E-03 0. -1.
        -11    1    4    4    0    0  0.49976326370E+01 -0.77442402325E+01  0.56079610228E+01  0.10788828289E+02  0.51100000000E-03 0.  1.
        -12    1    4    4    0    0 -0.25022292059E+02  0.86000018653E+01  0.54703680321E+01  0.27018513252E+02  0.00000000000E+00 0.  1.
</event>
<event>
 8    1  0.1229038E-006  0.9118800E+02  0.7816164E-02  0.1184000E+00
        -11   -1    0    0    0    0  0.00000000000E+00  0.00000000000E+00  0.45593999997E+02  0.45594000000E+02  0.51100000000E-03 0. -1.
         11   -1    0    0    0    0 -0.00000000000E+00 -0.00000000000E+00 -0.45593999997E+02  0.45594000000E+02  0.51100000000E-03 0.  1.
         23    2    1    2    0    0  0.00000000000E+00  0.00000000000E+00  0.00000000000E+00  0.91188000000E+02  0.91188000000E+02 0.  0.
    9900012    2    3    3    0    0  0.35243327050E+02 -0.63867067805E+01  0.85380100489E+01  0.54367085554E+02  0.40000003137E+02 0.  0.
        -12    1    3    3    0    0 -0.35243327050E+02  0.63867067805E+01 -0.85380100489E+01  0.36820914446E+02  0.00000000000E+00 0.  1.
         11    1    4    4    0    0  0.33806933766E+01  0.11830646649E+02  0.11920755426E+02  0.17131774515E+02  0.51100000000E-03 0. -1.
        -11    1    4    4    0    0  0.13837062201E+02 -0.85372533643E+01 -0.40806328692E+01  0.16763071027E+02  0.51100000000E-03 0.  1.
         12    1    4    4    0    0  0.18025571472E+02 -0.96801000654E+01  0.69788749216E+00  0.20472240012E+02  0.00000000000E+00 0. -1.
</event>
<event>
 8    1  0.1229038E-006  0.9118800E+02  0.7816164E-02  0.1184000E+00
        -11   -1    0    0    0    0  0.00000000000E+00  0.00000000000E+00  0.45593999997E+02  0.45594000000E+02  0.51100000000E-03 0.  1.
         11   -1    0    0    0    0 -0.00000000000E+00 -0.00000000000E+00 -0.45593999997E+02  0.45594000000E+02  0.51100000000E-03 0. -1.
         23    2    1    2    0    0  0.00000000000E+00  0.00000000000E+00  0.00000000000E+00  0.91188000000E+02  0.91188000000E+02 0.  0.
    9900012    2    3    3    0    0  0.14502791813E+02  0.10157398142E+02 -0.32284320692E+02  0.54367067504E+02  0.39999961988E+02 0.  0.
        -12    1    3    3    0    0 -0.14502791813E+02 -0.10157398142E+02  0.32284320692E+02  0.36820932496E+02  0.00000000000E+00 0.  1.
         11    1    4    4    0    0  0.39068397872E+01  0.14925674362E+01 -0.34769335955E+02  0.35019963988E+02  0.51100000000E-03 0. -1.
        -11    1    4    4    0    0  0.12188454293E+02  0.88574782147E+01 -0.14118756211E+01  0.15132968361E+02  0.51100000000E-03 0.  1.
        -12    1    4    4    0    0 -0.15925022681E+01 -0.19264750861E+00  0.38968908847E+01  0.42141351549E+01  0.00000000000E+00 0.  1.
</event>
<event>
 8    1  0.1229038E-006  0.9118800E+02  0.7816164E-02  0.1184000E+00
        -11   -1    0    0    0    0  0.00000000000E+00  0.00000000000E+00  0.45593999997E+02  0.45594000000E+02  0.51100000000E-03 0.  1.
         11   -1    0    0    0    0 -0.00000000000E+00 -0.00000000000E+00 -0.45593999997E+02  0.45594000000E+02  0.51100000000E-03 0. -1.
         23    2    1    2    0    0  0.00000000000E+00  0.00000000000E+00  0.00000000000E+00  0.91188000000E+02  0.91188000000E+02 0.  0.
    9900012    2    3    3    0    0  0.31353379290E+02 -0.14509662688E+02 -0.12736379482E+02  0.54367081129E+02  0.39999993049E+02 0.  0.
        -12    1    3    3    0    0 -0.31353379290E+02  0.14509662688E+02  0.12736379482E+02  0.36820918871E+02  0.00000000000E+00 0.  1.
         11    1    4    4    0    0  0.16469572114E+02  0.11302475970E+02 -0.63413765684E+01  0.20957238027E+02  0.51100000000E-03 0. -1.
        -11    1    4    4    0    0  0.13343601639E+02 -0.11995339479E+02 -0.75353665258E+01  0.19460771384E+02  0.51100000000E-03 0.  1.
        -12    1    4    4    0    0  0.15402055371E+01 -0.13816799179E+02  0.11403636122E+01  0.13949071718E+02  0.00000000000E+00 0.  1.
</event>
<event>
 8    1  0.1229038E-006  0.9118800E+02  0.7816164E-02  0.1184000E+00
        -11   -1    0    0    0    0  0.00000000000E+00  0.00000000000E+00  0.45593999997E+02  0.45594000000E+02  0.51100000000E-03 0. -1.
         11   -1    0    0    0    0 -0.00000000000E+00 -0.00000000000E+00 -0.45593999997E+02  0.45594000000E+02  0.51100000000E-03 0.  1.
         23    2    1    2    0    0  0.00000000000E+00 -0.35527136788E-14  0.00000000000E+00  0.91188000000E+02  0.91188000000E+02 0.  0.
    9900012    2    3    3    0    0  0.18678762363E+02 -0.30865563090E+02 -0.73621223209E+01  0.54367082122E+02  0.39999995314E+02 0.  0.
         12    1    3    3    0    0 -0.18678762363E+02  0.30865563090E+02  0.73621223209E+01  0.36820917878E+02  0.00000000000E+00 0. -1.
         11    1    4    4    0    0 -0.68796072005E+01 -0.53682584225E+01 -0.25113969653E+00  0.87298490899E+01  0.51100000000E-03 0. -1.
        -11    1    4    4    0    0  0.63559220741E+01 -0.13934980250E+02 -0.15418283798E+02  0.21732576826E+02  0.51100000000E-03 0.  1.
        -12    1    4    4    0    0  0.19202447490E+02 -0.11562324418E+02  0.83073011737E+01  0.23904656206E+02  0.00000000000E+00 0.  1.
</event>
<event>
 8    1  0.1229038E-006  0.9118800E+02  0.7816164E-02  0.1184000E+00
        -11   -1    0    0    0    0  0.00000000000E+00  0.00000000000E+00  0.45593999997E+02  0.45594000000E+02  0.51100000000E-03 0.  1.
         11   -1    0    0    0    0 -0.00000000000E+00 -0.00000000000E+00 -0.45593999997E+02  0.45594000000E+02  0.51100000000E-03 0. -1.
         23    2    1    2    0    0  0.00000000000E+00  0.00000000000E+00 -0.17763568394E-14  0.91188000000E+02  0.91188000000E+02 0.  0.
    9900012    2    3    3    0    0  0.28526674022E+02  0.18685529687E+02  0.13887148113E+02  0.54367176637E+02  0.40000210778E+02 0.  0.
        -12    1    3    3    0    0 -0.28526674022E+02 -0.18685529687E+02 -0.13887148113E+02  0.36820823363E+02  0.00000000000E+00 0.  1.
         11    1    4    4    0    0  0.13488658816E+02 -0.97491383433E+01  0.11056957895E+02  0.19981139438E+02  0.51100000000E-03 0.  1.
        -11    1    4    4    0    0  0.12060411275E+02  0.10220660704E+02  0.10169982212E+01  0.15841392332E+02  0.51100000000E-03 0. -1.
        -12    1    4    4    0    0  0.29776039308E+01  0.18214007326E+02  0.18131919968E+01  0.18544644867E+02  0.00000000000E+00 0.  1.
</event>
<event>
 8    1  0.1229038E-006  0.9118800E+02  0.7816164E-02  0.1184000E+00
        -11   -1    0    0    0    0  0.00000000000E+00  0.00000000000E+00  0.45593999997E+02  0.45594000000E+02  0.51100000000E-03 0. -1.
         11   -1    0    0    0    0 -0.00000000000E+00 -0.00000000000E+00 -0.45593999997E+02  0.45594000000E+02  0.51100000000E-03 0.  1.
         23    2    1    2    0    0  0.00000000000E+00  0.00000000000E+00 -0.35527136788E-14  0.91188000000E+02  0.91188000000E+02 0.  0.
    9900012    2    3    3    0    0 -0.14274465384E+02 -0.28926564988E+02 -0.17755941853E+02  0.54367082099E+02  0.39999995260E+02 0.  0.
         12    1    3    3    0    0  0.14274465384E+02  0.28926564988E+02  0.17755941853E+02  0.36820917901E+02  0.00000000000E+00 0. -1.
         11    1    4    4    0    0  0.67695736313E+01 -0.14484344764E+02  0.52174878249E+00  0.15996736931E+02  0.51100000000E-03 0. -1.
        -11    1    4    4    0    0  0.48848961115E-02 -0.92854187411E+01 -0.13154591044E+02  0.16101623858E+02  0.51100000000E-03 0.  1.
        -12    1    4    4    0    0 -0.21048923911E+02 -0.51568014833E+01 -0.51230995910E+01  0.22268721310E+02  0.00000000000E+00 0.  1.
</event>
<event>
 8    1  0.1229038E-006  0.9118800E+02  0.7816164E-02  0.1184000E+00
        -11   -1    0    0    0    0  0.00000000000E+00  0.00000000000E+00  0.45593999997E+02  0.45594000000E+02  0.51100000000E-03 0. -1.
         11   -1    0    0    0    0 -0.00000000000E+00 -0.00000000000E+00 -0.45593999997E+02  0.45594000000E+02  0.51100000000E-03 0.  1.
         23    2    1    2    0    0 -0.12212453271E-14  0.00000000000E+00  0.00000000000E+00  0.91188000000E+02  0.91188000000E+02 0.  0.
    9900012    2    3    3    0    0  0.28448956488E+00  0.12575067695E+02  0.34605902980E+02  0.54367057822E+02  0.39999939917E+02 0.  0.
        -12    1    3    3    0    0 -0.28448956488E+00 -0.12575067695E+02 -0.34605902980E+02  0.36820942178E+02  0.00000000000E+00 0.  1.
         11    1    4    4    0    0  0.12411837339E+02 -0.33932525017E+01  0.16471219990E+02  0.20901410405E+02  0.51100000000E-03 0. -1.
        -11    1    4    4    0    0 -0.15402941398E+02  0.56625143761E+01  0.66953486038E+01  0.17724061780E+02  0.51100000000E-03 0.  1.
        -12    1    4    4    0    0  0.32755936238E+01  0.10305805821E+02  0.11439334386E+02  0.15741585638E+02  0.00000000000E+00 0.  1.
</event>
<event>
 8    1  0.1229038E-006  0.9118800E+02  0.7816164E-02  0.1184000E+00
        -11   -1    0    0    0    0  0.00000000000E+00  0.00000000000E+00  0.45593999997E+02  0.45594000000E+02  0.51100000000E-03 0. -1.
         11   -1    0    0    0    0 -0.00000000000E+00 -0.00000000000E+00 -0.45593999997E+02  0.45594000000E+02  0.51100000000E-03 0.  1.
         23    2    1    2    0    0  0.00000000000E+00 -0.13322676296E-14  0.00000000000E+00  0.91188000000E+02  0.91188000000E+02 0.  0.
    9900012    2    3    3    0    0 -0.32869168747E+02 -0.11092494259E+01 -0.16558011571E+02  0.54367076118E+02  0.39999981625E+02 0.  0.
         12    1    3    3    0    0  0.32869168747E+02  0.11092494259E+01  0.16558011571E+02  0.36820923882E+02  0.00000000000E+00 0. -1.
         11    1    4    4    0    0  0.64667066993E+01 -0.68562016218E+01 -0.46587155041E+01  0.10513297609E+02  0.51100000000E-03 0. -1.
        -11    1    4    4    0    0 -0.37951067514E+02  0.75656746681E+01 -0.82811142637E+01  0.39573978981E+02  0.51100000000E-03 0.  1.
         12    1    4    4    0    0 -0.13848079317E+01 -0.18187224722E+01 -0.36181818030E+01  0.42797995278E+01  0.00000000000E+00 0. -1.
</event>
<event>
 8    1  0.1229038E-006  0.9118800E+02  0.7816164E-02  0.1184000E+00
        -11   -1    0    0    0    0  0.00000000000E+00  0.00000000000E+00  0.45593999997E+02  0.45594000000E+02  0.51100000000E-03 0.  1.
         11   -1    0    0    0    0 -0.00000000000E+00 -0.00000000000E+00 -0.45593999997E+02  0.45594000000E+02  0.51100000000E-03 0. -1.
         23    2    1    2    0    0 -0.26645352591E-14 -0.71054273576E-14  0.00000000000E+00  0.91188000000E+02  0.91188000000E+02 0.  0.
    9900012    2    3    3    0    0 -0.54055699096E+01 -0.32837896739E+02  0.15755360709E+02  0.54367095077E+02  0.40000024846E+02 0.  0.
         12    1    3    3    0    0  0.54055699096E+01  0.32837896739E+02 -0.15755360709E+02  0.36820904923E+02  0.00000000000E+00 0. -1.
         11    1    4    4    0    0  0.10601205976E+02 -0.55129827338E+00  0.12017332225E+02  0.16034518141E+02  0.51100000000E-03 0. -1.
        -11    1    4    4    0    0 -0.10532134137E+02 -0.21251403726E+02  0.83995825885E+01  0.25161498321E+02  0.51100000000E-03 0.  1.
         12    1    4    4    0    0 -0.54746417489E+01 -0.11035194740E+02 -0.46615541048E+01  0.13171078615E+02  0.00000000000E+00 0. -1.
</event>
<event>
 8    1  0.1229038E-006  0.9118800E+02  0.7816164E-02  0.1184000E+00
        -11   -1    0    0    0    0  0.00000000000E+00  0.00000000000E+00  0.45593999997E+02  0.45594000000E+02  0.51100000000E-03 0.  1.
         11   -1    0    0    0    0 -0.00000000000E+00 -0.00000000000E+00 -0.45593999997E+02  0.45594000000E+02  0.51100000000E-03 0. -1.
         23    2    1    2    0    0  0.00000000000E+00  0.44408920985E-15  0.00000000000E+00  0.91188000000E+02  0.91188000000E+02 0.  0.
    9900012    2    3    3    0    0 -0.21059828435E+02  0.30172246317E+01  0.30052621568E+02  0.54367080928E+02  0.39999992592E+02 0.  0.
         12    1    3    3    0    0  0.21059828435E+02 -0.30172246317E+01 -0.30052621568E+02  0.36820919072E+02  0.00000000000E+00 0. -1.
         11    1    4    4    0    0 -0.18731298052E+02  0.12296738853E+02  0.13321898341E+02  0.26068070293E+02  0.51100000000E-03 0. -1.
        -11    1    4    4    0    0 -0.76889522900E+01  0.31207700272E+01  0.24756727076E+01  0.86595697640E+01  0.51100000000E-03 0.  1.
         12    1    4    4    0    0  0.53604219064E+01 -0.12400284249E+02  0.14255050519E+02  0.19639440872E+02  0.00000000000E+00 0. -1.
</event>
<event>
 8    1  0.1229038E-006  0.9118800E+02  0.7816164E-02  0.1184000E+00
        -11   -1    0    0    0    0  0.00000000000E+00  0.00000000000E+00  0.45593999997E+02  0.45594000000E+02  0.51100000000E-03 0. -1.
         11   -1    0    0    0    0 -0.00000000000E+00 -0.00000000000E+00 -0.45593999997E+02  0.45594000000E+02  0.51100000000E-03 0.  1.
         23    2    1    2    0    0  0.00000000000E+00  0.11102230246E-14  0.00000000000E+00  0.91188000000E+02  0.91188000000E+02 0.  0.
    9900012    2    3    3    0    0 -0.12856106639E+02 -0.18201171100E+01 -0.34455508076E+02  0.54367158877E+02  0.40000170293E+02 0.  0.
         12    1    3    3    0    0  0.12856106639E+02  0.18201171100E+01  0.34455508076E+02  0.36820841123E+02  0.00000000000E+00 0. -1.
         11    1    4    4    0    0 -0.91567642006E+01  0.12263382688E+02 -0.73518736496E+01  0.16979014459E+02  0.51100000000E-03 0. -1.
        -11    1    4    4    0    0 -0.65129434421E+01 -0.14240601939E+01  0.70531856581E+00  0.67040177697E+01  0.51100000000E-03 0.  1.
        -12    1    4    4    0    0  0.28136010034E+01 -0.12659439604E+02 -0.27808952992E+02  0.30684126649E+02  0.00000000000E+00 0.  1.
</event>
<event>
 8    1  0.1229038E-006  0.9118800E+02  0.7816164E-02  0.1184000E+00
        -11   -1    0    0    0    0  0.00000000000E+00  0.00000000000E+00  0.45593999997E+02  0.45594000000E+02  0.51100000000E-03 0.  1.
         11   -1    0    0    0    0 -0.00000000000E+00 -0.00000000000E+00 -0.45593999997E+02  0.45594000000E+02  0.51100000000E-03 0. -1.
         23    2    1    2    0    0  0.00000000000E+00  0.00000000000E+00  0.00000000000E+00  0.91188000000E+02  0.91188000000E+02 0.  0.
    9900012    2    3    3    0    0 -0.34004374162E+02  0.11441854897E+02  0.82805385447E+01  0.54367070840E+02  0.39999969593E+02 0.  0.
         12    1    3    3    0    0  0.34004374162E+02 -0.11441854897E+02 -0.82805385447E+01  0.36820929160E+02  0.00000000000E+00 0. -1.
         11    1    4    4    0    0 -0.15425501140E+02  0.26939923170E+01 -0.29978793050E+01  0.15943367293E+02  0.51100000000E-03 0. -1.
        -11    1    4    4    0    0 -0.86463152408E+01 -0.11273619056E+02  0.62154004799E+01  0.15507561293E+02  0.51100000000E-03 0.  1.
        -12    1    4    4    0    0 -0.99325577808E+01  0.20021481635E+02  0.50630173698E+01  0.22916142255E+02  0.00000000000E+00 0.  1.
</event>
<event>
 8    1  0.1229038E-006  0.9118800E+02  0.7816164E-02  0.1184000E+00
        -11   -1    0    0    0    0  0.00000000000E+00  0.00000000000E+00  0.45593999997E+02  0.45594000000E+02  0.51100000000E-03 0.  1.
         11   -1    0    0    0    0 -0.00000000000E+00 -0.00000000000E+00 -0.45593999997E+02  0.45594000000E+02  0.51100000000E-03 0. -1.
         23    2    1    2    0    0 -0.22204460493E-15  0.00000000000E+00 -0.35527136788E-14  0.91188000000E+02  0.91188000000E+02 0.  0.
    9900012    2    3    3    0    0 -0.10118761362E+01  0.22702304860E+02 -0.28971743844E+02  0.54367075506E+02  0.39999980231E+02 0.  0.
        -12    1    3    3    0    0  0.10118761362E+01 -0.22702304860E+02  0.28971743844E+02  0.36820924494E+02  0.00000000000E+00 0.  1.
         11    1    4    4    0    0  0.89686499998E+01  0.24657027106E+02 -0.62913361109E+01  0.26981226414E+02  0.51100000000E-03 0. -1.
        -11    1    4    4    0    0 -0.64107415892E+01  0.37896360001E+01 -0.66379424340E+01  0.99760327162E+01  0.51100000000E-03 0.  1.
        -12    1    4    4    0    0 -0.35697845467E+01 -0.57443582458E+01 -0.16042465299E+02  0.17409816375E+02  0.00000000000E+00 0.  1.
</event>
<event>
 8    1  0.1229038E-006  0.9118800E+02  0.7816164E-02  0.1184000E+00
        -11   -1    0    0    0    0  0.00000000000E+00  0.00000000000E+00  0.45593999997E+02  0.45594000000E+02  0.51100000000E-03 0. -1.
         11   -1    0    0    0    0 -0.00000000000E+00 -0.00000000000E+00 -0.45593999997E+02  0.45594000000E+02  0.51100000000E-03 0.  1.
         23    2    1    2    0    0  0.00000000000E+00  0.00000000000E+00  0.00000000000E+00  0.91188000000E+02  0.91188000000E+02 0.  0.
    9900012    2    3    3    0    0  0.16121166471E+02  0.20097074771E+02 -0.26305810023E+02  0.54367081167E+02  0.39999993135E+02 0.  0.
         12    1    3    3    0    0 -0.16121166471E+02 -0.20097074771E+02  0.26305810023E+02  0.36820918833E+02  0.00000000000E+00 0. -1.
         11    1    4    4    0    0 -0.85484022481E+01  0.10658964432E+02  0.30466157732E+01  0.13998948949E+02  0.51100000000E-03 0. -1.
        -11    1    4    4    0    0  0.13264239684E+02  0.41730534275E+01 -0.93783285528E+01  0.16772223347E+02  0.51100000000E-03 0.  1.
         12    1    4    4    0    0  0.11405329035E+02  0.52650569117E+01 -0.19974097244E+02  0.23595908870E+02  0.00000000000E+00 0. -1.
</event>
<event>
 8    1  0.1229038E-006  0.9118800E+02  0.7816164E-02  0.1184000E+00
        -11   -1    0    0    0    0  0.00000000000E+00  0.00000000000E+00  0.45593999997E+02  0.45594000000E+02  0.51100000000E-03 0. -1.
         11   -1    0    0    0    0 -0.00000000000E+00 -0.00000000000E+00 -0.45593999997E+02  0.45594000000E+02  0.51100000000E-03 0.  1.
         23    2    1    2    0    0  0.00000000000E+00  0.17763568394E-14  0.00000000000E+00  0.91188000000E+02  0.91188000000E+02 0.  0.
    9900012    2    3    3    0    0  0.33905084328E+02  0.11945550183E+02 -0.79705055267E+01  0.54367083787E+02  0.39999999108E+02 0.  0.
         12    1    3    3    0    0 -0.33905084328E+02 -0.11945550183E+02  0.79705055267E+01  0.36820916213E+02  0.00000000000E+00 0. -1.
         11    1    4    4    0    0  0.10321475610E+02  0.19278017314E+01  0.52524135134E+01  0.11740405711E+02  0.51100000000E-03 0. -1.
        -11    1    4    4    0    0  0.16351281825E+02  0.21262515543E+02 -0.62224583343E+01  0.27535031733E+02  0.51100000000E-03 0.  1.
        -12    1    4    4    0    0  0.72323268931E+01 -0.11244767092E+02 -0.70004607059E+01  0.15091646343E+02  0.00000000000E+00 0.  1.
</event>
<event>
 8    1  0.1229038E-006  0.9118800E+02  0.7816164E-02  0.1184000E+00
        -11   -1    0    0    0    0  0.00000000000E+00  0.00000000000E+00  0.45593999997E+02  0.45594000000E+02  0.51100000000E-03 0. -1.
         11   -1    0    0    0    0 -0.00000000000E+00 -0.00000000000E+00 -0.45593999997E+02  0.45594000000E+02  0.51100000000E-03 0.  1.
         23    2    1    2    0    0  0.35527136788E-14 -0.13322676296E-14  0.35527136788E-14  0.91188000000E+02  0.91188000000E+02 0.  0.
    9900012    2    3    3    0    0 -0.20782213705E+02 -0.39090307812E+01 -0.30142958889E+02  0.54367096987E+02  0.40000029201E+02 0.  0.
         12    1    3    3    0    0  0.20782213705E+02  0.39090307812E+01  0.30142958889E+02  0.36820903013E+02  0.00000000000E+00 0. -1.
         11    1    4    4    0    0 -0.97714022574E+01  0.82473463366E+00 -0.33738032221E+01  0.10370295933E+02  0.51100000000E-03 0. -1.
        -11    1    4    4    0    0 -0.88430010128E+01  0.13445790632E+02 -0.16303231343E+02  0.22908149317E+02  0.51100000000E-03 0.  1.
         12    1    4    4    0    0 -0.21678104347E+01 -0.18179556047E+02 -0.10465924324E+02  0.21088651737E+02  0.00000000000E+00 0. -1.
</event>
<event>
 8    1  0.1229038E-006  0.9118800E+02  0.7816164E-02  0.1184000E+00
        -11   -1    0    0    0    0  0.00000000000E+00  0.00000000000E+00  0.45593999997E+02  0.45594000000E+02  0.51100000000E-03 0.  1.
         11   -1    0    0    0    0 -0.00000000000E+00 -0.00000000000E+00 -0.45593999997E+02  0.45594000000E+02  0.51100000000E-03 0. -1.
         23    2    1    2    0    0  0.00000000000E+00  0.00000000000E+00  0.00000000000E+00  0.91188000000E+02  0.91188000000E+02 0.  0.
    9900012    2    3    3    0    0 -0.21033631363E+02 -0.26466554514E+02 -0.14590632243E+02  0.54367099611E+02  0.40000035184E+02 0.  0.
        -12    1    3    3    0    0  0.21033631363E+02  0.26466554514E+02  0.14590632243E+02  0.36820900389E+02  0.00000000000E+00 0.  1.
         11    1    4    4    0    0 -0.13381677076E+02 -0.62593384719E+01  0.60564899165E+00  0.14785648800E+02  0.51100000000E-03 0. -1.
        -11    1    4    4    0    0  0.29891708205E+01 -0.11575985237E+02 -0.21421520666E+02  0.24532022426E+02  0.51100000000E-03 0.  1.
        -12    1    4    4    0    0 -0.10641125108E+02 -0.86312308048E+01  0.62252394308E+01  0.15049428386E+02  0.00000000000E+00 0.  1.
</event>
<event>
 8    1  0.1229038E-006  0.9118800E+02  0.7816164E-02  0.1184000E+00
        -11   -1    0    0    0    0  0.00000000000E+00  0.00000000000E+00  0.45593999997E+02  0.45594000000E+02  0.51100000000E-03 0. -1.
         11   -1    0    0    0    0 -0.00000000000E+00 -0.00000000000E+00 -0.45593999997E+02  0.45594000000E+02  0.51100000000E-03 0.  1.
         23    2    1    2    0    0  0.35527136788E-14 -0.35527136788E-14  0.35527136788E-14  0.91188000000E+02  0.91188000000E+02 0.  0.
    9900012    2    3    3    0    0 -0.19510789171E+02  0.28083526736E+02 -0.13653763793E+02  0.54367073427E+02  0.39999975491E+02 0.  0.
         12    1    3    3    0    0  0.19510789171E+02 -0.28083526736E+02  0.13653763793E+02  0.36820926573E+02  0.00000000000E+00 0. -1.
         11    1    4    4    0    0 -0.55760197238E+01  0.47178159135E+01  0.91486079395E+01  0.11706699383E+02  0.51100000000E-03 0. -1.
        -11    1    4    4    0    0 -0.14689944811E+02  0.12858273975E+02 -0.23618304163E+01  0.19664890830E+02  0.51100000000E-03 0.  1.
         12    1    4    4    0    0  0.75517536431E+00  0.10507436848E+02 -0.20440541316E+02  0.22995483214E+02  0.00000000000E+00 0. -1.
</event>
<event>
 8    1  0.1229038E-006  0.9118800E+02  0.7816164E-02  0.1184000E+00
        -11   -1    0    0    0    0  0.00000000000E+00  0.00000000000E+00  0.45593999997E+02  0.45594000000E+02  0.51100000000E-03 0.  1.
         11   -1    0    0    0    0 -0.00000000000E+00 -0.00000000000E+00 -0.45593999997E+02  0.45594000000E+02  0.51100000000E-03 0. -1.
         23    2    1    2    0    0  0.00000000000E+00  0.00000000000E+00  0.00000000000E+00  0.91188000000E+02  0.91188000000E+02 0.  0.
    9900012    2    3    3    0    0  0.19860825397E+02  0.10591884174E+02  0.29140015142E+02  0.54367070106E+02  0.39999967920E+02 0.  0.
         12    1    3    3    0    0 -0.19860825397E+02 -0.10591884174E+02 -0.29140015142E+02  0.36820929894E+02  0.00000000000E+00 0. -1.
         11    1    4    4    0    0  0.22609221507E+01 -0.11757272321E+01  0.12115114525E+02  0.12380230358E+02  0.51100000000E-03 0. -1.
        -11    1    4    4    0    0  0.15446647654E+02 -0.81806214285E+01  0.36010940540E+01  0.17846270461E+02  0.51100000000E-03 0.  1.
         12    1    4    4    0    0  0.21532555923E+01  0.19948232834E+02  0.13423806563E+02  0.24140569287E+02  0.00000000000E+00 0. -1.
</event>
<event>
 8    1  0.1229038E-006  0.9118800E+02  0.7816164E-02  0.1184000E+00
        -11   -1    0    0    0    0  0.00000000000E+00  0.00000000000E+00  0.45593999997E+02  0.45594000000E+02  0.51100000000E-03 0.  1.
         11   -1    0    0    0    0 -0.00000000000E+00 -0.00000000000E+00 -0.45593999997E+02  0.45594000000E+02  0.51100000000E-03 0. -1.
         23    2    1    2    0    0 -0.35527136788E-14  0.71054273576E-14  0.88817841970E-15  0.91188000000E+02  0.91188000000E+02 0.  0.
    9900012    2    3    3    0    0 -0.17585876031E+02  0.32107708733E+02  0.39513286633E+01  0.54367068534E+02  0.39999964336E+02 0.  0.
         12    1    3    3    0    0  0.17585876031E+02 -0.32107708733E+02 -0.39513286633E+01  0.36820931466E+02  0.00000000000E+00 0. -1.
         11    1    4    4    0    0 -0.12533126804E+02  0.65524620930E+01  0.60033837483E+01  0.15364069892E+02  0.51100000000E-03 0. -1.
        -11    1    4    4    0    0  0.10196534099E+02  0.76038969030E+01  0.60623540890E+01  0.14090446874E+02  0.51100000000E-03 0.  1.
        -12    1    4    4    0    0 -0.15249283326E+02  0.17951349737E+02 -0.81144091740E+01  0.24912551768E+02  0.00000000000E+00 0.  1.
</event>
<event>
 8    1  0.1229038E-006  0.9118800E+02  0.7816164E-02  0.1184000E+00
        -11   -1    0    0    0    0  0.00000000000E+00  0.00000000000E+00  0.45593999997E+02  0.45594000000E+02  0.51100000000E-03 0.  1.
         11   -1    0    0    0    0 -0.00000000000E+00 -0.00000000000E+00 -0.45593999997E+02  0.45594000000E+02  0.51100000000E-03 0. -1.
         23    2    1    2    0    0  0.00000000000E+00  0.00000000000E+00  0.17763568394E-14  0.91188000000E+02  0.91188000000E+02 0.  0.
    9900012    2    3    3    0    0 -0.17812736013E+02  0.30285227097E+02  0.11013203178E+02  0.54367093048E+02  0.40000020220E+02 0.  0.
        -12    1    3    3    0    0  0.17812736013E+02 -0.30285227097E+02 -0.11013203178E+02  0.36820906952E+02  0.00000000000E+00 0.  1.
         11    1    4    4    0    0 -0.11551320569E+02 -0.14508163029E+01 -0.57547949167E+01  0.12986744767E+02  0.51100000000E-03 0. -1.
        -11    1    4    4    0    0 -0.15193064242E-01  0.23147961083E+02  0.19664544971E+02  0.30373058165E+02  0.51100000000E-03 0.  1.
        -12    1    4    4    0    0 -0.62462223791E+01  0.85880823171E+01 -0.28965468761E+01  0.11007290116E+02  0.00000000000E+00 0.  1.
</event>
<event>
 8    1  0.1229038E-006  0.9118800E+02  0.7816164E-02  0.1184000E+00
        -11   -1    0    0    0    0  0.00000000000E+00  0.00000000000E+00  0.45593999997E+02  0.45594000000E+02  0.51100000000E-03 0.  1.
         11   -1    0    0    0    0 -0.00000000000E+00 -0.00000000000E+00 -0.45593999997E+02  0.45594000000E+02  0.51100000000E-03 0. -1.
         23    2    1    2    0    0 -0.17763568394E-14  0.00000000000E+00 -0.35527136788E-14  0.91188000000E+02  0.91188000000E+02 0.  0.
    9900012    2    3    3    0    0 -0.99367634101E+01  0.25220186959E+02  0.24919561366E+02  0.54367059816E+02  0.39999944464E+02 0.  0.
        -12    1    3    3    0    0  0.99367634101E+01 -0.25220186959E+02 -0.24919561366E+02  0.36820940184E+02  0.00000000000E+00 0.  1.
         11    1    4    4    0    0  0.10129986731E+02  0.10995151906E+02  0.11532493763E+02  0.18881430276E+02  0.51100000000E-03 0. -1.
        -11    1    4    4    0    0 -0.11977812085E+02  0.18539281680E+02  0.41257220897E+01  0.22454276443E+02  0.51100000000E-03 0.  1.
         12    1    4    4    0    0 -0.80889380564E+01 -0.43142466270E+01  0.92613455137E+01  0.13031353098E+02  0.00000000000E+00 0. -1.
</event>
<event>
 8    1  0.1229038E-006  0.9118800E+02  0.7816164E-02  0.1184000E+00
        -11   -1    0    0    0    0  0.00000000000E+00  0.00000000000E+00  0.45593999997E+02  0.45594000000E+02  0.51100000000E-03 0.  1.
         11   -1    0    0    0    0 -0.00000000000E+00 -0.00000000000E+00 -0.45593999997E+02  0.45594000000E+02  0.51100000000E-03 0. -1.
         23    2    1    2    0    0  0.00000000000E+00  0.00000000000E+00 -0.88817841970E-15  0.91188000000E+02  0.91188000000E+02 0.  0.
    9900012    2    3    3    0    0 -0.82508724316E+01  0.35092001034E+02  0.75002751968E+01  0.54367088000E+02  0.40000008714E+02 0.  0.
        -12    1    3    3    0    0  0.82508724316E+01 -0.35092001034E+02 -0.75002751968E+01  0.36820912000E+02  0.00000000000E+00 0.  1.
         11    1    4    4    0    0 -0.19062429165E+02  0.26676434590E+02  0.16413937812E+02  0.36666411371E+02  0.51100000000E-03 0. -1.
        -11    1    4    4    0    0  0.79746230265E+01  0.27760060111E+01 -0.27570194144E+01  0.88826785432E+01  0.51100000000E-03 0.  1.
         12    1    4    4    0    0  0.28369337072E+01  0.56395604336E+01 -0.61566432006E+01  0.88179980859E+01  0.00000000000E+00 0. -1.
</event>
<event>
 8    1  0.1229038E-006  0.9118800E+02  0.7816164E-02  0.1184000E+00
        -11   -1    0    0    0    0  0.00000000000E+00  0.00000000000E+00  0.45593999997E+02  0.45594000000E+02  0.51100000000E-03 0.  1.
         11   -1    0    0    0    0 -0.00000000000E+00 -0.00000000000E+00 -0.45593999997E+02  0.45594000000E+02  0.51100000000E-03 0. -1.
         23    2    1    2    0    0 -0.35527136788E-14 -0.35527136788E-14  0.17763568394E-14  0.91188000000E+02  0.91188000000E+02 0.  0.
    9900012    2    3    3    0    0  0.22514157405E+02  0.28160448251E+02 -0.74754300587E+01  0.54367079535E+02  0.39999989415E+02 0.  0.
        -12    1    3    3    0    0 -0.22514157405E+02 -0.28160448251E+02  0.74754300587E+01  0.36820920465E+02  0.00000000000E+00 0.  1.
         11    1    4    4    0    0  0.50725022655E+01  0.10727380533E+02  0.89849935106E+01  0.14884121774E+02  0.51100000000E-03 0. -1.
        -11    1    4    4    0    0  0.84384326010E+00  0.19177529308E+02 -0.90518751000E+01  0.21223245391E+02  0.51100000000E-03 0.  1.
        -12    1    4    4    0    0  0.16597811879E+02 -0.17444615900E+01 -0.74085484694E+01  0.18259712370E+02  0.00000000000E+00 0.  1.
</event>
<event>
 8    1  0.1229038E-006  0.9118800E+02  0.7816164E-02  0.1184000E+00
        -11   -1    0    0    0    0  0.00000000000E+00  0.00000000000E+00  0.45593999997E+02  0.45594000000E+02  0.51100000000E-03 0. -1.
         11   -1    0    0    0    0 -0.00000000000E+00 -0.00000000000E+00 -0.45593999997E+02  0.45594000000E+02  0.51100000000E-03 0.  1.
         23    2    1    2    0    0  0.00000000000E+00  0.35527136788E-14  0.00000000000E+00  0.91188000000E+02  0.91188000000E+02 0.  0.
    9900012    2    3    3    0    0 -0.22108823231E+02  0.23939470719E+02  0.17143051504E+02  0.54367047570E+02  0.39999916545E+02 0.  0.
        -12    1    3    3    0    0  0.22108823231E+02 -0.23939470719E+02 -0.17143051504E+02  0.36820952430E+02  0.00000000000E+00 0.  1.
         11    1    4    4    0    0 -0.15583788034E+01  0.18298263940E+02  0.11272177703E+02  0.21548016107E+02  0.51100000000E-03 0. -1.
        -11    1    4    4    0    0 -0.10577701401E+02 -0.47055814735E+01  0.12461413978E+02  0.17009323988E+02  0.51100000000E-03 0.  1.
         12    1    4    4    0    0 -0.99727430268E+01  0.10346788253E+02 -0.65905401775E+01  0.15809707475E+02  0.00000000000E+00 0. -1.
</event>
<event>
 8    1  0.1229038E-006  0.9118800E+02  0.7816164E-02  0.1184000E+00
        -11   -1    0    0    0    0  0.00000000000E+00  0.00000000000E+00  0.45593999997E+02  0.45594000000E+02  0.51100000000E-03 0.  1.
         11   -1    0    0    0    0 -0.00000000000E+00 -0.00000000000E+00 -0.45593999997E+02  0.45594000000E+02  0.51100000000E-03 0. -1.
         23    2    1    2    0    0  0.00000000000E+00 -0.11102230246E-14  0.00000000000E+00  0.91188000000E+02  0.91188000000E+02 0.  0.
    9900012    2    3    3    0    0  0.24492061009E+02  0.12508381510E+01 -0.27465511805E+02  0.54367082205E+02  0.39999995503E+02 0.  0.
        -12    1    3    3    0    0 -0.24492061009E+02 -0.12508381510E+01  0.27465511805E+02  0.36820917795E+02  0.00000000000E+00 0.  1.
         11    1    4    4    0    0  0.16504470266E+02  0.59493854936E+01 -0.27250939523E+02  0.32409974262E+02  0.51100000000E-03 0. -1.
        -11    1    4    4    0    0  0.29684013995E+01  0.67396263689E+01  0.44720561792E+01  0.86158723988E+01  0.51100000000E-03 0.  1.
         12    1    4    4    0    0  0.50191893435E+01 -0.11438173712E+02 -0.46866284611E+01  0.13341235544E+02  0.00000000000E+00 0. -1.
</event>
<event>
 8    1  0.1229038E-006  0.9118800E+02  0.7816164E-02  0.1184000E+00
        -11   -1    0    0    0    0  0.00000000000E+00  0.00000000000E+00  0.45593999997E+02  0.45594000000E+02  0.51100000000E-03 0.  1.
         11   -1    0    0    0    0 -0.00000000000E+00 -0.00000000000E+00 -0.45593999997E+02  0.45594000000E+02  0.51100000000E-03 0. -1.
         23    2    1    2    0    0  0.00000000000E+00  0.17763568394E-14 -0.35527136788E-14  0.91188000000E+02  0.91188000000E+02 0.  0.
    9900012    2    3    3    0    0 -0.29515995485E+02  0.15814832774E+02 -0.15312587228E+02  0.54367105758E+02  0.40000049197E+02 0.  0.
        -12    1    3    3    0    0  0.29515995485E+02 -0.15814832774E+02  0.15312587228E+02  0.36820894242E+02  0.00000000000E+00 0.  1.
         11    1    4    4    0    0 -0.16430844488E+02  0.86471028695E+01 -0.20081163680E+02  0.27349555273E+02  0.51100000000E-03 0. -1.
        -11    1    4    4    0    0 -0.47898589281E+01 -0.54858618150E+01 -0.51556703374E+01  0.89229123773E+01  0.51100000000E-03 0.  1.
        -12    1    4    4    0    0 -0.82952920689E+01  0.12653591720E+02  0.99242467896E+01  0.18094638108E+02  0.00000000000E+00 0.  1.
</event>
<event>
 8    1  0.1229038E-006  0.9118800E+02  0.7816164E-02  0.1184000E+00
        -11   -1    0    0    0    0  0.00000000000E+00  0.00000000000E+00  0.45593999997E+02  0.45594000000E+02  0.51100000000E-03 0. -1.
         11   -1    0    0    0    0 -0.00000000000E+00 -0.00000000000E+00 -0.45593999997E+02  0.45594000000E+02  0.51100000000E-03 0.  1.
         23    2    1    2    0    0 -0.17763568394E-14  0.00000000000E+00 -0.35527136788E-14  0.91188000000E+02  0.91188000000E+02 0.  0.
    9900012    2    3    3    0    0 -0.12427102470E+02 -0.24199322284E+02 -0.24814096892E+02  0.54367089102E+02  0.40000011226E+02 0.  0.
         12    1    3    3    0    0  0.12427102470E+02  0.24199322284E+02  0.24814096892E+02  0.36820910898E+02  0.00000000000E+00 0. -1.
         11    1    4    4    0    0 -0.84149029499E+00  0.28289957644E+01 -0.50868046879E+01  0.58810632666E+01  0.51100000000E-03 0. -1.
        -11    1    4    4    0    0 -0.25853057602E+01 -0.23654149179E+02 -0.27325341702E+02  0.36233642912E+02  0.51100000000E-03 0.  1.
         12    1    4    4    0    0 -0.90003064148E+01 -0.33741688691E+01  0.75980494985E+01  0.12252382923E+02  0.00000000000E+00 0. -1.
</event>
<event>
 8    1  0.1229038E-006  0.9118800E+02  0.7816164E-02  0.1184000E+00
        -11   -1    0    0    0    0  0.00000000000E+00  0.00000000000E+00  0.45593999997E+02  0.45594000000E+02  0.51100000000E-03 0.  1.
         11   -1    0    0    0    0 -0.00000000000E+00 -0.00000000000E+00 -0.45593999997E+02  0.45594000000E+02  0.51100000000E-03 0. -1.
         23    2    1    2    0    0  0.24980018054E-15 -0.35527136788E-14  0.00000000000E+00  0.91188000000E+02  0.91188000000E+02 0.  0.
    9900012    2    3    3    0    0 -0.15502139103E+00  0.17131052046E+02  0.32592652046E+02  0.54367109962E+02  0.40000058780E+02 0.  0.
         12    1    3    3    0    0  0.15502139103E+00 -0.17131052046E+02 -0.32592652046E+02  0.36820890038E+02  0.00000000000E+00 0. -1.
         11    1    4    4    0    0  0.55597504297E+01  0.23705559957E+01 -0.35958729162E+01  0.70328275153E+01  0.51100000000E-03 0. -1.
        -11    1    4    4    0    0  0.25152562731E+01  0.19245281045E+02  0.16290970691E+02  0.25339753017E+02  0.51100000000E-03 0.  1.
        -12    1    4    4    0    0 -0.82300280938E+01 -0.44847849953E+01  0.19897554271E+02  0.21994529430E+02  0.00000000000E+00 0.  1.
</event>
<event>
 8    1  0.1229038E-006  0.9118800E+02  0.7816164E-02  0.1184000E+00
        -11   -1    0    0    0    0  0.00000000000E+00  0.00000000000E+00  0.45593999997E+02  0.45594000000E+02  0.51100000000E-03 0. -1.
         11   -1    0    0    0    0 -0.00000000000E+00 -0.00000000000E+00 -0.45593999997E+02  0.45594000000E+02  0.51100000000E-03 0.  1.
         23    2    1    2    0    0  0.00000000000E+00  0.17763568394E-14  0.00000000000E+00  0.91188000000E+02  0.91188000000E+02 0.  0.
    9900012    2    3    3    0    0  0.24920112530E+02  0.14664444197E+02 -0.22797434302E+02  0.54367069229E+02  0.39999965920E+02 0.  0.
         12    1    3    3    0    0 -0.24920112530E+02 -0.14664444197E+02  0.22797434302E+02  0.36820930771E+02  0.00000000000E+00 0. -1.
         11    1    4    4    0    0  0.19857783060E+02 -0.48448497847E+01 -0.20861174445E+01  0.20546435305E+02  0.51100000000E-03 0.  1.
        -11    1    4    4    0    0  0.10610999394E+02  0.15560300754E+02 -0.10548123003E+02  0.21586550601E+02  0.51100000000E-03 0. -1.
        -12    1    4    4    0    0 -0.55486699237E+01  0.39489932280E+01 -0.10163193854E+02  0.12234083322E+02  0.00000000000E+00 0.  1.
</event>
<event>
 8    1  0.1229038E-006  0.9118800E+02  0.7816164E-02  0.1184000E+00
        -11   -1    0    0    0    0  0.00000000000E+00  0.00000000000E+00  0.45593999997E+02  0.45594000000E+02  0.51100000000E-03 0. -1.
         11   -1    0    0    0    0 -0.00000000000E+00 -0.00000000000E+00 -0.45593999997E+02  0.45594000000E+02  0.51100000000E-03 0.  1.
         23    2    1    2    0    0  0.00000000000E+00 -0.88817841970E-15  0.00000000000E+00  0.91188000000E+02  0.91188000000E+02 0.  0.
    9900012    2    3    3    0    0 -0.84700420184E+01  0.60559904657E+01 -0.35318077179E+02  0.54367038471E+02  0.39999895802E+02 0.  0.
         12    1    3    3    0    0  0.84700420184E+01 -0.60559904657E+01  0.35318077179E+02  0.36820961529E+02  0.00000000000E+00 0. -1.
         11    1    4    4    0    0 -0.15554615838E+01  0.37525243020E+01  0.56931942823E+01  0.69938087458E+01  0.51100000000E-03 0. -1.
        -11    1    4    4    0    0 -0.12535469025E+02 -0.55330381757E+01 -0.19872921069E+02  0.24138879162E+02  0.51100000000E-03 0.  1.
         12    1    4    4    0    0  0.56208885900E+01  0.78365043395E+01 -0.21138350392E+02  0.23234350563E+02  0.00000000000E+00 0. -1.
</event>
<event>
 8    1  0.1229038E-006  0.9118800E+02  0.7816164E-02  0.1184000E+00
        -11   -1    0    0    0    0  0.00000000000E+00  0.00000000000E+00  0.45593999997E+02  0.45594000000E+02  0.51100000000E-03 0. -1.
         11   -1    0    0    0    0 -0.00000000000E+00 -0.00000000000E+00 -0.45593999997E+02  0.45594000000E+02  0.51100000000E-03 0.  1.
         23    2    1    2    0    0 -0.35527136788E-14  0.00000000000E+00  0.17763568394E-14  0.91188000000E+02  0.91188000000E+02 0.  0.
    9900012    2    3    3    0    0  0.21273836299E+02 -0.27997360572E+02  0.10924620428E+02  0.54367141219E+02  0.40000130037E+02 0.  0.
         12    1    3    3    0    0 -0.21273836299E+02  0.27997360572E+02 -0.10924620428E+02  0.36820858781E+02  0.00000000000E+00 0. -1.
         11    1    4    4    0    0  0.75690314224E+01  0.51267129645E+01  0.15400324820E+02  0.17909311190E+02  0.51100000000E-03 0. -1.
        -11    1    4    4    0    0  0.76918205332E+00 -0.68066412689E+01 -0.55910261148E+00  0.68727434395E+01  0.51100000000E-03 0.  1.
         12    1    4    4    0    0  0.12935622823E+02 -0.26317432268E+02 -0.39166017803E+01  0.29585086589E+02  0.00000000000E+00 0. -1.
</event>
<event>
 8    1  0.1229038E-006  0.9118800E+02  0.7816164E-02  0.1184000E+00
        -11   -1    0    0    0    0  0.00000000000E+00  0.00000000000E+00  0.45593999997E+02  0.45594000000E+02  0.51100000000E-03 0.  1.
         11   -1    0    0    0    0 -0.00000000000E+00 -0.00000000000E+00 -0.45593999997E+02  0.45594000000E+02  0.51100000000E-03 0. -1.
         23    2    1    2    0    0  0.00000000000E+00  0.00000000000E+00  0.71054273576E-14  0.91188000000E+02  0.91188000000E+02 0.  0.
    9900012    2    3    3    0    0  0.12183465704E+02  0.24161049540E+01  0.34662744482E+02  0.54367078573E+02  0.39999987223E+02 0.  0.
         12    1    3    3    0    0 -0.12183465704E+02 -0.24161049540E+01 -0.34662744482E+02  0.36820921427E+02  0.00000000000E+00 0. -1.
         11    1    4    4    0    0 -0.78986290394E+01  0.19528917054E+01  0.36548027341E+00  0.81446732781E+01  0.51100000000E-03 0. -1.
        -11    1    4    4    0    0  0.14204789511E+02  0.61970716741E+01  0.34697948140E+02  0.38001675592E+02  0.51100000000E-03 0.  1.
        -12    1    4    4    0    0  0.58773052326E+01 -0.57338584255E+01 -0.40068393162E+00  0.82207297032E+01  0.00000000000E+00 0.  1.
</event>
<event>
 8    1  0.1229038E-006  0.9118800E+02  0.7816164E-02  0.1184000E+00
        -11   -1    0    0    0    0  0.00000000000E+00  0.00000000000E+00  0.45593999997E+02  0.45594000000E+02  0.51100000000E-03 0.  1.
         11   -1    0    0    0    0 -0.00000000000E+00 -0.00000000000E+00 -0.45593999997E+02  0.45594000000E+02  0.51100000000E-03 0. -1.
         23    2    1    2    0    0 -0.44408920985E-15  0.00000000000E+00 -0.35527136788E-14  0.91188000000E+02  0.91188000000E+02 0.  0.
    9900012    2    3    3    0    0  0.23917573815E+01 -0.28938639179E+02  0.22641027116E+02  0.54367062345E+02  0.39999950228E+02 0.  0.
         12    1    3    3    0    0 -0.23917573815E+01  0.28938639179E+02 -0.22641027116E+02  0.36820937655E+02  0.00000000000E+00 0. -1.
         11    1    4    4    0    0 -0.65889689099E+01  0.10488471484E+01  0.94852567087E+01  0.11596753284E+02  0.51100000000E-03 0. -1.
        -11    1    4    4    0    0 -0.18958445790E+00 -0.22413524872E+02  0.19123234747E+02  0.29463539279E+02  0.51100000000E-03 0.  1.
         12    1    4    4    0    0  0.91703107493E+01 -0.75739614562E+01 -0.59674643396E+01  0.13306769782E+02  0.00000000000E+00 0. -1.
</event>
<event>
 8    1  0.1229038E-006  0.9118800E+02  0.7816164E-02  0.1184000E+00
        -11   -1    0    0    0    0  0.00000000000E+00  0.00000000000E+00  0.45593999997E+02  0.45594000000E+02  0.51100000000E-03 0. -1.
         11   -1    0    0    0    0 -0.00000000000E+00 -0.00000000000E+00 -0.45593999997E+02  0.45594000000E+02  0.51100000000E-03 0.  1.
         23    2    1    2    0    0  0.00000000000E+00  0.35527136788E-14  0.00000000000E+00  0.91188000000E+02  0.91188000000E+02 0.  0.
    9900012    2    3    3    0    0  0.56184964602E+01 -0.22479879517E+02 -0.28615881556E+02  0.54367066242E+02  0.39999959112E+02 0.  0.
         12    1    3    3    0    0 -0.56184964602E+01  0.22479879517E+02  0.28615881556E+02  0.36820933758E+02  0.00000000000E+00 0. -1.
         11    1    4    4    0    0 -0.67546447743E+01 -0.36124876028E+00 -0.19439533567E+02  0.20582788738E+02  0.51100000000E-03 0.  1.
        -11    1    4    4    0    0 -0.88250502890E+00 -0.10849346392E+01  0.49811337666E+01  0.51737406351E+01  0.51100000000E-03 0. -1.
        -12    1    4    4    0    0  0.13255646263E+02 -0.21033696117E+02 -0.14157481756E+02  0.28610536868E+02  0.00000000000E+00 0.  1.
</event>
<event>
 8    1  0.1229038E-006  0.9118800E+02  0.7816164E-02  0.1184000E+00
        -11   -1    0    0    0    0  0.00000000000E+00  0.00000000000E+00  0.45593999997E+02  0.45594000000E+02  0.51100000000E-03 0. -1.
         11   -1    0    0    0    0 -0.00000000000E+00 -0.00000000000E+00 -0.45593999997E+02  0.45594000000E+02  0.51100000000E-03 0.  1.
         23    2    1    2    0    0  0.17763568394E-14  0.35527136788E-14  0.00000000000E+00  0.91188000000E+02  0.91188000000E+02 0.  0.
    9900012    2    3    3    0    0  0.10723366178E+02 -0.31538906407E+02 -0.15687082325E+02  0.54367112566E+02  0.40000064716E+02 0.  0.
         12    1    3    3    0    0 -0.10723366178E+02  0.31538906407E+02  0.15687082325E+02  0.36820887434E+02  0.00000000000E+00 0. -1.
         11    1    4    4    0    0  0.17263877077E+02 -0.22230852245E+02 -0.22687948716E+02  0.36152389416E+02  0.51100000000E-03 0. -1.
        -11    1    4    4    0    0 -0.30563340398E+01 -0.12003799008E+02  0.55834300016E+01  0.13587018041E+02  0.51100000000E-03 0.  1.
         12    1    4    4    0    0 -0.34841768590E+01  0.26957448461E+01  0.14174363895E+01  0.46277051092E+01  0.00000000000E+00 0. -1.
</event>
<event>
 8    1  0.1229038E-006  0.9118800E+02  0.7816164E-02  0.1184000E+00
        -11   -1    0    0    0    0  0.00000000000E+00  0.00000000000E+00  0.45593999997E+02  0.45594000000E+02  0.51100000000E-03 0. -1.
         11   -1    0    0    0    0 -0.00000000000E+00 -0.00000000000E+00 -0.45593999997E+02  0.45594000000E+02  0.51100000000E-03 0.  1.
         23    2    1    2    0    0 -0.71054273576E-14 -0.35527136788E-14  0.35527136788E-14  0.91188000000E+02  0.91188000000E+02 0.  0.
    9900012    2    3    3    0    0  0.26861104168E+02  0.17777486920E+02 -0.17838769634E+02  0.54367086644E+02  0.40000005622E+02 0.  0.
         12    1    3    3    0    0 -0.26861104168E+02 -0.17777486920E+02  0.17838769634E+02  0.36820913356E+02  0.00000000000E+00 0. -1.
         11    1    4    4    0    0 -0.32897708213E+01 -0.45800455334E+01 -0.15775100921E+01  0.58555911312E+01  0.51100000000E-03 0. -1.
        -11    1    4    4    0    0 -0.16021388105E+01 -0.40748325149E+01 -0.18815307336E+01  0.47656339511E+01  0.51100000000E-03 0.  1.
        -12    1    4    4    0    0  0.31753013800E+02  0.26432364968E+02 -0.14379728808E+02  0.43745861562E+02  0.00000000000E+00 0.  1.
</event>
<event>
 8    1  0.1229038E-006  0.9118800E+02  0.7816164E-02  0.1184000E+00
        -11   -1    0    0    0    0  0.00000000000E+00  0.00000000000E+00  0.45593999997E+02  0.45594000000E+02  0.51100000000E-03 0.  1.
         11   -1    0    0    0    0 -0.00000000000E+00 -0.00000000000E+00 -0.45593999997E+02  0.45594000000E+02  0.51100000000E-03 0. -1.
         23    2    1    2    0    0  0.17763568394E-14 -0.35527136788E-14  0.00000000000E+00  0.91188000000E+02  0.91188000000E+02 0.  0.
    9900012    2    3    3    0    0 -0.70609581682E+01  0.14278832346E+02 -0.33196963053E+02  0.54367074708E+02  0.39999978412E+02 0.  0.
        -12    1    3    3    0    0  0.70609581682E+01 -0.14278832346E+02  0.33196963053E+02  0.36820925292E+02  0.00000000000E+00 0.  1.
         11    1    4    4    0    0 -0.11365617946E+02  0.14745416404E+02 -0.94262794321E+01  0.20867662073E+02  0.51100000000E-03 0. -1.
        -11    1    4    4    0    0  0.10942366282E+02 -0.38067766293E+01 -0.38028875629E+01  0.12193805076E+02  0.51100000000E-03 0.  1.
        -12    1    4    4    0    0 -0.66377065035E+01  0.33401925718E+01 -0.19967796058E+02  0.21305607559E+02  0.00000000000E+00 0.  1.
</event>
<event>
 8    1  0.1229038E-006  0.9118800E+02  0.7816164E-02  0.1184000E+00
        -11   -1    0    0    0    0  0.00000000000E+00  0.00000000000E+00  0.45593999997E+02  0.45594000000E+02  0.51100000000E-03 0. -1.
         11   -1    0    0    0    0 -0.00000000000E+00 -0.00000000000E+00 -0.45593999997E+02  0.45594000000E+02  0.51100000000E-03 0.  1.
         23    2    1    2    0    0  0.00000000000E+00 -0.88817841970E-15  0.00000000000E+00  0.91188000000E+02  0.91188000000E+02 0.  0.
    9900012    2    3    3    0    0 -0.34029033602E+02 -0.77375216273E+01 -0.11744686907E+02  0.54367054339E+02  0.39999931977E+02 0.  0.
        -12    1    3    3    0    0  0.34029033602E+02  0.77375216273E+01  0.11744686907E+02  0.36820945661E+02  0.00000000000E+00 0.  1.
         11    1    4    4    0    0  0.30076566880E+01  0.76186235650E+01 -0.56320872041E+01  0.99403133911E+01  0.51100000000E-03 0. -1.
        -11    1    4    4    0    0 -0.78551047443E+01 -0.73495043683E+01 -0.90049135646E+01  0.14028768783E+02  0.51100000000E-03 0.  1.
         12    1    4    4    0    0 -0.29181585546E+02 -0.80066408241E+01  0.28923138618E+01  0.30397972165E+02  0.00000000000E+00 0. -1.
</event>
<event>
 8    1  0.1229038E-006  0.9118800E+02  0.7816164E-02  0.1184000E+00
        -11   -1    0    0    0    0  0.00000000000E+00  0.00000000000E+00  0.45593999997E+02  0.45594000000E+02  0.51100000000E-03 0.  1.
         11   -1    0    0    0    0 -0.00000000000E+00 -0.00000000000E+00 -0.45593999997E+02  0.45594000000E+02  0.51100000000E-03 0. -1.
         23    2    1    2    0    0 -0.17763568394E-14  0.17763568394E-14  0.71054273576E-14  0.91188000000E+02  0.91188000000E+02 0.  0.
    9900012    2    3    3    0    0 -0.55500597183E+01  0.86597506484E+01  0.35355130301E+02  0.54367086340E+02  0.40000004928E+02 0.  0.
         12    1    3    3    0    0  0.55500597183E+01 -0.86597506484E+01 -0.35355130301E+02  0.36820913660E+02  0.00000000000E+00 0. -1.
         11    1    4    4    0    0  0.13969493459E+02 -0.22033983666E+01  0.21484396401E+02  0.25721216939E+02  0.51100000000E-03 0. -1.
        -11    1    4    4    0    0 -0.37060274737E+01  0.69468975963E+01  0.82701598613E+01  0.11418825257E+02  0.51100000000E-03 0.  1.
        -12    1    4    4    0    0 -0.15813525704E+02  0.39162514187E+01  0.56005740392E+01  0.17227044144E+02  0.00000000000E+00 0.  1.
</event>
<event>
 8    1  0.1229038E-006  0.9118800E+02  0.7816164E-02  0.1184000E+00
        -11   -1    0    0    0    0  0.00000000000E+00  0.00000000000E+00  0.45593999997E+02  0.45594000000E+02  0.51100000000E-03 0. -1.
         11   -1    0    0    0    0 -0.00000000000E+00 -0.00000000000E+00 -0.45593999997E+02  0.45594000000E+02  0.51100000000E-03 0.  1.
         23    2    1    2    0    0  0.71054273576E-14 -0.13322676296E-14 -0.17763568394E-14  0.91188000000E+02  0.91188000000E+02 0.  0.
    9900012    2    3    3    0    0 -0.36061303976E+02 -0.95870139025E+00 -0.73786167689E+01  0.54367072007E+02  0.39999972255E+02 0.  0.
         12    1    3    3    0    0  0.36061303976E+02  0.95870139025E+00  0.73786167689E+01  0.36820927993E+02  0.00000000000E+00 0. -1.
         11    1    4    4    0    0  0.53357541695E+01  0.18717981380E+00 -0.46918569886E+01  0.71076600300E+01  0.51100000000E-03 0.  1.
        -11    1    4    4    0    0 -0.91096668585E+01  0.32547391953E+01  0.84280151554E+01  0.12830073937E+02  0.51100000000E-03 0. -1.
        -12    1    4    4    0    0 -0.32287391287E+02 -0.44006203993E+01 -0.11114774936E+02  0.34429338040E+02  0.00000000000E+00 0.  1.
</event>
<event>
 8    1  0.1229038E-006  0.9118800E+02  0.7816164E-02  0.1184000E+00
        -11   -1    0    0    0    0  0.00000000000E+00  0.00000000000E+00  0.45593999997E+02  0.45594000000E+02  0.51100000000E-03 0.  1.
         11   -1    0    0    0    0 -0.00000000000E+00 -0.00000000000E+00 -0.45593999997E+02  0.45594000000E+02  0.51100000000E-03 0. -1.
         23    2    1    2    0    0  0.71054273576E-14 -0.17763568394E-14 -0.17763568394E-14  0.91188000000E+02  0.91188000000E+02 0.  0.
    9900012    2    3    3    0    0  0.33537227369E+02 -0.11808395530E+02 -0.95704679781E+01  0.54367113510E+02  0.40000066868E+02 0.  0.
         12    1    3    3    0    0 -0.33537227369E+02  0.11808395530E+02  0.95704679781E+01  0.36820886490E+02  0.00000000000E+00 0. -1.
         11    1    4    4    0    0  0.26996033212E+02  0.10147035480E+02 -0.33131760924E+01  0.29029730869E+02  0.51100000000E-03 0.  1.
        -11    1    4    4    0    0  0.82628867039E+01 -0.12796298898E+02 -0.37818733408E+01  0.15694684718E+02  0.51100000000E-03 0. -1.
        -12    1    4    4    0    0 -0.17216925468E+01 -0.91591321119E+01 -0.24754185448E+01  0.96426979233E+01  0.00000000000E+00 0.  1.
</event>
<event>
 8    1  0.1229038E-006  0.9118800E+02  0.7816164E-02  0.1184000E+00
        -11   -1    0    0    0    0  0.00000000000E+00  0.00000000000E+00  0.45593999997E+02  0.45594000000E+02  0.51100000000E-03 0. -1.
         11   -1    0    0    0    0 -0.00000000000E+00 -0.00000000000E+00 -0.45593999997E+02  0.45594000000E+02  0.51100000000E-03 0.  1.
         23    2    1    2    0    0  0.00000000000E+00 -0.13322676296E-14  0.00000000000E+00  0.91188000000E+02  0.91188000000E+02 0.  0.
    9900012    2    3    3    0    0  0.35798690945E+02  0.32991658947E+01 -0.79591968192E+01  0.54367087695E+02  0.40000008018E+02 0.  0.
         12    1    3    3    0    0 -0.35798690945E+02 -0.32991658947E+01  0.79591968192E+01  0.36820912305E+02  0.00000000000E+00 0. -1.
         11    1    4    4    0    0  0.23168515721E+02  0.97014528925E+01  0.52646281531E+01  0.25663488048E+02  0.51100000000E-03 0.  1.
        -11    1    4    4    0    0 -0.54156025092E+01 -0.88576060955E+00 -0.68696595778E+01  0.87923572135E+01  0.51100000000E-03 0. -1.
        -12    1    4    4    0    0  0.18045777733E+02 -0.55165263882E+01 -0.63541653945E+01  0.19911242433E+02  0.00000000000E+00 0.  1.
</event>
<event>
 8    1  0.1229038E-006  0.9118800E+02  0.7816164E-02  0.1184000E+00
        -11   -1    0    0    0    0  0.00000000000E+00  0.00000000000E+00  0.45593999997E+02  0.45594000000E+02  0.51100000000E-03 0. -1.
         11   -1    0    0    0    0 -0.00000000000E+00 -0.00000000000E+00 -0.45593999997E+02  0.45594000000E+02  0.51100000000E-03 0.  1.
         23    2    1    2    0    0 -0.17763568394E-14  0.71054273576E-14  0.35527136788E-14  0.91188000000E+02  0.91188000000E+02 0.  0.
    9900012    2    3    3    0    0  0.14535145628E+02 -0.19424335481E+02 -0.27698450760E+02  0.54367089612E+02  0.40000012389E+02 0.  0.
         12    1    3    3    0    0 -0.14535145628E+02  0.19424335481E+02  0.27698450760E+02  0.36820910388E+02  0.00000000000E+00 0. -1.
         11    1    4    4    0    0  0.53296286881E+01  0.42614737269E+01 -0.13918377263E+01  0.69643601856E+01  0.51100000000E-03 0. -1.
        -11    1    4    4    0    0  0.68639004522E+01 -0.26649685621E+02 -0.30951171372E+02  0.41416106561E+02  0.51100000000E-03 0.  1.
         12    1    4    4    0    0  0.23416164878E+01  0.29638764135E+01  0.46445583385E+01  0.59866228652E+01  0.00000000000E+00 0. -1.
</event>
<event>
 8    1  0.1229038E-006  0.9118800E+02  0.7816164E-02  0.1184000E+00
        -11   -1    0    0    0    0  0.00000000000E+00  0.00000000000E+00  0.45593999997E+02  0.45594000000E+02  0.51100000000E-03 0. -1.
         11   -1    0    0    0    0 -0.00000000000E+00 -0.00000000000E+00 -0.45593999997E+02  0.45594000000E+02  0.51100000000E-03 0.  1.
         23    2    1    2    0    0  0.00000000000E+00  0.00000000000E+00  0.00000000000E+00  0.91188000000E+02  0.91188000000E+02 0.  0.
    9900012    2    3    3    0    0 -0.12774932306E+02  0.29248171370E+02  0.18360995282E+02  0.54367074270E+02  0.39999977413E+02 0.  0.
        -12    1    3    3    0    0  0.12774932306E+02 -0.29248171370E+02 -0.18360995282E+02  0.36820925730E+02  0.00000000000E+00 0.  1.
         11    1    4    4    0    0 -0.16406535370E+02  0.10236928064E+02  0.86244155474E+01  0.21174268413E+02  0.51100000000E-03 0. -1.
        -11    1    4    4    0    0 -0.49919407256E+01  0.96952884894E+01 -0.64131776950E+01  0.12650965952E+02  0.51100000000E-03 0.  1.
         12    1    4    4    0    0  0.86235437902E+01  0.93159548158E+01  0.16149757430E+02  0.20541839905E+02  0.00000000000E+00 0. -1.
</event>
<event>
 8    1  0.1229038E-006  0.9118800E+02  0.7816164E-02  0.1184000E+00
        -11   -1    0    0    0    0  0.00000000000E+00  0.00000000000E+00  0.45593999997E+02  0.45594000000E+02  0.51100000000E-03 0.  1.
         11   -1    0    0    0    0 -0.00000000000E+00 -0.00000000000E+00 -0.45593999997E+02  0.45594000000E+02  0.51100000000E-03 0. -1.
         23    2    1    2    0    0  0.88817841970E-15 -0.35527136788E-14  0.00000000000E+00  0.91188000000E+02  0.91188000000E+02 0.  0.
    9900012    2    3    3    0    0 -0.72654787166E+01 -0.30990347713E+02  0.18509270447E+02  0.54367055895E+02  0.39999935523E+02 0.  0.
         12    1    3    3    0    0  0.72654787166E+01  0.30990347713E+02 -0.18509270447E+02  0.36820944105E+02  0.00000000000E+00 0. -1.
         11    1    4    4    0    0  0.64834986608E+01 -0.44709440282E+01 -0.75138795736E+01  0.10885011800E+02  0.51100000000E-03 0. -1.
        -11    1    4    4    0    0 -0.14872687482E+02 -0.11259425888E+02  0.19065047581E+02  0.26672974033E+02  0.51100000000E-03 0.  1.
        -12    1    4    4    0    0  0.11237101045E+01 -0.15259977797E+02  0.69581024395E+01  0.16809070061E+02  0.00000000000E+00 0.  1.
</event>
<event>
 8    1  0.1229038E-006  0.9118800E+02  0.7816164E-02  0.1184000E+00
        -11   -1    0    0    0    0  0.00000000000E+00  0.00000000000E+00  0.45593999997E+02  0.45594000000E+02  0.51100000000E-03 0. -1.
         11   -1    0    0    0    0 -0.00000000000E+00 -0.00000000000E+00 -0.45593999997E+02  0.45594000000E+02  0.51100000000E-03 0.  1.
         23    2    1    2    0    0  0.00000000000E+00  0.00000000000E+00  0.00000000000E+00  0.91188000000E+02  0.91188000000E+02 0.  0.
    9900012    2    3    3    0    0  0.34244095503E+02 -0.27792135326E+01 -0.13243792353E+02  0.54367080123E+02  0.39999990756E+02 0.  0.
         12    1    3    3    0    0 -0.34244095503E+02  0.27792135326E+01  0.13243792353E+02  0.36820919877E+02  0.00000000000E+00 0. -1.
         11    1    4    4    0    0  0.13319827069E+02 -0.20867550817E+01  0.73574760980E+01  0.15359192515E+02  0.51100000000E-03 0. -1.
        -11    1    4    4    0    0  0.26190045348E+02 -0.31956946100E+01 -0.20075906897E+02  0.33153777724E+02  0.51100000000E-03 0.  1.
        -12    1    4    4    0    0 -0.52657769134E+01  0.25032361591E+01 -0.52536155417E+00  0.58541098839E+01  0.00000000000E+00 0.  1.
</event>
<event>
 8    1  0.1229038E-006  0.9118800E+02  0.7816164E-02  0.1184000E+00
        -11   -1    0    0    0    0  0.00000000000E+00  0.00000000000E+00  0.45593999997E+02  0.45594000000E+02  0.51100000000E-03 0.  1.
         11   -1    0    0    0    0 -0.00000000000E+00 -0.00000000000E+00 -0.45593999997E+02  0.45594000000E+02  0.51100000000E-03 0. -1.
         23    2    1    2    0    0 -0.88817841970E-15  0.00000000000E+00 -0.71054273576E-14  0.91188000000E+02  0.91188000000E+02 0.  0.
    9900012    2    3    3    0    0  0.22198425064E+01 -0.23058462259E+02  0.28620955554E+02  0.54367089103E+02  0.40000011227E+02 0.  0.
         12    1    3    3    0    0 -0.22198425064E+01  0.23058462259E+02 -0.28620955554E+02  0.36820910897E+02  0.00000000000E+00 0. -1.
         11    1    4    4    0    0  0.11672814972E+02 -0.13741228295E+01  0.12449037151E+00  0.11754076783E+02  0.51100000000E-03 0. -1.
        -11    1    4    4    0    0  0.18335163054E+01 -0.37930285953E+01 -0.26390238428E+01  0.49712468326E+01  0.51100000000E-03 0.  1.
        -12    1    4    4    0    0 -0.11286488771E+02 -0.17891310834E+02  0.31135489025E+02  0.37641765487E+02  0.00000000000E+00 0.  1.
</event>
<event>
 8    1  0.1229038E-006  0.9118800E+02  0.7816164E-02  0.1184000E+00
        -11   -1    0    0    0    0  0.00000000000E+00  0.00000000000E+00  0.45593999997E+02  0.45594000000E+02  0.51100000000E-03 0. -1.
         11   -1    0    0    0    0 -0.00000000000E+00 -0.00000000000E+00 -0.45593999997E+02  0.45594000000E+02  0.51100000000E-03 0.  1.
         23    2    1    2    0    0  0.44408920985E-15  0.00000000000E+00  0.16653345369E-15  0.91188000000E+02  0.91188000000E+02 0.  0.
    9900012    2    3    3    0    0 -0.34277035196E+01  0.36658795395E+02  0.40437320547E+00  0.54367082726E+02  0.39999996689E+02 0.  0.
         12    1    3    3    0    0  0.34277035196E+01 -0.36658795395E+02 -0.40437320547E+00  0.36820917274E+02  0.00000000000E+00 0. -1.
         11    1    4    4    0    0  0.22058994442E+01 -0.24630812007E+01  0.50995123759E+01  0.60776465916E+01  0.51100000000E-03 0. -1.
        -11    1    4    4    0    0 -0.73669520267E+01  0.22850172466E+01  0.61337679656E+01  0.98547651265E+01  0.51100000000E-03 0.  1.
        -12    1    4    4    0    0  0.17333490629E+01  0.36836859349E+02 -0.10828907136E+02  0.38434671008E+02  0.00000000000E+00 0.  1.
</event>
<event>
 8    1  0.1229038E-006  0.9118800E+02  0.7816164E-02  0.1184000E+00
        -11   -1    0    0    0    0  0.00000000000E+00  0.00000000000E+00  0.45593999997E+02  0.45594000000E+02  0.51100000000E-03 0.  1.
         11   -1    0    0    0    0 -0.00000000000E+00 -0.00000000000E+00 -0.45593999997E+02  0.45594000000E+02  0.51100000000E-03 0. -1.
         23    2    1    2    0    0  0.00000000000E+00  0.35527136788E-14 -0.88817841970E-15  0.91188000000E+02  0.91188000000E+02 0.  0.
    9900012    2    3    3    0    0  0.24146502896E+02  0.27529183215E+02  0.38573885017E+01  0.54366960136E+02  0.39999717221E+02 0.  0.
         12    1    3    3    0    0 -0.24146502896E+02 -0.27529183215E+02 -0.38573885017E+01  0.36821039864E+02  0.00000000000E+00 0. -1.
         11    1    4    4    0    0  0.13349548703E+02  0.16519326230E+01  0.73032366151E+01  0.15306096736E+02  0.51100000000E-03 0. -1.
        -11    1    4    4    0    0 -0.51211239226E+01  0.28695293782E+01  0.70547844312E+01  0.91776953923E+01  0.51100000000E-03 0.  1.
        -12    1    4    4    0    0  0.15918078115E+02  0.23007721214E+02 -0.10500632545E+02  0.29883168008E+02  0.00000000000E+00 0.  1.
</event>
<event>
 8    1  0.1229038E-006  0.9118800E+02  0.7816164E-02  0.1184000E+00
        -11   -1    0    0    0    0  0.00000000000E+00  0.00000000000E+00  0.45593999997E+02  0.45594000000E+02  0.51100000000E-03 0.  1.
         11   -1    0    0    0    0 -0.00000000000E+00 -0.00000000000E+00 -0.45593999997E+02  0.45594000000E+02  0.51100000000E-03 0. -1.
         23    2    1    2    0    0  0.00000000000E+00  0.24424906542E-14  0.71054273576E-14  0.91188000000E+02  0.91188000000E+02 0.  0.
    9900012    2    3    3    0    0  0.13841992769E+02 -0.10240451855E+01  0.34104731365E+02  0.54367053056E+02  0.39999929052E+02 0.  0.
         12    1    3    3    0    0 -0.13841992769E+02  0.10240451855E+01 -0.34104731365E+02  0.36820946944E+02  0.00000000000E+00 0. -1.
         11    1    4    4    0    0  0.12394696496E+02  0.87308600673E+01 -0.23068262855E+00  0.15162771299E+02  0.51100000000E-03 0. -1.
        -11    1    4    4    0    0  0.15361901838E+01  0.36904609897E+01  0.26827200902E+01  0.48141842446E+01  0.51100000000E-03 0.  1.
         12    1    4    4    0    0 -0.88893911053E-01 -0.13445366243E+02  0.31652693904E+02  0.34390097512E+02  0.00000000000E+00 0. -1.
</event>
<event>
 8    1  0.1229038E-006  0.9118800E+02  0.7816164E-02  0.1184000E+00
        -11   -1    0    0    0    0  0.00000000000E+00  0.00000000000E+00  0.45593999997E+02  0.45594000000E+02  0.51100000000E-03 0. -1.
         11   -1    0    0    0    0 -0.00000000000E+00 -0.00000000000E+00 -0.45593999997E+02  0.45594000000E+02  0.51100000000E-03 0.  1.
         23    2    1    2    0    0  0.00000000000E+00  0.00000000000E+00  0.00000000000E+00  0.91188000000E+02  0.91188000000E+02 0.  0.
    9900012    2    3    3    0    0  0.34308638004E+02 -0.12981085837E+02  0.31920378077E+01  0.54367077462E+02  0.39999984689E+02 0.  0.
         12    1    3    3    0    0 -0.34308638004E+02  0.12981085837E+02 -0.31920378077E+01  0.36820922538E+02  0.00000000000E+00 0. -1.
         11    1    4    4    0    0  0.20220089217E+02  0.72570259786E+01  0.11767285195E+02  0.24494600122E+02  0.51100000000E-03 0.  1.
        -11    1    4    4    0    0  0.41329030270E+01 -0.16360326115E+02 -0.12545483613E+01  0.16920846606E+02  0.51100000000E-03 0. -1.
        -12    1    4    4    0    0  0.99556457599E+01 -0.38777857012E+01 -0.73206990257E+01  0.12951630734E+02  0.00000000000E+00 0.  1.
</event>
<event>
 8    1  0.1229038E-006  0.9118800E+02  0.7816164E-02  0.1184000E+00
        -11   -1    0    0    0    0  0.00000000000E+00  0.00000000000E+00  0.45593999997E+02  0.45594000000E+02  0.51100000000E-03 0. -1.
         11   -1    0    0    0    0 -0.00000000000E+00 -0.00000000000E+00 -0.45593999997E+02  0.45594000000E+02  0.51100000000E-03 0.  1.
         23    2    1    2    0    0  0.00000000000E+00 -0.88817841970E-15  0.00000000000E+00  0.91188000000E+02  0.91188000000E+02 0.  0.
    9900012    2    3    3    0    0 -0.31341256461E+02  0.65176517200E+01  0.18194274380E+02  0.54367003806E+02  0.39999816776E+02 0.  0.
        -12    1    3    3    0    0  0.31341256461E+02 -0.65176517200E+01 -0.18194274380E+02  0.36820996194E+02  0.00000000000E+00 0.  1.
         11    1    4    4    0    0 -0.42699836837E+01  0.10390623641E+02  0.72449539557E+01  0.13367392355E+02  0.51100000000E-03 0. -1.
        -11    1    4    4    0    0 -0.32017560259E+02 -0.23347200350E+01  0.13961937748E+02  0.35007296218E+02  0.51100000000E-03 0.  1.
        -12    1    4    4    0    0  0.49462874813E+01 -0.15382518855E+01 -0.30126173238E+01  0.59923152329E+01  0.00000000000E+00 0.  1.
</event>
<event>
 8    1  0.1229038E-006  0.9118800E+02  0.7816164E-02  0.1184000E+00
        -11   -1    0    0    0    0  0.00000000000E+00  0.00000000000E+00  0.45593999997E+02  0.45594000000E+02  0.51100000000E-03 0. -1.
         11   -1    0    0    0    0 -0.00000000000E+00 -0.00000000000E+00 -0.45593999997E+02  0.45594000000E+02  0.51100000000E-03 0.  1.
         23    2    1    2    0    0  0.00000000000E+00  0.35527136788E-14  0.00000000000E+00  0.91188000000E+02  0.91188000000E+02 0.  0.
    9900012    2    3    3    0    0  0.76654797360E+01  0.25932931939E+02 -0.24989900955E+02  0.54367194899E+02  0.40000252411E+02 0.  0.
         12    1    3    3    0    0 -0.76654797360E+01 -0.25932931939E+02  0.24989900955E+02  0.36820805101E+02  0.00000000000E+00 0. -1.
         11    1    4    4    0    0  0.14936737385E+02  0.26897675218E+02 -0.18069359743E+02  0.35680426254E+02  0.51100000000E-03 0. -1.
        -11    1    4    4    0    0 -0.50522676223E+01  0.38063035319E+01 -0.10545475953E+02  0.12297171139E+02  0.51100000000E-03 0.  1.
        -12    1    4    4    0    0 -0.22189900271E+01 -0.47710468108E+01  0.36249347410E+01  0.63895975059E+01  0.00000000000E+00 0.  1.
</event>
<event>
 8    1  0.1229038E-006  0.9118800E+02  0.7816164E-02  0.1184000E+00
        -11   -1    0    0    0    0  0.00000000000E+00  0.00000000000E+00  0.45593999997E+02  0.45594000000E+02  0.51100000000E-03 0.  1.
         11   -1    0    0    0    0 -0.00000000000E+00 -0.00000000000E+00 -0.45593999997E+02  0.45594000000E+02  0.51100000000E-03 0. -1.
         23    2    1    2    0    0  0.35527136788E-14  0.00000000000E+00 -0.17763568394E-14  0.91188000000E+02  0.91188000000E+02 0.  0.
    9900012    2    3    3    0    0 -0.26329903516E+02  0.25234086178E+02  0.50751481726E+01  0.54367081307E+02  0.39999993456E+02 0.  0.
        -12    1    3    3    0    0  0.26329903516E+02 -0.25234086178E+02 -0.50751481726E+01  0.36820918693E+02  0.00000000000E+00 0.  1.
         11    1    4    4    0    0  0.19896176678E+01 -0.17842754861E+01 -0.46751354757E+01  0.53850821212E+01  0.51100000000E-03 0. -1.
        -11    1    4    4    0    0 -0.85211837475E+01  0.22335109224E+02 -0.42571414786E+01  0.24281493577E+02  0.51100000000E-03 0.  1.
        -12    1    4    4    0    0 -0.19798337436E+02  0.46832524403E+01  0.14007425127E+02  0.24700505609E+02  0.00000000000E+00 0.  1.
</event>
<event>
 8    1  0.1229038E-006  0.9118800E+02  0.7816164E-02  0.1184000E+00
        -11   -1    0    0    0    0  0.00000000000E+00  0.00000000000E+00  0.45593999997E+02  0.45594000000E+02  0.51100000000E-03 0. -1.
         11   -1    0    0    0    0 -0.00000000000E+00 -0.00000000000E+00 -0.45593999997E+02  0.45594000000E+02  0.51100000000E-03 0.  1.
         23    2    1    2    0    0  0.00000000000E+00 -0.17763568394E-14  0.00000000000E+00  0.91188000000E+02  0.91188000000E+02 0.  0.
    9900012    2    3    3    0    0 -0.32930887443E+02  0.12871055862E+02 -0.10279703632E+02  0.54367085650E+02  0.40000003356E+02 0.  0.
         12    1    3    3    0    0  0.32930887443E+02 -0.12871055862E+02  0.10279703632E+02  0.36820914350E+02  0.00000000000E+00 0. -1.
         11    1    4    4    0    0 -0.24519050504E+02 -0.91268607218E+01 -0.95996547151E+01  0.27868204017E+02  0.51100000000E-03 0. -1.
        -11    1    4    4    0    0 -0.59164864556E+01  0.82642038028E+01 -0.57146135719E+01  0.11660132290E+02  0.51100000000E-03 0.  1.
         12    1    4    4    0    0 -0.24953504843E+01  0.13733712781E+02  0.50345646554E+01  0.14838749343E+02  0.00000000000E+00 0. -1.
</event>
<event>
 8    1  0.1229038E-006  0.9118800E+02  0.7816164E-02  0.1184000E+00
        -11   -1    0    0    0    0  0.00000000000E+00  0.00000000000E+00  0.45593999997E+02  0.45594000000E+02  0.51100000000E-03 0. -1.
         11   -1    0    0    0    0 -0.00000000000E+00 -0.00000000000E+00 -0.45593999997E+02  0.45594000000E+02  0.51100000000E-03 0.  1.
         23    2    1    2    0    0  0.71054273576E-14  0.35527136788E-14 -0.88817841970E-15  0.91188000000E+02  0.91188000000E+02 0.  0.
    9900012    2    3    3    0    0 -0.32703298781E+02 -0.16663674226E+02  0.29319559499E+01  0.54367079919E+02  0.39999990292E+02 0.  0.
         12    1    3    3    0    0  0.32703298781E+02  0.16663674226E+02 -0.29319559499E+01  0.36820920081E+02  0.00000000000E+00 0. -1.
         11    1    4    4    0    0  0.30511393560E+01 -0.80427437554E+01  0.10359189695E+02  0.13465065536E+02  0.51100000000E-03 0. -1.
        -11    1    4    4    0    0 -0.22625758706E+02  0.12317785281E+01 -0.90664615075E+01  0.24405797669E+02  0.51100000000E-03 0.  1.
         12    1    4    4    0    0 -0.13128679432E+02 -0.98527089988E+01  0.16392277627E+01  0.16496216714E+02  0.00000000000E+00 0. -1.
</event>
<event>
 8    1  0.1229038E-006  0.9118800E+02  0.7816164E-02  0.1184000E+00
        -11   -1    0    0    0    0  0.00000000000E+00  0.00000000000E+00  0.45593999997E+02  0.45594000000E+02  0.51100000000E-03 0. -1.
         11   -1    0    0    0    0 -0.00000000000E+00 -0.00000000000E+00 -0.45593999997E+02  0.45594000000E+02  0.51100000000E-03 0.  1.
         23    2    1    2    0    0  0.17763568394E-14  0.35527136788E-14 -0.71054273576E-14  0.91188000000E+02  0.91188000000E+02 0.  0.
    9900012    2    3    3    0    0  0.10462505463E+02  0.19758330130E+02 -0.29256198424E+02  0.54367071490E+02  0.39999971077E+02 0.  0.
         12    1    3    3    0    0 -0.10462505463E+02 -0.19758330130E+02  0.29256198424E+02  0.36820928510E+02  0.00000000000E+00 0. -1.
         11    1    4    4    0    0  0.28648956414E+00  0.65792995953E+01  0.58318565833E+01  0.87965795003E+01  0.51100000000E-03 0. -1.
        -11    1    4    4    0    0  0.38863995142E+01  0.19590405036E+02 -0.22201846756E+02  0.29863189218E+02  0.51100000000E-03 0.  1.
        -12    1    4    4    0    0  0.62896163851E+01 -0.64113745014E+01 -0.12886208251E+02  0.15707302772E+02  0.00000000000E+00 0.  1.
</event>
<event>
 8    1  0.1229038E-006  0.9118800E+02  0.7816164E-02  0.1184000E+00
        -11   -1    0    0    0    0  0.00000000000E+00  0.00000000000E+00  0.45593999997E+02  0.45594000000E+02  0.51100000000E-03 0.  1.
         11   -1    0    0    0    0 -0.00000000000E+00 -0.00000000000E+00 -0.45593999997E+02  0.45594000000E+02  0.51100000000E-03 0. -1.
         23    2    1    2    0    0 -0.71054273576E-14  0.00000000000E+00 -0.88817841970E-15  0.91188000000E+02  0.91188000000E+02 0.  0.
    9900012    2    3    3    0    0  0.34506755189E+02  0.10309354452E+02  0.76668612555E+01  0.54367086046E+02  0.40000004259E+02 0.  0.
         12    1    3    3    0    0 -0.34506755189E+02 -0.10309354452E+02 -0.76668612555E+01  0.36820913954E+02  0.00000000000E+00 0. -1.
         11    1    4    4    0    0  0.25599689616E+02 -0.10032451646E+02  0.41721850870E+01  0.27810093907E+02  0.51100000000E-03 0. -1.
        -11    1    4    4    0    0 -0.11935136569E+00  0.56949060575E+00  0.47500245413E+01  0.47855300336E+01  0.51100000000E-03 0.  1.
        -12    1    4    4    0    0  0.90264169388E+01  0.19772315492E+02 -0.12553483728E+01  0.21771462105E+02  0.00000000000E+00 0.  1.
</event>
<event>
 8    1  0.1229038E-006  0.9118800E+02  0.7816164E-02  0.1184000E+00
        -11   -1    0    0    0    0  0.00000000000E+00  0.00000000000E+00  0.45593999997E+02  0.45594000000E+02  0.51100000000E-03 0. -1.
         11   -1    0    0    0    0 -0.00000000000E+00 -0.00000000000E+00 -0.45593999997E+02  0.45594000000E+02  0.51100000000E-03 0.  1.
         23    2    1    2    0    0  0.17763568394E-14  0.17763568394E-14  0.00000000000E+00  0.91188000000E+02  0.91188000000E+02 0.  0.
    9900012    2    3    3    0    0  0.11144545028E+02 -0.10604704094E+02 -0.33453221512E+02  0.54367100197E+02  0.40000036519E+02 0.  0.
         12    1    3    3    0    0 -0.11144545028E+02  0.10604704094E+02  0.33453221512E+02  0.36820899803E+02  0.00000000000E+00 0. -1.
         11    1    4    4    0    0 -0.70100930771E+01 -0.58828655465E+01 -0.43057391617E+01  0.10113797604E+02  0.51100000000E-03 0. -1.
        -11    1    4    4    0    0  0.22737455795E+02  0.43046366516E+01 -0.19348577286E+02  0.30164370306E+02  0.51100000000E-03 0.  1.
        -12    1    4    4    0    0 -0.45828176903E+01 -0.90264751994E+01 -0.97989050645E+01  0.14088932286E+02  0.00000000000E+00 0.  1.
</event>
<event>
 8    1  0.1229038E-006  0.9118800E+02  0.7816164E-02  0.1184000E+00
        -11   -1    0    0    0    0  0.00000000000E+00  0.00000000000E+00  0.45593999997E+02  0.45594000000E+02  0.51100000000E-03 0.  1.
         11   -1    0    0    0    0 -0.00000000000E+00 -0.00000000000E+00 -0.45593999997E+02  0.45594000000E+02  0.51100000000E-03 0. -1.
         23    2    1    2    0    0 -0.35527136788E-14  0.17763568394E-14 -0.35527136788E-14  0.91188000000E+02  0.91188000000E+02 0.  0.
    9900012    2    3    3    0    0  0.21518140153E+02  0.15282618847E+02 -0.25674704218E+02  0.54367092473E+02  0.40000018910E+02 0.  0.
        -12    1    3    3    0    0 -0.21518140153E+02 -0.15282618847E+02  0.25674704218E+02  0.36820907527E+02  0.00000000000E+00 0.  1.
         11    1    4    4    0    0  0.94143502151E+01  0.19389556791E+02 -0.70037342254E+00  0.21565607474E+02  0.51100000000E-03 0. -1.
        -11    1    4    4    0    0  0.45582324056E+01 -0.42600094868E+01 -0.24453022704E+02  0.25236392039E+02  0.51100000000E-03 0.  1.
        -12    1    4    4    0    0  0.75455575321E+01  0.15307154281E+00 -0.52130809079E+00  0.75650929600E+01  0.00000000000E+00 0.  1.
</event>
<event>
 8    1  0.1229038E-006  0.9118800E+02  0.7816164E-02  0.1184000E+00
        -11   -1    0    0    0    0  0.00000000000E+00  0.00000000000E+00  0.45593999997E+02  0.45594000000E+02  0.51100000000E-03 0. -1.
         11   -1    0    0    0    0 -0.00000000000E+00 -0.00000000000E+00 -0.45593999997E+02  0.45594000000E+02  0.51100000000E-03 0.  1.
         23    2    1    2    0    0  0.00000000000E+00 -0.35527136788E-14  0.00000000000E+00  0.91188000000E+02  0.91188000000E+02 0.  0.
    9900012    2    3    3    0    0 -0.21974929539E+02  0.15266521509E+02  0.25294488243E+02  0.54367145274E+02  0.40000139282E+02 0.  0.
        -12    1    3    3    0    0  0.21974929539E+02 -0.15266521509E+02 -0.25294488243E+02  0.36820854726E+02  0.00000000000E+00 0.  1.
         11    1    4    4    0    0  0.13885996389E+00 -0.58055371782E+01  0.73059665869E+01  0.93327751524E+01  0.51100000000E-03 0. -1.
        -11    1    4    4    0    0 -0.11178045491E+02  0.93447981381E+01 -0.63461109603E+01  0.15891729856E+02  0.51100000000E-03 0.  1.
         12    1    4    4    0    0 -0.10935744012E+02  0.11727260549E+02  0.24334632616E+02  0.29142640266E+02  0.00000000000E+00 0. -1.
</event>
<event>
 8    1  0.1229038E-006  0.9118800E+02  0.7816164E-02  0.1184000E+00
        -11   -1    0    0    0    0  0.00000000000E+00  0.00000000000E+00  0.45593999997E+02  0.45594000000E+02  0.51100000000E-03 0.  1.
         11   -1    0    0    0    0 -0.00000000000E+00 -0.00000000000E+00 -0.45593999997E+02  0.45594000000E+02  0.51100000000E-03 0. -1.
         23    2    1    2    0    0  0.35527136788E-14  0.00000000000E+00  0.00000000000E+00  0.91188000000E+02  0.91188000000E+02 0.  0.
    9900012    2    3    3    0    0 -0.21656663463E+02  0.90941333917E+01 -0.28356041186E+02  0.54367090095E+02  0.40000013490E+02 0.  0.
        -12    1    3    3    0    0  0.21656663463E+02 -0.90941333917E+01  0.28356041186E+02  0.36820909905E+02  0.00000000000E+00 0.  1.
         11    1    4    4    0    0 -0.13684114636E+01 -0.17787790493E+00  0.25107103351E+01  0.28649357987E+01  0.51100000000E-03 0. -1.
        -11    1    4    4    0    0 -0.10286562090E+02 -0.54935276191E+01  0.40087088167E+01  0.12331340234E+02  0.51100000000E-03 0.  1.
         12    1    4    4    0    0 -0.10001689909E+02  0.14765538916E+02 -0.34875460338E+02  0.39170814062E+02  0.00000000000E+00 0. -1.
</event>
<event>
 8    1  0.1229038E-006  0.9118800E+02  0.7816164E-02  0.1184000E+00
        -11   -1    0    0    0    0  0.00000000000E+00  0.00000000000E+00  0.45593999997E+02  0.45594000000E+02  0.51100000000E-03 0.  1.
         11   -1    0    0    0    0 -0.00000000000E+00 -0.00000000000E+00 -0.45593999997E+02  0.45594000000E+02  0.51100000000E-03 0. -1.
         23    2    1    2    0    0  0.00000000000E+00  0.00000000000E+00  0.88817841970E-15  0.91188000000E+02  0.91188000000E+02 0.  0.
    9900012    2    3    3    0    0  0.32108641685E+02 -0.16610404499E+02  0.69934941822E+01  0.54367090596E+02  0.40000014632E+02 0.  0.
        -12    1    3    3    0    0 -0.32108641685E+02  0.16610404499E+02 -0.69934941822E+01  0.36820909404E+02  0.00000000000E+00 0.  1.
         11    1    4    4    0    0  0.29756987157E+01 -0.35219587859E+01 -0.20505326852E+01  0.50461530982E+01  0.51100000000E-03 0. -1.
        -11    1    4    4    0    0  0.18550597925E+02 -0.86225148283E+01 -0.13158550267E+02  0.24323237670E+02  0.51100000000E-03 0.  1.
        -12    1    4    4    0    0  0.10582345044E+02 -0.44659308843E+01  0.22202577134E+02  0.24997699828E+02  0.00000000000E+00 0.  1.
</event>
<event>
 8    1  0.1229038E-006  0.9118800E+02  0.7816164E-02  0.1184000E+00
        -11   -1    0    0    0    0  0.00000000000E+00  0.00000000000E+00  0.45593999997E+02  0.45594000000E+02  0.51100000000E-03 0.  1.
         11   -1    0    0    0    0 -0.00000000000E+00 -0.00000000000E+00 -0.45593999997E+02  0.45594000000E+02  0.51100000000E-03 0. -1.
         23    2    1    2    0    0  0.00000000000E+00  0.35527136788E-14  0.00000000000E+00  0.91188000000E+02  0.91188000000E+02 0.  0.
    9900012    2    3    3    0    0  0.10192030767E+02  0.27229559900E+02 -0.22593203303E+02  0.54367092094E+02  0.40000018047E+02 0.  0.
        -12    1    3    3    0    0 -0.10192030767E+02 -0.27229559900E+02  0.22593203303E+02  0.36820907906E+02  0.00000000000E+00 0.  1.
         11    1    4    4    0    0 -0.63444818564E+01  0.25869323653E+02 -0.12144160964E+02  0.29273793777E+02  0.51100000000E-03 0. -1.
        -11    1    4    4    0    0  0.27054505624E+01 -0.55480864161E+01 -0.68475443026E+01  0.92189798168E+01  0.51100000000E-03 0.  1.
        -12    1    4    4    0    0  0.13831062061E+02  0.69083226631E+01 -0.36014980361E+01  0.15874318501E+02  0.00000000000E+00 0.  1.
</event>
<event>
 8    1  0.1229038E-006  0.9118800E+02  0.7816164E-02  0.1184000E+00
        -11   -1    0    0    0    0  0.00000000000E+00  0.00000000000E+00  0.45593999997E+02  0.45594000000E+02  0.51100000000E-03 0.  1.
         11   -1    0    0    0    0 -0.00000000000E+00 -0.00000000000E+00 -0.45593999997E+02  0.45594000000E+02  0.51100000000E-03 0. -1.
         23    2    1    2    0    0 -0.35527136788E-14  0.88817841970E-15  0.00000000000E+00  0.91188000000E+02  0.91188000000E+02 0.  0.
    9900012    2    3    3    0    0 -0.31584699183E+02 -0.52462795169E+01  0.18184214785E+02  0.54367050276E+02  0.39999922713E+02 0.  0.
         12    1    3    3    0    0  0.31584699183E+02  0.52462795169E+01 -0.18184214785E+02  0.36820949724E+02  0.00000000000E+00 0. -1.
         11    1    4    4    0    0 -0.10592688854E+02 -0.76439200534E+01  0.18633715814E+02  0.22756316403E+02  0.51100000000E-03 0.  1.
        -11    1    4    4    0    0 -0.98305863982E+01 -0.54334578228E+01  0.95169034547E+01  0.14721900165E+02  0.51100000000E-03 0. -1.
         12    1    4    4    0    0 -0.11161423931E+02  0.78310983593E+01 -0.99664044832E+01  0.16888833707E+02  0.00000000000E+00 0. -1.
</event>
<event>
 8    1  0.1229038E-006  0.9118800E+02  0.7816164E-02  0.1184000E+00
        -11   -1    0    0    0    0  0.00000000000E+00  0.00000000000E+00  0.45593999997E+02  0.45594000000E+02  0.51100000000E-03 0.  1.
         11   -1    0    0    0    0 -0.00000000000E+00 -0.00000000000E+00 -0.45593999997E+02  0.45594000000E+02  0.51100000000E-03 0. -1.
         23    2    1    2    0    0  0.00000000000E+00  0.71054273576E-14  0.00000000000E+00  0.91188000000E+02  0.91188000000E+02 0.  0.
    9900012    2    3    3    0    0 -0.11138010422E+02 -0.32749727450E+02  0.12616772206E+02  0.54367043126E+02  0.39999906414E+02 0.  0.
        -12    1    3    3    0    0  0.11138010422E+02  0.32749727450E+02 -0.12616772206E+02  0.36820956874E+02  0.00000000000E+00 0.  1.
         11    1    4    4    0    0 -0.13087174159E+02 -0.26081390503E+02  0.86590921519E+00  0.29193541359E+02  0.51100000000E-03 0. -1.
        -11    1    4    4    0    0  0.10849462405E+02 -0.13641383668E+01  0.96878980595E+01  0.14609143611E+02  0.51100000000E-03 0.  1.
        -12    1    4    4    0    0 -0.89002986679E+01 -0.53041985803E+01  0.20629649316E+01  0.10564358157E+02  0.00000000000E+00 0.  1.
</event>
<event>
 8    1  0.1229038E-006  0.9118800E+02  0.7816164E-02  0.1184000E+00
        -11   -1    0    0    0    0  0.00000000000E+00  0.00000000000E+00  0.45593999997E+02  0.45594000000E+02  0.51100000000E-03 0.  1.
         11   -1    0    0    0    0 -0.00000000000E+00 -0.00000000000E+00 -0.45593999997E+02  0.45594000000E+02  0.51100000000E-03 0. -1.
         23    2    1    2    0    0  0.17763568394E-14  0.00000000000E+00  0.00000000000E+00  0.91188000000E+02  0.91188000000E+02 0.  0.
    9900012    2    3    3    0    0 -0.28781450178E+01 -0.10185244652E+02 -0.35266954014E+02  0.54367068822E+02  0.39999964993E+02 0.  0.
        -12    1    3    3    0    0  0.28781450178E+01  0.10185244652E+02  0.35266954014E+02  0.36820931178E+02  0.00000000000E+00 0.  1.
         11    1    4    4    0    0 -0.10277857785E+02 -0.87441514996E+01 -0.17391583997E+02  0.22012763122E+02  0.51100000000E-03 0. -1.
        -11    1    4    4    0    0  0.16990711273E+02 -0.44957742658E-01 -0.13589672065E+02  0.21756963893E+02  0.51100000000E-03 0.  1.
        -12    1    4    4    0    0 -0.95909985057E+01 -0.13961354100E+01 -0.42856979518E+01  0.10597341806E+02  0.00000000000E+00 0.  1.
</event>
<event>
 8    1  0.1229038E-006  0.9118800E+02  0.7816164E-02  0.1184000E+00
        -11   -1    0    0    0    0  0.00000000000E+00  0.00000000000E+00  0.45593999997E+02  0.45594000000E+02  0.51100000000E-03 0.  1.
         11   -1    0    0    0    0 -0.00000000000E+00 -0.00000000000E+00 -0.45593999997E+02  0.45594000000E+02  0.51100000000E-03 0. -1.
         23    2    1    2    0    0 -0.17763568394E-14 -0.17763568394E-14  0.00000000000E+00  0.91188000000E+02  0.91188000000E+02 0.  0.
    9900012    2    3    3    0    0 -0.10358978930E+02 -0.12160464343E+02 -0.33175218820E+02  0.54367075497E+02  0.39999980211E+02 0.  0.
        -12    1    3    3    0    0  0.10358978930E+02  0.12160464343E+02  0.33175218820E+02  0.36820924503E+02  0.00000000000E+00 0.  1.
         11    1    4    4    0    0  0.14860889783E+01  0.69957901363E+01 -0.65587296169E+01  0.97039411855E+01  0.51100000000E-03 0. -1.
        -11    1    4    4    0    0 -0.17846191041E+02 -0.20591732501E+02 -0.27154737925E+02  0.38469283515E+02  0.51100000000E-03 0.  1.
        -12    1    4    4    0    0  0.60011231327E+01  0.14354780219E+01  0.53824872273E+00  0.61938507968E+01  0.00000000000E+00 0.  1.
</event>
<event>
 8    1  0.1229038E-006  0.9118800E+02  0.7816164E-02  0.1184000E+00
        -11   -1    0    0    0    0  0.00000000000E+00  0.00000000000E+00  0.45593999997E+02  0.45594000000E+02  0.51100000000E-03 0. -1.
         11   -1    0    0    0    0 -0.00000000000E+00 -0.00000000000E+00 -0.45593999997E+02  0.45594000000E+02  0.51100000000E-03 0.  1.
         23    2    1    2    0    0 -0.26645352591E-14  0.00000000000E+00  0.00000000000E+00  0.91188000000E+02  0.91188000000E+02 0.  0.
    9900012    2    3    3    0    0  0.62496472472E+01 -0.39846569654E+01  0.36067224255E+02  0.54367078674E+02  0.39999987454E+02 0.  0.
        -12    1    3    3    0    0 -0.62496472472E+01  0.39846569654E+01 -0.36067224255E+02  0.36820921326E+02  0.00000000000E+00 0.  1.
         11    1    4    4    0    0 -0.29945462295E+01 -0.79193033640E+01  0.16087296894E+02  0.18179213253E+02  0.51100000000E-03 0. -1.
        -11    1    4    4    0    0 -0.10316126565E+02  0.10147159497E+01  0.76340132538E+01  0.12873627087E+02  0.51100000000E-03 0.  1.
        -12    1    4    4    0    0  0.19560320042E+02  0.29199304489E+01  0.12345914107E+02  0.23314238334E+02  0.00000000000E+00 0.  1.
</event>
<event>
 8    1  0.1229038E-006  0.9118800E+02  0.7816164E-02  0.1184000E+00
        -11   -1    0    0    0    0  0.00000000000E+00  0.00000000000E+00  0.45593999997E+02  0.45594000000E+02  0.51100000000E-03 0.  1.
         11   -1    0    0    0    0 -0.00000000000E+00 -0.00000000000E+00 -0.45593999997E+02  0.45594000000E+02  0.51100000000E-03 0. -1.
         23    2    1    2    0    0  0.71054273576E-14 -0.17763568394E-14  0.00000000000E+00  0.91188000000E+02  0.91188000000E+02 0.  0.
    9900012    2    3    3    0    0  0.33161433794E+02 -0.13418591172E+02  0.87200989204E+01  0.54367090105E+02  0.40000013511E+02 0.  0.
         12    1    3    3    0    0 -0.33161433794E+02  0.13418591172E+02 -0.87200989204E+01  0.36820909895E+02  0.00000000000E+00 0. -1.
         11    1    4    4    0    0  0.26261017986E+02 -0.21205851009E+02 -0.88603024992E+00  0.33765577628E+02  0.51100000000E-03 0. -1.
        -11    1    4    4    0    0  0.11074921042E+02  0.32724166380E+01  0.85348483502E+01  0.14359882429E+02  0.51100000000E-03 0.  1.
        -12    1    4    4    0    0 -0.41745052339E+01  0.45148431990E+01  0.10712808201E+01  0.62416300479E+01  0.00000000000E+00 0.  1.
</event>
<event>
 8    1  0.1229038E-006  0.9118800E+02  0.7816164E-02  0.1184000E+00
        -11   -1    0    0    0    0  0.00000000000E+00  0.00000000000E+00  0.45593999997E+02  0.45594000000E+02  0.51100000000E-03 0.  1.
         11   -1    0    0    0    0 -0.00000000000E+00 -0.00000000000E+00 -0.45593999997E+02  0.45594000000E+02  0.51100000000E-03 0. -1.
         23    2    1    2    0    0  0.00000000000E+00 -0.35527136788E-14 -0.35527136788E-14  0.91188000000E+02  0.91188000000E+02 0.  0.
    9900012    2    3    3    0    0  0.22080437645E+02 -0.21691784780E+02  0.19942387095E+02  0.54367108422E+02  0.40000055269E+02 0.  0.
         12    1    3    3    0    0 -0.22080437645E+02  0.21691784780E+02 -0.19942387095E+02  0.36820891578E+02  0.00000000000E+00 0. -1.
         11    1    4    4    0    0  0.13108939856E+02 -0.26137765291E+02  0.44081126786E+01  0.29571245091E+02  0.51100000000E-03 0. -1.
        -11    1    4    4    0    0 -0.11555349606E+01  0.78132164895E+01  0.32971158938E+01  0.85587724842E+01  0.51100000000E-03 0.  1.
         12    1    4    4    0    0  0.10127032750E+02 -0.33672359780E+01  0.12237158523E+02  0.16237090847E+02  0.00000000000E+00 0. -1.
</event>
<event>
 8    1  0.1229038E-006  0.9118800E+02  0.7816164E-02  0.1184000E+00
        -11   -1    0    0    0    0  0.00000000000E+00  0.00000000000E+00  0.45593999997E+02  0.45594000000E+02  0.51100000000E-03 0.  1.
         11   -1    0    0    0    0 -0.00000000000E+00 -0.00000000000E+00 -0.45593999997E+02  0.45594000000E+02  0.51100000000E-03 0. -1.
         23    2    1    2    0    0 -0.35527136788E-14 -0.17763568394E-14 -0.35527136788E-14  0.91188000000E+02  0.91188000000E+02 0.  0.
    9900012    2    3    3    0    0  0.21371492351E+02 -0.13858909036E+02  0.26588802928E+02  0.54367156907E+02  0.40000165800E+02 0.  0.
         12    1    3    3    0    0 -0.21371492351E+02  0.13858909036E+02 -0.26588802928E+02  0.36820843093E+02  0.00000000000E+00 0. -1.
         11    1    4    4    0    0  0.74622957305E+01 -0.55391179290E+01 -0.69635090321E+01  0.11612843894E+02  0.51100000000E-03 0. -1.
        -11    1    4    4    0    0  0.11473313985E+02  0.33078471116E+01  0.74460455700E+01  0.14072042538E+02  0.51100000000E-03 0.  1.
         12    1    4    4    0    0  0.24358826353E+01 -0.11627638218E+02  0.26106266390E+02  0.28682270475E+02  0.00000000000E+00 0. -1.
</event>
<event>
 8    1  0.1229038E-006  0.9118800E+02  0.7816164E-02  0.1184000E+00
        -11   -1    0    0    0    0  0.00000000000E+00  0.00000000000E+00  0.45593999997E+02  0.45594000000E+02  0.51100000000E-03 0.  1.
         11   -1    0    0    0    0 -0.00000000000E+00 -0.00000000000E+00 -0.45593999997E+02  0.45594000000E+02  0.51100000000E-03 0. -1.
         23    2    1    2    0    0  0.35527136788E-14  0.00000000000E+00 -0.35527136788E-14  0.91188000000E+02  0.91188000000E+02 0.  0.
    9900012    2    3    3    0    0 -0.22302465056E+02  0.94079681939E+01  0.27746535482E+02  0.54367081430E+02  0.39999993736E+02 0.  0.
        -12    1    3    3    0    0  0.22302465056E+02 -0.94079681939E+01 -0.27746535482E+02  0.36820918570E+02  0.00000000000E+00 0.  1.
         11    1    4    4    0    0 -0.11773184629E+01  0.15625324349E+02  0.57959115884E+01  0.16707167060E+02  0.51100000000E-03 0. -1.
        -11    1    4    4    0    0 -0.16832929307E+02 -0.17979751066E+01  0.23219928792E+01  0.17087184518E+02  0.51100000000E-03 0.  1.
        -12    1    4    4    0    0 -0.42922172858E+01 -0.44193810482E+01  0.19628631014E+02  0.20572729852E+02  0.00000000000E+00 0.  1.
</event>
<event>
 8    1  0.1229038E-006  0.9118800E+02  0.7816164E-02  0.1184000E+00
        -11   -1    0    0    0    0  0.00000000000E+00  0.00000000000E+00  0.45593999997E+02  0.45594000000E+02  0.51100000000E-03 0.  1.
         11   -1    0    0    0    0 -0.00000000000E+00 -0.00000000000E+00 -0.45593999997E+02  0.45594000000E+02  0.51100000000E-03 0. -1.
         23    2    1    2    0    0  0.17763568394E-14 -0.88817841970E-15 -0.71054273576E-14  0.91188000000E+02  0.91188000000E+02 0.  0.
    9900012    2    3    3    0    0 -0.84654744721E+01  0.30945932397E+01  0.35700659707E+02  0.54367110971E+02  0.40000061080E+02 0.  0.
         12    1    3    3    0    0  0.84654744721E+01 -0.30945932397E+01 -0.35700659707E+02  0.36820889029E+02  0.00000000000E+00 0. -1.
         11    1    4    4    0    0 -0.11969857690E+01  0.32827073183E+01  0.11033623694E+02  0.11573668146E+02  0.51100000000E-03 0. -1.
        -11    1    4    4    0    0 -0.11401794105E+02 -0.68367629963E+01  0.30340337035E+02  0.33125191150E+02  0.51100000000E-03 0.  1.
         12    1    4    4    0    0  0.41333054015E+01  0.66486489177E+01 -0.56733010214E+01  0.96682516751E+01  0.00000000000E+00 0. -1.
</event>
<event>
 8    1  0.1229038E-006  0.9118800E+02  0.7816164E-02  0.1184000E+00
        -11   -1    0    0    0    0  0.00000000000E+00  0.00000000000E+00  0.45593999997E+02  0.45594000000E+02  0.51100000000E-03 0.  1.
         11   -1    0    0    0    0 -0.00000000000E+00 -0.00000000000E+00 -0.45593999997E+02  0.45594000000E+02  0.51100000000E-03 0. -1.
         23    2    1    2    0    0  0.00000000000E+00  0.00000000000E+00 -0.44408920985E-14  0.91188000000E+02  0.91188000000E+02 0.  0.
    9900012    2    3    3    0    0 -0.34111849728E+02 -0.11644046850E+02 -0.75217823500E+01  0.54367091149E+02  0.40000015892E+02 0.  0.
         12    1    3    3    0    0  0.34111849728E+02  0.11644046850E+02  0.75217823500E+01  0.36820908851E+02  0.00000000000E+00 0. -1.
         11    1    4    4    0    0 -0.75533353092E+01  0.39774067879E+01 -0.11211982000E+02  0.14091883468E+02  0.51100000000E-03 0. -1.
        -11    1    4    4    0    0 -0.15598222731E+01 -0.38400625027E+00  0.10165088257E+02  0.10291235390E+02  0.51100000000E-03 0.  1.
        -12    1    4    4    0    0 -0.24998692146E+02 -0.15237447388E+02 -0.64748886065E+01  0.29983972291E+02  0.00000000000E+00 0.  1.
</event>
<event>
 8    1  0.1229038E-006  0.9118800E+02  0.7816164E-02  0.1184000E+00
        -11   -1    0    0    0    0  0.00000000000E+00  0.00000000000E+00  0.45593999997E+02  0.45594000000E+02  0.51100000000E-03 0. -1.
         11   -1    0    0    0    0 -0.00000000000E+00 -0.00000000000E+00 -0.45593999997E+02  0.45594000000E+02  0.51100000000E-03 0.  1.
         23    2    1    2    0    0  0.71054273576E-14 -0.88817841970E-15 -0.71054273576E-14  0.91188000000E+02  0.91188000000E+02 0.  0.
    9900012    2    3    3    0    0 -0.33700420507E+02  0.58914113628E+01  0.13614446674E+02  0.54367078930E+02  0.39999988036E+02 0.  0.
        -12    1    3    3    0    0  0.33700420507E+02 -0.58914113628E+01 -0.13614446674E+02  0.36820921070E+02  0.00000000000E+00 0.  1.
         11    1    4    4    0    0 -0.22871565726E+02  0.15708128534E+01  0.20691480262E+02  0.30882249391E+02  0.51100000000E-03 0. -1.
        -11    1    4    4    0    0 -0.97658891158E+00 -0.71614994179E+01 -0.29123074167E+01  0.77924536935E+01  0.51100000000E-03 0.  1.
        -12    1    4    4    0    0 -0.98522658696E+01  0.11482097927E+02 -0.41647261711E+01  0.15692375845E+02  0.00000000000E+00 0.  1.
</event>
<event>
 8    1  0.1229038E-006  0.9118800E+02  0.7816164E-02  0.1184000E+00
        -11   -1    0    0    0    0  0.00000000000E+00  0.00000000000E+00  0.45593999997E+02  0.45594000000E+02  0.51100000000E-03 0. -1.
         11   -1    0    0    0    0 -0.00000000000E+00 -0.00000000000E+00 -0.45593999997E+02  0.45594000000E+02  0.51100000000E-03 0.  1.
         23    2    1    2    0    0  0.35527136788E-14  0.35527136788E-14  0.35527136788E-14  0.91188000000E+02  0.91188000000E+02 0.  0.
    9900012    2    3    3    0    0 -0.18602590735E+02 -0.13122617642E+02 -0.28939970338E+02  0.54367063578E+02  0.39999953039E+02 0.  0.
         12    1    3    3    0    0  0.18602590735E+02  0.13122617642E+02  0.28939970338E+02  0.36820936422E+02  0.00000000000E+00 0. -1.
         11    1    4    4    0    0  0.10064651223E+01  0.13281116931E+01  0.82244952476E+01  0.83916133759E+01  0.51100000000E-03 0. -1.
        -11    1    4    4    0    0 -0.90552168184E+01 -0.10925049950E+01 -0.19025386362E+02  0.21098716674E+02  0.51100000000E-03 0.  1.
        -12    1    4    4    0    0 -0.10553839039E+02 -0.13358224340E+02 -0.18139079223E+02  0.24876733528E+02  0.00000000000E+00 0.  1.
</event>
<event>
 8    1  0.1229038E-006  0.9118800E+02  0.7816164E-02  0.1184000E+00
        -11   -1    0    0    0    0  0.00000000000E+00  0.00000000000E+00  0.45593999997E+02  0.45594000000E+02  0.51100000000E-03 0. -1.
         11   -1    0    0    0    0 -0.00000000000E+00 -0.00000000000E+00 -0.45593999997E+02  0.45594000000E+02  0.51100000000E-03 0.  1.
         23    2    1    2    0    0  0.35527136788E-14  0.17763568394E-14  0.35527136788E-14  0.91188000000E+02  0.91188000000E+02 0.  0.
    9900012    2    3    3    0    0  0.19193823878E+02  0.14377269182E+02  0.27940489660E+02  0.54367086016E+02  0.40000004190E+02 0.  0.
        -12    1    3    3    0    0 -0.19193823878E+02 -0.14377269182E+02 -0.27940489660E+02  0.36820913984E+02  0.00000000000E+00 0.  1.
         11    1    4    4    0    0 -0.16982837825E+01 -0.96967423769E+00 -0.23947647741E+01  0.30918173487E+01  0.51100000000E-03 0. -1.
        -11    1    4    4    0    0 -0.80854876547E+00 -0.88196665896E+01  0.62643621966E+01  0.10848156703E+02  0.51100000000E-03 0.  1.
         12    1    4    4    0    0  0.21700656426E+02  0.24166610009E+02  0.24070892237E+02  0.40427111964E+02  0.00000000000E+00 0. -1.
</event>
<event>
 8    1  0.1229038E-006  0.9118800E+02  0.7816164E-02  0.1184000E+00
        -11   -1    0    0    0    0  0.00000000000E+00  0.00000000000E+00  0.45593999997E+02  0.45594000000E+02  0.51100000000E-03 0.  1.
         11   -1    0    0    0    0 -0.00000000000E+00 -0.00000000000E+00 -0.45593999997E+02  0.45594000000E+02  0.51100000000E-03 0. -1.
         23    2    1    2    0    0  0.00000000000E+00  0.00000000000E+00 -0.71054273576E-14  0.91188000000E+02  0.91188000000E+02 0.  0.
    9900012    2    3    3    0    0  0.87923804336E+01  0.11211331050E+02  0.33952608471E+02  0.54367088556E+02  0.40000009980E+02 0.  0.
         12    1    3    3    0    0 -0.87923804336E+01 -0.11211331050E+02 -0.33952608471E+02  0.36820911444E+02  0.00000000000E+00 0. -1.
         11    1    4    4    0    0 -0.41999648883E+01  0.85213176707E+01  0.57839655837E+01  0.11122356677E+02  0.51100000000E-03 0. -1.
        -11    1    4    4    0    0  0.20386061995E+02  0.45644537263E+01  0.92514401989E+01  0.22847645557E+02  0.51100000000E-03 0.  1.
        -12    1    4    4    0    0 -0.73937166736E+01 -0.18744403469E+01  0.18917202688E+02  0.20397086322E+02  0.00000000000E+00 0.  1.
</event>
<event>
 8    1  0.1229038E-006  0.9118800E+02  0.7816164E-02  0.1184000E+00
        -11   -1    0    0    0    0  0.00000000000E+00  0.00000000000E+00  0.45593999997E+02  0.45594000000E+02  0.51100000000E-03 0.  1.
         11   -1    0    0    0    0 -0.00000000000E+00 -0.00000000000E+00 -0.45593999997E+02  0.45594000000E+02  0.51100000000E-03 0. -1.
         23    2    1    2    0    0 -0.35527136788E-14  0.71054273576E-14  0.00000000000E+00  0.91188000000E+02  0.91188000000E+02 0.  0.
    9900012    2    3    3    0    0 -0.20130328151E+02  0.26208247711E+02  0.16238124644E+02  0.54367094912E+02  0.40000024471E+02 0.  0.
         12    1    3    3    0    0  0.20130328151E+02 -0.26208247711E+02 -0.16238124644E+02  0.36820905088E+02  0.00000000000E+00 0. -1.
         11    1    4    4    0    0 -0.96739560823E+01 -0.58211281289E+01  0.10344872770E+02  0.15312979849E+02  0.51100000000E-03 0. -1.
        -11    1    4    4    0    0 -0.47656977922E+00  0.11930664298E+02  0.10781855374E+02  0.16087767866E+02  0.51100000000E-03 0.  1.
         12    1    4    4    0    0 -0.99798022891E+01  0.20098711542E+02 -0.48886034996E+01  0.22966347197E+02  0.00000000000E+00 0. -1.
</event>
<event>
 8    1  0.1229038E-006  0.9118800E+02  0.7816164E-02  0.1184000E+00
        -11   -1    0    0    0    0  0.00000000000E+00  0.00000000000E+00  0.45593999997E+02  0.45594000000E+02  0.51100000000E-03 0. -1.
         11   -1    0    0    0    0 -0.00000000000E+00 -0.00000000000E+00 -0.45593999997E+02  0.45594000000E+02  0.51100000000E-03 0.  1.
         23    2    1    2    0    0  0.88817841970E-15  0.00000000000E+00  0.35527136788E-14  0.91188000000E+02  0.91188000000E+02 0.  0.
    9900012    2    3    3    0    0 -0.46964558025E+01  0.20525384710E+02  0.30206490292E+02  0.54367079718E+02  0.39999989834E+02 0.  0.
        -12    1    3    3    0    0  0.46964558025E+01 -0.20525384710E+02 -0.30206490292E+02  0.36820920282E+02  0.00000000000E+00 0.  1.
         11    1    4    4    0    0  0.27846937392E+01  0.18807302968E+02  0.70333239348E+01  0.20271576406E+02  0.51100000000E-03 0. -1.
        -11    1    4    4    0    0  0.10808790158E+01  0.23349748610E+01 -0.44658846067E+01  0.51540792223E+01  0.51100000000E-03 0.  1.
        -12    1    4    4    0    0 -0.85620285574E+01 -0.61689311932E+00  0.27639050964E+02  0.28941424090E+02  0.00000000000E+00 0.  1.
</event>
<event>
 8    1  0.1229038E-006  0.9118800E+02  0.7816164E-02  0.1184000E+00
        -11   -1    0    0    0    0  0.00000000000E+00  0.00000000000E+00  0.45593999997E+02  0.45594000000E+02  0.51100000000E-03 0.  1.
         11   -1    0    0    0    0 -0.00000000000E+00 -0.00000000000E+00 -0.45593999997E+02  0.45594000000E+02  0.51100000000E-03 0. -1.
         23    2    1    2    0    0  0.00000000000E+00  0.35527136788E-14  0.00000000000E+00  0.91188000000E+02  0.91188000000E+02 0.  0.
    9900012    2    3    3    0    0 -0.16982694423E+02 -0.29719796356E+02  0.13568402251E+02  0.54367085495E+02  0.40000003004E+02 0.  0.
         12    1    3    3    0    0  0.16982694423E+02  0.29719796356E+02 -0.13568402251E+02  0.36820914505E+02  0.00000000000E+00 0. -1.
         11    1    4    4    0    0  0.11462752861E+01  0.11831530293E+01 -0.60594252423E+01  0.62793656248E+01  0.51100000000E-03 0. -1.
        -11    1    4    4    0    0 -0.19020108324E+02 -0.28174258412E+02  0.64488193275E+01  0.34599720067E+02  0.51100000000E-03 0.  1.
        -12    1    4    4    0    0  0.89113861469E+00 -0.27286909727E+01  0.13179008166E+02  0.13487999804E+02  0.00000000000E+00 0.  1.
</event>
<event>
 8    1  0.1229038E-006  0.9118800E+02  0.7816164E-02  0.1184000E+00
        -11   -1    0    0    0    0  0.00000000000E+00  0.00000000000E+00  0.45593999997E+02  0.45594000000E+02  0.51100000000E-03 0. -1.
         11   -1    0    0    0    0 -0.00000000000E+00 -0.00000000000E+00 -0.45593999997E+02  0.45594000000E+02  0.51100000000E-03 0.  1.
         23    2    1    2    0    0  0.00000000000E+00  0.00000000000E+00 -0.35527136788E-14  0.91188000000E+02  0.91188000000E+02 0.  0.
    9900012    2    3    3    0    0  0.11362507211E+02  0.18657012906E+02 -0.29640949300E+02  0.54367128526E+02  0.40000101101E+02 0.  0.
         12    1    3    3    0    0 -0.11362507211E+02 -0.18657012906E+02  0.29640949300E+02  0.36820871474E+02  0.00000000000E+00 0. -1.
         11    1    4    4    0    0 -0.26589754603E+01  0.44558605505E+01  0.37714914389E+01  0.64147479825E+01  0.51100000000E-03 0. -1.
        -11    1    4    4    0    0 -0.80393527303E+01 -0.10655551174E-01 -0.95470540821E+01  0.12481087604E+02  0.51100000000E-03 0.  1.
         12    1    4    4    0    0  0.22060835401E+02  0.14211807907E+02 -0.23865386656E+02  0.35471292940E+02  0.00000000000E+00 0. -1.
</event>
<event>
 8    1  0.1229038E-006  0.9118800E+02  0.7816164E-02  0.1184000E+00
        -11   -1    0    0    0    0  0.00000000000E+00  0.00000000000E+00  0.45593999997E+02  0.45594000000E+02  0.51100000000E-03 0.  1.
         11   -1    0    0    0    0 -0.00000000000E+00 -0.00000000000E+00 -0.45593999997E+02  0.45594000000E+02  0.51100000000E-03 0. -1.
         23    2    1    2    0    0  0.00000000000E+00 -0.35527136788E-14  0.17763568394E-14  0.91188000000E+02  0.91188000000E+02 0.  0.
    9900012    2    3    3    0    0 -0.28488395078E+02  0.22381902401E+02  0.65757665072E+01  0.54367096774E+02  0.40000028716E+02 0.  0.
         12    1    3    3    0    0  0.28488395078E+02 -0.22381902401E+02 -0.65757665072E+01  0.36820903226E+02  0.00000000000E+00 0. -1.
         11    1    4    4    0    0 -0.13263286500E+02 -0.32470783161E+01  0.31578784362E+01  0.14015365955E+02  0.51100000000E-03 0. -1.
        -11    1    4    4    0    0 -0.93118645521E-01  0.13139962085E+02 -0.10059314803E+02  0.16548628017E+02  0.51100000000E-03 0.  1.
        -12    1    4    4    0    0 -0.15131989932E+02  0.12489018632E+02  0.13477202874E+02  0.23803102802E+02  0.00000000000E+00 0.  1.
</event>
<event>
 8    1  0.1229038E-006  0.9118800E+02  0.7816164E-02  0.1184000E+00
        -11   -1    0    0    0    0  0.00000000000E+00  0.00000000000E+00  0.45593999997E+02  0.45594000000E+02  0.51100000000E-03 0. -1.
         11   -1    0    0    0    0 -0.00000000000E+00 -0.00000000000E+00 -0.45593999997E+02  0.45594000000E+02  0.51100000000E-03 0.  1.
         23    2    1    2    0    0  0.00000000000E+00 -0.35527136788E-14  0.00000000000E+00  0.91188000000E+02  0.91188000000E+02 0.  0.
    9900012    2    3    3    0    0 -0.33126151127E+02 -0.11929672874E+02 -0.10775923635E+02  0.54367088637E+02  0.40000010167E+02 0.  0.
        -12    1    3    3    0    0  0.33126151127E+02  0.11929672874E+02  0.10775923635E+02  0.36820911363E+02  0.00000000000E+00 0.  1.
         11    1    4    4    0    0 -0.19255489848E+02  0.99049924595E+01  0.18237350489E+00  0.21654468945E+02  0.51100000000E-03 0. -1.
        -11    1    4    4    0    0 -0.81069722986E+00 -0.11401502071E+02 -0.11189277492E+02  0.15995355905E+02  0.51100000000E-03 0.  1.
         12    1    4    4    0    0 -0.13059964049E+02 -0.10433163262E+02  0.23098035197E+00  0.16717263788E+02  0.00000000000E+00 0. -1.
</event>
<event>
 8    1  0.1229038E-006  0.9118800E+02  0.7816164E-02  0.1184000E+00
        -11   -1    0    0    0    0  0.00000000000E+00  0.00000000000E+00  0.45593999997E+02  0.45594000000E+02  0.51100000000E-03 0. -1.
         11   -1    0    0    0    0 -0.00000000000E+00 -0.00000000000E+00 -0.45593999997E+02  0.45594000000E+02  0.51100000000E-03 0.  1.
         23    2    1    2    0    0  0.00000000000E+00  0.35527136788E-14 -0.88817841970E-15  0.91188000000E+02  0.91188000000E+02 0.  0.
    9900012    2    3    3    0    0 -0.26213637855E+02  0.25448329069E+02 -0.45836321894E+01  0.54367055606E+02  0.39999934865E+02 0.  0.
        -12    1    3    3    0    0  0.26213637855E+02 -0.25448329069E+02  0.45836321894E+01  0.36820944394E+02  0.00000000000E+00 0.  1.
         11    1    4    4    0    0 -0.22034410211E+02  0.22688314265E+02  0.69166494147E+01  0.32374602344E+02  0.51100000000E-03 0. -1.
        -11    1    4    4    0    0 -0.36506010359E+01 -0.52054670263E+01  0.16862246697E+01  0.65777753673E+01  0.51100000000E-03 0.  1.
        -12    1    4    4    0    0 -0.52862660771E+00  0.79654818308E+01 -0.13186506274E+02  0.15414677895E+02  0.00000000000E+00 0.  1.
</event>
<event>
 8    1  0.1229038E-006  0.9118800E+02  0.7816164E-02  0.1184000E+00
        -11   -1    0    0    0    0  0.00000000000E+00  0.00000000000E+00  0.45593999997E+02  0.45594000000E+02  0.51100000000E-03 0.  1.
         11   -1    0    0    0    0 -0.00000000000E+00 -0.00000000000E+00 -0.45593999997E+02  0.45594000000E+02  0.51100000000E-03 0. -1.
         23    2    1    2    0    0 -0.17763568394E-14  0.00000000000E+00  0.00000000000E+00  0.91188000000E+02  0.91188000000E+02 0.  0.
    9900012    2    3    3    0    0 -0.11532209763E+02 -0.34525492975E+02  0.55484803871E+01  0.54366984781E+02  0.39999773404E+02 0.  0.
        -12    1    3    3    0    0  0.11532209763E+02  0.34525492975E+02 -0.55484803871E+01  0.36821015219E+02  0.00000000000E+00 0.  1.
         11    1    4    4    0    0 -0.58174597906E+01  0.16797185728E+01  0.12706277197E+02  0.14075289460E+02  0.51100000000E-03 0.  1.
        -11    1    4    4    0    0  0.35945058385E+01 -0.53574110091E+01  0.20683285895E+01  0.67749766316E+01  0.51100000000E-03 0. -1.
         12    1    4    4    0    0 -0.93092558109E+01 -0.30847800538E+02 -0.92261253997E+01  0.33516718689E+02  0.00000000000E+00 0. -1.
</event>
<event>
 8    1  0.1229038E-006  0.9118800E+02  0.7816164E-02  0.1184000E+00
        -11   -1    0    0    0    0  0.00000000000E+00  0.00000000000E+00  0.45593999997E+02  0.45594000000E+02  0.51100000000E-03 0. -1.
         11   -1    0    0    0    0 -0.00000000000E+00 -0.00000000000E+00 -0.45593999997E+02  0.45594000000E+02  0.51100000000E-03 0.  1.
         23    2    1    2    0    0 -0.17763568394E-14 -0.35527136788E-14  0.00000000000E+00  0.91188000000E+02  0.91188000000E+02 0.  0.
    9900012    2    3    3    0    0 -0.90523530146E+01 -0.24248815666E+02 -0.26188354714E+02  0.54367080960E+02  0.39999992665E+02 0.  0.
        -12    1    3    3    0    0  0.90523530146E+01  0.24248815666E+02  0.26188354714E+02  0.36820919040E+02  0.00000000000E+00 0.  1.
         11    1    4    4    0    0  0.35550351297E+01  0.77835241596E+01 -0.90923632279E+00  0.86051283586E+01  0.51100000000E-03 0.  1.
        -11    1    4    4    0    0  0.32443841233E+01 -0.10965839025E+02 -0.10567665779E+02  0.15570845004E+02  0.51100000000E-03 0. -1.
         12    1    4    4    0    0 -0.15851772268E+02 -0.21066500801E+02 -0.14711452612E+02  0.30191107598E+02  0.00000000000E+00 0. -1.
</event>
<event>
 8    1  0.1229038E-006  0.9118800E+02  0.7816164E-02  0.1184000E+00
        -11   -1    0    0    0    0  0.00000000000E+00  0.00000000000E+00  0.45593999997E+02  0.45594000000E+02  0.51100000000E-03 0.  1.
         11   -1    0    0    0    0 -0.00000000000E+00 -0.00000000000E+00 -0.45593999997E+02  0.45594000000E+02  0.51100000000E-03 0. -1.
         23    2    1    2    0    0 -0.19428902931E-15  0.35527136788E-14  0.35527136788E-14  0.91188000000E+02  0.91188000000E+02 0.  0.
    9900012    2    3    3    0    0  0.87947039441E-01 -0.18612597717E+02 -0.31770123253E+02  0.54367119240E+02  0.40000079931E+02 0.  0.
        -12    1    3    3    0    0 -0.87947039441E-01  0.18612597717E+02  0.31770123253E+02  0.36820880760E+02  0.00000000000E+00 0.  1.
         11    1    4    4    0    0  0.12906180938E+02 -0.53885649749E+00 -0.20123766288E+02  0.23912880265E+02  0.51100000000E-03 0. -1.
        -11    1    4    4    0    0 -0.58755458814E+01 -0.87308692735E+01 -0.15015731224E+02  0.18336365564E+02  0.51100000000E-03 0.  1.
        -12    1    4    4    0    0 -0.69426880169E+01 -0.93428719456E+01  0.33693742584E+01  0.12117873410E+02  0.00000000000E+00 0.  1.
</event>
<event>
 8    1  0.1229038E-006  0.9118800E+02  0.7816164E-02  0.1184000E+00
        -11   -1    0    0    0    0  0.00000000000E+00  0.00000000000E+00  0.45593999997E+02  0.45594000000E+02  0.51100000000E-03 0. -1.
         11   -1    0    0    0    0 -0.00000000000E+00 -0.00000000000E+00 -0.45593999997E+02  0.45594000000E+02  0.51100000000E-03 0.  1.
         23    2    1    2    0    0 -0.13322676296E-14  0.00000000000E+00  0.00000000000E+00  0.91188000000E+02  0.91188000000E+02 0.  0.
    9900012    2    3    3    0    0  0.22754155744E+01 -0.33131855059E+02  0.15902283279E+02  0.54367082722E+02  0.39999996682E+02 0.  0.
        -12    1    3    3    0    0 -0.22754155744E+01  0.33131855059E+02 -0.15902283279E+02  0.36820917278E+02  0.00000000000E+00 0.  1.
         11    1    4    4    0    0 -0.12033439622E+02 -0.38191712009E+01  0.13857182974E+02  0.18745966447E+02  0.51100000000E-03 0. -1.
        -11    1    4    4    0    0  0.15848133895E+02 -0.17343971799E+02  0.14702798786E+01  0.23540145049E+02  0.51100000000E-03 0.  1.
        -12    1    4    4    0    0 -0.15392786982E+01 -0.11968712059E+02  0.57482042660E+00  0.12080971227E+02  0.00000000000E+00 0.  1.
</event>
<event>
 8    1  0.1229038E-006  0.9118800E+02  0.7816164E-02  0.1184000E+00
        -11   -1    0    0    0    0  0.00000000000E+00  0.00000000000E+00  0.45593999997E+02  0.45594000000E+02  0.51100000000E-03 0.  1.
         11   -1    0    0    0    0 -0.00000000000E+00 -0.00000000000E+00 -0.45593999997E+02  0.45594000000E+02  0.51100000000E-03 0. -1.
         23    2    1    2    0    0  0.00000000000E+00  0.00000000000E+00 -0.71054273576E-14  0.91188000000E+02  0.91188000000E+02 0.  0.
    9900012    2    3    3    0    0 -0.86781650468E+01  0.97042935433E+01 -0.34442646337E+02  0.54367085448E+02  0.40000002897E+02 0.  0.
        -12    1    3    3    0    0  0.86781650468E+01 -0.97042935433E+01  0.34442646337E+02  0.36820914552E+02  0.00000000000E+00 0.  1.
         11    1    4    4    0    0  0.86211720912E+00 -0.84093982763E+01  0.89311187365E+00  0.85005220153E+01  0.51100000000E-03 0.  1.
        -11    1    4    4    0    0 -0.10647859981E+02  0.15188017253E+02 -0.11495623935E+02  0.21822056735E+02  0.51100000000E-03 0. -1.
         12    1    4    4    0    0  0.11075777247E+01  0.29256745669E+01 -0.23840134275E+02  0.24044506698E+02  0.00000000000E+00 0. -1.
</event>
<event>
 8    1  0.1229038E-006  0.9118800E+02  0.7816164E-02  0.1184000E+00
        -11   -1    0    0    0    0  0.00000000000E+00  0.00000000000E+00  0.45593999997E+02  0.45594000000E+02  0.51100000000E-03 0. -1.
         11   -1    0    0    0    0 -0.00000000000E+00 -0.00000000000E+00 -0.45593999997E+02  0.45594000000E+02  0.51100000000E-03 0.  1.
         23    2    1    2    0    0  0.00000000000E+00  0.00000000000E+00 -0.26645352591E-14  0.91188000000E+02  0.91188000000E+02 0.  0.
    9900012    2    3    3    0    0 -0.22376027055E+02  0.28545615693E+02  0.63435809789E+01  0.54367084996E+02  0.40000001866E+02 0.  0.
        -12    1    3    3    0    0  0.22376027055E+02 -0.28545615693E+02 -0.63435809789E+01  0.36820915004E+02  0.00000000000E+00 0.  1.
         11    1    4    4    0    0 -0.17840847981E+02  0.17751306313E+02 -0.13396738074E+02  0.28511003556E+02  0.51100000000E-03 0.  1.
        -11    1    4    4    0    0 -0.29779028086E+01  0.16481376193E+00 -0.42015903476E+00  0.30119101230E+01  0.51100000000E-03 0. -1.
         12    1    4    4    0    0 -0.15572762660E+01  0.10629495618E+02  0.20160478088E+02  0.22844171318E+02  0.00000000000E+00 0. -1.
</event>
<event>
 8    1  0.1229038E-006  0.9118800E+02  0.7816164E-02  0.1184000E+00
        -11   -1    0    0    0    0  0.00000000000E+00  0.00000000000E+00  0.45593999997E+02  0.45594000000E+02  0.51100000000E-03 0. -1.
         11   -1    0    0    0    0 -0.00000000000E+00 -0.00000000000E+00 -0.45593999997E+02  0.45594000000E+02  0.51100000000E-03 0.  1.
         23    2    1    2    0    0  0.00000000000E+00  0.35527136788E-14  0.00000000000E+00  0.91188000000E+02  0.91188000000E+02 0.  0.
    9900012    2    3    3    0    0 -0.16547744131E+02  0.17319829111E+02  0.27963757285E+02  0.54367135837E+02  0.40000117766E+02 0.  0.
        -12    1    3    3    0    0  0.16547744131E+02 -0.17319829111E+02 -0.27963757285E+02  0.36820864163E+02  0.00000000000E+00 0.  1.
         11    1    4    4    0    0 -0.11432232095E+02 -0.68705767491E+01  0.15004713181E+02  0.20075910277E+02  0.51100000000E-03 0. -1.
        -11    1    4    4    0    0 -0.11921978366E+02  0.15795361684E+02  0.38581720051E+01  0.20162155400E+02  0.51100000000E-03 0.  1.
         12    1    4    4    0    0  0.68064663301E+01  0.83950441759E+01  0.91008720984E+01  0.14129070159E+02  0.00000000000E+00 0. -1.
</event>
<event>
 8    1  0.1229038E-006  0.9118800E+02  0.7816164E-02  0.1184000E+00
        -11   -1    0    0    0    0  0.00000000000E+00  0.00000000000E+00  0.45593999997E+02  0.45594000000E+02  0.51100000000E-03 0. -1.
         11   -1    0    0    0    0 -0.00000000000E+00 -0.00000000000E+00 -0.45593999997E+02  0.45594000000E+02  0.51100000000E-03 0.  1.
         23    2    1    2    0    0  0.35527136788E-14  0.00000000000E+00 -0.88817841970E-15  0.91188000000E+02  0.91188000000E+02 0.  0.
    9900012    2    3    3    0    0  0.19052504902E+02  0.31090559236E+02 -0.51146307093E+01  0.54367078448E+02  0.39999986937E+02 0.  0.
         12    1    3    3    0    0 -0.19052504902E+02 -0.31090559236E+02  0.51146307093E+01  0.36820921552E+02  0.00000000000E+00 0. -1.
         11    1    4    4    0    0  0.87588590670E+01  0.10604104488E+02 -0.75058397165E+01  0.15668512190E+02  0.51100000000E-03 0. -1.
        -11    1    4    4    0    0  0.11757006839E+02  0.16693184719E+02 -0.12041470833E+02  0.23704148286E+02  0.51100000000E-03 0.  1.
         12    1    4    4    0    0 -0.14633610037E+01  0.37932700301E+01  0.14432679840E+02  0.14994417972E+02  0.00000000000E+00 0. -1.
</event>
<event>
 8    1  0.1229038E-006  0.9118800E+02  0.7816164E-02  0.1184000E+00
        -11   -1    0    0    0    0  0.00000000000E+00  0.00000000000E+00  0.45593999997E+02  0.45594000000E+02  0.51100000000E-03 0.  1.
         11   -1    0    0    0    0 -0.00000000000E+00 -0.00000000000E+00 -0.45593999997E+02  0.45594000000E+02  0.51100000000E-03 0. -1.
         23    2    1    2    0    0  0.00000000000E+00 -0.88817841970E-15  0.00000000000E+00  0.91188000000E+02  0.91188000000E+02 0.  0.
    9900012    2    3    3    0    0  0.13477610125E+02  0.63087188072E+01 -0.33679874572E+02  0.54367083949E+02  0.39999999479E+02 0.  0.
        -12    1    3    3    0    0 -0.13477610125E+02 -0.63087188072E+01  0.33679874572E+02  0.36820916051E+02  0.00000000000E+00 0.  1.
         11    1    4    4    0    0 -0.89365836090E+01  0.52799381143E+01 -0.12277374527E+01  0.10452158275E+02  0.51100000000E-03 0. -1.
        -11    1    4    4    0    0  0.23251635198E+02  0.64125018159E+01 -0.27064384872E+02  0.36252443335E+02  0.51100000000E-03 0.  1.
        -12    1    4    4    0    0 -0.83744146445E+00 -0.53837211230E+01 -0.53877522464E+01  0.76624823396E+01  0.00000000000E+00 0.  1.
</event>
<event>
 8    1  0.1229038E-006  0.9118800E+02  0.7816164E-02  0.1184000E+00
        -11   -1    0    0    0    0  0.00000000000E+00  0.00000000000E+00  0.45593999997E+02  0.45594000000E+02  0.51100000000E-03 0.  1.
         11   -1    0    0    0    0 -0.00000000000E+00 -0.00000000000E+00 -0.45593999997E+02  0.45594000000E+02  0.51100000000E-03 0. -1.
         23    2    1    2    0    0 -0.35527136788E-14  0.35527136788E-14 -0.17763568394E-14  0.91188000000E+02  0.91188000000E+02 0.  0.
    9900012    2    3    3    0    0 -0.26404790399E+02  0.24101392659E+02 -0.88141467949E+01  0.54367091975E+02  0.40000017774E+02 0.  0.
        -12    1    3    3    0    0  0.26404790399E+02 -0.24101392659E+02  0.88141467949E+01  0.36820908025E+02  0.00000000000E+00 0.  1.
         11    1    4    4    0    0 -0.24354434486E+02  0.18801264215E+02 -0.72630419365E+01  0.31612937125E+02  0.51100000000E-03 0. -1.
        -11    1    4    4    0    0 -0.74662503099E+01  0.11405990099E+02 -0.40451778524E+01  0.14219879322E+02  0.51100000000E-03 0.  1.
        -12    1    4    4    0    0  0.54158943971E+01 -0.61058616555E+01  0.24940729941E+01  0.85342755273E+01  0.00000000000E+00 0.  1.
</event>
<event>
 8    1  0.1229038E-006  0.9118800E+02  0.7816164E-02  0.1184000E+00
        -11   -1    0    0    0    0  0.00000000000E+00  0.00000000000E+00  0.45593999997E+02  0.45594000000E+02  0.51100000000E-03 0. -1.
         11   -1    0    0    0    0 -0.00000000000E+00 -0.00000000000E+00 -0.45593999997E+02  0.45594000000E+02  0.51100000000E-03 0.  1.
         23    2    1    2    0    0  0.00000000000E+00 -0.35527136788E-14  0.17763568394E-14  0.91188000000E+02  0.91188000000E+02 0.  0.
    9900012    2    3    3    0    0  0.27598647968E+02  0.21879019230E+02 -0.10741696103E+02  0.54367341569E+02  0.40000586770E+02 0.  0.
         12    1    3    3    0    0 -0.27598647968E+02 -0.21879019230E+02  0.10741696103E+02  0.36820658431E+02  0.00000000000E+00 0. -1.
         11    1    4    4    0    0 -0.15568636579E+01  0.24921898343E+00  0.39791161525E+01  0.42801051584E+01  0.51100000000E-03 0. -1.
        -11    1    4    4    0    0  0.12841604594E+02 -0.24313871639E+00 -0.18519316009E+02  0.22537324391E+02  0.51100000000E-03 0.  1.
        -12    1    4    4    0    0  0.16313907032E+02  0.21872938963E+02  0.37985037536E+01  0.27549912020E+02  0.00000000000E+00 0.  1.
</event>
<event>
 8    1  0.1229038E-006  0.9118800E+02  0.7816164E-02  0.1184000E+00
        -11   -1    0    0    0    0  0.00000000000E+00  0.00000000000E+00  0.45593999997E+02  0.45594000000E+02  0.51100000000E-03 0.  1.
         11   -1    0    0    0    0 -0.00000000000E+00 -0.00000000000E+00 -0.45593999997E+02  0.45594000000E+02  0.51100000000E-03 0. -1.
         23    2    1    2    0    0  0.00000000000E+00  0.17763568394E-14  0.00000000000E+00  0.91188000000E+02  0.91188000000E+02 0.  0.
    9900012    2    3    3    0    0  0.25546288037E+02  0.13179128264E+02 -0.23010370934E+02  0.54367089843E+02  0.40000012916E+02 0.  0.
        -12    1    3    3    0    0 -0.25546288037E+02 -0.13179128264E+02  0.23010370934E+02  0.36820910157E+02  0.00000000000E+00 0.  1.
         11    1    4    4    0    0 -0.45644349531E+01 -0.69920553465E+01 -0.27987991827E+01  0.88065987496E+01  0.51100000000E-03 0.  1.
        -11    1    4    4    0    0  0.76029422215E+01  0.15167253360E+02 -0.13088468138E+02  0.21427979452E+02  0.51100000000E-03 0. -1.
         12    1    4    4    0    0  0.22507780768E+02  0.50039302499E+01 -0.71231036136E+01  0.24132511642E+02  0.00000000000E+00 0. -1.
</event>
<event>
 8    1  0.1229038E-006  0.9118800E+02  0.7816164E-02  0.1184000E+00
        -11   -1    0    0    0    0  0.00000000000E+00  0.00000000000E+00  0.45593999997E+02  0.45594000000E+02  0.51100000000E-03 0. -1.
         11   -1    0    0    0    0 -0.00000000000E+00 -0.00000000000E+00 -0.45593999997E+02  0.45594000000E+02  0.51100000000E-03 0.  1.
         23    2    1    2    0    0  0.00000000000E+00 -0.88817841970E-15  0.00000000000E+00  0.91188000000E+02  0.91188000000E+02 0.  0.
    9900012    2    3    3    0    0  0.17160274486E+02 -0.69777841760E+01  0.31821649004E+02  0.54367057077E+02  0.39999938218E+02 0.  0.
        -12    1    3    3    0    0 -0.17160274486E+02  0.69777841760E+01 -0.31821649004E+02  0.36820942923E+02  0.00000000000E+00 0.  1.
         11    1    4    4    0    0 -0.57587650449E+01  0.20869811722E+01  0.24502148992E+02  0.25256170944E+02  0.51100000000E-03 0. -1.
        -11    1    4    4    0    0  0.55726219183E+01 -0.37887813794E+01 -0.39033572987E+01  0.77875013867E+01  0.51100000000E-03 0.  1.
         12    1    4    4    0    0  0.17346417612E+02 -0.52759839688E+01  0.11222857310E+02  0.21323384746E+02  0.00000000000E+00 0. -1.
</event>
<event>
 8    1  0.1229038E-006  0.9118800E+02  0.7816164E-02  0.1184000E+00
        -11   -1    0    0    0    0  0.00000000000E+00  0.00000000000E+00  0.45593999997E+02  0.45594000000E+02  0.51100000000E-03 0.  1.
         11   -1    0    0    0    0 -0.00000000000E+00 -0.00000000000E+00 -0.45593999997E+02  0.45594000000E+02  0.51100000000E-03 0. -1.
         23    2    1    2    0    0  0.00000000000E+00  0.00000000000E+00  0.00000000000E+00  0.91188000000E+02  0.91188000000E+02 0.  0.
    9900012    2    3    3    0    0  0.97834813657E+01 -0.32304406706E+02 -0.14713573487E+02  0.54367075989E+02  0.39999981333E+02 0.  0.
         12    1    3    3    0    0 -0.97834813657E+01  0.32304406706E+02  0.14713573487E+02  0.36820924011E+02  0.00000000000E+00 0. -1.
         11    1    4    4    0    0  0.10425433945E+02 -0.39789249179E+01  0.82396982925E+01  0.13871342569E+02  0.51100000000E-03 0. -1.
        -11    1    4    4    0    0 -0.70818670405E+01 -0.10498783733E+02 -0.30806943531E+01  0.13033341038E+02  0.51100000000E-03 0.  1.
         12    1    4    4    0    0  0.64399144610E+01 -0.17826698055E+02 -0.19872577426E+02  0.27462392383E+02  0.00000000000E+00 0. -1.
</event>
<event>
 8    1  0.1229038E-006  0.9118800E+02  0.7816164E-02  0.1184000E+00
        -11   -1    0    0    0    0  0.00000000000E+00  0.00000000000E+00  0.45593999997E+02  0.45594000000E+02  0.51100000000E-03 0. -1.
         11   -1    0    0    0    0 -0.00000000000E+00 -0.00000000000E+00 -0.45593999997E+02  0.45594000000E+02  0.51100000000E-03 0.  1.
         23    2    1    2    0    0  0.00000000000E+00 -0.35527136788E-14 -0.35527136788E-14  0.91188000000E+02  0.91188000000E+02 0.  0.
    9900012    2    3    3    0    0  0.23945615857E+02 -0.22462653472E+02 -0.16667843047E+02  0.54367077800E+02  0.39999985461E+02 0.  0.
         12    1    3    3    0    0 -0.23945615857E+02  0.22462653472E+02  0.16667843047E+02  0.36820922200E+02  0.00000000000E+00 0. -1.
         11    1    4    4    0    0 -0.49808458245E+01 -0.45951549314E+01 -0.40516992979E+01  0.78956026643E+01  0.51100000000E-03 0. -1.
        -11    1    4    4    0    0 -0.30168903503E+01 -0.75030557972E+01 -0.98942281163E+01  0.12778623712E+02  0.51100000000E-03 0.  1.
        -12    1    4    4    0    0  0.31943352032E+02 -0.10364442744E+02 -0.27219156331E+01  0.33692851425E+02  0.00000000000E+00 0.  1.
</event>
<event>
 8    1  0.1229038E-006  0.9118800E+02  0.7816164E-02  0.1184000E+00
        -11   -1    0    0    0    0  0.00000000000E+00  0.00000000000E+00  0.45593999997E+02  0.45594000000E+02  0.51100000000E-03 0.  1.
         11   -1    0    0    0    0 -0.00000000000E+00 -0.00000000000E+00 -0.45593999997E+02  0.45594000000E+02  0.51100000000E-03 0. -1.
         23    2    1    2    0    0  0.00000000000E+00  0.33306690739E-15  0.00000000000E+00  0.91188000000E+02  0.91188000000E+02 0.  0.
    9900012    2    3    3    0    0 -0.32098305243E+02 -0.88346140636E+00 -0.18019294776E+02  0.54367127010E+02  0.40000097644E+02 0.  0.
        -12    1    3    3    0    0  0.32098305243E+02  0.88346140636E+00  0.18019294776E+02  0.36820872990E+02  0.00000000000E+00 0.  1.
         11    1    4    4    0    0 -0.29182163200E+02 -0.67641185101E+01 -0.13149009235E+02  0.32714651035E+02  0.51100000000E-03 0. -1.
        -11    1    4    4    0    0  0.79762637831E+01 -0.11488914400E+01 -0.98222432021E+00  0.81182202702E+01  0.51100000000E-03 0.  1.
        -12    1    4    4    0    0 -0.10892405826E+02  0.70295485437E+01 -0.38880612209E+01  0.13534255704E+02  0.00000000000E+00 0.  1.
</event>
<event>
 8    1  0.1229038E-006  0.9118800E+02  0.7816164E-02  0.1184000E+00
        -11   -1    0    0    0    0  0.00000000000E+00  0.00000000000E+00  0.45593999997E+02  0.45594000000E+02  0.51100000000E-03 0. -1.
         11   -1    0    0    0    0 -0.00000000000E+00 -0.00000000000E+00 -0.45593999997E+02  0.45594000000E+02  0.51100000000E-03 0.  1.
         23    2    1    2    0    0  0.00000000000E+00 -0.35527136788E-14  0.88817841970E-15  0.91188000000E+02  0.91188000000E+02 0.  0.
    9900012    2    3    3    0    0  0.32657176334E+02 -0.15922940734E+02 -0.59801913816E+01  0.54366893326E+02  0.39999564914E+02 0.  0.
        -12    1    3    3    0    0 -0.32657176334E+02  0.15922940734E+02  0.59801913816E+01  0.36821106674E+02  0.00000000000E+00 0.  1.
         11    1    4    4    0    0  0.82213437045E+01  0.12768284588E+01  0.71985714958E+01  0.11001827806E+02  0.51100000000E-03 0. -1.
        -11    1    4    4    0    0 -0.37363852552E+01 -0.36404664027E+00 -0.96523876457E+01  0.10356722081E+02  0.51100000000E-03 0.  1.
         12    1    4    4    0    0  0.28172217885E+02 -0.16835722552E+02 -0.35263752317E+01  0.33008343440E+02  0.00000000000E+00 0. -1.
</event>
<event>
 8    1  0.1229038E-006  0.9118800E+02  0.7816164E-02  0.1184000E+00
        -11   -1    0    0    0    0  0.00000000000E+00  0.00000000000E+00  0.45593999997E+02  0.45594000000E+02  0.51100000000E-03 0.  1.
         11   -1    0    0    0    0 -0.00000000000E+00 -0.00000000000E+00 -0.45593999997E+02  0.45594000000E+02  0.51100000000E-03 0. -1.
         23    2    1    2    0    0  0.00000000000E+00  0.00000000000E+00  0.00000000000E+00  0.91188000000E+02  0.91188000000E+02 0.  0.
    9900012    2    3    3    0    0 -0.14628068139E+02 -0.16724833046E+02 -0.29361180695E+02  0.54367090863E+02  0.40000015239E+02 0.  0.
        -12    1    3    3    0    0  0.14628068139E+02  0.16724833046E+02  0.29361180695E+02  0.36820909137E+02  0.00000000000E+00 0.  1.
         11    1    4    4    0    0 -0.38384167030E+01  0.85456311015E+01 -0.23775964410E+01  0.96651031451E+01  0.51100000000E-03 0. -1.
        -11    1    4    4    0    0 -0.77926791352E+01 -0.28536318944E+02 -0.27306301860E+02  0.40257688315E+02  0.51100000000E-03 0.  1.
        -12    1    4    4    0    0 -0.29969723008E+01  0.32658547966E+01  0.32271760533E+00  0.44442994023E+01  0.00000000000E+00 0.  1.
</event>
<event>
 8    1  0.1229038E-006  0.9118800E+02  0.7816164E-02  0.1184000E+00
        -11   -1    0    0    0    0  0.00000000000E+00  0.00000000000E+00  0.45593999997E+02  0.45594000000E+02  0.51100000000E-03 0. -1.
         11   -1    0    0    0    0 -0.00000000000E+00 -0.00000000000E+00 -0.45593999997E+02  0.45594000000E+02  0.51100000000E-03 0.  1.
         23    2    1    2    0    0  0.00000000000E+00  0.00000000000E+00  0.00000000000E+00  0.91188000000E+02  0.91188000000E+02 0.  0.
    9900012    2    3    3    0    0 -0.14770667207E+02  0.27208135482E+02  0.19933035582E+02  0.54367066366E+02  0.39999959395E+02 0.  0.
        -12    1    3    3    0    0  0.14770667207E+02 -0.27208135482E+02 -0.19933035582E+02  0.36820933634E+02  0.00000000000E+00 0.  1.
         11    1    4    4    0    0  0.55935764428E+01  0.37151097469E+01  0.19380474270E+02  0.20510800107E+02  0.51100000000E-03 0. -1.
        -11    1    4    4    0    0 -0.17316242357E+02  0.10013618469E+02 -0.36104415565E+00  0.20006377917E+02  0.51100000000E-03 0.  1.
         12    1    4    4    0    0 -0.30480012926E+01  0.13479407266E+02  0.91360546789E+00  0.13849888342E+02  0.00000000000E+00 0. -1.
</event>
<event>
 8    1  0.1229038E-006  0.9118800E+02  0.7816164E-02  0.1184000E+00
        -11   -1    0    0    0    0  0.00000000000E+00  0.00000000000E+00  0.45593999997E+02  0.45594000000E+02  0.51100000000E-03 0.  1.
         11   -1    0    0    0    0 -0.00000000000E+00 -0.00000000000E+00 -0.45593999997E+02  0.45594000000E+02  0.51100000000E-03 0. -1.
         23    2    1    2    0    0 -0.19984014443E-14  0.35527136788E-14 -0.35527136788E-14  0.91188000000E+02  0.91188000000E+02 0.  0.
    9900012    2    3    3    0    0 -0.12007932401E+01 -0.29082970593E+02  0.22550387488E+02  0.54367067655E+02  0.39999962332E+02 0.  0.
         12    1    3    3    0    0  0.12007932401E+01  0.29082970593E+02 -0.22550387488E+02  0.36820932345E+02  0.00000000000E+00 0. -1.
         11    1    4    4    0    0 -0.11459679452E+02 -0.59072833010E+00  0.16945833713E+02  0.20465446333E+02  0.51100000000E-03 0. -1.
        -11    1    4    4    0    0 -0.35125867051E+01 -0.71348267432E+01  0.40649969173E+00  0.79629931733E+01  0.51100000000E-03 0.  1.
         12    1    4    4    0    0  0.13771472917E+02 -0.21357415520E+02  0.51980540824E+01  0.25938628149E+02  0.00000000000E+00 0. -1.
</event>
<event>
 8    1  0.1229038E-006  0.9118800E+02  0.7816164E-02  0.1184000E+00
        -11   -1    0    0    0    0  0.00000000000E+00  0.00000000000E+00  0.45593999997E+02  0.45594000000E+02  0.51100000000E-03 0.  1.
         11   -1    0    0    0    0 -0.00000000000E+00 -0.00000000000E+00 -0.45593999997E+02  0.45594000000E+02  0.51100000000E-03 0. -1.
         23    2    1    2    0    0  0.00000000000E+00  0.00000000000E+00  0.00000000000E+00  0.91188000000E+02  0.91188000000E+02 0.  0.
    9900012    2    3    3    0    0  0.17953785867E+02 -0.28471522851E+02  0.14926945056E+02  0.54367085710E+02  0.40000003493E+02 0.  0.
        -12    1    3    3    0    0 -0.17953785867E+02  0.28471522851E+02 -0.14926945056E+02  0.36820914290E+02  0.00000000000E+00 0.  1.
         11    1    4    4    0    0  0.30898687310E+01 -0.36736482639E+01  0.14547937517E+02  0.15319447333E+02  0.51100000000E-03 0. -1.
        -11    1    4    4    0    0 -0.52122590958E+01 -0.27609921969E+01 -0.61596244643E+01  0.85282880225E+01  0.51100000000E-03 0.  1.
         12    1    4    4    0    0  0.20076176232E+02 -0.22036882390E+02  0.65386320041E+01  0.30519350355E+02  0.00000000000E+00 0. -1.
</event>
<event>
 8    1  0.1229038E-006  0.9118800E+02  0.7816164E-02  0.1184000E+00
        -11   -1    0    0    0    0  0.00000000000E+00  0.00000000000E+00  0.45593999997E+02  0.45594000000E+02  0.51100000000E-03 0. -1.
         11   -1    0    0    0    0 -0.00000000000E+00 -0.00000000000E+00 -0.45593999997E+02  0.45594000000E+02  0.51100000000E-03 0.  1.
         23    2    1    2    0    0  0.35527136788E-14  0.00000000000E+00 -0.88817841970E-15  0.91188000000E+02  0.91188000000E+02 0.  0.
    9900012    2    3    3    0    0  0.27487646887E+02  0.23302012891E+02 -0.75647235253E+01  0.54367087760E+02  0.40000008167E+02 0.  0.
         12    1    3    3    0    0 -0.27487646887E+02 -0.23302012891E+02  0.75647235253E+01  0.36820912240E+02  0.00000000000E+00 0. -1.
         11    1    4    4    0    0  0.16844296063E+02 -0.63923858765E+01 -0.29458831601E+01  0.18255715130E+02  0.51100000000E-03 0. -1.
        -11    1    4    4    0    0  0.80961737571E+01  0.31183539871E+02 -0.61315095995E+01  0.32795679573E+02  0.51100000000E-03 0.  1.
        -12    1    4    4    0    0  0.25471770667E+01 -0.14891411041E+01  0.15126692344E+01  0.33156930572E+01  0.00000000000E+00 0.  1.
</event>
<event>
 8    1  0.1229038E-006  0.9118800E+02  0.7816164E-02  0.1184000E+00
        -11   -1    0    0    0    0  0.00000000000E+00  0.00000000000E+00  0.45593999997E+02  0.45594000000E+02  0.51100000000E-03 0.  1.
         11   -1    0    0    0    0 -0.00000000000E+00 -0.00000000000E+00 -0.45593999997E+02  0.45594000000E+02  0.51100000000E-03 0. -1.
         23    2    1    2    0    0  0.00000000000E+00  0.22204460493E-15  0.71054273576E-14  0.91188000000E+02  0.91188000000E+02 0.  0.
    9900012    2    3    3    0    0  0.21137501275E+01 -0.14653757758E+01 -0.36730972641E+02  0.54367087234E+02  0.40000006967E+02 0.  0.
        -12    1    3    3    0    0 -0.21137501275E+01  0.14653757758E+01  0.36730972641E+02  0.36820912766E+02  0.00000000000E+00 0.  1.
         11    1    4    4    0    0  0.28023637444E+01  0.14830884333E+02 -0.18472472402E+02  0.23854572089E+02  0.51100000000E-03 0. -1.
        -11    1    4    4    0    0  0.59164314463E+00 -0.13622177454E+02 -0.17581197469E+01  0.13747899676E+02  0.51100000000E-03 0.  1.
         12    1    4    4    0    0 -0.12802567615E+01 -0.26740826545E+01 -0.16500380493E+02  0.16764615469E+02  0.00000000000E+00 0. -1.
</event>
<event>
 8    1  0.1229038E-006  0.9118800E+02  0.7816164E-02  0.1184000E+00
        -11   -1    0    0    0    0  0.00000000000E+00  0.00000000000E+00  0.45593999997E+02  0.45594000000E+02  0.51100000000E-03 0. -1.
         11   -1    0    0    0    0 -0.00000000000E+00 -0.00000000000E+00 -0.45593999997E+02  0.45594000000E+02  0.51100000000E-03 0.  1.
         23    2    1    2    0    0  0.00000000000E+00  0.17763568394E-14  0.35527136788E-14  0.91188000000E+02  0.91188000000E+02 0.  0.
    9900012    2    3    3    0    0  0.30107416105E+02 -0.13808522807E+02 -0.16082552849E+02  0.54367077785E+02  0.39999985427E+02 0.  0.
         12    1    3    3    0    0 -0.30107416105E+02  0.13808522807E+02  0.16082552849E+02  0.36820922215E+02  0.00000000000E+00 0. -1.
         11    1    4    4    0    0  0.15354173390E+02 -0.32454374922E+01 -0.50530056212E+01  0.16486854493E+02  0.51100000000E-03 0. -1.
        -11    1    4    4    0    0  0.13829472244E+02 -0.27440251746E+01  0.87483901512E+01  0.16592718500E+02  0.51100000000E-03 0.  1.
        -12    1    4    4    0    0  0.92377047087E+00 -0.78190601396E+01 -0.19777937379E+02  0.21287504793E+02  0.00000000000E+00 0.  1.
</event>
<event>
 8    1  0.1229038E-006  0.9118800E+02  0.7816164E-02  0.1184000E+00
        -11   -1    0    0    0    0  0.00000000000E+00  0.00000000000E+00  0.45593999997E+02  0.45594000000E+02  0.51100000000E-03 0.  1.
         11   -1    0    0    0    0 -0.00000000000E+00 -0.00000000000E+00 -0.45593999997E+02  0.45594000000E+02  0.51100000000E-03 0. -1.
         23    2    1    2    0    0 -0.44408920985E-15  0.00000000000E+00  0.00000000000E+00  0.91188000000E+02  0.91188000000E+02 0.  0.
    9900012    2    3    3    0    0  0.30391688897E+01  0.31344156849E+02 -0.19081058240E+02  0.54367088826E+02  0.40000010596E+02 0.  0.
        -12    1    3    3    0    0 -0.30391688897E+01 -0.31344156849E+02  0.19081058240E+02  0.36820911174E+02  0.00000000000E+00 0.  1.
         11    1    4    4    0    0 -0.64700099883E+00  0.18125010311E+01  0.13704501347E+01  0.23626053655E+01  0.51100000000E-03 0. -1.
        -11    1    4    4    0    0 -0.14022615153E+02  0.62495454512E+01  0.15099629593E+01  0.15426293867E+02  0.51100000000E-03 0.  1.
         12    1    4    4    0    0  0.17708785041E+02  0.23282110367E+02 -0.21961471334E+02  0.36578189593E+02  0.00000000000E+00 0. -1.
</event>
<event>
 8    1  0.1229038E-006  0.9118800E+02  0.7816164E-02  0.1184000E+00
        -11   -1    0    0    0    0  0.00000000000E+00  0.00000000000E+00  0.45593999997E+02  0.45594000000E+02  0.51100000000E-03 0. -1.
         11   -1    0    0    0    0 -0.00000000000E+00 -0.00000000000E+00 -0.45593999997E+02  0.45594000000E+02  0.51100000000E-03 0.  1.
         23    2    1    2    0    0 -0.17763568394E-14  0.71054273576E-14 -0.17763568394E-14  0.91188000000E+02  0.91188000000E+02 0.  0.
    9900012    2    3    3    0    0  0.65599189521E+01 -0.32631321221E+02  0.15746222296E+02  0.54367093196E+02  0.40000020559E+02 0.  0.
        -12    1    3    3    0    0 -0.65599189521E+01  0.32631321221E+02 -0.15746222296E+02  0.36820906804E+02  0.00000000000E+00 0.  1.
         11    1    4    4    0    0 -0.12781524734E+02 -0.15625563462E+02  0.15066002995E+02  0.25189483014E+02  0.51100000000E-03 0. -1.
        -11    1    4    4    0    0  0.86390043478E+01 -0.10789943730E+02 -0.60513463583E+01  0.15088872550E+02  0.51100000000E-03 0.  1.
         12    1    4    4    0    0  0.10702439338E+02 -0.62158140292E+01  0.67315656595E+01  0.14088737632E+02  0.00000000000E+00 0. -1.
</event>
<event>
 8    1  0.1229038E-006  0.9118800E+02  0.7816164E-02  0.1184000E+00
        -11   -1    0    0    0    0  0.00000000000E+00  0.00000000000E+00  0.45593999997E+02  0.45594000000E+02  0.51100000000E-03 0. -1.
         11   -1    0    0    0    0 -0.00000000000E+00 -0.00000000000E+00 -0.45593999997E+02  0.45594000000E+02  0.51100000000E-03 0.  1.
         23    2    1    2    0    0 -0.17763568394E-14  0.17763568394E-14  0.00000000000E+00  0.91188000000E+02  0.91188000000E+02 0.  0.
    9900012    2    3    3    0    0  0.13304638983E+02 -0.11990419344E+02  0.32171361453E+02  0.54367081051E+02  0.39999992872E+02 0.  0.
         12    1    3    3    0    0 -0.13304638983E+02  0.11990419344E+02 -0.32171361453E+02  0.36820918949E+02  0.00000000000E+00 0. -1.
         11    1    4    4    0    0 -0.44950722566E+01  0.34881778062E+01  0.88377747590E+01  0.10510914420E+02  0.51100000000E-03 0. -1.
        -11    1    4    4    0    0  0.10877550891E+01  0.72555565200E+01  0.10621423548E+02  0.12908948447E+02  0.51100000000E-03 0.  1.
        -12    1    4    4    0    0  0.16711956150E+02 -0.22734153671E+02  0.12712163146E+02  0.30947218184E+02  0.00000000000E+00 0.  1.
</event>
<event>
 8    1  0.1229038E-006  0.9118800E+02  0.7816164E-02  0.1184000E+00
        -11   -1    0    0    0    0  0.00000000000E+00  0.00000000000E+00  0.45593999997E+02  0.45594000000E+02  0.51100000000E-03 0. -1.
         11   -1    0    0    0    0 -0.00000000000E+00 -0.00000000000E+00 -0.45593999997E+02  0.45594000000E+02  0.51100000000E-03 0.  1.
         23    2    1    2    0    0 -0.35527136788E-14  0.35527136788E-14  0.00000000000E+00  0.91188000000E+02  0.91188000000E+02 0.  0.
    9900012    2    3    3    0    0 -0.28603773932E+02 -0.20267219968E+02  0.11262109725E+02  0.54367201478E+02  0.40000267408E+02 0.  0.
        -12    1    3    3    0    0  0.28603773932E+02  0.20267219968E+02 -0.11262109725E+02  0.36820798522E+02  0.00000000000E+00 0.  1.
         11    1    4    4    0    0 -0.86257960654E+01 -0.18380379974E+02  0.56739888787E+01  0.21081671561E+02  0.51100000000E-03 0. -1.
        -11    1    4    4    0    0 -0.63042959823E+00  0.44955268345E+01  0.11257518287E+02  0.12138324483E+02  0.51100000000E-03 0.  1.
         12    1    4    4    0    0 -0.19347548268E+02 -0.63823668284E+01 -0.56693974408E+01  0.21147205434E+02  0.00000000000E+00 0. -1.
</event>
<event>
 8    1  0.1229038E-006  0.9118800E+02  0.7816164E-02  0.1184000E+00
        -11   -1    0    0    0    0  0.00000000000E+00  0.00000000000E+00  0.45593999997E+02  0.45594000000E+02  0.51100000000E-03 0. -1.
         11   -1    0    0    0    0 -0.00000000000E+00 -0.00000000000E+00 -0.45593999997E+02  0.45594000000E+02  0.51100000000E-03 0.  1.
         23    2    1    2    0    0 -0.17763568394E-14  0.00000000000E+00  0.00000000000E+00  0.91188000000E+02  0.91188000000E+02 0.  0.
    9900012    2    3    3    0    0 -0.79089576108E+01  0.20049600733E+02  0.29853673528E+02  0.54367083075E+02  0.39999997487E+02 0.  0.
        -12    1    3    3    0    0  0.79089576108E+01 -0.20049600733E+02 -0.29853673528E+02  0.36820916925E+02  0.00000000000E+00 0.  1.
         11    1    4    4    0    0  0.10170431148E+02  0.81055083316E+01 -0.63200389632E+00  0.13020613051E+02  0.51100000000E-03 0. -1.
        -11    1    4    4    0    0 -0.78377385921E+01  0.14264041836E+02  0.24019163837E+02  0.29014018464E+02  0.51100000000E-03 0.  1.
         12    1    4    4    0    0 -0.10241650166E+02 -0.23199494343E+01  0.64665135872E+01  0.12332451560E+02  0.00000000000E+00 0. -1.
</event>
<event>
 8    1  0.1229038E-006  0.9118800E+02  0.7816164E-02  0.1184000E+00
        -11   -1    0    0    0    0  0.00000000000E+00  0.00000000000E+00  0.45593999997E+02  0.45594000000E+02  0.51100000000E-03 0.  1.
         11   -1    0    0    0    0 -0.00000000000E+00 -0.00000000000E+00 -0.45593999997E+02  0.45594000000E+02  0.51100000000E-03 0. -1.
         23    2    1    2    0    0  0.00000000000E+00 -0.35527136788E-14 -0.35527136788E-14  0.91188000000E+02  0.91188000000E+02 0.  0.
    9900012    2    3    3    0    0  0.70941123911E+01 -0.30357645273E+02 -0.19592531666E+02  0.54367077222E+02  0.39999984143E+02 0.  0.
        -12    1    3    3    0    0 -0.70941123911E+01  0.30357645273E+02  0.19592531666E+02  0.36820922778E+02  0.00000000000E+00 0.  1.
         11    1    4    4    0    0  0.81946135050E+01  0.55468939693E-01 -0.28481917756E+01  0.86756535173E+01  0.51100000000E-03 0. -1.
        -11    1    4    4    0    0  0.70022519253E+01 -0.24706073663E+01 -0.14769348908E+02  0.16530852979E+02  0.51100000000E-03 0.  1.
         12    1    4    4    0    0 -0.81027530392E+01 -0.27942506847E+02 -0.19749909823E+01  0.29160570726E+02  0.00000000000E+00 0. -1.
</event>
<event>
 8    1  0.1229038E-006  0.9118800E+02  0.7816164E-02  0.1184000E+00
        -11   -1    0    0    0    0  0.00000000000E+00  0.00000000000E+00  0.45593999997E+02  0.45594000000E+02  0.51100000000E-03 0. -1.
         11   -1    0    0    0    0 -0.00000000000E+00 -0.00000000000E+00 -0.45593999997E+02  0.45594000000E+02  0.51100000000E-03 0.  1.
         23    2    1    2    0    0  0.00000000000E+00  0.00000000000E+00  0.00000000000E+00  0.91188000000E+02  0.91188000000E+02 0.  0.
    9900012    2    3    3    0    0 -0.18287460311E+02 -0.98904910968E+01 -0.30389583345E+02  0.54367084820E+02  0.40000001465E+02 0.  0.
         12    1    3    3    0    0  0.18287460311E+02  0.98904910968E+01  0.30389583345E+02  0.36820915180E+02  0.00000000000E+00 0. -1.
         11    1    4    4    0    0 -0.81558440228E+01  0.74144520358E+01 -0.19127232840E+02  0.22075844879E+02  0.51100000000E-03 0. -1.
        -11    1    4    4    0    0 -0.46358466863E+01 -0.62371376378E+01 -0.16981146139E+02  0.18674910572E+02  0.51100000000E-03 0.  1.
        -12    1    4    4    0    0 -0.54957696023E+01 -0.11067805495E+02  0.57187956344E+01  0.13616329370E+02  0.00000000000E+00 0.  1.
</event>
<event>
 8    1  0.1229038E-006  0.9118800E+02  0.7816164E-02  0.1184000E+00
        -11   -1    0    0    0    0  0.00000000000E+00  0.00000000000E+00  0.45593999997E+02  0.45594000000E+02  0.51100000000E-03 0. -1.
         11   -1    0    0    0    0 -0.00000000000E+00 -0.00000000000E+00 -0.45593999997E+02  0.45594000000E+02  0.51100000000E-03 0.  1.
         23    2    1    2    0    0  0.88817841970E-15  0.35527136788E-14 -0.71054273576E-14  0.91188000000E+02  0.91188000000E+02 0.  0.
    9900012    2    3    3    0    0 -0.49050209077E+01 -0.16570333989E+02  0.32513758231E+02  0.54367086474E+02  0.40000005235E+02 0.  0.
        -12    1    3    3    0    0  0.49050209077E+01  0.16570333989E+02 -0.32513758231E+02  0.36820913526E+02  0.00000000000E+00 0.  1.
         11    1    4    4    0    0 -0.31710061798E+01 -0.42985747365E+01  0.35381005298E+01  0.64071195227E+01  0.51100000000E-03 0. -1.
        -11    1    4    4    0    0 -0.14148508596E+02 -0.14527939631E+02  0.28945149231E+02  0.35342085248E+02  0.51100000000E-03 0.  1.
         12    1    4    4    0    0  0.12414493868E+02  0.22561803788E+01  0.30508469562E-01  0.12617881703E+02  0.00000000000E+00 0. -1.
</event>
<event>
 8    1  0.1229038E-006  0.9118800E+02  0.7816164E-02  0.1184000E+00
        -11   -1    0    0    0    0  0.00000000000E+00  0.00000000000E+00  0.45593999997E+02  0.45594000000E+02  0.51100000000E-03 0. -1.
         11   -1    0    0    0    0 -0.00000000000E+00 -0.00000000000E+00 -0.45593999997E+02  0.45594000000E+02  0.51100000000E-03 0.  1.
         23    2    1    2    0    0 -0.17763568394E-14  0.00000000000E+00 -0.17763568394E-14  0.91188000000E+02  0.91188000000E+02 0.  0.
    9900012    2    3    3    0    0 -0.85451507564E+01 -0.32323817946E+02 -0.15424989873E+02  0.54367093973E+02  0.40000022330E+02 0.  0.
         12    1    3    3    0    0  0.85451507564E+01  0.32323817946E+02  0.15424989873E+02  0.36820906027E+02  0.00000000000E+00 0. -1.
         11    1    4    4    0    0  0.67983610975E+01 -0.11004294453E+01  0.20010582585E+01  0.71716729562E+01  0.51100000000E-03 0. -1.
        -11    1    4    4    0    0 -0.22304174230E+02 -0.20090852584E+02 -0.81046328322E+01  0.31093465861E+02  0.51100000000E-03 0.  1.
        -12    1    4    4    0    0  0.69606623764E+01 -0.11132535917E+02 -0.93214152995E+01  0.16101955156E+02  0.00000000000E+00 0.  1.
</event>
<event>
 8    1  0.1229038E-006  0.9118800E+02  0.7816164E-02  0.1184000E+00
        -11   -1    0    0    0    0  0.00000000000E+00  0.00000000000E+00  0.45593999997E+02  0.45594000000E+02  0.51100000000E-03 0. -1.
         11   -1    0    0    0    0 -0.00000000000E+00 -0.00000000000E+00 -0.45593999997E+02  0.45594000000E+02  0.51100000000E-03 0.  1.
         23    2    1    2    0    0  0.00000000000E+00 -0.35527136788E-14 -0.71054273576E-14  0.91188000000E+02  0.91188000000E+02 0.  0.
    9900012    2    3    3    0    0  0.36147683268E+01  0.16321169589E+02  0.32807496782E+02  0.54367095992E+02  0.40000026934E+02 0.  0.
        -12    1    3    3    0    0 -0.36147683268E+01 -0.16321169589E+02 -0.32807496782E+02  0.36820904008E+02  0.00000000000E+00 0.  1.
         11    1    4    4    0    0  0.77522638522E+01  0.43223142239E+01  0.17248768235E+02  0.19398453572E+02  0.51100000000E-03 0. -1.
        -11    1    4    4    0    0  0.56481704353E+00 -0.36584148397E+01  0.18055387644E+02  0.18430953331E+02  0.51100000000E-03 0.  1.
         12    1    4    4    0    0 -0.47023125689E+01  0.15657270205E+02 -0.24966590977E+01  0.16537689090E+02  0.00000000000E+00 0. -1.
</event>
<event>
 8    1  0.1229038E-006  0.9118800E+02  0.7816164E-02  0.1184000E+00
        -11   -1    0    0    0    0  0.00000000000E+00  0.00000000000E+00  0.45593999997E+02  0.45594000000E+02  0.51100000000E-03 0.  1.
         11   -1    0    0    0    0 -0.00000000000E+00 -0.00000000000E+00 -0.45593999997E+02  0.45594000000E+02  0.51100000000E-03 0. -1.
         23    2    1    2    0    0  0.00000000000E+00 -0.35527136788E-14  0.17763568394E-14  0.91188000000E+02  0.91188000000E+02 0.  0.
    9900012    2    3    3    0    0  0.20128705421E+02 -0.30256953095E+02  0.59271200874E+01  0.54367099073E+02  0.40000033957E+02 0.  0.
         12    1    3    3    0    0 -0.20128705421E+02  0.30256953095E+02 -0.59271200874E+01  0.36820900927E+02  0.00000000000E+00 0. -1.
         11    1    4    4    0    0 -0.24627183327E+00  0.44060720734E+01 -0.35648310418E+01  0.56729305962E+01  0.51100000000E-03 0. -1.
        -11    1    4    4    0    0  0.13294966260E+02 -0.10278148421E+02  0.15210619630E+02  0.22666261548E+02  0.51100000000E-03 0.  1.
         12    1    4    4    0    0  0.70800109951E+01 -0.24384876747E+02 -0.57186685004E+01  0.26027906929E+02  0.00000000000E+00 0. -1.
</event>
<event>
 8    1  0.1229038E-006  0.9118800E+02  0.7816164E-02  0.1184000E+00
        -11   -1    0    0    0    0  0.00000000000E+00  0.00000000000E+00  0.45593999997E+02  0.45594000000E+02  0.51100000000E-03 0. -1.
         11   -1    0    0    0    0 -0.00000000000E+00 -0.00000000000E+00 -0.45593999997E+02  0.45594000000E+02  0.51100000000E-03 0.  1.
         23    2    1    2    0    0  0.35527136788E-14  0.00000000000E+00  0.35527136788E-14  0.91188000000E+02  0.91188000000E+02 0.  0.
    9900012    2    3    3    0    0 -0.24381958165E+02 -0.22183506341E+02 -0.16407027902E+02  0.54367103730E+02  0.40000044573E+02 0.  0.
         12    1    3    3    0    0  0.24381958165E+02  0.22183506341E+02  0.16407027902E+02  0.36820896270E+02  0.00000000000E+00 0. -1.
         11    1    4    4    0    0 -0.65812516178E+01  0.43154234532E+01 -0.62446298859E+01  0.10046449876E+02  0.51100000000E-03 0. -1.
        -11    1    4    4    0    0 -0.18880237853E+02 -0.14019258929E+02 -0.17938591426E+02  0.29576951582E+02  0.51100000000E-03 0.  1.
         12    1    4    4    0    0  0.10795313055E+01 -0.12479670865E+02  0.77761934093E+01  0.14743702272E+02  0.00000000000E+00 0. -1.
</event>
<event>
 8    1  0.1229038E-006  0.9118800E+02  0.7816164E-02  0.1184000E+00
        -11   -1    0    0    0    0  0.00000000000E+00  0.00000000000E+00  0.45593999997E+02  0.45594000000E+02  0.51100000000E-03 0.  1.
         11   -1    0    0    0    0 -0.00000000000E+00 -0.00000000000E+00 -0.45593999997E+02  0.45594000000E+02  0.51100000000E-03 0. -1.
         23    2    1    2    0    0  0.35527136788E-14  0.71054273576E-14  0.00000000000E+00  0.91188000000E+02  0.91188000000E+02 0.  0.
    9900012    2    3    3    0    0  0.10827646014E+02 -0.35074065003E+02 -0.28904807283E+01  0.54367043564E+02  0.39999907412E+02 0.  0.
        -12    1    3    3    0    0 -0.10827646014E+02  0.35074065003E+02  0.28904807283E+01  0.36820956436E+02  0.00000000000E+00 0.  1.
         11    1    4    4    0    0 -0.21221663559E+01  0.11121352291E+01 -0.66985779582E+01  0.71141676767E+01  0.51100000000E-03 0. -1.
        -11    1    4    4    0    0 -0.85682400662E+01 -0.92901977615E+01  0.15782824572E+01  0.12736305903E+02  0.51100000000E-03 0.  1.
         12    1    4    4    0    0  0.21518052437E+02 -0.26896002470E+02  0.22298147726E+01  0.34516569984E+02  0.00000000000E+00 0. -1.
</event>
<event>
 8    1  0.1229038E-006  0.9118800E+02  0.7816164E-02  0.1184000E+00
        -11   -1    0    0    0    0  0.00000000000E+00  0.00000000000E+00  0.45593999997E+02  0.45594000000E+02  0.51100000000E-03 0. -1.
         11   -1    0    0    0    0 -0.00000000000E+00 -0.00000000000E+00 -0.45593999997E+02  0.45594000000E+02  0.51100000000E-03 0.  1.
         23    2    1    2    0    0  0.00000000000E+00  0.00000000000E+00 -0.17763568394E-14  0.91188000000E+02  0.91188000000E+02 0.  0.
    9900012    2    3    3    0    0 -0.26958169394E+02 -0.23365477848E+02  0.91154315509E+01  0.54367088218E+02  0.40000009210E+02 0.  0.
        -12    1    3    3    0    0  0.26958169394E+02  0.23365477848E+02 -0.91154315509E+01  0.36820911782E+02  0.00000000000E+00 0.  1.
         11    1    4    4    0    0 -0.93283549311E+01 -0.16558540936E+02  0.21035539435E-01  0.19005365726E+02  0.51100000000E-03 0. -1.
        -11    1    4    4    0    0 -0.56922279251E+01  0.91581379611E+01 -0.40112430691E+01  0.11504912902E+02  0.51100000000E-03 0.  1.
        -12    1    4    4    0    0 -0.11937586537E+02 -0.15965074874E+02  0.13105639081E+02  0.23856809589E+02  0.00000000000E+00 0.  1.
</event>
<event>
 8    1  0.1229038E-006  0.9118800E+02  0.7816164E-02  0.1184000E+00
        -11   -1    0    0    0    0  0.00000000000E+00  0.00000000000E+00  0.45593999997E+02  0.45594000000E+02  0.51100000000E-03 0.  1.
         11   -1    0    0    0    0 -0.00000000000E+00 -0.00000000000E+00 -0.45593999997E+02  0.45594000000E+02  0.51100000000E-03 0. -1.
         23    2    1    2    0    0  0.00000000000E+00  0.00000000000E+00  0.00000000000E+00  0.91188000000E+02  0.91188000000E+02 0.  0.
    9900012    2    3    3    0    0 -0.83989725680E+01  0.35708523431E+02 -0.31842123179E+01  0.54367073967E+02  0.39999976723E+02 0.  0.
         12    1    3    3    0    0  0.83989725680E+01 -0.35708523431E+02  0.31842123179E+01  0.36820926033E+02  0.00000000000E+00 0. -1.
         11    1    4    4    0    0  0.38180985733E+01  0.49090407974E+01 -0.11695048844E+02  0.13245781441E+02  0.51100000000E-03 0.  1.
        -11    1    4    4    0    0 -0.37957208558E+01  0.63865423970E+01  0.12938566614E+02  0.14919850096E+02  0.51100000000E-03 0. -1.
         12    1    4    4    0    0 -0.84213502854E+01  0.24412940237E+02 -0.44277300882E+01  0.26201442429E+02  0.00000000000E+00 0. -1.
</event>
<event>
 8    1  0.1229038E-006  0.9118800E+02  0.7816164E-02  0.1184000E+00
        -11   -1    0    0    0    0  0.00000000000E+00  0.00000000000E+00  0.45593999997E+02  0.45594000000E+02  0.51100000000E-03 0.  1.
         11   -1    0    0    0    0 -0.00000000000E+00 -0.00000000000E+00 -0.45593999997E+02  0.45594000000E+02  0.51100000000E-03 0. -1.
         23    2    1    2    0    0  0.00000000000E+00  0.00000000000E+00  0.00000000000E+00  0.91188000000E+02  0.91188000000E+02 0.  0.
    9900012    2    3    3    0    0 -0.16775629796E+02 -0.12442783219E+02  0.30323834589E+02  0.54367088096E+02  0.40000008932E+02 0.  0.
         12    1    3    3    0    0  0.16775629796E+02  0.12442783219E+02 -0.30323834589E+02  0.36820911904E+02  0.00000000000E+00 0. -1.
         11    1    4    4    0    0  0.93446636529E+01 -0.90467362816E+01  0.10104953905E+02  0.16470466594E+02  0.51100000000E-03 0. -1.
        -11    1    4    4    0    0 -0.19458817938E+02 -0.52214368260E+00  0.36446405324E+01  0.19804081257E+02  0.51100000000E-03 0.  1.
         12    1    4    4    0    0 -0.66614755109E+01 -0.28739032547E+01  0.16574240152E+02  0.18092540245E+02  0.00000000000E+00 0. -1.
</event>
<event>
 8    1  0.1229038E-006  0.9118800E+02  0.7816164E-02  0.1184000E+00
        -11   -1    0    0    0    0  0.00000000000E+00  0.00000000000E+00  0.45593999997E+02  0.45594000000E+02  0.51100000000E-03 0.  1.
         11   -1    0    0    0    0 -0.00000000000E+00 -0.00000000000E+00 -0.45593999997E+02  0.45594000000E+02  0.51100000000E-03 0. -1.
         23    2    1    2    0    0  0.35527136788E-14 -0.17763568394E-14  0.35527136788E-14  0.91188000000E+02  0.91188000000E+02 0.  0.
    9900012    2    3    3    0    0  0.18865229966E+02 -0.49786817201E+01  0.31226525876E+02  0.54367080788E+02  0.39999992273E+02 0.  0.
         12    1    3    3    0    0 -0.18865229966E+02  0.49786817201E+01 -0.31226525876E+02  0.36820919212E+02  0.00000000000E+00 0. -1.
         11    1    4    4    0    0 -0.91553508085E+01 -0.89056674424E+01  0.12984030859E+02  0.18213083721E+02  0.51100000000E-03 0. -1.
        -11    1    4    4    0    0  0.55962953131E+01  0.47401879807E+01  0.96623444299E+01  0.12130490652E+02  0.51100000000E-03 0.  1.
        -12    1    4    4    0    0  0.22424285461E+02 -0.81320225829E+00  0.85801505870E+01  0.24023506415E+02  0.00000000000E+00 0.  1.
</event>
<event>
 8    1  0.1229038E-006  0.9118800E+02  0.7816164E-02  0.1184000E+00
        -11   -1    0    0    0    0  0.00000000000E+00  0.00000000000E+00  0.45593999997E+02  0.45594000000E+02  0.51100000000E-03 0.  1.
         11   -1    0    0    0    0 -0.00000000000E+00 -0.00000000000E+00 -0.45593999997E+02  0.45594000000E+02  0.51100000000E-03 0. -1.
         23    2    1    2    0    0  0.00000000000E+00  0.00000000000E+00  0.00000000000E+00  0.91188000000E+02  0.91188000000E+02 0.  0.
    9900012    2    3    3    0    0 -0.31206469157E+02  0.14687383520E+02 -0.12892500099E+02  0.54367088676E+02  0.40000010255E+02 0.  0.
        -12    1    3    3    0    0  0.31206469157E+02 -0.14687383520E+02  0.12892500099E+02  0.36820911324E+02  0.00000000000E+00 0.  1.
         11    1    4    4    0    0 -0.44682595298E+01  0.54129362993E+01  0.79907513127E+01  0.10635663092E+02  0.51100000000E-03 0.  1.
        -11    1    4    4    0    0 -0.71158975570E+01  0.67748680593E+01 -0.21818262353E+02  0.23928464381E+02  0.51100000000E-03 0. -1.
         12    1    4    4    0    0 -0.19622312070E+02  0.24995791618E+01  0.93501094143E+00  0.19802961203E+02  0.00000000000E+00 0. -1.
</event>
<event>
 8    1  0.1229038E-006  0.9118800E+02  0.7816164E-02  0.1184000E+00
        -11   -1    0    0    0    0  0.00000000000E+00  0.00000000000E+00  0.45593999997E+02  0.45594000000E+02  0.51100000000E-03 0.  1.
         11   -1    0    0    0    0 -0.00000000000E+00 -0.00000000000E+00 -0.45593999997E+02  0.45594000000E+02  0.51100000000E-03 0. -1.
         23    2    1    2    0    0  0.00000000000E+00  0.00000000000E+00  0.00000000000E+00  0.91188000000E+02  0.91188000000E+02 0.  0.
    9900012    2    3    3    0    0 -0.34237592464E+02 -0.84712514016E+01 -0.10573865873E+02  0.54367061968E+02  0.39999949368E+02 0.  0.
         12    1    3    3    0    0  0.34237592464E+02  0.84712514016E+01  0.10573865873E+02  0.36820938032E+02  0.00000000000E+00 0. -1.
         11    1    4    4    0    0 -0.47154621304E+00 -0.19451388411E+01 -0.10597866355E+02  0.10785207113E+02  0.51100000000E-03 0. -1.
        -11    1    4    4    0    0 -0.38017873327E+02 -0.78552743734E+01  0.16071175098E+01  0.38854174225E+02  0.51100000000E-03 0.  1.
        -12    1    4    4    0    0  0.42518270754E+01  0.13291618129E+01 -0.15831170285E+01  0.47276806290E+01  0.00000000000E+00 0.  1.
</event>
<event>
 8    1  0.1229038E-006  0.9118800E+02  0.7816164E-02  0.1184000E+00
        -11   -1    0    0    0    0  0.00000000000E+00  0.00000000000E+00  0.45593999997E+02  0.45594000000E+02  0.51100000000E-03 0.  1.
         11   -1    0    0    0    0 -0.00000000000E+00 -0.00000000000E+00 -0.45593999997E+02  0.45594000000E+02  0.51100000000E-03 0. -1.
         23    2    1    2    0    0 -0.13322676296E-14  0.00000000000E+00  0.00000000000E+00  0.91188000000E+02  0.91188000000E+02 0.  0.
    9900012    2    3    3    0    0 -0.20132100748E+01  0.14169749514E+02  0.33925578566E+02  0.54367086145E+02  0.40000004485E+02 0.  0.
         12    1    3    3    0    0  0.20132100748E+01 -0.14169749514E+02 -0.33925578566E+02  0.36820913855E+02  0.00000000000E+00 0. -1.
         11    1    4    4    0    0 -0.14993867055E+02  0.10954006002E+02  0.24839549189E+01  0.18734362254E+02  0.51100000000E-03 0. -1.
        -11    1    4    4    0    0  0.10079956099E+02  0.24443142713E+01  0.30884886089E+02  0.32579999635E+02  0.51100000000E-03 0.  1.
         12    1    4    4    0    0  0.29007008819E+01  0.77142924096E+00  0.55673755803E+00  0.30527242569E+01  0.00000000000E+00 0. -1.
</event>
<event>
 8    1  0.1229038E-006  0.9118800E+02  0.7816164E-02  0.1184000E+00
        -11   -1    0    0    0    0  0.00000000000E+00  0.00000000000E+00  0.45593999997E+02  0.45594000000E+02  0.51100000000E-03 0.  1.
         11   -1    0    0    0    0 -0.00000000000E+00 -0.00000000000E+00 -0.45593999997E+02  0.45594000000E+02  0.51100000000E-03 0. -1.
         23    2    1    2    0    0  0.88817841970E-15  0.71054273576E-14 -0.88817841970E-15  0.91188000000E+02  0.91188000000E+02 0.  0.
    9900012    2    3    3    0    0 -0.43898779945E+01  0.35960402877E+02  0.65846836998E+01  0.54367086604E+02  0.40000005531E+02 0.  0.
         12    1    3    3    0    0  0.43898779945E+01 -0.35960402877E+02 -0.65846836998E+01  0.36820913396E+02  0.00000000000E+00 0. -1.
         11    1    4    4    0    0 -0.72939703913E+01  0.62487247221E+00 -0.50911702709E+01  0.89169773278E+01  0.51100000000E-03 0. -1.
        -11    1    4    4    0    0 -0.81079858020E+01  0.47080224484E+01 -0.28633523211E+01  0.98032492530E+01  0.51100000000E-03 0.  1.
        -12    1    4    4    0    0  0.11012078199E+02  0.30627507957E+02  0.14539206292E+02  0.35646860023E+02  0.00000000000E+00 0.  1.
</event>
<event>
 8    1  0.1229038E-006  0.9118800E+02  0.7816164E-02  0.1184000E+00
        -11   -1    0    0    0    0  0.00000000000E+00  0.00000000000E+00  0.45593999997E+02  0.45594000000E+02  0.51100000000E-03 0.  1.
         11   -1    0    0    0    0 -0.00000000000E+00 -0.00000000000E+00 -0.45593999997E+02  0.45594000000E+02  0.51100000000E-03 0. -1.
         23    2    1    2    0    0  0.00000000000E+00  0.00000000000E+00  0.00000000000E+00  0.91188000000E+02  0.91188000000E+02 0.  0.
    9900012    2    3    3    0    0  0.14832580567E+02 -0.28331489544E+02  0.18251048831E+02  0.54367088421E+02  0.40000009673E+02 0.  0.
        -12    1    3    3    0    0 -0.14832580567E+02  0.28331489544E+02 -0.18251048831E+02  0.36820911579E+02  0.00000000000E+00 0.  1.
         11    1    4    4    0    0  0.35417108762E+01  0.12617444801E+01  0.17133212518E+01  0.41317290614E+01  0.51100000000E-03 0. -1.
        -11    1    4    4    0    0 -0.98735887922E+01 -0.12373222687E+02 -0.37095212761E+01  0.16258688251E+02  0.51100000000E-03 0.  1.
        -12    1    4    4    0    0  0.21164458483E+02 -0.17220011338E+02  0.20247248856E+02  0.33976671108E+02  0.00000000000E+00 0.  1.
</event>
<event>
 8    1  0.1229038E-006  0.9118800E+02  0.7816164E-02  0.1184000E+00
        -11   -1    0    0    0    0  0.00000000000E+00  0.00000000000E+00  0.45593999997E+02  0.45594000000E+02  0.51100000000E-03 0. -1.
         11   -1    0    0    0    0 -0.00000000000E+00 -0.00000000000E+00 -0.45593999997E+02  0.45594000000E+02  0.51100000000E-03 0.  1.
         23    2    1    2    0    0  0.00000000000E+00  0.35527136788E-14 -0.66613381478E-15  0.91188000000E+02  0.91188000000E+02 0.  0.
    9900012    2    3    3    0    0  0.27296669992E+02 -0.24645587489E+02 -0.18074802908E+01  0.54367079855E+02  0.39999990144E+02 0.  0.
         12    1    3    3    0    0 -0.27296669992E+02  0.24645587489E+02  0.18074802908E+01  0.36820920145E+02  0.00000000000E+00 0. -1.
         11    1    4    4    0    0  0.58815800303E+01 -0.11724269362E+02 -0.11827226535E+02  0.17661674991E+02  0.51100000000E-03 0.  1.
        -11    1    4    4    0    0  0.19982017765E+01 -0.11076768545E+02  0.12754028356E+02  0.17010374814E+02  0.51100000000E-03 0. -1.
        -12    1    4    4    0    0  0.19416888186E+02 -0.18445495819E+01 -0.27342821116E+01  0.19695030049E+02  0.00000000000E+00 0.  1.
</event>
<event>
 8    1  0.1229038E-006  0.9118800E+02  0.7816164E-02  0.1184000E+00
        -11   -1    0    0    0    0  0.00000000000E+00  0.00000000000E+00  0.45593999997E+02  0.45594000000E+02  0.51100000000E-03 0. -1.
         11   -1    0    0    0    0 -0.00000000000E+00 -0.00000000000E+00 -0.45593999997E+02  0.45594000000E+02  0.51100000000E-03 0.  1.
         23    2    1    2    0    0 -0.71054273576E-14  0.00000000000E+00 -0.88817841970E-15  0.91188000000E+02  0.91188000000E+02 0.  0.
    9900012    2    3    3    0    0  0.35675011450E+02  0.82688455968E+01  0.38340605915E+01  0.54367078365E+02  0.39999986748E+02 0.  0.
         12    1    3    3    0    0 -0.35675011450E+02 -0.82688455968E+01 -0.38340605915E+01  0.36820921635E+02  0.00000000000E+00 0. -1.
         11    1    4    4    0    0  0.19196285382E+02  0.51964396301E+01  0.49846802807E+01  0.20502375352E+02  0.51100000000E-03 0. -1.
        -11    1    4    4    0    0  0.17238093021E+02  0.10769032324E+02 -0.95411871329E+01  0.22453466556E+02  0.51100000000E-03 0.  1.
         12    1    4    4    0    0 -0.75936695366E+00 -0.76966263572E+01  0.83905674438E+01  0.11411236457E+02  0.00000000000E+00 0. -1.
</event>
<event>
 8    1  0.1229038E-006  0.9118800E+02  0.7816164E-02  0.1184000E+00
        -11   -1    0    0    0    0  0.00000000000E+00  0.00000000000E+00  0.45593999997E+02  0.45594000000E+02  0.51100000000E-03 0.  1.
         11   -1    0    0    0    0 -0.00000000000E+00 -0.00000000000E+00 -0.45593999997E+02  0.45594000000E+02  0.51100000000E-03 0. -1.
         23    2    1    2    0    0  0.00000000000E+00 -0.13322676296E-14  0.00000000000E+00  0.91188000000E+02  0.91188000000E+02 0.  0.
    9900012    2    3    3    0    0 -0.16659669844E+02 -0.27179740683E+01 -0.32723822643E+02  0.54367074554E+02  0.39999978061E+02 0.  0.
        -12    1    3    3    0    0  0.16659669844E+02  0.27179740683E+01  0.32723822643E+02  0.36820925446E+02  0.00000000000E+00 0.  1.
         11    1    4    4    0    0 -0.10989881605E+02  0.33407172230E+01 -0.34391497349E+01  0.11990231041E+02  0.51100000000E-03 0. -1.
        -11    1    4    4    0    0 -0.44014644640E+01  0.65626922910E+01  0.23908490849E+01  0.82557845867E+01  0.51100000000E-03 0.  1.
         12    1    4    4    0    0 -0.12683237748E+01 -0.12621383582E+02 -0.31675521993E+02  0.34121058926E+02  0.00000000000E+00 0. -1.
</event>
<event>
 8    1  0.1229038E-006  0.9118800E+02  0.7816164E-02  0.1184000E+00
        -11   -1    0    0    0    0  0.00000000000E+00  0.00000000000E+00  0.45593999997E+02  0.45594000000E+02  0.51100000000E-03 0. -1.
         11   -1    0    0    0    0 -0.00000000000E+00 -0.00000000000E+00 -0.45593999997E+02  0.45594000000E+02  0.51100000000E-03 0.  1.
         23    2    1    2    0    0  0.00000000000E+00 -0.88817841970E-15  0.00000000000E+00  0.91188000000E+02  0.91188000000E+02 0.  0.
    9900012    2    3    3    0    0  0.32056867893E+02  0.22923987188E+01  0.17968882916E+02  0.54367100714E+02  0.40000037698E+02 0.  0.
        -12    1    3    3    0    0 -0.32056867893E+02 -0.22923987188E+01 -0.17968882916E+02  0.36820899286E+02  0.00000000000E+00 0.  1.
         11    1    4    4    0    0  0.75809697244E+01 -0.13367260650E+02  0.29411535110E+01  0.15646250141E+02  0.51100000000E-03 0. -1.
        -11    1    4    4    0    0  0.26717921096E+02  0.10543520646E+02  0.81427650387E+01  0.29854945287E+02  0.51100000000E-03 0.  1.
        -12    1    4    4    0    0 -0.22420229282E+01  0.51161387223E+01  0.68849643659E+01  0.88659052868E+01  0.00000000000E+00 0.  1.
</event>
<event>
 8    1  0.1229038E-006  0.9118800E+02  0.7816164E-02  0.1184000E+00
        -11   -1    0    0    0    0  0.00000000000E+00  0.00000000000E+00  0.45593999997E+02  0.45594000000E+02  0.51100000000E-03 0.  1.
         11   -1    0    0    0    0 -0.00000000000E+00 -0.00000000000E+00 -0.45593999997E+02  0.45594000000E+02  0.51100000000E-03 0. -1.
         23    2    1    2    0    0  0.88817841970E-15  0.00000000000E+00  0.00000000000E+00  0.91188000000E+02  0.91188000000E+02 0.  0.
    9900012    2    3    3    0    0 -0.40080971378E+01 -0.19276560129E+02 -0.31114771679E+02  0.54367087061E+02  0.40000006572E+02 0.  0.
        -12    1    3    3    0    0  0.40080971378E+01  0.19276560129E+02  0.31114771679E+02  0.36820912939E+02  0.00000000000E+00 0.  1.
         11    1    4    4    0    0 -0.54513188398E+01 -0.61733574838E+01 -0.83843542296E+01  0.11752642929E+02  0.51100000000E-03 0. -1.
        -11    1    4    4    0    0  0.28524263203E+00  0.48668845799E+01  0.65951471643E+01  0.82014568982E+01  0.51100000000E-03 0.  1.
         12    1    4    4    0    0  0.11579790700E+01 -0.17970087225E+02 -0.29325564614E+02  0.34412987233E+02  0.00000000000E+00 0. -1.
</event>
<event>
 8    1  0.1229038E-006  0.9118800E+02  0.7816164E-02  0.1184000E+00
        -11   -1    0    0    0    0  0.00000000000E+00  0.00000000000E+00  0.45593999997E+02  0.45594000000E+02  0.51100000000E-03 0.  1.
         11   -1    0    0    0    0 -0.00000000000E+00 -0.00000000000E+00 -0.45593999997E+02  0.45594000000E+02  0.51100000000E-03 0. -1.
         23    2    1    2    0    0 -0.17763568394E-14  0.17763568394E-14  0.00000000000E+00  0.91188000000E+02  0.91188000000E+02 0.  0.
    9900012    2    3    3    0    0 -0.85698788924E+01 -0.43153043861E+01  0.35548770921E+02  0.54367084881E+02  0.40000001603E+02 0.  0.
         12    1    3    3    0    0  0.85698788924E+01  0.43153043861E+01 -0.35548770921E+02  0.36820915119E+02  0.00000000000E+00 0. -1.
         11    1    4    4    0    0  0.46732732165E+01 -0.13779006489E+02  0.20421726329E+02  0.25074836169E+02  0.51100000000E-03 0. -1.
        -11    1    4    4    0    0 -0.98500915767E+01  0.10125670380E+02  0.19272016402E+02  0.23894855538E+02  0.51100000000E-03 0.  1.
         12    1    4    4    0    0 -0.33930605322E+01 -0.66196827717E+00 -0.41449718097E+01  0.53973931743E+01  0.00000000000E+00 0. -1.
</event>
<event>
 8    1  0.1229038E-006  0.9118800E+02  0.7816164E-02  0.1184000E+00
        -11   -1    0    0    0    0  0.00000000000E+00  0.00000000000E+00  0.45593999997E+02  0.45594000000E+02  0.51100000000E-03 0.  1.
         11   -1    0    0    0    0 -0.00000000000E+00 -0.00000000000E+00 -0.45593999997E+02  0.45594000000E+02  0.51100000000E-03 0. -1.
         23    2    1    2    0    0 -0.35527136788E-14 -0.88817841970E-15  0.35527136788E-14  0.91188000000E+02  0.91188000000E+02 0.  0.
    9900012    2    3    3    0    0  0.27406676181E+02  0.42843844813E+01 -0.24213562392E+02  0.54367103033E+02  0.40000042985E+02 0.  0.
        -12    1    3    3    0    0 -0.27406676181E+02 -0.42843844813E+01  0.24213562392E+02  0.36820896967E+02  0.00000000000E+00 0.  1.
         11    1    4    4    0    0 -0.47016722945E+00 -0.61742938606E+01  0.10032976268E+01  0.62729234245E+01  0.51100000000E-03 0. -1.
        -11    1    4    4    0    0  0.22340621416E+02 -0.37992882183E+01 -0.58281951090E+01  0.23398842166E+02  0.51100000000E-03 0.  1.
         12    1    4    4    0    0  0.55362219945E+01  0.14257966560E+02 -0.19388664910E+02  0.24695337443E+02  0.00000000000E+00 0. -1.
</event>
<event>
 8    1  0.1229038E-006  0.9118800E+02  0.7816164E-02  0.1184000E+00
        -11   -1    0    0    0    0  0.00000000000E+00  0.00000000000E+00  0.45593999997E+02  0.45594000000E+02  0.51100000000E-03 0.  1.
         11   -1    0    0    0    0 -0.00000000000E+00 -0.00000000000E+00 -0.45593999997E+02  0.45594000000E+02  0.51100000000E-03 0. -1.
         23    2    1    2    0    0 -0.17763568394E-14  0.00000000000E+00  0.35527136788E-14  0.91188000000E+02  0.91188000000E+02 0.  0.
    9900012    2    3    3    0    0  0.99618640848E+01  0.30931888735E+02 -0.17313551076E+02  0.54367088446E+02  0.40000009730E+02 0.  0.
        -12    1    3    3    0    0 -0.99618640848E+01 -0.30931888735E+02  0.17313551076E+02  0.36820911554E+02  0.00000000000E+00 0.  1.
         11    1    4    4    0    0  0.54810899290E+01  0.31069237539E+01 -0.14976901019E+02  0.16248165632E+02  0.51100000000E-03 0. -1.
        -11    1    4    4    0    0  0.81588365488E+01 -0.10530008905E+01  0.25232877952E+01  0.86047897281E+01  0.51100000000E-03 0.  1.
         12    1    4    4    0    0 -0.36780623930E+01  0.28877965872E+02 -0.48599378528E+01  0.29514133086E+02  0.00000000000E+00 0. -1.
</event>
<event>
 8    1  0.1229038E-006  0.9118800E+02  0.7816164E-02  0.1184000E+00
        -11   -1    0    0    0    0  0.00000000000E+00  0.00000000000E+00  0.45593999997E+02  0.45594000000E+02  0.51100000000E-03 0. -1.
         11   -1    0    0    0    0 -0.00000000000E+00 -0.00000000000E+00 -0.45593999997E+02  0.45594000000E+02  0.51100000000E-03 0.  1.
         23    2    1    2    0    0  0.00000000000E+00 -0.88817841970E-15  0.00000000000E+00  0.91188000000E+02  0.91188000000E+02 0.  0.
    9900012    2    3    3    0    0  0.25823812398E+02  0.79522962651E+01  0.25013237799E+02  0.54367212829E+02  0.40000293286E+02 0.  0.
        -12    1    3    3    0    0 -0.25823812398E+02 -0.79522962651E+01 -0.25013237799E+02  0.36820787171E+02  0.00000000000E+00 0.  1.
         11    1    4    4    0    0  0.10251744252E+02  0.63811116276E+01  0.10821968344E+02  0.16215173293E+02  0.51100000000E-03 0. -1.
        -11    1    4    4    0    0  0.15431582552E+02  0.11318338480E+02 -0.20115973316E+01  0.19242792160E+02  0.51100000000E-03 0.  1.
        -12    1    4    4    0    0  0.14048559405E+00 -0.97471538430E+01  0.16202866787E+02  0.18909247377E+02  0.00000000000E+00 0.  1.
</event>
<event>
 8    1  0.1229038E-006  0.9118800E+02  0.7816164E-02  0.1184000E+00
        -11   -1    0    0    0    0  0.00000000000E+00  0.00000000000E+00  0.45593999997E+02  0.45594000000E+02  0.51100000000E-03 0.  1.
         11   -1    0    0    0    0 -0.00000000000E+00 -0.00000000000E+00 -0.45593999997E+02  0.45594000000E+02  0.51100000000E-03 0. -1.
         23    2    1    2    0    0  0.00000000000E+00  0.00000000000E+00  0.71054273576E-14  0.91188000000E+02  0.91188000000E+02 0.  0.
    9900012    2    3    3    0    0  0.21692905922E+02 -0.14721954886E+02  0.25854621001E+02  0.54367088141E+02  0.40000009036E+02 0.  0.
         12    1    3    3    0    0 -0.21692905922E+02  0.14721954886E+02 -0.25854621001E+02  0.36820911859E+02  0.00000000000E+00 0. -1.
         11    1    4    4    0    0  0.12894533205E+02  0.37682375057E+01 -0.70278715208E+01  0.15161120633E+02  0.51100000000E-03 0. -1.
        -11    1    4    4    0    0 -0.10058403397E+00 -0.19804388969E+01  0.67800022503E+01  0.70640417713E+01  0.51100000000E-03 0.  1.
         12    1    4    4    0    0  0.88989567507E+01 -0.16509753495E+02  0.26102490271E+02  0.32141925737E+02  0.00000000000E+00 0. -1.
</event>
<event>
 8    1  0.1229038E-006  0.9118800E+02  0.7816164E-02  0.1184000E+00
        -11   -1    0    0    0    0  0.00000000000E+00  0.00000000000E+00  0.45593999997E+02  0.45594000000E+02  0.51100000000E-03 0. -1.
         11   -1    0    0    0    0 -0.00000000000E+00 -0.00000000000E+00 -0.45593999997E+02  0.45594000000E+02  0.51100000000E-03 0.  1.
         23    2    1    2    0    0 -0.35527136788E-14 -0.88817841970E-15 -0.71054273576E-14  0.91188000000E+02  0.91188000000E+02 0.  0.
    9900012    2    3    3    0    0 -0.25976397818E+02 -0.55577517513E+01 -0.25497399950E+02  0.54367092185E+02  0.40000018253E+02 0.  0.
         12    1    3    3    0    0  0.25976397818E+02  0.55577517513E+01  0.25497399950E+02  0.36820907815E+02  0.00000000000E+00 0. -1.
         11    1    4    4    0    0  0.36118770165E+01 -0.36618179728E+01  0.26141778116E+01  0.57696180411E+01  0.51100000000E-03 0. -1.
        -11    1    4    4    0    0 -0.36884688428E+01 -0.10279034181E+02 -0.24626107864E+01  0.11194989872E+02  0.51100000000E-03 0.  1.
        -12    1    4    4    0    0 -0.25899805992E+02  0.83831004021E+01 -0.25648966975E+02  0.37402484271E+02  0.00000000000E+00 0.  1.
</event>
<event>
 8    1  0.1229038E-006  0.9118800E+02  0.7816164E-02  0.1184000E+00
        -11   -1    0    0    0    0  0.00000000000E+00  0.00000000000E+00  0.45593999997E+02  0.45594000000E+02  0.51100000000E-03 0. -1.
         11   -1    0    0    0    0 -0.00000000000E+00 -0.00000000000E+00 -0.45593999997E+02  0.45594000000E+02  0.51100000000E-03 0.  1.
         23    2    1    2    0    0  0.00000000000E+00  0.00000000000E+00  0.00000000000E+00  0.91188000000E+02  0.91188000000E+02 0.  0.
    9900012    2    3    3    0    0 -0.20918205477E+02  0.21157103155E+02 -0.21693031232E+02  0.54367055712E+02  0.39999935106E+02 0.  0.
         12    1    3    3    0    0  0.20918205477E+02 -0.21157103155E+02  0.21693031232E+02  0.36820944288E+02  0.00000000000E+00 0. -1.
         11    1    4    4    0    0  0.26511475330E+01  0.78618689769E+01 -0.42994873958E+01  0.93446861467E+01  0.51100000000E-03 0. -1.
        -11    1    4    4    0    0 -0.12729698008E+02  0.23441399925E+02 -0.10847681593E+02  0.28796121927E+02  0.51100000000E-03 0.  1.
         12    1    4    4    0    0 -0.10839655001E+02 -0.10146165747E+02 -0.65458622426E+01  0.16226247638E+02  0.00000000000E+00 0. -1.
</event>
<event>
 8    1  0.1229038E-006  0.9118800E+02  0.7816164E-02  0.1184000E+00
        -11   -1    0    0    0    0  0.00000000000E+00  0.00000000000E+00  0.45593999997E+02  0.45594000000E+02  0.51100000000E-03 0. -1.
         11   -1    0    0    0    0 -0.00000000000E+00 -0.00000000000E+00 -0.45593999997E+02  0.45594000000E+02  0.51100000000E-03 0.  1.
         23    2    1    2    0    0  0.00000000000E+00  0.00000000000E+00  0.17763568394E-14  0.91188000000E+02  0.91188000000E+02 0.  0.
    9900012    2    3    3    0    0  0.16784282003E+02  0.29521448692E+02  0.14231958821E+02  0.54367126747E+02  0.40000097045E+02 0.  0.
        -12    1    3    3    0    0 -0.16784282003E+02 -0.29521448692E+02 -0.14231958821E+02  0.36820873253E+02  0.00000000000E+00 0.  1.
         11    1    4    4    0    0 -0.11502818862E+02  0.14530144646E+02  0.72459066092E+01  0.19898319227E+02  0.51100000000E-03 0. -1.
        -11    1    4    4    0    0  0.54937783792E+01  0.11235500719E+01 -0.25169030167E+01  0.61464434188E+01  0.51100000000E-03 0.  1.
         12    1    4    4    0    0  0.22793322486E+02  0.13867753974E+02  0.95029552280E+01  0.28322364102E+02  0.00000000000E+00 0. -1.
</event>
<event>
 8    1  0.1229038E-006  0.9118800E+02  0.7816164E-02  0.1184000E+00
        -11   -1    0    0    0    0  0.00000000000E+00  0.00000000000E+00  0.45593999997E+02  0.45594000000E+02  0.51100000000E-03 0. -1.
         11   -1    0    0    0    0 -0.00000000000E+00 -0.00000000000E+00 -0.45593999997E+02  0.45594000000E+02  0.51100000000E-03 0.  1.
         23    2    1    2    0    0  0.00000000000E+00  0.00000000000E+00  0.00000000000E+00  0.91188000000E+02  0.91188000000E+02 0.  0.
    9900012    2    3    3    0    0 -0.23997264400E+02  0.16730193989E+02 -0.22360949706E+02  0.54367079842E+02  0.39999990115E+02 0.  0.
        -12    1    3    3    0    0  0.23997264400E+02 -0.16730193989E+02  0.22360949706E+02  0.36820920158E+02  0.00000000000E+00 0.  1.
         11    1    4    4    0    0 -0.71404372131E+01  0.36770479253E+01  0.21686977416E+01  0.83192412632E+01  0.51100000000E-03 0. -1.
        -11    1    4    4    0    0 -0.20428536704E+02  0.28088445379E+01 -0.16019576445E+01  0.20682867017E+02  0.51100000000E-03 0.  1.
        -12    1    4    4    0    0  0.35717095169E+01  0.10244301526E+02 -0.22927689803E+02  0.25364971561E+02  0.00000000000E+00 0.  1.
</event>
<event>
 8    1  0.1229038E-006  0.9118800E+02  0.7816164E-02  0.1184000E+00
        -11   -1    0    0    0    0  0.00000000000E+00  0.00000000000E+00  0.45593999997E+02  0.45594000000E+02  0.51100000000E-03 0.  1.
         11   -1    0    0    0    0 -0.00000000000E+00 -0.00000000000E+00 -0.45593999997E+02  0.45594000000E+02  0.51100000000E-03 0. -1.
         23    2    1    2    0    0  0.00000000000E+00 -0.35527136788E-14  0.00000000000E+00  0.91188000000E+02  0.91188000000E+02 0.  0.
    9900012    2    3    3    0    0 -0.16875816306E+02 -0.28290699474E+02  0.16450693489E+02  0.54367052579E+02  0.39999927965E+02 0.  0.
         12    1    3    3    0    0  0.16875816306E+02  0.28290699474E+02 -0.16450693489E+02  0.36820947421E+02  0.00000000000E+00 0. -1.
         11    1    4    4    0    0 -0.17172315161E+02 -0.16175703173E+02 -0.32878906740E+01  0.23819152094E+02  0.51100000000E-03 0. -1.
        -11    1    4    4    0    0  0.33964434571E+01  0.15821559138E+01  0.15400255510E+02  0.15849508369E+02  0.51100000000E-03 0.  1.
         12    1    4    4    0    0 -0.30999446026E+01 -0.13697152214E+02  0.43383286521E+01  0.14698392117E+02  0.00000000000E+00 0. -1.
</event>
<event>
 8    1  0.1229038E-006  0.9118800E+02  0.7816164E-02  0.1184000E+00
        -11   -1    0    0    0    0  0.00000000000E+00  0.00000000000E+00  0.45593999997E+02  0.45594000000E+02  0.51100000000E-03 0.  1.
         11   -1    0    0    0    0 -0.00000000000E+00 -0.00000000000E+00 -0.45593999997E+02  0.45594000000E+02  0.51100000000E-03 0. -1.
         23    2    1    2    0    0  0.35527136788E-14  0.00000000000E+00  0.00000000000E+00  0.91188000000E+02  0.91188000000E+02 0.  0.
    9900012    2    3    3    0    0  0.21612974722E+02 -0.22542993924E+02  0.19505756167E+02  0.54367057928E+02  0.39999940160E+02 0.  0.
         12    1    3    3    0    0 -0.21612974722E+02  0.22542993924E+02 -0.19505756167E+02  0.36820942072E+02  0.00000000000E+00 0. -1.
         11    1    4    4    0    0  0.15615078220E+02 -0.13621674152E+02  0.10286925425E+02  0.23134422609E+02  0.51100000000E-03 0. -1.
        -11    1    4    4    0    0  0.15549093208E+02 -0.11190075258E+02  0.95596050925E+01  0.21409767249E+02  0.51100000000E-03 0.  1.
         12    1    4    4    0    0 -0.95511967054E+01  0.22687554868E+01 -0.34077435009E+00  0.98228680701E+01  0.00000000000E+00 0. -1.
</event>
<event>
 8    1  0.1229038E-006  0.9118800E+02  0.7816164E-02  0.1184000E+00
        -11   -1    0    0    0    0  0.00000000000E+00  0.00000000000E+00  0.45593999997E+02  0.45594000000E+02  0.51100000000E-03 0.  1.
         11   -1    0    0    0    0 -0.00000000000E+00 -0.00000000000E+00 -0.45593999997E+02  0.45594000000E+02  0.51100000000E-03 0. -1.
         23    2    1    2    0    0  0.00000000000E+00 -0.35527136788E-14  0.00000000000E+00  0.91188000000E+02  0.91188000000E+02 0.  0.
    9900012    2    3    3    0    0  0.27124416298E+02 -0.22815833477E+02 -0.99742083736E+01  0.54367067781E+02  0.39999962621E+02 0.  0.
        -12    1    3    3    0    0 -0.27124416298E+02  0.22815833477E+02  0.99742083736E+01  0.36820932219E+02  0.00000000000E+00 0.  1.
         11    1    4    4    0    0  0.28368817202E+02 -0.80356190297E+01 -0.96890250426E+01  0.31036078508E+02  0.51100000000E-03 0. -1.
        -11    1    4    4    0    0  0.14441744134E+01 -0.38022164165E+01 -0.84567414145E+01  0.93839738399E+01  0.51100000000E-03 0.  1.
         12    1    4    4    0    0 -0.26885753168E+01 -0.10977998030E+02  0.81715580836E+01  0.13947015433E+02  0.00000000000E+00 0. -1.
</event>
<event>
 8    1  0.1229038E-006  0.9118800E+02  0.7816164E-02  0.1184000E+00
        -11   -1    0    0    0    0  0.00000000000E+00  0.00000000000E+00  0.45593999997E+02  0.45594000000E+02  0.51100000000E-03 0.  1.
         11   -1    0    0    0    0 -0.00000000000E+00 -0.00000000000E+00 -0.45593999997E+02  0.45594000000E+02  0.51100000000E-03 0. -1.
         23    2    1    2    0    0  0.17763568394E-14 -0.35527136788E-14  0.00000000000E+00  0.91188000000E+02  0.91188000000E+02 0.  0.
    9900012    2    3    3    0    0 -0.69663256308E+00  0.20521341374E+02 -0.30564179901E+02  0.54367084182E+02  0.40000000009E+02 0.  0.
        -12    1    3    3    0    0  0.69663256308E+00 -0.20521341374E+02  0.30564179901E+02  0.36820915818E+02  0.00000000000E+00 0.  1.
         11    1    4    4    0    0 -0.10305408603E+02 -0.32182661021E+01 -0.14548655594E+02  0.18116899929E+02  0.51100000000E-03 0. -1.
        -11    1    4    4    0    0  0.69107223876E+01 -0.14003557606E+01 -0.19453017992E+01  0.73145935995E+01  0.51100000000E-03 0.  1.
        -12    1    4    4    0    0  0.26980536527E+01  0.25139963236E+02 -0.14070222508E+02  0.28935590653E+02  0.00000000000E+00 0.  1.
</event>
<event>
 8    1  0.1229038E-006  0.9118800E+02  0.7816164E-02  0.1184000E+00
        -11   -1    0    0    0    0  0.00000000000E+00  0.00000000000E+00  0.45593999997E+02  0.45594000000E+02  0.51100000000E-03 0.  1.
         11   -1    0    0    0    0 -0.00000000000E+00 -0.00000000000E+00 -0.45593999997E+02  0.45594000000E+02  0.51100000000E-03 0. -1.
         23    2    1    2    0    0  0.00000000000E+00 -0.17763568394E-14 -0.35527136788E-14  0.91188000000E+02  0.91188000000E+02 0.  0.
    9900012    2    3    3    0    0 -0.23733585540E+02 -0.14877494944E+02 -0.23898903039E+02  0.54367075176E+02  0.39999979479E+02 0.  0.
        -12    1    3    3    0    0  0.23733585540E+02  0.14877494944E+02  0.23898903039E+02  0.36820924824E+02  0.00000000000E+00 0.  1.
         11    1    4    4    0    0 -0.53562255024E+01 -0.74755025681E+01  0.14469213024E+01  0.93094506709E+01  0.51100000000E-03 0. -1.
        -11    1    4    4    0    0 -0.12025192604E+02 -0.17286834433E+02 -0.51279529801E+01  0.21673389303E+02  0.51100000000E-03 0.  1.
         12    1    4    4    0    0 -0.63521674339E+01  0.98848420564E+01 -0.20217871362E+02  0.23384235202E+02  0.00000000000E+00 0. -1.
</event>
<event>
 8    1  0.1229038E-006  0.9118800E+02  0.7816164E-02  0.1184000E+00
        -11   -1    0    0    0    0  0.00000000000E+00  0.00000000000E+00  0.45593999997E+02  0.45594000000E+02  0.51100000000E-03 0.  1.
         11   -1    0    0    0    0 -0.00000000000E+00 -0.00000000000E+00 -0.45593999997E+02  0.45594000000E+02  0.51100000000E-03 0. -1.
         23    2    1    2    0    0  0.00000000000E+00  0.00000000000E+00 -0.17763568394E-14  0.91188000000E+02  0.91188000000E+02 0.  0.
    9900012    2    3    3    0    0  0.19406679446E+02 -0.28123336829E+02  0.13719985046E+02  0.54367091929E+02  0.40000017670E+02 0.  0.
         12    1    3    3    0    0 -0.19406679446E+02  0.28123336829E+02 -0.13719985046E+02  0.36820908071E+02  0.00000000000E+00 0. -1.
         11    1    4    4    0    0  0.15345491330E+02 -0.18989508553E+02 -0.10202211758E+02  0.26460738165E+02  0.51100000000E-03 0. -1.
        -11    1    4    4    0    0 -0.33761593394E+01 -0.34516333075E+01  0.10338061085E+02  0.11409983858E+02  0.51100000000E-03 0.  1.
         12    1    4    4    0    0  0.74373474550E+01 -0.56821949690E+01  0.13584135719E+02  0.16496369906E+02  0.00000000000E+00 0. -1.
</event>
<event>
 8    1  0.1229038E-006  0.9118800E+02  0.7816164E-02  0.1184000E+00
        -11   -1    0    0    0    0  0.00000000000E+00  0.00000000000E+00  0.45593999997E+02  0.45594000000E+02  0.51100000000E-03 0. -1.
         11   -1    0    0    0    0 -0.00000000000E+00 -0.00000000000E+00 -0.45593999997E+02  0.45594000000E+02  0.51100000000E-03 0.  1.
         23    2    1    2    0    0  0.35527136788E-14  0.17763568394E-14  0.17763568394E-14  0.91188000000E+02  0.91188000000E+02 0.  0.
    9900012    2    3    3    0    0  0.29868506210E+02 -0.14496295346E+02 -0.15921980774E+02  0.54367085919E+02  0.40000003970E+02 0.  0.
         12    1    3    3    0    0 -0.29868506210E+02  0.14496295346E+02  0.15921980774E+02  0.36820914081E+02  0.00000000000E+00 0. -1.
         11    1    4    4    0    0  0.29044708119E+01  0.14810144534E+01  0.85637756451E+01  0.91633840948E+01  0.51100000000E-03 0.  1.
        -11    1    4    4    0    0 -0.24595422391E+01  0.22925559588E+01 -0.22625376417E+01  0.40526827770E+01  0.51100000000E-03 0. -1.
        -12    1    4    4    0    0  0.29423577637E+02 -0.18269865758E+02 -0.22223218777E+02  0.41151019047E+02  0.00000000000E+00 0.  1.
</event>
<event>
 8    1  0.1229038E-006  0.9118800E+02  0.7816164E-02  0.1184000E+00
        -11   -1    0    0    0    0  0.00000000000E+00  0.00000000000E+00  0.45593999997E+02  0.45594000000E+02  0.51100000000E-03 0.  1.
         11   -1    0    0    0    0 -0.00000000000E+00 -0.00000000000E+00 -0.45593999997E+02  0.45594000000E+02  0.51100000000E-03 0. -1.
         23    2    1    2    0    0  0.00000000000E+00  0.35527136788E-14  0.00000000000E+00  0.91188000000E+02  0.91188000000E+02 0.  0.
    9900012    2    3    3    0    0 -0.17173741018E+02 -0.28912136719E+02  0.14997704335E+02  0.54367079784E+02  0.39999989984E+02 0.  0.
        -12    1    3    3    0    0  0.17173741018E+02  0.28912136719E+02 -0.14997704335E+02  0.36820920216E+02  0.00000000000E+00 0.  1.
         11    1    4    4    0    0 -0.90892944380E+01 -0.92590165242E+01  0.21771330610E+01  0.13156160876E+02  0.51100000000E-03 0. -1.
        -11    1    4    4    0    0 -0.55316203278E+01 -0.26257501025E+02  0.31001467814E+00  0.26835634759E+02  0.51100000000E-03 0.  1.
        -12    1    4    4    0    0 -0.25528262522E+01  0.66043808306E+01  0.12510556596E+02  0.14375284149E+02  0.00000000000E+00 0.  1.
</event>
<event>
 8    1  0.1229038E-006  0.9118800E+02  0.7816164E-02  0.1184000E+00
        -11   -1    0    0    0    0  0.00000000000E+00  0.00000000000E+00  0.45593999997E+02  0.45594000000E+02  0.51100000000E-03 0.  1.
         11   -1    0    0    0    0 -0.00000000000E+00 -0.00000000000E+00 -0.45593999997E+02  0.45594000000E+02  0.51100000000E-03 0. -1.
         23    2    1    2    0    0  0.17763568394E-14  0.00000000000E+00 -0.35527136788E-14  0.91188000000E+02  0.91188000000E+02 0.  0.
    9900012    2    3    3    0    0 -0.13051447737E+02  0.26217407221E+02  0.22317861366E+02  0.54367086576E+02  0.40000005468E+02 0.  0.
         12    1    3    3    0    0  0.13051447737E+02 -0.26217407221E+02 -0.22317861366E+02  0.36820913424E+02  0.00000000000E+00 0. -1.
         11    1    4    4    0    0 -0.24888047784E+01  0.84637234423E+01  0.24633839775E+02  0.26165909617E+02  0.51100000000E-03 0. -1.
        -11    1    4    4    0    0 -0.42615390880E+01  0.13551898192E+02  0.72910162465E+01  0.15967892102E+02  0.51100000000E-03 0.  1.
         12    1    4    4    0    0 -0.63011038701E+01  0.42017855863E+01 -0.96069946554E+01  0.12233284857E+02  0.00000000000E+00 0. -1.
</event>
<event>
 8    1  0.1229038E-006  0.9118800E+02  0.7816164E-02  0.1184000E+00
        -11   -1    0    0    0    0  0.00000000000E+00  0.00000000000E+00  0.45593999997E+02  0.45594000000E+02  0.51100000000E-03 0.  1.
         11   -1    0    0    0    0 -0.00000000000E+00 -0.00000000000E+00 -0.45593999997E+02  0.45594000000E+02  0.51100000000E-03 0. -1.
         23    2    1    2    0    0  0.00000000000E+00 -0.35527136788E-14  0.00000000000E+00  0.91188000000E+02  0.91188000000E+02 0.  0.
    9900012    2    3    3    0    0  0.92310726699E+01  0.30435211018E+02 -0.18554384066E+02  0.54367082841E+02  0.39999996953E+02 0.  0.
        -12    1    3    3    0    0 -0.92310726699E+01 -0.30435211018E+02  0.18554384066E+02  0.36820917159E+02  0.00000000000E+00 0.  1.
         11    1    4    4    0    0 -0.33814242121E+00 -0.11512082745E+01  0.49228284574E+00  0.12969053357E+01  0.51100000000E-03 0. -1.
        -11    1    4    4    0    0  0.73552255738E+01  0.38300303394E+02 -0.22686558483E+02  0.45118649353E+02  0.51100000000E-03 0.  1.
        -12    1    4    4    0    0  0.22139895173E+01 -0.67138841015E+01  0.36398915721E+01  0.79515281530E+01  0.00000000000E+00 0.  1.
</event>
<event>
 8    1  0.1229038E-006  0.9118800E+02  0.7816164E-02  0.1184000E+00
        -11   -1    0    0    0    0  0.00000000000E+00  0.00000000000E+00  0.45593999997E+02  0.45594000000E+02  0.51100000000E-03 0.  1.
         11   -1    0    0    0    0 -0.00000000000E+00 -0.00000000000E+00 -0.45593999997E+02  0.45594000000E+02  0.51100000000E-03 0. -1.
         23    2    1    2    0    0  0.44408920985E-15  0.00000000000E+00  0.00000000000E+00  0.91188000000E+02  0.91188000000E+02 0.  0.
    9900012    2    3    3    0    0 -0.14185098937E+01 -0.12841874148E+02  0.34479797012E+02  0.54367050746E+02  0.39999923787E+02 0.  0.
         12    1    3    3    0    0  0.14185098937E+01  0.12841874148E+02 -0.34479797012E+02  0.36820949254E+02  0.00000000000E+00 0. -1.
         11    1    4    4    0    0 -0.93969073589E+01 -0.29209015219E+01  0.64671780605E+01  0.11775310015E+02  0.51100000000E-03 0. -1.
        -11    1    4    4    0    0 -0.11181706557E+02 -0.40816459451E+01  0.12464470680E+02  0.17235237879E+02  0.51100000000E-03 0.  1.
        -12    1    4    4    0    0  0.19160104023E+02 -0.58393266807E+01  0.15548148272E+02  0.25356502853E+02  0.00000000000E+00 0.  1.
</event>
<event>
 8    1  0.1229038E-006  0.9118800E+02  0.7816164E-02  0.1184000E+00
        -11   -1    0    0    0    0  0.00000000000E+00  0.00000000000E+00  0.45593999997E+02  0.45594000000E+02  0.51100000000E-03 0. -1.
         11   -1    0    0    0    0 -0.00000000000E+00 -0.00000000000E+00 -0.45593999997E+02  0.45594000000E+02  0.51100000000E-03 0.  1.
         23    2    1    2    0    0  0.26645352591E-14 -0.88817841970E-15  0.00000000000E+00  0.91188000000E+02  0.91188000000E+02 0.  0.
    9900012    2    3    3    0    0  0.57949011395E+01 -0.78479607686E+01  0.35505044882E+02  0.54367087742E+02  0.40000008124E+02 0.  0.
        -12    1    3    3    0    0 -0.57949011395E+01  0.78479607686E+01 -0.35505044882E+02  0.36820912258E+02  0.00000000000E+00 0.  1.
         11    1    4    4    0    0 -0.11555725733E+02 -0.63024321245E+01  0.91585061106E+01  0.16035388437E+02  0.51100000000E-03 0. -1.
        -11    1    4    4    0    0  0.22446862693E+02 -0.13629162983E+00  0.22584625656E+02  0.31842511466E+02  0.51100000000E-03 0.  1.
        -12    1    4    4    0    0 -0.50962358211E+01 -0.14092370143E+01  0.37619131157E+01  0.64891878379E+01  0.00000000000E+00 0.  1.
</event>
<event>
 8    1  0.1229038E-006  0.9118800E+02  0.7816164E-02  0.1184000E+00
        -11   -1    0    0    0    0  0.00000000000E+00  0.00000000000E+00  0.45593999997E+02  0.45594000000E+02  0.51100000000E-03 0.  1.
         11   -1    0    0    0    0 -0.00000000000E+00 -0.00000000000E+00 -0.45593999997E+02  0.45594000000E+02  0.51100000000E-03 0. -1.
         23    2    1    2    0    0 -0.88817841970E-15  0.00000000000E+00  0.26645352591E-14  0.91188000000E+02  0.91188000000E+02 0.  0.
    9900012    2    3    3    0    0  0.66836040254E+01  0.35761121353E+02 -0.56790466887E+01  0.54367082922E+02  0.39999997138E+02 0.  0.
         12    1    3    3    0    0 -0.66836040254E+01 -0.35761121353E+02  0.56790466887E+01  0.36820917078E+02  0.00000000000E+00 0. -1.
         11    1    4    4    0    0  0.11033457973E+02 -0.63956158360E+00  0.49532816574E+01  0.12111202801E+02  0.51100000000E-03 0. -1.
        -11    1    4    4    0    0 -0.63782979890E+01  0.15374024121E+02  0.32761422158E+01  0.16963973915E+02  0.51100000000E-03 0.  1.
        -12    1    4    4    0    0  0.20284440418E+01  0.21026658816E+02 -0.13908470562E+02  0.25291906206E+02  0.00000000000E+00 0.  1.
</event>
<event>
 8    1  0.1229038E-006  0.9118800E+02  0.7816164E-02  0.1184000E+00
        -11   -1    0    0    0    0  0.00000000000E+00  0.00000000000E+00  0.45593999997E+02  0.45594000000E+02  0.51100000000E-03 0.  1.
         11   -1    0    0    0    0 -0.00000000000E+00 -0.00000000000E+00 -0.45593999997E+02  0.45594000000E+02  0.51100000000E-03 0. -1.
         23    2    1    2    0    0 -0.88817841970E-15  0.00000000000E+00  0.00000000000E+00  0.91188000000E+02  0.91188000000E+02 0.  0.
    9900012    2    3    3    0    0 -0.76204213851E+01 -0.12624120588E+02 -0.33739295306E+02  0.54367091667E+02  0.40000017074E+02 0.  0.
        -12    1    3    3    0    0  0.76204213851E+01  0.12624120588E+02  0.33739295306E+02  0.36820908333E+02  0.00000000000E+00 0.  1.
         11    1    4    4    0    0  0.18265894044E+01 -0.98780998208E+01 -0.32226785465E+02  0.33756169608E+02  0.51100000000E-03 0. -1.
        -11    1    4    4    0    0  0.51037887638E+01  0.12004100863E+01 -0.17654961492E+01  0.55323251020E+01  0.51100000000E-03 0.  1.
         12    1    4    4    0    0 -0.14550799553E+02 -0.39464308538E+01  0.25298630834E+00  0.15078596957E+02  0.00000000000E+00 0. -1.
</event>
<event>
 8    1  0.1229038E-006  0.9118800E+02  0.7816164E-02  0.1184000E+00
        -11   -1    0    0    0    0  0.00000000000E+00  0.00000000000E+00  0.45593999997E+02  0.45594000000E+02  0.51100000000E-03 0.  1.
         11   -1    0    0    0    0 -0.00000000000E+00 -0.00000000000E+00 -0.45593999997E+02  0.45594000000E+02  0.51100000000E-03 0. -1.
         23    2    1    2    0    0 -0.71054273576E-14  0.00000000000E+00  0.35527136788E-14  0.91188000000E+02  0.91188000000E+02 0.  0.
    9900012    2    3    3    0    0 -0.17692958201E+02  0.21564616992E+02 -0.24035545941E+02  0.54367069205E+02  0.39999965867E+02 0.  0.
        -12    1    3    3    0    0  0.17692958201E+02 -0.21564616992E+02  0.24035545941E+02  0.36820930795E+02  0.00000000000E+00 0.  1.
         11    1    4    4    0    0 -0.10645727633E+02  0.75833882132E+01 -0.53467664827E+01  0.14121869766E+02  0.51100000000E-03 0. -1.
        -11    1    4    4    0    0  0.91833989022E+01 -0.10258944509E+01  0.25544019180E+01  0.95870873700E+01  0.51100000000E-03 0.  1.
        -12    1    4    4    0    0 -0.16230629471E+02  0.15007123230E+02 -0.21243181376E+02  0.30658112069E+02  0.00000000000E+00 0.  1.
</event>
<event>
 8    1  0.1229038E-006  0.9118800E+02  0.7816164E-02  0.1184000E+00
        -11   -1    0    0    0    0  0.00000000000E+00  0.00000000000E+00  0.45593999997E+02  0.45594000000E+02  0.51100000000E-03 0.  1.
         11   -1    0    0    0    0 -0.00000000000E+00 -0.00000000000E+00 -0.45593999997E+02  0.45594000000E+02  0.51100000000E-03 0. -1.
         23    2    1    2    0    0 -0.71054273576E-14 -0.53290705182E-14 -0.26645352591E-14  0.91188000000E+02  0.91188000000E+02 0.  0.
    9900012    2    3    3    0    0 -0.33109456249E+02 -0.14182729971E+02 -0.76416834470E+01  0.54367065079E+02  0.39999956461E+02 0.  0.
        -12    1    3    3    0    0  0.33109456249E+02  0.14182729971E+02  0.76416834470E+01  0.36820934921E+02  0.00000000000E+00 0.  1.
         11    1    4    4    0    0 -0.71831485421E+00  0.85028011670E+01  0.23201650460E+01  0.88428937582E+01  0.51100000000E-03 0. -1.
        -11    1    4    4    0    0  0.25175294399E+01 -0.42486118975E+01 -0.13021145279E+01  0.51072654172E+01  0.51100000000E-03 0.  1.
         12    1    4    4    0    0 -0.34908670835E+02 -0.18436919240E+02 -0.86597339651E+01  0.40416905904E+02  0.00000000000E+00 0. -1.
</event>
<event>
 8    1  0.1229038E-006  0.9118800E+02  0.7816164E-02  0.1184000E+00
        -11   -1    0    0    0    0  0.00000000000E+00  0.00000000000E+00  0.45593999997E+02  0.45594000000E+02  0.51100000000E-03 0.  1.
         11   -1    0    0    0    0 -0.00000000000E+00 -0.00000000000E+00 -0.45593999997E+02  0.45594000000E+02  0.51100000000E-03 0. -1.
         23    2    1    2    0    0  0.00000000000E+00  0.35527136788E-14  0.00000000000E+00  0.91188000000E+02  0.91188000000E+02 0.  0.
    9900012    2    3    3    0    0 -0.32770612364E+02 -0.16713708546E+02  0.15872563302E+01  0.54367075640E+02  0.39999980536E+02 0.  0.
         12    1    3    3    0    0  0.32770612364E+02  0.16713708546E+02 -0.15872563302E+01  0.36820924360E+02  0.00000000000E+00 0. -1.
         11    1    4    4    0    0 -0.12586898129E+00 -0.60279692981E+01 -0.11608410403E+02  0.13080804608E+02  0.51100000000E-03 0. -1.
        -11    1    4    4    0    0 -0.14062263134E+02 -0.46024858378E+01  0.15700096673E+02  0.21573668120E+02  0.51100000000E-03 0.  1.
        -12    1    4    4    0    0 -0.18582480248E+02 -0.60832534100E+01 -0.25044299399E+01  0.19712602912E+02  0.00000000000E+00 0.  1.
</event>
<event>
 8    1  0.1229038E-006  0.9118800E+02  0.7816164E-02  0.1184000E+00
        -11   -1    0    0    0    0  0.00000000000E+00  0.00000000000E+00  0.45593999997E+02  0.45594000000E+02  0.51100000000E-03 0. -1.
         11   -1    0    0    0    0 -0.00000000000E+00 -0.00000000000E+00 -0.45593999997E+02  0.45594000000E+02  0.51100000000E-03 0.  1.
         23    2    1    2    0    0  0.00000000000E+00  0.00000000000E+00  0.00000000000E+00  0.91188000000E+02  0.91188000000E+02 0.  0.
    9900012    2    3    3    0    0 -0.19967538245E+02 -0.30649915390E+02  0.42023522990E+01  0.54367086625E+02  0.40000005578E+02 0.  0.
        -12    1    3    3    0    0  0.19967538245E+02  0.30649915390E+02 -0.42023522990E+01  0.36820913375E+02  0.00000000000E+00 0.  1.
         11    1    4    4    0    0 -0.13529219687E+02 -0.22623652437E+02 -0.21902952764E+01  0.26451216013E+02  0.51100000000E-03 0. -1.
        -11    1    4    4    0    0 -0.43604844118E+01  0.85944013442E+01 -0.83413354232E+00  0.96733312669E+01  0.51100000000E-03 0.  1.
        -12    1    4    4    0    0 -0.20778341464E+01 -0.16620664297E+02  0.72267811178E+01  0.18242539345E+02  0.00000000000E+00 0.  1.
</event>
<event>
 8    1  0.1229038E-006  0.9118800E+02  0.7816164E-02  0.1184000E+00
        -11   -1    0    0    0    0  0.00000000000E+00  0.00000000000E+00  0.45593999997E+02  0.45594000000E+02  0.51100000000E-03 0. -1.
         11   -1    0    0    0    0 -0.00000000000E+00 -0.00000000000E+00 -0.45593999997E+02  0.45594000000E+02  0.51100000000E-03 0.  1.
         23    2    1    2    0    0  0.17763568394E-14 -0.71054273576E-14 -0.35527136788E-14  0.91188000000E+02  0.91188000000E+02 0.  0.
    9900012    2    3    3    0    0  0.83436023752E+01 -0.31447061163E+02 -0.17240832907E+02  0.54367086435E+02  0.40000005147E+02 0.  0.
         12    1    3    3    0    0 -0.83436023752E+01  0.31447061163E+02  0.17240832907E+02  0.36820913565E+02  0.00000000000E+00 0. -1.
         11    1    4    4    0    0  0.14459551914E+02 -0.20903339751E+01 -0.14014898719E+02  0.20245135812E+02  0.51100000000E-03 0. -1.
        -11    1    4    4    0    0 -0.53384576196E+00 -0.28082654700E+02 -0.38982617229E+01  0.28356955602E+02  0.51100000000E-03 0.  1.
         12    1    4    4    0    0 -0.55821037769E+01 -0.12740724879E+01  0.67232753433E+00  0.57649950211E+01  0.00000000000E+00 0. -1.
</event>
<event>
 8    1  0.1229038E-006  0.9118800E+02  0.7816164E-02  0.1184000E+00
        -11   -1    0    0    0    0  0.00000000000E+00  0.00000000000E+00  0.45593999997E+02  0.45594000000E+02  0.51100000000E-03 0.  1.
         11   -1    0    0    0    0 -0.00000000000E+00 -0.00000000000E+00 -0.45593999997E+02  0.45594000000E+02  0.51100000000E-03 0. -1.
         23    2    1    2    0    0  0.00000000000E+00  0.00000000000E+00  0.00000000000E+00  0.91188000000E+02  0.91188000000E+02 0.  0.
    9900012    2    3    3    0    0  0.16948321079E+02 -0.31671218129E+02  0.80912341061E+01  0.54367085909E+02  0.40000003946E+02 0.  0.
         12    1    3    3    0    0 -0.16948321079E+02  0.31671218129E+02 -0.80912341061E+01  0.36820914091E+02  0.00000000000E+00 0. -1.
         11    1    4    4    0    0 -0.10435255736E+02 -0.15981153669E+01  0.25578200483E+00  0.10560017031E+02  0.51100000000E-03 0. -1.
        -11    1    4    4    0    0  0.27852656724E+01  0.13785937448E+01 -0.46113143642E-01  0.31081107223E+01  0.51100000000E-03 0.  1.
         12    1    4    4    0    0  0.24598311143E+02 -0.31451696507E+02  0.78815652449E+01  0.40698958155E+02  0.00000000000E+00 0. -1.
</event>
<event>
 8    1  0.1229038E-006  0.9118800E+02  0.7816164E-02  0.1184000E+00
        -11   -1    0    0    0    0  0.00000000000E+00  0.00000000000E+00  0.45593999997E+02  0.45594000000E+02  0.51100000000E-03 0.  1.
         11   -1    0    0    0    0 -0.00000000000E+00 -0.00000000000E+00 -0.45593999997E+02  0.45594000000E+02  0.51100000000E-03 0. -1.
         23    2    1    2    0    0  0.00000000000E+00  0.00000000000E+00  0.35527136788E-14  0.91188000000E+02  0.91188000000E+02 0.  0.
    9900012    2    3    3    0    0 -0.27820666898E+02 -0.80073707671E+01 -0.22752453777E+02  0.54367059679E+02  0.39999944151E+02 0.  0.
        -12    1    3    3    0    0  0.27820666898E+02  0.80073707671E+01  0.22752453777E+02  0.36820940321E+02  0.00000000000E+00 0.  1.
         11    1    4    4    0    0 -0.20736991119E+02 -0.64460493017E+01 -0.30120035454E+02  0.37132073579E+02  0.51100000000E-03 0. -1.
        -11    1    4    4    0    0 -0.61214507157E+01  0.56343051433E+01  0.38157776480E+01  0.91530165866E+01  0.51100000000E-03 0.  1.
         12    1    4    4    0    0 -0.96222506306E+00 -0.71956266087E+01  0.35518040288E+01  0.80819695138E+01  0.00000000000E+00 0. -1.
</event>
<event>
 8    1  0.1229038E-006  0.9118800E+02  0.7816164E-02  0.1184000E+00
        -11   -1    0    0    0    0  0.00000000000E+00  0.00000000000E+00  0.45593999997E+02  0.45594000000E+02  0.51100000000E-03 0.  1.
         11   -1    0    0    0    0 -0.00000000000E+00 -0.00000000000E+00 -0.45593999997E+02  0.45594000000E+02  0.51100000000E-03 0. -1.
         23    2    1    2    0    0  0.17763568394E-14  0.35527136788E-14  0.35527136788E-14  0.91188000000E+02  0.91188000000E+02 0.  0.
    9900012    2    3    3    0    0  0.10311204875E+02  0.23166457445E+02  0.26697839390E+02  0.54367077624E+02  0.39999985058E+02 0.  0.
         12    1    3    3    0    0 -0.10311204875E+02 -0.23166457445E+02 -0.26697839390E+02  0.36820922376E+02  0.00000000000E+00 0. -1.
         11    1    4    4    0    0  0.52730041949E+01  0.69322700893E+01 -0.58383182881E-01  0.87100143908E+01  0.51100000000E-03 0. -1.
        -11    1    4    4    0    0 -0.12116585899E+02 -0.11765323171E+01  0.59090052999E+01  0.13531896616E+02  0.51100000000E-03 0.  1.
        -12    1    4    4    0    0  0.17154786579E+02  0.17410719673E+02  0.20847217273E+02  0.32125166617E+02  0.00000000000E+00 0.  1.
</event>
<event>
 8    1  0.1229038E-006  0.9118800E+02  0.7816164E-02  0.1184000E+00
        -11   -1    0    0    0    0  0.00000000000E+00  0.00000000000E+00  0.45593999997E+02  0.45594000000E+02  0.51100000000E-03 0.  1.
         11   -1    0    0    0    0 -0.00000000000E+00 -0.00000000000E+00 -0.45593999997E+02  0.45594000000E+02  0.51100000000E-03 0. -1.
         23    2    1    2    0    0  0.13322676296E-14  0.71054273576E-14  0.17763568394E-14  0.91188000000E+02  0.91188000000E+02 0.  0.
    9900012    2    3    3    0    0 -0.22271946719E+01  0.36035826675E+02 -0.72276240246E+01  0.54367085436E+02  0.40000002870E+02 0.  0.
        -12    1    3    3    0    0  0.22271946719E+01 -0.36035826675E+02  0.72276240246E+01  0.36820914564E+02  0.00000000000E+00 0.  1.
         11    1    4    4    0    0  0.21036092773E+01  0.80534957562E+01 -0.53209418699E+01  0.98790884463E+01  0.51100000000E-03 0. -1.
        -11    1    4    4    0    0 -0.13430196558E+02  0.79722940634E-01  0.50111757389E+01  0.14334867208E+02  0.51100000000E-03 0.  1.
        -12    1    4    4    0    0  0.90993926085E+01  0.27902607978E+02 -0.69178578936E+01  0.30153129782E+02  0.00000000000E+00 0.  1.
</event>
<event>
 8    1  0.1229038E-006  0.9118800E+02  0.7816164E-02  0.1184000E+00
        -11   -1    0    0    0    0  0.00000000000E+00  0.00000000000E+00  0.45593999997E+02  0.45594000000E+02  0.51100000000E-03 0.  1.
         11   -1    0    0    0    0 -0.00000000000E+00 -0.00000000000E+00 -0.45593999997E+02  0.45594000000E+02  0.51100000000E-03 0. -1.
         23    2    1    2    0    0  0.00000000000E+00  0.00000000000E+00  0.00000000000E+00  0.91188000000E+02  0.91188000000E+02 0.  0.
    9900012    2    3    3    0    0 -0.34786198766E+02  0.27762650824E+01 -0.11747129284E+02  0.54367050544E+02  0.39999923326E+02 0.  0.
        -12    1    3    3    0    0  0.34786198766E+02 -0.27762650824E+01  0.11747129284E+02  0.36820949456E+02  0.00000000000E+00 0.  1.
         11    1    4    4    0    0 -0.14992317514E+02 -0.39788887194E+01  0.15933170635E+01  0.15592940692E+02  0.51100000000E-03 0. -1.
        -11    1    4    4    0    0 -0.10011548757E+02 -0.40789599593E+01  0.76239415764E+01  0.13228511189E+02  0.51100000000E-03 0.  1.
         12    1    4    4    0    0 -0.97823324948E+01  0.10834113761E+02 -0.20964387924E+02  0.25545598663E+02  0.00000000000E+00 0. -1.
</event>
<event>
 8    1  0.1229038E-006  0.9118800E+02  0.7816164E-02  0.1184000E+00
        -11   -1    0    0    0    0  0.00000000000E+00  0.00000000000E+00  0.45593999997E+02  0.45594000000E+02  0.51100000000E-03 0. -1.
         11   -1    0    0    0    0 -0.00000000000E+00 -0.00000000000E+00 -0.45593999997E+02  0.45594000000E+02  0.51100000000E-03 0.  1.
         23    2    1    2    0    0  0.00000000000E+00  0.88817841970E-15  0.71054273576E-14  0.91188000000E+02  0.91188000000E+02 0.  0.
    9900012    2    3    3    0    0 -0.75991449985E+01 -0.55598836095E+01 -0.35596595539E+02  0.54367123796E+02  0.40000090317E+02 0.  0.
         12    1    3    3    0    0  0.75991449985E+01  0.55598836095E+01  0.35596595539E+02  0.36820876204E+02  0.00000000000E+00 0. -1.
         11    1    4    4    0    0  0.21756244644E+01 -0.18412323984E+00 -0.35601468042E+02  0.35668358109E+02  0.51100000000E-03 0. -1.
        -11    1    4    4    0    0  0.27160092474E+01 -0.30547437586E+01  0.36516664946E+01  0.54811343818E+01  0.51100000000E-03 0.  1.
        -12    1    4    4    0    0 -0.12490778710E+02 -0.23210166111E+01 -0.36467939920E+01  0.13217631305E+02  0.00000000000E+00 0.  1.
</event>
<event>
 8    1  0.1229038E-006  0.9118800E+02  0.7816164E-02  0.1184000E+00
        -11   -1    0    0    0    0  0.00000000000E+00  0.00000000000E+00  0.45593999997E+02  0.45594000000E+02  0.51100000000E-03 0.  1.
         11   -1    0    0    0    0 -0.00000000000E+00 -0.00000000000E+00 -0.45593999997E+02  0.45594000000E+02  0.51100000000E-03 0. -1.
         23    2    1    2    0    0  0.35527136788E-14  0.00000000000E+00  0.35527136788E-14  0.91188000000E+02  0.91188000000E+02 0.  0.
    9900012    2    3    3    0    0  0.18023584661E+02 -0.12420200186E+02  0.29608627731E+02  0.54367057416E+02  0.39999938990E+02 0.  0.
         12    1    3    3    0    0 -0.18023584661E+02  0.12420200186E+02 -0.29608627731E+02  0.36820942584E+02  0.00000000000E+00 0. -1.
         11    1    4    4    0    0  0.15832956052E+00  0.70117693689E+01  0.76509674897E+00  0.70551648619E+01  0.51100000000E-03 0. -1.
        -11    1    4    4    0    0  0.24032425446E+02 -0.11747147643E+02  0.16165480004E+02  0.31255010712E+02  0.51100000000E-03 0.  1.
         12    1    4    4    0    0 -0.61671703457E+01 -0.76848219121E+01  0.12678050977E+02  0.16056881842E+02  0.00000000000E+00 0. -1.
</event>
<event>
 8    1  0.1229038E-006  0.9118800E+02  0.7816164E-02  0.1184000E+00
        -11   -1    0    0    0    0  0.00000000000E+00  0.00000000000E+00  0.45593999997E+02  0.45594000000E+02  0.51100000000E-03 0.  1.
         11   -1    0    0    0    0 -0.00000000000E+00 -0.00000000000E+00 -0.45593999997E+02  0.45594000000E+02  0.51100000000E-03 0. -1.
         23    2    1    2    0    0  0.00000000000E+00  0.17763568394E-14  0.00000000000E+00  0.91188000000E+02  0.91188000000E+02 0.  0.
    9900012    2    3    3    0    0 -0.27468646494E+02  0.15254232792E+02 -0.19197958556E+02  0.54367085142E+02  0.40000002198E+02 0.  0.
        -12    1    3    3    0    0  0.27468646494E+02 -0.15254232792E+02  0.19197958556E+02  0.36820914858E+02  0.00000000000E+00 0.  1.
         11    1    4    4    0    0 -0.26064866683E+02  0.18917457306E+02 -0.81941380696E+01  0.33232384282E+02  0.51100000000E-03 0.  1.
        -11    1    4    4    0    0 -0.41877059036E+01 -0.10110740375E+02 -0.76479469116E+01  0.13351218817E+02  0.51100000000E-03 0. -1.
         12    1    4    4    0    0  0.27839260926E+01  0.64475158607E+01 -0.33558735746E+01  0.77834820429E+01  0.00000000000E+00 0. -1.
</event>
<event>
 8    1  0.1229038E-006  0.9118800E+02  0.7816164E-02  0.1184000E+00
        -11   -1    0    0    0    0  0.00000000000E+00  0.00000000000E+00  0.45593999997E+02  0.45594000000E+02  0.51100000000E-03 0.  1.
         11   -1    0    0    0    0 -0.00000000000E+00 -0.00000000000E+00 -0.45593999997E+02  0.45594000000E+02  0.51100000000E-03 0. -1.
         23    2    1    2    0    0 -0.71054273576E-14  0.00000000000E+00  0.17763568394E-14  0.91188000000E+02  0.91188000000E+02 0.  0.
    9900012    2    3    3    0    0 -0.35119591413E+02 -0.51727805288E+01  0.97793822424E+01  0.54367086425E+02  0.40000005124E+02 0.  0.
         12    1    3    3    0    0  0.35119591413E+02  0.51727805288E+01 -0.97793822424E+01  0.36820913575E+02  0.00000000000E+00 0. -1.
         11    1    4    4    0    0  0.29950174987E+01 -0.50491374920E+01  0.61562513805E+01  0.85066650664E+01  0.51100000000E-03 0. -1.
        -11    1    4    4    0    0  0.17423127218E+01 -0.10266559902E+00  0.56882893361E+01  0.59500277039E+01  0.51100000000E-03 0.  1.
        -12    1    4    4    0    0 -0.39856921634E+02 -0.20977437824E-01 -0.20651584742E+01  0.39910393655E+02  0.00000000000E+00 0.  1.
</event>
<event>
 8    1  0.1229038E-006  0.9118800E+02  0.7816164E-02  0.1184000E+00
        -11   -1    0    0    0    0  0.00000000000E+00  0.00000000000E+00  0.45593999997E+02  0.45594000000E+02  0.51100000000E-03 0.  1.
         11   -1    0    0    0    0 -0.00000000000E+00 -0.00000000000E+00 -0.45593999997E+02  0.45594000000E+02  0.51100000000E-03 0. -1.
         23    2    1    2    0    0  0.00000000000E+00  0.00000000000E+00  0.35527136788E-14  0.91188000000E+02  0.91188000000E+02 0.  0.
    9900012    2    3    3    0    0  0.20043518340E+02  0.19903124316E+02  0.23619982419E+02  0.54367074503E+02  0.39999977944E+02 0.  0.
         12    1    3    3    0    0 -0.20043518340E+02 -0.19903124316E+02 -0.23619982419E+02  0.36820925497E+02  0.00000000000E+00 0. -1.
         11    1    4    4    0    0  0.10627837922E+02  0.65457094198E+01  0.11495309400E+01  0.12534698734E+02  0.51100000000E-03 0. -1.
        -11    1    4    4    0    0  0.17039324187E+02 -0.90175685104E+00  0.18530788514E+02  0.25190114279E+02  0.51100000000E-03 0.  1.
         12    1    4    4    0    0 -0.76236437689E+01  0.14259171747E+02  0.39396629647E+01  0.16642261490E+02  0.00000000000E+00 0. -1.
</event>
<event>
 8    1  0.1229038E-006  0.9118800E+02  0.7816164E-02  0.1184000E+00
        -11   -1    0    0    0    0  0.00000000000E+00  0.00000000000E+00  0.45593999997E+02  0.45594000000E+02  0.51100000000E-03 0. -1.
         11   -1    0    0    0    0 -0.00000000000E+00 -0.00000000000E+00 -0.45593999997E+02  0.45594000000E+02  0.51100000000E-03 0.  1.
         23    2    1    2    0    0  0.00000000000E+00  0.00000000000E+00  0.00000000000E+00  0.91188000000E+02  0.91188000000E+02 0.  0.
    9900012    2    3    3    0    0 -0.17331657337E+02  0.24065993973E+02 -0.21822497543E+02  0.54367084599E+02  0.40000000960E+02 0.  0.
         12    1    3    3    0    0  0.17331657337E+02 -0.24065993973E+02  0.21822497543E+02  0.36820915401E+02  0.00000000000E+00 0. -1.
         11    1    4    4    0    0  0.18422174464E+00  0.48672191360E+01  0.43689523780E+01  0.65430501229E+01  0.51100000000E-03 0. -1.
        -11    1    4    4    0    0 -0.95490815971E+01  0.14929785265E+02  0.23574620860E+01  0.17878508751E+02  0.51100000000E-03 0.  1.
        -12    1    4    4    0    0 -0.79667974846E+01  0.42689895714E+01 -0.28548912007E+02  0.29945525725E+02  0.00000000000E+00 0.  1.
</event>
<event>
 8    1  0.1229038E-006  0.9118800E+02  0.7816164E-02  0.1184000E+00
        -11   -1    0    0    0    0  0.00000000000E+00  0.00000000000E+00  0.45593999997E+02  0.45594000000E+02  0.51100000000E-03 0.  1.
         11   -1    0    0    0    0 -0.00000000000E+00 -0.00000000000E+00 -0.45593999997E+02  0.45594000000E+02  0.51100000000E-03 0. -1.
         23    2    1    2    0    0  0.00000000000E+00  0.00000000000E+00  0.00000000000E+00  0.91188000000E+02  0.91188000000E+02 0.  0.
    9900012    2    3    3    0    0  0.26700495137E+02 -0.20930859332E+02  0.14309527151E+02  0.54367083659E+02  0.39999998817E+02 0.  0.
         12    1    3    3    0    0 -0.26700495137E+02  0.20930859332E+02 -0.14309527151E+02  0.36820916341E+02  0.00000000000E+00 0. -1.
         11    1    4    4    0    0  0.49895428703E+01  0.10005419840E+01  0.18835664590E+02  0.19510993904E+02  0.51100000000E-03 0. -1.
        -11    1    4    4    0    0  0.12062031372E+02 -0.18497512407E+01 -0.48195795231E+00  0.12212553549E+02  0.51100000000E-03 0.  1.
        -12    1    4    4    0    0  0.96489208953E+01 -0.20081650075E+02 -0.40441794865E+01  0.22643536206E+02  0.00000000000E+00 0.  1.
</event>
<event>
 8    1  0.1229038E-006  0.9118800E+02  0.7816164E-02  0.1184000E+00
        -11   -1    0    0    0    0  0.00000000000E+00  0.00000000000E+00  0.45593999997E+02  0.45594000000E+02  0.51100000000E-03 0.  1.
         11   -1    0    0    0    0 -0.00000000000E+00 -0.00000000000E+00 -0.45593999997E+02  0.45594000000E+02  0.51100000000E-03 0. -1.
         23    2    1    2    0    0  0.00000000000E+00  0.00000000000E+00  0.35527136788E-14  0.91188000000E+02  0.91188000000E+02 0.  0.
    9900012    2    3    3    0    0  0.48755076758E+00  0.18413201213E+02  0.31882543792E+02  0.54367078184E+02  0.39999986337E+02 0.  0.
         12    1    3    3    0    0 -0.48755076758E+00 -0.18413201213E+02 -0.31882543792E+02  0.36820921816E+02  0.00000000000E+00 0. -1.
         11    1    4    4    0    0  0.94472729019E+01  0.11899812798E+02  0.22015260872E+02  0.26749359272E+02  0.51100000000E-03 0.  1.
        -11    1    4    4    0    0 -0.77127221165E+01  0.92471542912E+01  0.16447332650E+02  0.20384079486E+02  0.51100000000E-03 0. -1.
         12    1    4    4    0    0 -0.12470000178E+01 -0.27337658754E+01 -0.65800497302E+01  0.72336394268E+01  0.00000000000E+00 0. -1.
</event>
<event>
 8    1  0.1229038E-006  0.9118800E+02  0.7816164E-02  0.1184000E+00
        -11   -1    0    0    0    0  0.00000000000E+00  0.00000000000E+00  0.45593999997E+02  0.45594000000E+02  0.51100000000E-03 0. -1.
         11   -1    0    0    0    0 -0.00000000000E+00 -0.00000000000E+00 -0.45593999997E+02  0.45594000000E+02  0.51100000000E-03 0.  1.
         23    2    1    2    0    0 -0.35527136788E-14  0.35527136788E-14  0.35527136788E-14  0.91188000000E+02  0.91188000000E+02 0.  0.
    9900012    2    3    3    0    0 -0.23836691761E+02 -0.22883693268E+02  0.16245885895E+02  0.54367080672E+02  0.39999992007E+02 0.  0.
        -12    1    3    3    0    0  0.23836691761E+02  0.22883693268E+02 -0.16245885895E+02  0.36820919328E+02  0.00000000000E+00 0.  1.
         11    1    4    4    0    0 -0.13727959222E+02 -0.31577516475E+02  0.16776767952E+02  0.38302171666E+02  0.51100000000E-03 0. -1.
        -11    1    4    4    0    0 -0.15877156368E+01 -0.11084361936E+01 -0.22443566924E+01  0.29642214766E+01  0.51100000000E-03 0.  1.
        -12    1    4    4    0    0 -0.85210169024E+01  0.98022594012E+01  0.17134746355E+01  0.13100687529E+02  0.00000000000E+00 0.  1.
</event>
<event>
 8    1  0.1229038E-006  0.9118800E+02  0.7816164E-02  0.1184000E+00
        -11   -1    0    0    0    0  0.00000000000E+00  0.00000000000E+00  0.45593999997E+02  0.45594000000E+02  0.51100000000E-03 0.  1.
         11   -1    0    0    0    0 -0.00000000000E+00 -0.00000000000E+00 -0.45593999997E+02  0.45594000000E+02  0.51100000000E-03 0. -1.
         23    2    1    2    0    0  0.35527136788E-14  0.17763568394E-14  0.35527136788E-14  0.91188000000E+02  0.91188000000E+02 0.  0.
    9900012    2    3    3    0    0 -0.29462723272E+02 -0.10033288910E+02 -0.19673963615E+02  0.54367030522E+02  0.39999877682E+02 0.  0.
        -12    1    3    3    0    0  0.29462723272E+02  0.10033288910E+02  0.19673963615E+02  0.36820969478E+02  0.00000000000E+00 0.  1.
         11    1    4    4    0    0 -0.10820597741E+02  0.35735152636E+00 -0.13283869240E+02  0.17136925566E+02  0.51100000000E-03 0. -1.
        -11    1    4    4    0    0  0.38402329038E+01  0.13063613866E+00 -0.11292372295E+02  0.11928207195E+02  0.51100000000E-03 0.  1.
         12    1    4    4    0    0 -0.22482358434E+02 -0.10521276575E+02  0.49022779206E+01  0.25301897762E+02  0.00000000000E+00 0. -1.
</event>
<event>
 8    1  0.1229038E-006  0.9118800E+02  0.7816164E-02  0.1184000E+00
        -11   -1    0    0    0    0  0.00000000000E+00  0.00000000000E+00  0.45593999997E+02  0.45594000000E+02  0.51100000000E-03 0. -1.
         11   -1    0    0    0    0 -0.00000000000E+00 -0.00000000000E+00 -0.45593999997E+02  0.45594000000E+02  0.51100000000E-03 0.  1.
         23    2    1    2    0    0  0.00000000000E+00  0.00000000000E+00  0.00000000000E+00  0.91188000000E+02  0.91188000000E+02 0.  0.
    9900012    2    3    3    0    0  0.21027385597E+02  0.27319957703E+02  0.12932504421E+02  0.54367072465E+02  0.39999973299E+02 0.  0.
        -12    1    3    3    0    0 -0.21027385597E+02 -0.27319957703E+02 -0.12932504421E+02  0.36820927535E+02  0.00000000000E+00 0.  1.
         11    1    4    4    0    0  0.44014757613E+01  0.30958635192E+01  0.19847758728E+02  0.20564310993E+02  0.51100000000E-03 0. -1.
        -11    1    4    4    0    0  0.12320995238E+02  0.13183523579E+02  0.30731467679E+01  0.18304547220E+02  0.51100000000E-03 0.  1.
        -12    1    4    4    0    0  0.43049145975E+01  0.11040570605E+02 -0.99884010755E+01  0.15498214252E+02  0.00000000000E+00 0.  1.
</event>
<event>
 8    1  0.1229038E-006  0.9118800E+02  0.7816164E-02  0.1184000E+00
        -11   -1    0    0    0    0  0.00000000000E+00  0.00000000000E+00  0.45593999997E+02  0.45594000000E+02  0.51100000000E-03 0. -1.
         11   -1    0    0    0    0 -0.00000000000E+00 -0.00000000000E+00 -0.45593999997E+02  0.45594000000E+02  0.51100000000E-03 0.  1.
         23    2    1    2    0    0 -0.35527136788E-14  0.00000000000E+00  0.00000000000E+00  0.91188000000E+02  0.91188000000E+02 0.  0.
    9900012    2    3    3    0    0 -0.21077773143E+02 -0.17678877986E+02  0.24473806046E+02  0.54367049036E+02  0.39999919887E+02 0.  0.
        -12    1    3    3    0    0  0.21077773143E+02  0.17678877986E+02 -0.24473806046E+02  0.36820950964E+02  0.00000000000E+00 0.  1.
         11    1    4    4    0    0  0.40789483681E+01 -0.82323731157E+01  0.32061794391E+01  0.97308465080E+01  0.51100000000E-03 0. -1.
        -11    1    4    4    0    0 -0.25864081172E+02 -0.15962628989E+02  0.22690565348E+02  0.37929117775E+02  0.51100000000E-03 0.  1.
        -12    1    4    4    0    0  0.70735966075E+00  0.65161241185E+01 -0.14229387419E+01  0.67070847527E+01  0.00000000000E+00 0.  1.
</event>
<event>
 8    1  0.1229038E-006  0.9118800E+02  0.7816164E-02  0.1184000E+00
        -11   -1    0    0    0    0  0.00000000000E+00  0.00000000000E+00  0.45593999997E+02  0.45594000000E+02  0.51100000000E-03 0. -1.
         11   -1    0    0    0    0 -0.00000000000E+00 -0.00000000000E+00 -0.45593999997E+02  0.45594000000E+02  0.51100000000E-03 0.  1.
         23    2    1    2    0    0  0.00000000000E+00  0.17763568394E-14  0.35527136788E-14  0.91188000000E+02  0.91188000000E+02 0.  0.
    9900012    2    3    3    0    0  0.26006466678E+02  0.91383290566E+01  0.24411783420E+02  0.54367074744E+02  0.39999978493E+02 0.  0.
        -12    1    3    3    0    0 -0.26006466678E+02 -0.91383290566E+01 -0.24411783420E+02  0.36820925256E+02  0.00000000000E+00 0.  1.
         11    1    4    4    0    0  0.31759189131E+01  0.21051155053E+00 -0.60127982977E+01  0.68032727187E+01  0.51100000000E-03 0.  1.
        -11    1    4    4    0    0  0.16894172046E+02  0.13032189898E+02  0.61004642533E+01  0.22191590457E+02  0.51100000000E-03 0. -1.
        -12    1    4    4    0    0  0.59363757185E+01 -0.41043723921E+01  0.24324117464E+02  0.25372211567E+02  0.00000000000E+00 0.  1.
</event>
<event>
 8    1  0.1229038E-006  0.9118800E+02  0.7816164E-02  0.1184000E+00
        -11   -1    0    0    0    0  0.00000000000E+00  0.00000000000E+00  0.45593999997E+02  0.45594000000E+02  0.51100000000E-03 0.  1.
         11   -1    0    0    0    0 -0.00000000000E+00 -0.00000000000E+00 -0.45593999997E+02  0.45594000000E+02  0.51100000000E-03 0. -1.
         23    2    1    2    0    0  0.00000000000E+00 -0.35527136788E-14 -0.35527136788E-14  0.91188000000E+02  0.91188000000E+02 0.  0.
    9900012    2    3    3    0    0 -0.13094881020E+02  0.23645685108E+02 -0.25003717315E+02  0.54367079144E+02  0.39999988524E+02 0.  0.
        -12    1    3    3    0    0  0.13094881020E+02 -0.23645685108E+02  0.25003717315E+02  0.36820920856E+02  0.00000000000E+00 0.  1.
         11    1    4    4    0    0 -0.80870356127E+01 -0.28558465897E+01 -0.81485338942E+01  0.11830241318E+02  0.51100000000E-03 0. -1.
        -11    1    4    4    0    0 -0.90696531095E+01 -0.10773104646E+01  0.13640617860E+01  0.92347100756E+01  0.51100000000E-03 0.  1.
        -12    1    4    4    0    0  0.40618077020E+01  0.27578842162E+02 -0.18219245207E+02  0.33302127750E+02  0.00000000000E+00 0.  1.
</event>
<event>
 8    1  0.1229038E-006  0.9118800E+02  0.7816164E-02  0.1184000E+00
        -11   -1    0    0    0    0  0.00000000000E+00  0.00000000000E+00  0.45593999997E+02  0.45594000000E+02  0.51100000000E-03 0.  1.
         11   -1    0    0    0    0 -0.00000000000E+00 -0.00000000000E+00 -0.45593999997E+02  0.45594000000E+02  0.51100000000E-03 0. -1.
         23    2    1    2    0    0 -0.53290705182E-14  0.00000000000E+00 -0.11102230246E-14  0.91188000000E+02  0.91188000000E+02 0.  0.
    9900012    2    3    3    0    0  0.13634456992E+02 -0.34152038399E+02  0.18764743048E+01  0.54367064378E+02  0.39999954862E+02 0.  0.
         12    1    3    3    0    0 -0.13634456992E+02  0.34152038399E+02 -0.18764743048E+01  0.36820935622E+02  0.00000000000E+00 0. -1.
         11    1    4    4    0    0 -0.87791093232E+00  0.37645373864E+00 -0.34374343013E+01  0.35676883075E+01  0.51100000000E-03 0. -1.
        -11    1    4    4    0    0  0.19787803645E+02 -0.29372917011E+02 -0.73244520755E+01  0.36165909712E+02  0.51100000000E-03 0.  1.
         12    1    4    4    0    0 -0.52754357210E+01 -0.51555751271E+01  0.12638360682E+02  0.14633466358E+02  0.00000000000E+00 0. -1.
</event>
<event>
 8    1  0.1229038E-006  0.9118800E+02  0.7816164E-02  0.1184000E+00
        -11   -1    0    0    0    0  0.00000000000E+00  0.00000000000E+00  0.45593999997E+02  0.45594000000E+02  0.51100000000E-03 0. -1.
         11   -1    0    0    0    0 -0.00000000000E+00 -0.00000000000E+00 -0.45593999997E+02  0.45594000000E+02  0.51100000000E-03 0.  1.
         23    2    1    2    0    0 -0.35527136788E-14  0.00000000000E+00  0.17763568394E-14  0.91188000000E+02  0.91188000000E+02 0.  0.
    9900012    2    3    3    0    0  0.27642823050E+02 -0.20496377640E+02  0.13097820051E+02  0.54367081318E+02  0.39999993480E+02 0.  0.
        -12    1    3    3    0    0 -0.27642823050E+02  0.20496377640E+02 -0.13097820051E+02  0.36820918682E+02  0.00000000000E+00 0.  1.
         11    1    4    4    0    0  0.97975525760E+01 -0.88381052638E+01  0.13494043920E+02  0.18873085670E+02  0.51100000000E-03 0. -1.
        -11    1    4    4    0    0  0.35084166096E+01  0.85822319207E+01 -0.45779291133E+01  0.10340267263E+02  0.51100000000E-03 0.  1.
         12    1    4    4    0    0  0.14336853864E+02 -0.20240504296E+02  0.41817052438E+01  0.25153728385E+02  0.00000000000E+00 0. -1.
</event>
<event>
 8    1  0.1229038E-006  0.9118800E+02  0.7816164E-02  0.1184000E+00
        -11   -1    0    0    0    0  0.00000000000E+00  0.00000000000E+00  0.45593999997E+02  0.45594000000E+02  0.51100000000E-03 0. -1.
         11   -1    0    0    0    0 -0.00000000000E+00 -0.00000000000E+00 -0.45593999997E+02  0.45594000000E+02  0.51100000000E-03 0.  1.
         23    2    1    2    0    0  0.44408920985E-15 -0.88817841970E-15  0.00000000000E+00  0.91188000000E+02  0.91188000000E+02 0.  0.
    9900012    2    3    3    0    0  0.34824804850E+01  0.58351028617E+01 -0.36188449556E+02  0.54367082344E+02  0.39999995821E+02 0.  0.
         12    1    3    3    0    0 -0.34824804850E+01 -0.58351028617E+01  0.36188449556E+02  0.36820917656E+02  0.00000000000E+00 0. -1.
         11    1    4    4    0    0 -0.83906381258E+01  0.12640426833E+02 -0.12500515028E+02  0.19658231734E+02  0.51100000000E-03 0. -1.
        -11    1    4    4    0    0 -0.37269500173E+01  0.45926297578E+01 -0.41056222533E+01  0.71998985320E+01  0.51100000000E-03 0.  1.
         12    1    4    4    0    0  0.15600068628E+02 -0.11397953730E+02 -0.19582312274E+02  0.27508952078E+02  0.00000000000E+00 0. -1.
</event>
<event>
 8    1  0.1229038E-006  0.9118800E+02  0.7816164E-02  0.1184000E+00
        -11   -1    0    0    0    0  0.00000000000E+00  0.00000000000E+00  0.45593999997E+02  0.45594000000E+02  0.51100000000E-03 0. -1.
         11   -1    0    0    0    0 -0.00000000000E+00 -0.00000000000E+00 -0.45593999997E+02  0.45594000000E+02  0.51100000000E-03 0.  1.
         23    2    1    2    0    0  0.44408920985E-15  0.00000000000E+00  0.00000000000E+00  0.91188000000E+02  0.91188000000E+02 0.  0.
    9900012    2    3    3    0    0 -0.24689330001E+01  0.14747144683E+02 -0.33648255928E+02  0.54367095157E+02  0.40000025029E+02 0.  0.
         12    1    3    3    0    0  0.24689330001E+01 -0.14747144683E+02  0.33648255928E+02  0.36820904843E+02  0.00000000000E+00 0. -1.
         11    1    4    4    0    0 -0.69953010016E+01  0.98168717526E+01 -0.17391336956E+02  0.21160430253E+02  0.51100000000E-03 0. -1.
        -11    1    4    4    0    0  0.10301902832E+02  0.14336218812E+02 -0.12145279043E+02  0.21428116462E+02  0.51100000000E-03 0.  1.
         12    1    4    4    0    0 -0.57755348309E+01 -0.94059458814E+01 -0.41116399280E+01  0.11778548442E+02  0.00000000000E+00 0. -1.
</event>
<event>
 8    1  0.1229038E-006  0.9118800E+02  0.7816164E-02  0.1184000E+00
        -11   -1    0    0    0    0  0.00000000000E+00  0.00000000000E+00  0.45593999997E+02  0.45594000000E+02  0.51100000000E-03 0.  1.
         11   -1    0    0    0    0 -0.00000000000E+00 -0.00000000000E+00 -0.45593999997E+02  0.45594000000E+02  0.51100000000E-03 0. -1.
         23    2    1    2    0    0  0.88817841970E-15  0.17763568394E-14  0.00000000000E+00  0.91188000000E+02  0.91188000000E+02 0.  0.
    9900012    2    3    3    0    0 -0.44218964281E+01 -0.87871235417E+01 -0.35482506341E+02  0.54367150412E+02  0.40000150994E+02 0.  0.
        -12    1    3    3    0    0  0.44218964281E+01  0.87871235417E+01  0.35482506341E+02  0.36820849588E+02  0.00000000000E+00 0.  1.
         11    1    4    4    0    0 -0.76019756500E+01 -0.56969829967E+01 -0.88135738853E+01  0.12958577620E+02  0.51100000000E-03 0. -1.
        -11    1    4    4    0    0  0.82974032470E+01 -0.49001626943E+01 -0.32228703110E+02  0.33638486879E+02  0.51100000000E-03 0.  1.
        -12    1    4    4    0    0 -0.51173240251E+01  0.18100221493E+01  0.55597706547E+01  0.77700859127E+01  0.00000000000E+00 0.  1.
</event>
<event>
 8    1  0.1229038E-006  0.9118800E+02  0.7816164E-02  0.1184000E+00
        -11   -1    0    0    0    0  0.00000000000E+00  0.00000000000E+00  0.45593999997E+02  0.45594000000E+02  0.51100000000E-03 0.  1.
         11   -1    0    0    0    0 -0.00000000000E+00 -0.00000000000E+00 -0.45593999997E+02  0.45594000000E+02  0.51100000000E-03 0. -1.
         23    2    1    2    0    0  0.00000000000E+00  0.35527136788E-14 -0.35527136788E-14  0.91188000000E+02  0.91188000000E+02 0.  0.
    9900012    2    3    3    0    0 -0.16817544310E+02  0.21386630926E+02 -0.24810445764E+02  0.54367136376E+02  0.40000118996E+02 0.  0.
        -12    1    3    3    0    0  0.16817544310E+02 -0.21386630926E+02  0.24810445764E+02  0.36820863624E+02  0.00000000000E+00 0.  1.
         11    1    4    4    0    0  0.27993027167E+01  0.15598242190E+02 -0.13831300516E+02  0.21034403470E+02  0.51100000000E-03 0. -1.
        -11    1    4    4    0    0  0.55752864389E+01  0.12056420801E+01 -0.33484322311E+01  0.66143321937E+01  0.51100000000E-03 0.  1.
        -12    1    4    4    0    0 -0.25192133466E+02  0.45827466559E+01 -0.76307130176E+01  0.26718400713E+02  0.00000000000E+00 0.  1.
</event>
<event>
 8    1  0.1229038E-006  0.9118800E+02  0.7816164E-02  0.1184000E+00
        -11   -1    0    0    0    0  0.00000000000E+00  0.00000000000E+00  0.45593999997E+02  0.45594000000E+02  0.51100000000E-03 0. -1.
         11   -1    0    0    0    0 -0.00000000000E+00 -0.00000000000E+00 -0.45593999997E+02  0.45594000000E+02  0.51100000000E-03 0.  1.
         23    2    1    2    0    0  0.00000000000E+00  0.00000000000E+00  0.00000000000E+00  0.91188000000E+02  0.91188000000E+02 0.  0.
    9900012    2    3    3    0    0  0.51660064487E+01 -0.34552846321E+02  0.11626452599E+02  0.54367337166E+02  0.40000576732E+02 0.  0.
        -12    1    3    3    0    0 -0.51660064487E+01  0.34552846321E+02 -0.11626452599E+02  0.36820662834E+02  0.00000000000E+00 0.  1.
         11    1    4    4    0    0  0.11327120925E+02 -0.28435184809E+02 -0.28686084087E+01  0.30742353815E+02  0.51100000000E-03 0. -1.
        -11    1    4    4    0    0  0.32574038279E+01  0.36946659859E+01  0.51279532663E+01  0.71103545206E+01  0.51100000000E-03 0.  1.
        -12    1    4    4    0    0 -0.94185183041E+01 -0.98123274976E+01  0.93671077417E+01  0.16514628831E+02  0.00000000000E+00 0.  1.
</event>
<event>
 8    1  0.1229038E-006  0.9118800E+02  0.7816164E-02  0.1184000E+00
        -11   -1    0    0    0    0  0.00000000000E+00  0.00000000000E+00  0.45593999997E+02  0.45594000000E+02  0.51100000000E-03 0.  1.
         11   -1    0    0    0    0 -0.00000000000E+00 -0.00000000000E+00 -0.45593999997E+02  0.45594000000E+02  0.51100000000E-03 0. -1.
         23    2    1    2    0    0 -0.17763568394E-14  0.00000000000E+00  0.00000000000E+00  0.91188000000E+02  0.91188000000E+02 0.  0.
    9900012    2    3    3    0    0 -0.14593215785E+02 -0.16052595119E+02  0.29751161653E+02  0.54367090496E+02  0.40000014403E+02 0.  0.
         12    1    3    3    0    0  0.14593215785E+02  0.16052595119E+02 -0.29751161653E+02  0.36820909504E+02  0.00000000000E+00 0. -1.
         11    1    4    4    0    0  0.51715522395E+01 -0.30030981741E+01  0.12967362363E+02  0.14279917301E+02  0.51100000000E-03 0. -1.
        -11    1    4    4    0    0 -0.24381516833E+02 -0.16510634483E+02  0.98126906949E+01  0.31037852907E+02  0.51100000000E-03 0.  1.
        -12    1    4    4    0    0  0.46167488086E+01  0.34611375388E+01  0.69711085952E+01  0.90493202877E+01  0.00000000000E+00 0.  1.
</event>
<event>
 8    1  0.1229038E-006  0.9118800E+02  0.7816164E-02  0.1184000E+00
        -11   -1    0    0    0    0  0.00000000000E+00  0.00000000000E+00  0.45593999997E+02  0.45594000000E+02  0.51100000000E-03 0.  1.
         11   -1    0    0    0    0 -0.00000000000E+00 -0.00000000000E+00 -0.45593999997E+02  0.45594000000E+02  0.51100000000E-03 0. -1.
         23    2    1    2    0    0 -0.17763568394E-14  0.00000000000E+00  0.00000000000E+00  0.91188000000E+02  0.91188000000E+02 0.  0.
    9900012    2    3    3    0    0  0.52048416211E+01  0.89866221705E+01 -0.35326077156E+02  0.54367061913E+02  0.39999949244E+02 0.  0.
        -12    1    3    3    0    0 -0.52048416211E+01 -0.89866221705E+01  0.35326077156E+02  0.36820938087E+02  0.00000000000E+00 0.  1.
         11    1    4    4    0    0 -0.15439376601E+01 -0.85352750495E+01 -0.78992831304E+01  0.11731723569E+02  0.51100000000E-03 0. -1.
        -11    1    4    4    0    0  0.13272988241E+02  0.51792289182E+00 -0.61782704115E+01  0.14649624108E+02  0.51100000000E-03 0.  1.
        -12    1    4    4    0    0 -0.65242089603E+01  0.17003974328E+02 -0.21248523614E+02  0.27985714236E+02  0.00000000000E+00 0.  1.
</event>
<event>
 8    1  0.1229038E-006  0.9118800E+02  0.7816164E-02  0.1184000E+00
        -11   -1    0    0    0    0  0.00000000000E+00  0.00000000000E+00  0.45593999997E+02  0.45594000000E+02  0.51100000000E-03 0.  1.
         11   -1    0    0    0    0 -0.00000000000E+00 -0.00000000000E+00 -0.45593999997E+02  0.45594000000E+02  0.51100000000E-03 0. -1.
         23    2    1    2    0    0  0.44408920985E-15 -0.35527136788E-14  0.00000000000E+00  0.91188000000E+02  0.91188000000E+02 0.  0.
    9900012    2    3    3    0    0 -0.10854124844E+01  0.31493169426E+02  0.19046834315E+02  0.54367085588E+02  0.40000003215E+02 0.  0.
         12    1    3    3    0    0  0.10854124844E+01 -0.31493169426E+02 -0.19046834315E+02  0.36820914412E+02  0.00000000000E+00 0. -1.
         11    1    4    4    0    0  0.63692110215E+01 -0.20890013633E+01  0.15220945186E+02  0.16631534756E+02  0.51100000000E-03 0. -1.
        -11    1    4    4    0    0  0.90412505698E+00  0.22942568644E+02  0.66699117433E+01  0.23909550832E+02  0.51100000000E-03 0.  1.
        -12    1    4    4    0    0 -0.83587485629E+01  0.10639602145E+02 -0.28440226143E+01  0.13825999999E+02  0.00000000000E+00 0.  1.
</event>
<event>
 8    1  0.1229038E-006  0.9118800E+02  0.7816164E-02  0.1184000E+00
        -11   -1    0    0    0    0  0.00000000000E+00  0.00000000000E+00  0.45593999997E+02  0.45594000000E+02  0.51100000000E-03 0.  1.
         11   -1    0    0    0    0 -0.00000000000E+00 -0.00000000000E+00 -0.45593999997E+02  0.45594000000E+02  0.51100000000E-03 0. -1.
         23    2    1    2    0    0  0.17763568394E-14  0.00000000000E+00  0.00000000000E+00  0.91188000000E+02  0.91188000000E+02 0.  0.
    9900012    2    3    3    0    0  0.85670079182E+01  0.11128498097E+02  0.34037385249E+02  0.54367072674E+02  0.39999973775E+02 0.  0.
         12    1    3    3    0    0 -0.85670079182E+01 -0.11128498097E+02 -0.34037385249E+02  0.36820927326E+02  0.00000000000E+00 0. -1.
         11    1    4    4    0    0  0.17783189499E+02  0.53815137599E+01  0.90884735914E+01  0.20683396036E+02  0.51100000000E-03 0. -1.
        -11    1    4    4    0    0  0.28454372693E+01 -0.50968395657E+01  0.35482724627E+01  0.68311437214E+01  0.51100000000E-03 0.  1.
        -12    1    4    4    0    0 -0.12061618850E+02  0.10843823903E+02  0.21400639195E+02  0.26852532917E+02  0.00000000000E+00 0.  1.
</event>
<event>
 8    1  0.1229038E-006  0.9118800E+02  0.7816164E-02  0.1184000E+00
        -11   -1    0    0    0    0  0.00000000000E+00  0.00000000000E+00  0.45593999997E+02  0.45594000000E+02  0.51100000000E-03 0.  1.
         11   -1    0    0    0    0 -0.00000000000E+00 -0.00000000000E+00 -0.45593999997E+02  0.45594000000E+02  0.51100000000E-03 0. -1.
         23    2    1    2    0    0  0.17763568394E-14  0.00000000000E+00  0.17763568394E-14  0.91188000000E+02  0.91188000000E+02 0.  0.
    9900012    2    3    3    0    0  0.13034613295E+02 -0.33644105007E+02 -0.73452528469E+01  0.54367086311E+02  0.40000004864E+02 0.  0.
        -12    1    3    3    0    0 -0.13034613295E+02  0.33644105007E+02  0.73452528469E+01  0.36820913689E+02  0.00000000000E+00 0.  1.
         11    1    4    4    0    0  0.11548501633E+02 -0.21858575781E+02  0.12921668108E+02  0.27895066448E+02  0.51100000000E-03 0. -1.
        -11    1    4    4    0    0  0.69062259026E-01 -0.27957463486E+00 -0.12532637704E+02  0.12535945901E+02  0.51100000000E-03 0.  1.
         12    1    4    4    0    0  0.14170494029E+01 -0.11505954591E+02 -0.77342832516E+01  0.13936073962E+02  0.00000000000E+00 0. -1.
</event>
<event>
 8    1  0.1229038E-006  0.9118800E+02  0.7816164E-02  0.1184000E+00
        -11   -1    0    0    0    0  0.00000000000E+00  0.00000000000E+00  0.45593999997E+02  0.45594000000E+02  0.51100000000E-03 0.  1.
         11   -1    0    0    0    0 -0.00000000000E+00 -0.00000000000E+00 -0.45593999997E+02  0.45594000000E+02  0.51100000000E-03 0. -1.
         23    2    1    2    0    0 -0.35527136788E-14  0.00000000000E+00  0.00000000000E+00  0.91188000000E+02  0.91188000000E+02 0.  0.
    9900012    2    3    3    0    0  0.23714296694E+02  0.12727052008E+02 -0.25128361989E+02  0.54367078002E+02  0.39999985922E+02 0.  0.
        -12    1    3    3    0    0 -0.23714296694E+02 -0.12727052008E+02  0.25128361989E+02  0.36820921998E+02  0.00000000000E+00 0.  1.
         11    1    4    4    0    0  0.18227496553E+02  0.24875969597E+01 -0.52670593007E+01  0.19135612955E+02  0.51100000000E-03 0. -1.
        -11    1    4    4    0    0  0.16126487791E+02  0.87748812696E+01 -0.12607865657E+02  0.22271516034E+02  0.51100000000E-03 0.  1.
        -12    1    4    4    0    0 -0.10639687650E+02  0.14645737787E+01 -0.72534370316E+01  0.12959949013E+02  0.00000000000E+00 0.  1.
</event>
<event>
 8    1  0.1229038E-006  0.9118800E+02  0.7816164E-02  0.1184000E+00
        -11   -1    0    0    0    0  0.00000000000E+00  0.00000000000E+00  0.45593999997E+02  0.45594000000E+02  0.51100000000E-03 0. -1.
         11   -1    0    0    0    0 -0.00000000000E+00 -0.00000000000E+00 -0.45593999997E+02  0.45594000000E+02  0.51100000000E-03 0.  1.
         23    2    1    2    0    0  0.00000000000E+00  0.77715611724E-15 -0.88817841970E-15  0.91188000000E+02  0.91188000000E+02 0.  0.
    9900012    2    3    3    0    0  0.35947153349E+02 -0.72753509260E+00  0.79403879325E+01  0.54367124104E+02  0.40000091019E+02 0.  0.
        -12    1    3    3    0    0 -0.35947153349E+02  0.72753509260E+00 -0.79403879325E+01  0.36820875896E+02  0.00000000000E+00 0.  1.
         11    1    4    4    0    0  0.12035064541E+02 -0.79606907154E+00  0.45933989333E+01  0.12906425473E+02  0.51100000000E-03 0. -1.
        -11    1    4    4    0    0  0.24780643846E+02 -0.47219963613E+01  0.14637199571E+02  0.29165479091E+02  0.51100000000E-03 0.  1.
        -12    1    4    4    0    0 -0.86855503682E+00  0.47905303402E+01 -0.11290210572E+02  0.12295219540E+02  0.00000000000E+00 0.  1.
</event>
<event>
 8    1  0.1229038E-006  0.9118800E+02  0.7816164E-02  0.1184000E+00
        -11   -1    0    0    0    0  0.00000000000E+00  0.00000000000E+00  0.45593999997E+02  0.45594000000E+02  0.51100000000E-03 0. -1.
         11   -1    0    0    0    0 -0.00000000000E+00 -0.00000000000E+00 -0.45593999997E+02  0.45594000000E+02  0.51100000000E-03 0.  1.
         23    2    1    2    0    0  0.99920072216E-15  0.00000000000E+00 -0.35527136788E-14  0.91188000000E+02  0.91188000000E+02 0.  0.
    9900012    2    3    3    0    0 -0.85595025486E+00  0.25620871080E+02  0.26431393585E+02  0.54367078602E+02  0.39999987289E+02 0.  0.
        -12    1    3    3    0    0  0.85595025486E+00 -0.25620871080E+02 -0.26431393585E+02  0.36820921398E+02  0.00000000000E+00 0.  1.
         11    1    4    4    0    0 -0.22928084676E+01  0.16832590533E+02  0.90873009606E+01  0.19265827616E+02  0.51100000000E-03 0. -1.
        -11    1    4    4    0    0 -0.10461191642E+02  0.86527258758E+01 -0.57869674548E+00  0.13588270156E+02  0.51100000000E-03 0.  1.
         12    1    4    4    0    0  0.11898049854E+02  0.13555467138E+00  0.17922789370E+02  0.21512980830E+02  0.00000000000E+00 0. -1.
</event>
<event>
 8    1  0.1229038E-006  0.9118800E+02  0.7816164E-02  0.1184000E+00
        -11   -1    0    0    0    0  0.00000000000E+00  0.00000000000E+00  0.45593999997E+02  0.45594000000E+02  0.51100000000E-03 0. -1.
         11   -1    0    0    0    0 -0.00000000000E+00 -0.00000000000E+00 -0.45593999997E+02  0.45594000000E+02  0.51100000000E-03 0.  1.
         23    2    1    2    0    0  0.00000000000E+00  0.66613381478E-15  0.88817841970E-15  0.91188000000E+02  0.91188000000E+02 0.  0.
    9900012    2    3    3    0    0  0.36060034446E+02  0.82600389024E+00 -0.74007244387E+01  0.54367094404E+02  0.40000023314E+02 0.  0.
         12    1    3    3    0    0 -0.36060034446E+02 -0.82600389024E+00  0.74007244387E+01  0.36820905596E+02  0.00000000000E+00 0. -1.
         11    1    4    4    0    0 -0.48117131870E+01 -0.97728516217E+00 -0.34330761766E+01  0.59911336471E+01  0.51100000000E-03 0. -1.
        -11    1    4    4    0    0  0.23244407068E+02  0.13047690683E+02  0.17087407892E+01  0.26710756025E+02  0.51100000000E-03 0.  1.
         12    1    4    4    0    0  0.17627340565E+02 -0.11244401631E+02 -0.56763890514E+01  0.21665204732E+02  0.00000000000E+00 0. -1.
</event>
<event>
 8    1  0.1229038E-006  0.9118800E+02  0.7816164E-02  0.1184000E+00
        -11   -1    0    0    0    0  0.00000000000E+00  0.00000000000E+00  0.45593999997E+02  0.45594000000E+02  0.51100000000E-03 0.  1.
         11   -1    0    0    0    0 -0.00000000000E+00 -0.00000000000E+00 -0.45593999997E+02  0.45594000000E+02  0.51100000000E-03 0. -1.
         23    2    1    2    0    0  0.00000000000E+00  0.00000000000E+00  0.00000000000E+00  0.91188000000E+02  0.91188000000E+02 0.  0.
    9900012    2    3    3    0    0  0.20713479212E+02 -0.40957118544E+01 -0.30165496056E+02  0.54367078922E+02  0.39999988020E+02 0.  0.
        -12    1    3    3    0    0 -0.20713479212E+02  0.40957118544E+01  0.30165496056E+02  0.36820921078E+02  0.00000000000E+00 0.  1.
         11    1    4    4    0    0  0.46100555023E+01 -0.10899714937E+02 -0.15969613862E+02  0.19876744316E+02  0.51100000000E-03 0. -1.
        -11    1    4    4    0    0 -0.24538183640E+01  0.67984225080E+01  0.42007193478E+01  0.83597737088E+01  0.51100000000E-03 0.  1.
        -12    1    4    4    0    0  0.18557242074E+02  0.55805741729E-02 -0.18396601542E+02  0.26130560898E+02  0.00000000000E+00 0.  1.
</event>
<event>
 8    1  0.1229038E-006  0.9118800E+02  0.7816164E-02  0.1184000E+00
        -11   -1    0    0    0    0  0.00000000000E+00  0.00000000000E+00  0.45593999997E+02  0.45594000000E+02  0.51100000000E-03 0. -1.
         11   -1    0    0    0    0 -0.00000000000E+00 -0.00000000000E+00 -0.45593999997E+02  0.45594000000E+02  0.51100000000E-03 0.  1.
         23    2    1    2    0    0  0.88817841970E-15 -0.35527136788E-14  0.00000000000E+00  0.91188000000E+02  0.91188000000E+02 0.  0.
    9900012    2    3    3    0    0 -0.71148351916E+01 -0.30639604984E+02  0.19140987238E+02  0.54367032253E+02  0.39999881626E+02 0.  0.
        -12    1    3    3    0    0  0.71148351916E+01  0.30639604984E+02 -0.19140987238E+02  0.36820967747E+02  0.00000000000E+00 0.  1.
         11    1    4    4    0    0 -0.43185931114E+01 -0.19293449504E+02 -0.76616449186E+01  0.21203496017E+02  0.51100000000E-03 0. -1.
        -11    1    4    4    0    0 -0.66153237414E+01 -0.11643103859E+02  0.12366604689E+02  0.18227926033E+02  0.51100000000E-03 0.  1.
        -12    1    4    4    0    0  0.38190816611E+01  0.29694837831E+00  0.14436027468E+02  0.14935610202E+02  0.00000000000E+00 0.  1.
</event>
<event>
 8    1  0.1229038E-006  0.9118800E+02  0.7816164E-02  0.1184000E+00
        -11   -1    0    0    0    0  0.00000000000E+00  0.00000000000E+00  0.45593999997E+02  0.45594000000E+02  0.51100000000E-03 0.  1.
         11   -1    0    0    0    0 -0.00000000000E+00 -0.00000000000E+00 -0.45593999997E+02  0.45594000000E+02  0.51100000000E-03 0. -1.
         23    2    1    2    0    0  0.00000000000E+00  0.17763568394E-14  0.00000000000E+00  0.91188000000E+02  0.91188000000E+02 0.  0.
    9900012    2    3    3    0    0  0.35638127953E+02  0.87542995038E+01 -0.30105433743E+01  0.54367118761E+02  0.40000078840E+02 0.  0.
        -12    1    3    3    0    0 -0.35638127953E+02 -0.87542995038E+01  0.30105433743E+01  0.36820881239E+02  0.00000000000E+00 0.  1.
         11    1    4    4    0    0  0.20623059434E+02  0.78609460342E+01 -0.45700132229E+01  0.22538635143E+02  0.51100000000E-03 0. -1.
        -11    1    4    4    0    0  0.12805562422E+02 -0.12637084442E+02 -0.29825611541E+00  0.17993534647E+02  0.51100000000E-03 0.  1.
        -12    1    4    4    0    0  0.22095060970E+01  0.13530437912E+02  0.18577259640E+01  0.13834948971E+02  0.00000000000E+00 0.  1.
</event>
<event>
 8    1  0.1229038E-006  0.9118800E+02  0.7816164E-02  0.1184000E+00
        -11   -1    0    0    0    0  0.00000000000E+00  0.00000000000E+00  0.45593999997E+02  0.45594000000E+02  0.51100000000E-03 0. -1.
         11   -1    0    0    0    0 -0.00000000000E+00 -0.00000000000E+00 -0.45593999997E+02  0.45594000000E+02  0.51100000000E-03 0.  1.
         23    2    1    2    0    0  0.00000000000E+00  0.71054273576E-14  0.00000000000E+00  0.91188000000E+02  0.91188000000E+02 0.  0.
    9900012    2    3    3    0    0  0.30191225028E+02  0.20462934838E+02 -0.50534853415E+01  0.54367089026E+02  0.40000011052E+02 0.  0.
         12    1    3    3    0    0 -0.30191225028E+02 -0.20462934838E+02  0.50534853415E+01  0.36820910974E+02  0.00000000000E+00 0. -1.
         11    1    4    4    0    0  0.79470277553E+01 -0.44178631522E+00 -0.76002942229E+01  0.11005221389E+02  0.51100000000E-03 0. -1.
        -11    1    4    4    0    0  0.14022192406E+02 -0.55152175115E+01  0.42016756032E+01  0.15642684622E+02  0.51100000000E-03 0.  1.
         12    1    4    4    0    0  0.82220048668E+01  0.26419938665E+02 -0.16548667218E+01  0.27719183014E+02  0.00000000000E+00 0. -1.
</event>
<event>
 8    1  0.1229038E-006  0.9118800E+02  0.7816164E-02  0.1184000E+00
        -11   -1    0    0    0    0  0.00000000000E+00  0.00000000000E+00  0.45593999997E+02  0.45594000000E+02  0.51100000000E-03 0.  1.
         11   -1    0    0    0    0 -0.00000000000E+00 -0.00000000000E+00 -0.45593999997E+02  0.45594000000E+02  0.51100000000E-03 0. -1.
         23    2    1    2    0    0 -0.35527136788E-14 -0.35527136788E-14 -0.35527136788E-14  0.91188000000E+02  0.91188000000E+02 0.  0.
    9900012    2    3    3    0    0  0.13931462691E+02  0.19745332271E+02 -0.27781538339E+02  0.54367113649E+02  0.40000067185E+02 0.  0.
        -12    1    3    3    0    0 -0.13931462691E+02 -0.19745332271E+02  0.27781538339E+02  0.36820886351E+02  0.00000000000E+00 0.  1.
         11    1    4    4    0    0  0.10621295356E+02  0.30889303315E+01 -0.71112998199E+01  0.13150056693E+02  0.51100000000E-03 0. -1.
        -11    1    4    4    0    0 -0.54027433724E+01  0.22399795424E+02 -0.71260062224E+01  0.24118881316E+02  0.51100000000E-03 0.  1.
         12    1    4    4    0    0  0.87129107076E+01 -0.57433934843E+01 -0.13544232297E+02  0.17098175640E+02  0.00000000000E+00 0. -1.
</event>
<event>
 8    1  0.1229038E-006  0.9118800E+02  0.7816164E-02  0.1184000E+00
        -11   -1    0    0    0    0  0.00000000000E+00  0.00000000000E+00  0.45593999997E+02  0.45594000000E+02  0.51100000000E-03 0. -1.
         11   -1    0    0    0    0 -0.00000000000E+00 -0.00000000000E+00 -0.45593999997E+02  0.45594000000E+02  0.51100000000E-03 0.  1.
         23    2    1    2    0    0 -0.35527136788E-14  0.00000000000E+00  0.00000000000E+00  0.91188000000E+02  0.91188000000E+02 0.  0.
    9900012    2    3    3    0    0  0.30164518863E+02  0.60001555138E+01 -0.20245490023E+02  0.54367082973E+02  0.39999997253E+02 0.  0.
         12    1    3    3    0    0 -0.30164518863E+02 -0.60001555138E+01  0.20245490023E+02  0.36820917027E+02  0.00000000000E+00 0. -1.
         11    1    4    4    0    0  0.17795006216E+02  0.18750268663E+02 -0.93784848613E+01  0.27498923610E+02  0.51100000000E-03 0. -1.
        -11    1    4    4    0    0  0.13013658816E+02 -0.64347867066E+01 -0.13659065195E+02  0.19933184843E+02  0.51100000000E-03 0.  1.
         12    1    4    4    0    0 -0.64414616806E+00 -0.63153264421E+01  0.27920600339E+01  0.69349745197E+01  0.00000000000E+00 0. -1.
</event>
<event>
 8    1  0.1229038E-006  0.9118800E+02  0.7816164E-02  0.1184000E+00
        -11   -1    0    0    0    0  0.00000000000E+00  0.00000000000E+00  0.45593999997E+02  0.45594000000E+02  0.51100000000E-03 0.  1.
         11   -1    0    0    0    0 -0.00000000000E+00 -0.00000000000E+00 -0.45593999997E+02  0.45594000000E+02  0.51100000000E-03 0. -1.
         23    2    1    2    0    0  0.00000000000E+00  0.00000000000E+00  0.00000000000E+00  0.91188000000E+02  0.91188000000E+02 0.  0.
    9900012    2    3    3    0    0  0.14882634261E+02  0.20724229847E+02 -0.26547960393E+02  0.54367072440E+02  0.39999973243E+02 0.  0.
        -12    1    3    3    0    0 -0.14882634261E+02 -0.20724229847E+02  0.26547960393E+02  0.36820927560E+02  0.00000000000E+00 0.  1.
         11    1    4    4    0    0 -0.21798771829E+01  0.71560156177E+01 -0.14245223235E+02  0.16089959892E+02  0.51100000000E-03 0. -1.
        -11    1    4    4    0    0  0.15409530443E+02 -0.10163814130E+01 -0.16902772538E+02  0.22895204288E+02  0.51100000000E-03 0.  1.
        -12    1    4    4    0    0  0.16529810012E+01  0.14584595642E+02  0.46000353798E+01  0.15381908261E+02  0.00000000000E+00 0.  1.
</event>
<event>
 8    1  0.1229038E-006  0.9118800E+02  0.7816164E-02  0.1184000E+00
        -11   -1    0    0    0    0  0.00000000000E+00  0.00000000000E+00  0.45593999997E+02  0.45594000000E+02  0.51100000000E-03 0.  1.
         11   -1    0    0    0    0 -0.00000000000E+00 -0.00000000000E+00 -0.45593999997E+02  0.45594000000E+02  0.51100000000E-03 0. -1.
         23    2    1    2    0    0  0.00000000000E+00  0.00000000000E+00  0.35527136788E-14  0.91188000000E+02  0.91188000000E+02 0.  0.
    9900012    2    3    3    0    0 -0.33227182281E+02  0.36236391368E+01 -0.15446900525E+02  0.54367039411E+02  0.39999897944E+02 0.  0.
        -12    1    3    3    0    0  0.33227182281E+02 -0.36236391368E+01  0.15446900525E+02  0.36820960589E+02  0.00000000000E+00 0.  1.
         11    1    4    4    0    0 -0.55928098857E+01  0.31443354206E+01  0.76269003683E+01  0.99667435577E+01  0.51100000000E-03 0.  1.
        -11    1    4    4    0    0 -0.29472001151E+01 -0.31694727829E+00  0.57330107992E+01  0.64539799489E+01  0.51100000000E-03 0. -1.
         12    1    4    4    0    0 -0.24687172280E+02  0.79625099456E+00 -0.28806811692E+02  0.37946315904E+02  0.00000000000E+00 0. -1.
</event>
<event>
 8    1  0.1229038E-006  0.9118800E+02  0.7816164E-02  0.1184000E+00
        -11   -1    0    0    0    0  0.00000000000E+00  0.00000000000E+00  0.45593999997E+02  0.45594000000E+02  0.51100000000E-03 0.  1.
         11   -1    0    0    0    0 -0.00000000000E+00 -0.00000000000E+00 -0.45593999997E+02  0.45594000000E+02  0.51100000000E-03 0. -1.
         23    2    1    2    0    0  0.17763568394E-14 -0.35527136788E-14  0.35527136788E-14  0.91188000000E+02  0.91188000000E+02 0.  0.
    9900012    2    3    3    0    0 -0.10400896836E+02  0.26387890588E+02 -0.23479377612E+02  0.54367073916E+02  0.39999976606E+02 0.  0.
        -12    1    3    3    0    0  0.10400896836E+02 -0.26387890588E+02  0.23479377612E+02  0.36820926084E+02  0.00000000000E+00 0.  1.
         11    1    4    4    0    0 -0.82028537048E+00  0.22939052641E+02 -0.27999911847E+02  0.36205912056E+02  0.51100000000E-03 0. -1.
        -11    1    4    4    0    0 -0.87543233841E-01  0.22680244421E+01  0.77413991097E+01  0.80672708597E+01  0.51100000000E-03 0.  1.
         12    1    4    4    0    0 -0.94930682313E+01  0.11808135049E+01 -0.32208648747E+01  0.10093891000E+02  0.00000000000E+00 0. -1.
</event>
<event>
 8    1  0.1229038E-006  0.9118800E+02  0.7816164E-02  0.1184000E+00
        -11   -1    0    0    0    0  0.00000000000E+00  0.00000000000E+00  0.45593999997E+02  0.45594000000E+02  0.51100000000E-03 0. -1.
         11   -1    0    0    0    0 -0.00000000000E+00 -0.00000000000E+00 -0.45593999997E+02  0.45594000000E+02  0.51100000000E-03 0.  1.
         23    2    1    2    0    0  0.00000000000E+00 -0.17763568394E-14  0.35527136788E-14  0.91188000000E+02  0.91188000000E+02 0.  0.
    9900012    2    3    3    0    0  0.30620021602E+02  0.11191323322E+02 -0.17115753564E+02  0.54367075777E+02  0.39999980848E+02 0.  0.
        -12    1    3    3    0    0 -0.30620021602E+02 -0.11191323322E+02  0.17115753564E+02  0.36820924223E+02  0.00000000000E+00 0.  1.
         11    1    4    4    0    0  0.61277382258E+01 -0.52781208650E+01 -0.18855843372E+01  0.83044063113E+01  0.51100000000E-03 0. -1.
        -11    1    4    4    0    0 -0.69228858143E+01 -0.85678513531E+00  0.27048026155E+00  0.69809446781E+01  0.51100000000E-03 0.  1.
         12    1    4    4    0    0  0.31415169190E+02  0.17326229322E+02 -0.15500649489E+02  0.39081724787E+02  0.00000000000E+00 0. -1.
</event>
<event>
 8    1  0.1229038E-006  0.9118800E+02  0.7816164E-02  0.1184000E+00
        -11   -1    0    0    0    0  0.00000000000E+00  0.00000000000E+00  0.45593999997E+02  0.45594000000E+02  0.51100000000E-03 0.  1.
         11   -1    0    0    0    0 -0.00000000000E+00 -0.00000000000E+00 -0.45593999997E+02  0.45594000000E+02  0.51100000000E-03 0. -1.
         23    2    1    2    0    0 -0.17763568394E-14 -0.17763568394E-14 -0.71054273576E-14  0.91188000000E+02  0.91188000000E+02 0.  0.
    9900012    2    3    3    0    0  0.14151088079E+02 -0.14967239910E+02 -0.30520617755E+02  0.54367086479E+02  0.40000005246E+02 0.  0.
        -12    1    3    3    0    0 -0.14151088079E+02  0.14967239910E+02  0.30520617755E+02  0.36820913521E+02  0.00000000000E+00 0.  1.
         11    1    4    4    0    0  0.39840062340E+01 -0.18354984696E+02 -0.17509996080E+02  0.25678351424E+02  0.51100000000E-03 0. -1.
        -11    1    4    4    0    0  0.45146864114E+01  0.11843490249E+02 -0.66394122705E+00  0.12692181565E+02  0.51100000000E-03 0.  1.
        -12    1    4    4    0    0  0.56523954334E+01 -0.84557454630E+01 -0.12346680448E+02  0.15996553490E+02  0.00000000000E+00 0.  1.
</event>
<event>
 8    1  0.1229038E-006  0.9118800E+02  0.7816164E-02  0.1184000E+00
        -11   -1    0    0    0    0  0.00000000000E+00  0.00000000000E+00  0.45593999997E+02  0.45594000000E+02  0.51100000000E-03 0.  1.
         11   -1    0    0    0    0 -0.00000000000E+00 -0.00000000000E+00 -0.45593999997E+02  0.45594000000E+02  0.51100000000E-03 0. -1.
         23    2    1    2    0    0  0.71054273576E-14 -0.12767564783E-14  0.17763568394E-14  0.91188000000E+02  0.91188000000E+02 0.  0.
    9900012    2    3    3    0    0  0.33470268932E+02  0.42890310397E+00  0.15340756012E+02  0.54367059555E+02  0.39999943868E+02 0.  0.
         12    1    3    3    0    0 -0.33470268932E+02 -0.42890310397E+00 -0.15340756012E+02  0.36820940445E+02  0.00000000000E+00 0. -1.
         11    1    4    4    0    0  0.61877168825E+01 -0.13196034922E+02  0.66401819680E+00  0.14589862861E+02  0.51100000000E-03 0. -1.
        -11    1    4    4    0    0  0.34180083963E+01  0.12476183852E+02  0.35063151303E+01  0.13402693422E+02  0.51100000000E-03 0.  1.
        -12    1    4    4    0    0  0.23864543653E+02  0.11487541736E+01  0.11170422685E+02  0.26374503272E+02  0.00000000000E+00 0.  1.
</event>
<event>
 8    1  0.1229038E-006  0.9118800E+02  0.7816164E-02  0.1184000E+00
        -11   -1    0    0    0    0  0.00000000000E+00  0.00000000000E+00  0.45593999997E+02  0.45594000000E+02  0.51100000000E-03 0. -1.
         11   -1    0    0    0    0 -0.00000000000E+00 -0.00000000000E+00 -0.45593999997E+02  0.45594000000E+02  0.51100000000E-03 0.  1.
         23    2    1    2    0    0  0.00000000000E+00  0.35527136788E-14  0.00000000000E+00  0.91188000000E+02  0.91188000000E+02 0.  0.
    9900012    2    3    3    0    0 -0.25174725589E+02  0.19687164548E+02  0.18287401165E+02  0.54367077988E+02  0.39999985889E+02 0.  0.
        -12    1    3    3    0    0  0.25174725589E+02 -0.19687164548E+02 -0.18287401165E+02  0.36820922012E+02  0.00000000000E+00 0.  1.
         11    1    4    4    0    0 -0.42769621318E+01 -0.60714287359E+01 -0.27841432123E+01  0.79313369403E+01  0.51100000000E-03 0. -1.
        -11    1    4    4    0    0 -0.16635015543E+02  0.15031083091E+01  0.74055214026E+01  0.18270873657E+02  0.51100000000E-03 0.  1.
         12    1    4    4    0    0 -0.42627479148E+01  0.24255484975E+02  0.13666022975E+02  0.28164867390E+02  0.00000000000E+00 0. -1.
</event>
<event>
 8    1  0.1229038E-006  0.9118800E+02  0.7816164E-02  0.1184000E+00
        -11   -1    0    0    0    0  0.00000000000E+00  0.00000000000E+00  0.45593999997E+02  0.45594000000E+02  0.51100000000E-03 0.  1.
         11   -1    0    0    0    0 -0.00000000000E+00 -0.00000000000E+00 -0.45593999997E+02  0.45594000000E+02  0.51100000000E-03 0. -1.
         23    2    1    2    0    0  0.00000000000E+00  0.88817841970E-15  0.00000000000E+00  0.91188000000E+02  0.91188000000E+02 0.  0.
    9900012    2    3    3    0    0  0.17180243913E+02 -0.61725187716E+01 -0.31976845393E+02  0.54367090041E+02  0.40000013368E+02 0.  0.
        -12    1    3    3    0    0 -0.17180243913E+02  0.61725187716E+01  0.31976845393E+02  0.36820909959E+02  0.00000000000E+00 0.  1.
         11    1    4    4    0    0 -0.27523574743E+01 -0.49679409765E+01 -0.12880073128E+02  0.14076654192E+02  0.51100000000E-03 0. -1.
        -11    1    4    4    0    0  0.15405863232E+02  0.13243948086E+02 -0.10269740295E+02  0.22764233983E+02  0.51100000000E-03 0.  1.
         12    1    4    4    0    0  0.45267381554E+01 -0.14448525881E+02 -0.88270319698E+01  0.17526201866E+02  0.00000000000E+00 0. -1.
</event>
<event>
 8    1  0.1229038E-006  0.9118800E+02  0.7816164E-02  0.1184000E+00
        -11   -1    0    0    0    0  0.00000000000E+00  0.00000000000E+00  0.45593999997E+02  0.45594000000E+02  0.51100000000E-03 0. -1.
         11   -1    0    0    0    0 -0.00000000000E+00 -0.00000000000E+00 -0.45593999997E+02  0.45594000000E+02  0.51100000000E-03 0.  1.
         23    2    1    2    0    0  0.00000000000E+00  0.17763568394E-14 -0.44408920985E-15  0.91188000000E+02  0.91188000000E+02 0.  0.
    9900012    2    3    3    0    0 -0.33689520108E+02  0.14541719130E+02  0.30552504028E+01  0.54367083181E+02  0.39999997727E+02 0.  0.
         12    1    3    3    0    0  0.33689520108E+02 -0.14541719130E+02 -0.30552504028E+01  0.36820916819E+02  0.00000000000E+00 0. -1.
         11    1    4    4    0    0 -0.16988223012E+02  0.18896876141E+02  0.11602296499E+01  0.25436937357E+02  0.51100000000E-03 0. -1.
        -11    1    4    4    0    0 -0.17866049126E+02 -0.67984799081E+01 -0.64361885956E+01  0.20170264359E+02  0.51100000000E-03 0.  1.
         12    1    4    4    0    0  0.11647520295E+01  0.24433228975E+01  0.83312093485E+01  0.87598814650E+01  0.00000000000E+00 0. -1.
</event>
<event>
 8    1  0.1229038E-006  0.9118800E+02  0.7816164E-02  0.1184000E+00
        -11   -1    0    0    0    0  0.00000000000E+00  0.00000000000E+00  0.45593999997E+02  0.45594000000E+02  0.51100000000E-03 0.  1.
         11   -1    0    0    0    0 -0.00000000000E+00 -0.00000000000E+00 -0.45593999997E+02  0.45594000000E+02  0.51100000000E-03 0. -1.
         23    2    1    2    0    0  0.00000000000E+00  0.00000000000E+00  0.00000000000E+00  0.91188000000E+02  0.91188000000E+02 0.  0.
    9900012    2    3    3    0    0  0.21770635524E+02  0.21004223732E+02 -0.20991419208E+02  0.54367113725E+02  0.40000067360E+02 0.  0.
         12    1    3    3    0    0 -0.21770635524E+02 -0.21004223732E+02  0.20991419208E+02  0.36820886275E+02  0.00000000000E+00 0. -1.
         11    1    4    4    0    0  0.39377761196E+01 -0.49571361867E+01 -0.14635124777E+01  0.64977803114E+01  0.51100000000E-03 0. -1.
        -11    1    4    4    0    0  0.10750028584E+02  0.29747064545E+02 -0.23011823130E+02  0.39115150104E+02  0.51100000000E-03 0.  1.
        -12    1    4    4    0    0  0.70828308199E+01 -0.37857046268E+01  0.34839163999E+01  0.87541833101E+01  0.00000000000E+00 0.  1.
</event>
<event>
 8    1  0.1229038E-006  0.9118800E+02  0.7816164E-02  0.1184000E+00
        -11   -1    0    0    0    0  0.00000000000E+00  0.00000000000E+00  0.45593999997E+02  0.45594000000E+02  0.51100000000E-03 0. -1.
         11   -1    0    0    0    0 -0.00000000000E+00 -0.00000000000E+00 -0.45593999997E+02  0.45594000000E+02  0.51100000000E-03 0.  1.
         23    2    1    2    0    0 -0.35527136788E-14  0.00000000000E+00 -0.26645352591E-14  0.91188000000E+02  0.91188000000E+02 0.  0.
    9900012    2    3    3    0    0 -0.26735215457E+02 -0.24045105903E+02 -0.79271526527E+01  0.54367100872E+02  0.40000038057E+02 0.  0.
         12    1    3    3    0    0  0.26735215457E+02  0.24045105903E+02  0.79271526527E+01  0.36820899128E+02  0.00000000000E+00 0. -1.
         11    1    4    4    0    0 -0.55625529338E+01 -0.23955842061E+01  0.71268036932E+01  0.93526547019E+01  0.51100000000E-03 0.  1.
        -11    1    4    4    0    0 -0.12265612195E+01 -0.19458465971E+02  0.68979203021E+00  0.19509284038E+02  0.51100000000E-03 0. -1.
         12    1    4    4    0    0 -0.19946101304E+02 -0.21910557256E+01 -0.15743748376E+02  0.25505162132E+02  0.00000000000E+00 0. -1.
</event>
<event>
 8    1  0.1229038E-006  0.9118800E+02  0.7816164E-02  0.1184000E+00
        -11   -1    0    0    0    0  0.00000000000E+00  0.00000000000E+00  0.45593999997E+02  0.45594000000E+02  0.51100000000E-03 0.  1.
         11   -1    0    0    0    0 -0.00000000000E+00 -0.00000000000E+00 -0.45593999997E+02  0.45594000000E+02  0.51100000000E-03 0. -1.
         23    2    1    2    0    0  0.00000000000E+00  0.88817841970E-15  0.00000000000E+00  0.91188000000E+02  0.91188000000E+02 0.  0.
    9900012    2    3    3    0    0 -0.31642450983E+02 -0.34492886568E+01 -0.18510457104E+02  0.54367091285E+02  0.40000016201E+02 0.  0.
        -12    1    3    3    0    0  0.31642450983E+02  0.34492886568E+01  0.18510457104E+02  0.36820908715E+02  0.00000000000E+00 0.  1.
         11    1    4    4    0    0 -0.15330123185E+02 -0.31151311672E+01  0.60105302690E+01  0.16758376813E+02  0.51100000000E-03 0. -1.
        -11    1    4    4    0    0 -0.55050714363E+00  0.89910733440E+01 -0.13516197929E+02  0.16242846571E+02  0.51100000000E-03 0.  1.
        -12    1    4    4    0    0 -0.15761820655E+02 -0.93252308336E+01 -0.11004789443E+02  0.21365867900E+02  0.00000000000E+00 0.  1.
</event>
<event>
 8    1  0.1229038E-006  0.9118800E+02  0.7816164E-02  0.1184000E+00
        -11   -1    0    0    0    0  0.00000000000E+00  0.00000000000E+00  0.45593999997E+02  0.45594000000E+02  0.51100000000E-03 0. -1.
         11   -1    0    0    0    0 -0.00000000000E+00 -0.00000000000E+00 -0.45593999997E+02  0.45594000000E+02  0.51100000000E-03 0.  1.
         23    2    1    2    0    0 -0.55511151231E-15  0.17763568394E-14  0.00000000000E+00  0.91188000000E+02  0.91188000000E+02 0.  0.
    9900012    2    3    3    0    0 -0.21430393880E+00 -0.13462064982E+02 -0.34271074689E+02  0.54367086376E+02  0.40000005012E+02 0.  0.
         12    1    3    3    0    0  0.21430393880E+00  0.13462064982E+02  0.34271074689E+02  0.36820913624E+02  0.00000000000E+00 0. -1.
         11    1    4    4    0    0 -0.82990868426E+01 -0.74266895797E+01 -0.24478547398E+01  0.11402743250E+02  0.51100000000E-03 0. -1.
        -11    1    4    4    0    0 -0.43384889972E+01 -0.14736670018E+00 -0.28489022544E+02  0.28817852271E+02  0.51100000000E-03 0.  1.
        -12    1    4    4    0    0  0.12423271901E+02 -0.58880087024E+01 -0.33341974047E+01  0.14146490856E+02  0.00000000000E+00 0.  1.
</event>
<event>
 8    1  0.1229038E-006  0.9118800E+02  0.7816164E-02  0.1184000E+00
        -11   -1    0    0    0    0  0.00000000000E+00  0.00000000000E+00  0.45593999997E+02  0.45594000000E+02  0.51100000000E-03 0.  1.
         11   -1    0    0    0    0 -0.00000000000E+00 -0.00000000000E+00 -0.45593999997E+02  0.45594000000E+02  0.51100000000E-03 0. -1.
         23    2    1    2    0    0  0.00000000000E+00  0.00000000000E+00  0.00000000000E+00  0.91188000000E+02  0.91188000000E+02 0.  0.
    9900012    2    3    3    0    0 -0.16458038041E+02  0.49822916871E+01  0.32558992453E+02  0.54367105984E+02  0.40000049711E+02 0.  0.
         12    1    3    3    0    0  0.16458038041E+02 -0.49822916871E+01 -0.32558992453E+02  0.36820894016E+02  0.00000000000E+00 0. -1.
         11    1    4    4    0    0  0.49415527012E+01  0.57248052489E+01 -0.21271198446E+01  0.78560153596E+01  0.51100000000E-03 0. -1.
        -11    1    4    4    0    0 -0.25422711903E+02  0.11391231574E+01  0.33192476417E+02  0.41825259987E+02  0.51100000000E-03 0.  1.
        -12    1    4    4    0    0  0.40231211607E+01 -0.18816367191E+01  0.14936358807E+01  0.46858306372E+01  0.00000000000E+00 0.  1.
</event>
<event>
 8    1  0.1229038E-006  0.9118800E+02  0.7816164E-02  0.1184000E+00
        -11   -1    0    0    0    0  0.00000000000E+00  0.00000000000E+00  0.45593999997E+02  0.45594000000E+02  0.51100000000E-03 0. -1.
         11   -1    0    0    0    0 -0.00000000000E+00 -0.00000000000E+00 -0.45593999997E+02  0.45594000000E+02  0.51100000000E-03 0.  1.
         23    2    1    2    0    0 -0.35527136788E-14 -0.17763568394E-14  0.35527136788E-14  0.91188000000E+02  0.91188000000E+02 0.  0.
    9900012    2    3    3    0    0  0.24362858983E+02  0.14915333548E+02 -0.23232815638E+02  0.54367084814E+02  0.40000001451E+02 0.  0.
         12    1    3    3    0    0 -0.24362858983E+02 -0.14915333548E+02  0.23232815638E+02  0.36820915186E+02  0.00000000000E+00 0. -1.
         11    1    4    4    0    0 -0.34365230223E+01  0.14776694992E+02 -0.11090326643E+02  0.18792438657E+02  0.51100000000E-03 0. -1.
        -11    1    4    4    0    0 -0.13637487827E+01 -0.15602474294E+01  0.22075549521E+01  0.30277849843E+01  0.51100000000E-03 0.  1.
        -12    1    4    4    0    0  0.29163130788E+02  0.16988859854E+01 -0.14350043947E+02  0.32546861173E+02  0.00000000000E+00 0.  1.
</event>
<event>
 8    1  0.1229038E-006  0.9118800E+02  0.7816164E-02  0.1184000E+00
        -11   -1    0    0    0    0  0.00000000000E+00  0.00000000000E+00  0.45593999997E+02  0.45594000000E+02  0.51100000000E-03 0.  1.
         11   -1    0    0    0    0 -0.00000000000E+00 -0.00000000000E+00 -0.45593999997E+02  0.45594000000E+02  0.51100000000E-03 0. -1.
         23    2    1    2    0    0  0.00000000000E+00 -0.35527136788E-14  0.00000000000E+00  0.91188000000E+02  0.91188000000E+02 0.  0.
    9900012    2    3    3    0    0 -0.22694245541E+02  0.23271591262E+02  0.17296932190E+02  0.54367087413E+02  0.40000007375E+02 0.  0.
         12    1    3    3    0    0  0.22694245541E+02 -0.23271591262E+02 -0.17296932190E+02  0.36820912587E+02  0.00000000000E+00 0. -1.
         11    1    4    4    0    0  0.92863521165E+01  0.34472348071E+01  0.54963648047E+00  0.99207794033E+01  0.51100000000E-03 0. -1.
        -11    1    4    4    0    0 -0.16608560185E+02  0.38858994307E+01  0.14128380944E+02  0.22148490561E+02  0.51100000000E-03 0.  1.
        -12    1    4    4    0    0 -0.15372037473E+02  0.15938457024E+02  0.26189147661E+01  0.22297817448E+02  0.00000000000E+00 0.  1.
</event>
<event>
 8    1  0.1229038E-006  0.9118800E+02  0.7816164E-02  0.1184000E+00
        -11   -1    0    0    0    0  0.00000000000E+00  0.00000000000E+00  0.45593999997E+02  0.45594000000E+02  0.51100000000E-03 0. -1.
         11   -1    0    0    0    0 -0.00000000000E+00 -0.00000000000E+00 -0.45593999997E+02  0.45594000000E+02  0.51100000000E-03 0.  1.
         23    2    1    2    0    0 -0.22204460493E-15  0.00000000000E+00  0.00000000000E+00  0.91188000000E+02  0.91188000000E+02 0.  0.
    9900012    2    3    3    0    0  0.39946160019E+00  0.36546643089E+02 -0.44679930788E+01  0.54367086747E+02  0.40000005857E+02 0.  0.
         12    1    3    3    0    0 -0.39946160019E+00 -0.36546643089E+02  0.44679930788E+01  0.36820913253E+02  0.00000000000E+00 0. -1.
         11    1    4    4    0    0 -0.21838811678E+01 -0.38970101283E+01  0.49039739746E+01  0.66336253964E+01  0.51100000000E-03 0. -1.
        -11    1    4    4    0    0 -0.97599629415E+01  0.20933854169E+02 -0.81346988907E+00  0.23111574168E+02  0.51100000000E-03 0.  1.
        -12    1    4    4    0    0  0.12343305709E+02  0.19509799048E+02 -0.85584971643E+01  0.24621887183E+02  0.00000000000E+00 0.  1.
</event>
<event>
 8    1  0.1229038E-006  0.9118800E+02  0.7816164E-02  0.1184000E+00
        -11   -1    0    0    0    0  0.00000000000E+00  0.00000000000E+00  0.45593999997E+02  0.45594000000E+02  0.51100000000E-03 0. -1.
         11   -1    0    0    0    0 -0.00000000000E+00 -0.00000000000E+00 -0.45593999997E+02  0.45594000000E+02  0.51100000000E-03 0.  1.
         23    2    1    2    0    0  0.35527136788E-14  0.35527136788E-14  0.00000000000E+00  0.91188000000E+02  0.91188000000E+02 0.  0.
    9900012    2    3    3    0    0  0.25889509540E+02  0.22593513615E+02  0.13230500002E+02  0.54367086215E+02  0.40000004643E+02 0.  0.
        -12    1    3    3    0    0 -0.25889509540E+02 -0.22593513615E+02 -0.13230500002E+02  0.36820913785E+02  0.00000000000E+00 0.  1.
         11    1    4    4    0    0  0.91522275221E+01 -0.10060117507E+01  0.10980845502E+02  0.14330188291E+02  0.51100000000E-03 0. -1.
        -11    1    4    4    0    0  0.11873449846E+02 -0.75259325223E+00 -0.66833545406E+01  0.13645967757E+02  0.51100000000E-03 0.  1.
        -12    1    4    4    0    0  0.48638321728E+01  0.24352118618E+02  0.89330090407E+01  0.26390930167E+02  0.00000000000E+00 0.  1.
</event>
<event>
 8    1  0.1229038E-006  0.9118800E+02  0.7816164E-02  0.1184000E+00
        -11   -1    0    0    0    0  0.00000000000E+00  0.00000000000E+00  0.45593999997E+02  0.45594000000E+02  0.51100000000E-03 0.  1.
         11   -1    0    0    0    0 -0.00000000000E+00 -0.00000000000E+00 -0.45593999997E+02  0.45594000000E+02  0.51100000000E-03 0. -1.
         23    2    1    2    0    0  0.88817841970E-15  0.00000000000E+00  0.35527136788E-14  0.91188000000E+02  0.91188000000E+02 0.  0.
    9900012    2    3    3    0    0 -0.52980551638E+01  0.35349236136E+02 -0.88398698934E+01  0.54367065959E+02  0.39999958467E+02 0.  0.
         12    1    3    3    0    0  0.52980551638E+01 -0.35349236136E+02  0.88398698934E+01  0.36820934041E+02  0.00000000000E+00 0. -1.
         11    1    4    4    0    0  0.91804602706E+01  0.58607128985E+01 -0.31526065548E+01  0.11338771309E+02  0.51100000000E-03 0. -1.
        -11    1    4    4    0    0 -0.41009343731E+01  0.22467755574E+02  0.82534703760E+01  0.24284511047E+02  0.51100000000E-03 0.  1.
        -12    1    4    4    0    0 -0.10377581061E+02  0.70207676633E+01 -0.13940733715E+02  0.18743783603E+02  0.00000000000E+00 0.  1.
</event>
<event>
 8    1  0.1229038E-006  0.9118800E+02  0.7816164E-02  0.1184000E+00
        -11   -1    0    0    0    0  0.00000000000E+00  0.00000000000E+00  0.45593999997E+02  0.45594000000E+02  0.51100000000E-03 0. -1.
         11   -1    0    0    0    0 -0.00000000000E+00 -0.00000000000E+00 -0.45593999997E+02  0.45594000000E+02  0.51100000000E-03 0.  1.
         23    2    1    2    0    0  0.00000000000E+00  0.44408920985E-15 -0.17763568394E-14  0.91188000000E+02  0.91188000000E+02 0.  0.
    9900012    2    3    3    0    0  0.35609539050E+02  0.31442062586E+01 -0.88235153224E+01  0.54367085740E+02  0.40000003561E+02 0.  0.
         12    1    3    3    0    0 -0.35609539050E+02 -0.31442062586E+01  0.88235153224E+01  0.36820914260E+02  0.00000000000E+00 0. -1.
         11    1    4    4    0    0  0.23293905679E+01  0.79858585977E+00  0.57780268073E+01  0.62808752448E+01  0.51100000000E-03 0. -1.
        -11    1    4    4    0    0  0.31876453712E+02  0.86346402357E+00 -0.23080811689E+02  0.39364676296E+02  0.51100000000E-03 0.  1.
        -12    1    4    4    0    0  0.14036947694E+01  0.14821563753E+01  0.84792695593E+01  0.87215341991E+01  0.00000000000E+00 0.  1.
</event>
<event>
 8    1  0.1229038E-006  0.9118800E+02  0.7816164E-02  0.1184000E+00
        -11   -1    0    0    0    0  0.00000000000E+00  0.00000000000E+00  0.45593999997E+02  0.45594000000E+02  0.51100000000E-03 0.  1.
         11   -1    0    0    0    0 -0.00000000000E+00 -0.00000000000E+00 -0.45593999997E+02  0.45594000000E+02  0.51100000000E-03 0. -1.
         23    2    1    2    0    0  0.00000000000E+00  0.35527136788E-14  0.00000000000E+00  0.91188000000E+02  0.91188000000E+02 0.  0.
    9900012    2    3    3    0    0  0.16866679586E+02  0.26108937933E+02 -0.19738789488E+02  0.54367063963E+02  0.39999953915E+02 0.  0.
        -12    1    3    3    0    0 -0.16866679586E+02 -0.26108937933E+02  0.19738789488E+02  0.36820936037E+02  0.00000000000E+00 0.  1.
         11    1    4    4    0    0  0.13729728199E+02  0.27177064704E+02 -0.19112147947E+02  0.35949582498E+02  0.51100000000E-03 0. -1.
        -11    1    4    4    0    0  0.80743524930E+01  0.47789321676E+01 -0.38129930938E+01  0.10127797265E+02  0.51100000000E-03 0.  1.
        -12    1    4    4    0    0 -0.49374011062E+01 -0.58470589389E+01  0.31863515529E+01  0.82896842001E+01  0.00000000000E+00 0.  1.
</event>
<event>
 8    1  0.1229038E-006  0.9118800E+02  0.7816164E-02  0.1184000E+00
        -11   -1    0    0    0    0  0.00000000000E+00  0.00000000000E+00  0.45593999997E+02  0.45594000000E+02  0.51100000000E-03 0.  1.
         11   -1    0    0    0    0 -0.00000000000E+00 -0.00000000000E+00 -0.45593999997E+02  0.45594000000E+02  0.51100000000E-03 0. -1.
         23    2    1    2    0    0  0.00000000000E+00  0.44408920985E-15  0.00000000000E+00  0.91188000000E+02  0.91188000000E+02 0.  0.
    9900012    2    3    3    0    0 -0.46745182140E+01  0.16725928311E+01  0.36484661632E+02  0.54367092601E+02  0.40000019202E+02 0.  0.
         12    1    3    3    0    0  0.46745182140E+01 -0.16725928311E+01 -0.36484661632E+02  0.36820907399E+02  0.00000000000E+00 0. -1.
         11    1    4    4    0    0 -0.35162731826E+01 -0.75450592566E+00 -0.53616895385E+01  0.64560956664E+01  0.51100000000E-03 0. -1.
        -11    1    4    4    0    0  0.44392821359E+01 -0.18911035551E+01 -0.61572906384E+00  0.48644240235E+01  0.51100000000E-03 0.  1.
         12    1    4    4    0    0 -0.55975271674E+01  0.43182023119E+01  0.42462080234E+02  0.43046572911E+02  0.00000000000E+00 0. -1.
</event>
<event>
 8    1  0.1229038E-006  0.9118800E+02  0.7816164E-02  0.1184000E+00
        -11   -1    0    0    0    0  0.00000000000E+00  0.00000000000E+00  0.45593999997E+02  0.45594000000E+02  0.51100000000E-03 0. -1.
         11   -1    0    0    0    0 -0.00000000000E+00 -0.00000000000E+00 -0.45593999997E+02  0.45594000000E+02  0.51100000000E-03 0.  1.
         23    2    1    2    0    0  0.00000000000E+00  0.00000000000E+00  0.00000000000E+00  0.91188000000E+02  0.91188000000E+02 0.  0.
    9900012    2    3    3    0    0  0.16839321087E+01  0.34108919244E+02 -0.13766694852E+02  0.54367137890E+02  0.40000122449E+02 0.  0.
        -12    1    3    3    0    0 -0.16839321087E+01 -0.34108919244E+02  0.13766694852E+02  0.36820862110E+02  0.00000000000E+00 0.  1.
         11    1    4    4    0    0  0.65398025928E+01  0.20972632026E+02  0.49082238514E+01  0.22510241528E+02  0.51100000000E-03 0. -1.
        -11    1    4    4    0    0 -0.11339058890E+02  0.48174571300E+01 -0.25374204459E+01  0.12578579113E+02  0.51100000000E-03 0.  1.
         12    1    4    4    0    0  0.64831884060E+01  0.83188300883E+01 -0.16137498258E+02  0.19278317249E+02  0.00000000000E+00 0. -1.
</event>
<event>
 8    1  0.1229038E-006  0.9118800E+02  0.7816164E-02  0.1184000E+00
        -11   -1    0    0    0    0  0.00000000000E+00  0.00000000000E+00  0.45593999997E+02  0.45594000000E+02  0.51100000000E-03 0.  1.
         11   -1    0    0    0    0 -0.00000000000E+00 -0.00000000000E+00 -0.45593999997E+02  0.45594000000E+02  0.51100000000E-03 0. -1.
         23    2    1    2    0    0  0.00000000000E+00 -0.35527136788E-14  0.00000000000E+00  0.91188000000E+02  0.91188000000E+02 0.  0.
    9900012    2    3    3    0    0 -0.91045226063E+01 -0.28921516813E+02  0.20890979869E+02  0.54367088733E+02  0.40000010385E+02 0.  0.
         12    1    3    3    0    0  0.91045226063E+01  0.28921516813E+02 -0.20890979869E+02  0.36820911267E+02  0.00000000000E+00 0. -1.
         11    1    4    4    0    0  0.77782278039E+01  0.15346460421E+00 -0.36656622876E+01  0.86000848498E+01  0.51100000000E-03 0. -1.
        -11    1    4    4    0    0  0.33762078441E+01 -0.65312534194E+01  0.92380270590E+01  0.11806658919E+02  0.51100000000E-03 0.  1.
        -12    1    4    4    0    0 -0.20258958254E+02 -0.22543727998E+02  0.15318615097E+02  0.33960344964E+02  0.00000000000E+00 0.  1.
</event>
<event>
 8    1  0.1229038E-006  0.9118800E+02  0.7816164E-02  0.1184000E+00
        -11   -1    0    0    0    0  0.00000000000E+00  0.00000000000E+00  0.45593999997E+02  0.45594000000E+02  0.51100000000E-03 0. -1.
         11   -1    0    0    0    0 -0.00000000000E+00 -0.00000000000E+00 -0.45593999997E+02  0.45594000000E+02  0.51100000000E-03 0.  1.
         23    2    1    2    0    0  0.35527136788E-14  0.35527136788E-14 -0.26645352591E-14  0.91188000000E+02  0.91188000000E+02 0.  0.
    9900012    2    3    3    0    0 -0.28756966860E+02 -0.22284769659E+02  0.56750539607E+01  0.54367077426E+02  0.39999984607E+02 0.  0.
         12    1    3    3    0    0  0.28756966860E+02  0.22284769659E+02 -0.56750539607E+01  0.36820922574E+02  0.00000000000E+00 0. -1.
         11    1    4    4    0    0 -0.45738915781E+01 -0.21184827706E+00  0.71839631944E+01  0.85190780781E+01  0.51100000000E-03 0. -1.
        -11    1    4    4    0    0 -0.55860940723E+01 -0.24138674524E+02 -0.80103627734E+01  0.26039315790E+02  0.51100000000E-03 0.  1.
        -12    1    4    4    0    0 -0.18596981210E+02  0.20657531421E+01  0.65014535397E+01  0.19808683558E+02  0.00000000000E+00 0.  1.
</event>
<event>
 8    1  0.1229038E-006  0.9118800E+02  0.7816164E-02  0.1184000E+00
        -11   -1    0    0    0    0  0.00000000000E+00  0.00000000000E+00  0.45593999997E+02  0.45594000000E+02  0.51100000000E-03 0. -1.
         11   -1    0    0    0    0 -0.00000000000E+00 -0.00000000000E+00 -0.45593999997E+02  0.45594000000E+02  0.51100000000E-03 0.  1.
         23    2    1    2    0    0 -0.17763568394E-14 -0.71054273576E-14  0.00000000000E+00  0.91188000000E+02  0.91188000000E+02 0.  0.
    9900012    2    3    3    0    0 -0.99855439354E+01 -0.33970496925E+02  0.10103174473E+02  0.54367083615E+02  0.39999998716E+02 0.  0.
        -12    1    3    3    0    0  0.99855439354E+01  0.33970496925E+02 -0.10103174473E+02  0.36820916385E+02  0.00000000000E+00 0.  1.
         11    1    4    4    0    0 -0.50788301743E+00 -0.19955425180E+02  0.28871191390E+01  0.20169590885E+02  0.51100000000E-03 0. -1.
        -11    1    4    4    0    0 -0.99657115179E+01 -0.13980994868E+02 -0.80224911760E+01  0.18951094652E+02  0.51100000000E-03 0.  1.
        -12    1    4    4    0    0  0.48805059995E+00 -0.34076876700E-01  0.15238546510E+02  0.15246398078E+02  0.00000000000E+00 0.  1.
</event>
<event>
 8    1  0.1229038E-006  0.9118800E+02  0.7816164E-02  0.1184000E+00
        -11   -1    0    0    0    0  0.00000000000E+00  0.00000000000E+00  0.45593999997E+02  0.45594000000E+02  0.51100000000E-03 0.  1.
         11   -1    0    0    0    0 -0.00000000000E+00 -0.00000000000E+00 -0.45593999997E+02  0.45594000000E+02  0.51100000000E-03 0. -1.
         23    2    1    2    0    0 -0.88817841970E-15 -0.31086244690E-14 -0.71054273576E-14  0.91188000000E+02  0.91188000000E+02 0.  0.
    9900012    2    3    3    0    0 -0.59366959120E+01  0.31784529480E+01  0.36199873431E+02  0.54367112478E+02  0.40000064515E+02 0.  0.
         12    1    3    3    0    0  0.59366959120E+01 -0.31784529480E+01 -0.36199873431E+02  0.36820887522E+02  0.00000000000E+00 0. -1.
         11    1    4    4    0    0 -0.27798673359E+01 -0.61072337098E+01 -0.17396334399E+01  0.69319759634E+01  0.51100000000E-03 0. -1.
        -11    1    4    4    0    0  0.12987637568E+01  0.16316714854E+02  0.12289685239E+02  0.20468471718E+02  0.51100000000E-03 0.  1.
        -12    1    4    4    0    0 -0.44555923328E+01 -0.70310281958E+01  0.25649821632E+02  0.26966664797E+02  0.00000000000E+00 0.  1.
</event>
<event>
 8    1  0.1229038E-006  0.9118800E+02  0.7816164E-02  0.1184000E+00
        -11   -1    0    0    0    0  0.00000000000E+00  0.00000000000E+00  0.45593999997E+02  0.45594000000E+02  0.51100000000E-03 0.  1.
         11   -1    0    0    0    0 -0.00000000000E+00 -0.00000000000E+00 -0.45593999997E+02  0.45594000000E+02  0.51100000000E-03 0. -1.
         23    2    1    2    0    0  0.00000000000E+00  0.00000000000E+00  0.71054273576E-14  0.91188000000E+02  0.91188000000E+02 0.  0.
    9900012    2    3    3    0    0 -0.92268999620E+01  0.55375651168E+01 -0.35213531543E+02  0.54366903954E+02  0.39999589141E+02 0.  0.
        -12    1    3    3    0    0  0.92268999620E+01 -0.55375651168E+01  0.35213531543E+02  0.36821096046E+02  0.00000000000E+00 0.  1.
         11    1    4    4    0    0  0.80020129397E+01 -0.45240856885E+01  0.55154816505E+00  0.92088961360E+01  0.51100000000E-03 0. -1.
        -11    1    4    4    0    0 -0.45505700743E+01 -0.11527850289E+01  0.89510335452E+00  0.47788922984E+01  0.51100000000E-03 0.  1.
         12    1    4    4    0    0 -0.12678342827E+02  0.11214435834E+02 -0.36660183063E+02  0.40379115519E+02  0.00000000000E+00 0. -1.
</event>
<event>
 8    1  0.1229038E-006  0.9118800E+02  0.7816164E-02  0.1184000E+00
        -11   -1    0    0    0    0  0.00000000000E+00  0.00000000000E+00  0.45593999997E+02  0.45594000000E+02  0.51100000000E-03 0.  1.
         11   -1    0    0    0    0 -0.00000000000E+00 -0.00000000000E+00 -0.45593999997E+02  0.45594000000E+02  0.51100000000E-03 0. -1.
         23    2    1    2    0    0  0.71054273576E-14  0.53290705182E-14 -0.88817841970E-15  0.91188000000E+02  0.91188000000E+02 0.  0.
    9900012    2    3    3    0    0 -0.34041251013E+02 -0.12698758434E+02  0.59761805872E+01  0.54367082430E+02  0.39999996016E+02 0.  0.
        -12    1    3    3    0    0  0.34041251013E+02  0.12698758434E+02 -0.59761805872E+01  0.36820917570E+02  0.00000000000E+00 0.  1.
         11    1    4    4    0    0 -0.39578403657E+01  0.69551701257E+00  0.12989656365E+01  0.42232163408E+01  0.51100000000E-03 0. -1.
        -11    1    4    4    0    0 -0.16878074210E+02 -0.22153736658E+02  0.14601595482E+02  0.31446208480E+02  0.51100000000E-03 0.  1.
         12    1    4    4    0    0 -0.13205336437E+02  0.87594612109E+01 -0.99243805313E+01  0.18697657609E+02  0.00000000000E+00 0. -1.
</event>
<event>
 8    1  0.1229038E-006  0.9118800E+02  0.7816164E-02  0.1184000E+00
        -11   -1    0    0    0    0  0.00000000000E+00  0.00000000000E+00  0.45593999997E+02  0.45594000000E+02  0.51100000000E-03 0.  1.
         11   -1    0    0    0    0 -0.00000000000E+00 -0.00000000000E+00 -0.45593999997E+02  0.45594000000E+02  0.51100000000E-03 0. -1.
         23    2    1    2    0    0  0.17763568394E-14 -0.35527136788E-14  0.17763568394E-14  0.91188000000E+02  0.91188000000E+02 0.  0.
    9900012    2    3    3    0    0 -0.12428888688E+02  0.30900632554E+02 -0.15698888467E+02  0.54367062134E+02  0.39999949746E+02 0.  0.
        -12    1    3    3    0    0  0.12428888688E+02 -0.30900632554E+02  0.15698888467E+02  0.36820937866E+02  0.00000000000E+00 0.  1.
         11    1    4    4    0    0 -0.72645491903E+01  0.14243824240E+02 -0.26878115238E+01  0.16213714410E+02  0.51100000000E-03 0. -1.
        -11    1    4    4    0    0 -0.10419674747E+02  0.19819551719E+02  0.14568422594E+01  0.22438953670E+02  0.51100000000E-03 0.  1.
         12    1    4    4    0    0  0.52553352486E+01 -0.31627434057E+01 -0.14467919202E+02  0.15714394054E+02  0.00000000000E+00 0. -1.
</event>
<event>
 8    1  0.1229038E-006  0.9118800E+02  0.7816164E-02  0.1184000E+00
        -11   -1    0    0    0    0  0.00000000000E+00  0.00000000000E+00  0.45593999997E+02  0.45594000000E+02  0.51100000000E-03 0. -1.
         11   -1    0    0    0    0 -0.00000000000E+00 -0.00000000000E+00 -0.45593999997E+02  0.45594000000E+02  0.51100000000E-03 0.  1.
         23    2    1    2    0    0 -0.71054273576E-14  0.00000000000E+00  0.66613381478E-15  0.91188000000E+02  0.91188000000E+02 0.  0.
    9900012    2    3    3    0    0  0.28127026688E+02 -0.23728693679E+02  0.12646167232E+01  0.54367084891E+02  0.40000001625E+02 0.  0.
        -12    1    3    3    0    0 -0.28127026688E+02  0.23728693679E+02 -0.12646167232E+01  0.36820915109E+02  0.00000000000E+00 0.  1.
         11    1    4    4    0    0  0.42337152519E+01 -0.32191744033E+01 -0.70629731568E+01  0.88415506981E+01  0.51100000000E-03 0. -1.
        -11    1    4    4    0    0  0.65676449783E+01  0.51654758391E+01 -0.70609641481E+01  0.10939529979E+02  0.51100000000E-03 0.  1.
         12    1    4    4    0    0  0.17325666458E+02 -0.25674995115E+02  0.15388554028E+02  0.34586004213E+02  0.00000000000E+00 0. -1.
</event>
<event>
 8    1  0.1229038E-006  0.9118800E+02  0.7816164E-02  0.1184000E+00
        -11   -1    0    0    0    0  0.00000000000E+00  0.00000000000E+00  0.45593999997E+02  0.45594000000E+02  0.51100000000E-03 0. -1.
         11   -1    0    0    0    0 -0.00000000000E+00 -0.00000000000E+00 -0.45593999997E+02  0.45594000000E+02  0.51100000000E-03 0.  1.
         23    2    1    2    0    0  0.00000000000E+00 -0.17763568394E-14  0.00000000000E+00  0.91188000000E+02  0.91188000000E+02 0.  0.
    9900012    2    3    3    0    0  0.23849124643E+02  0.13465638659E+02 -0.24610425853E+02  0.54367119627E+02  0.40000080814E+02 0.  0.
         12    1    3    3    0    0 -0.23849124643E+02 -0.13465638659E+02  0.24610425853E+02  0.36820880373E+02  0.00000000000E+00 0. -1.
         11    1    4    4    0    0  0.39542180503E+01  0.78934624109E+01  0.41197343277E+01  0.97424227179E+01  0.51100000000E-03 0. -1.
        -11    1    4    4    0    0  0.11655042324E+02  0.12723595243E+02 -0.28961263941E+02  0.33711788692E+02  0.51100000000E-03 0.  1.
         12    1    4    4    0    0  0.82398642687E+01 -0.71514189947E+01  0.23110376060E+00  0.10912908217E+02  0.00000000000E+00 0. -1.
</event>
<event>
 8    1  0.1229038E-006  0.9118800E+02  0.7816164E-02  0.1184000E+00
        -11   -1    0    0    0    0  0.00000000000E+00  0.00000000000E+00  0.45593999997E+02  0.45594000000E+02  0.51100000000E-03 0. -1.
         11   -1    0    0    0    0 -0.00000000000E+00 -0.00000000000E+00 -0.45593999997E+02  0.45594000000E+02  0.51100000000E-03 0.  1.
         23    2    1    2    0    0  0.00000000000E+00  0.35527136788E-14  0.22204460493E-15  0.91188000000E+02  0.91188000000E+02 0.  0.
    9900012    2    3    3    0    0 -0.28253699939E+02 -0.23611231664E+02 -0.13023178410E+00  0.54367098582E+02  0.40000032837E+02 0.  0.
        -12    1    3    3    0    0  0.28253699939E+02  0.23611231664E+02  0.13023178410E+00  0.36820901418E+02  0.00000000000E+00 0.  1.
         11    1    4    4    0    0 -0.21555081406E+02 -0.23979808400E+02 -0.11150853068E+02  0.34117360240E+02  0.51100000000E-03 0. -1.
        -11    1    4    4    0    0  0.37277612472E+01 -0.29616990050E+01  0.62252052575E-01  0.47614851141E+01  0.51100000000E-03 0.  1.
         12    1    4    4    0    0 -0.10426379780E+02  0.33302757411E+01  0.10958369232E+02  0.15488253228E+02  0.00000000000E+00 0. -1.
</event>
<event>
 8    1  0.1229038E-006  0.9118800E+02  0.7816164E-02  0.1184000E+00
        -11   -1    0    0    0    0  0.00000000000E+00  0.00000000000E+00  0.45593999997E+02  0.45594000000E+02  0.51100000000E-03 0.  1.
         11   -1    0    0    0    0 -0.00000000000E+00 -0.00000000000E+00 -0.45593999997E+02  0.45594000000E+02  0.51100000000E-03 0. -1.
         23    2    1    2    0    0  0.35527136788E-14  0.35527136788E-14  0.35527136788E-14  0.91188000000E+02  0.91188000000E+02 0.  0.
    9900012    2    3    3    0    0  0.17648861166E+02  0.26947618443E+02  0.17835984435E+02  0.54367098586E+02  0.40000032846E+02 0.  0.
         12    1    3    3    0    0 -0.17648861166E+02 -0.26947618443E+02 -0.17835984435E+02  0.36820901414E+02  0.00000000000E+00 0. -1.
         11    1    4    4    0    0 -0.33208047985E+00 -0.66099318955E+01 -0.25077276817E+01  0.70774413099E+01  0.51100000000E-03 0. -1.
        -11    1    4    4    0    0 -0.49219269352E+00  0.19315391638E+02  0.81675401398E+01  0.20977018853E+02  0.51100000000E-03 0.  1.
        -12    1    4    4    0    0  0.18473134339E+02  0.14242158701E+02  0.12176171977E+02  0.26312638423E+02  0.00000000000E+00 0.  1.
</event>
<event>
 8    1  0.1229038E-006  0.9118800E+02  0.7816164E-02  0.1184000E+00
        -11   -1    0    0    0    0  0.00000000000E+00  0.00000000000E+00  0.45593999997E+02  0.45594000000E+02  0.51100000000E-03 0.  1.
         11   -1    0    0    0    0 -0.00000000000E+00 -0.00000000000E+00 -0.45593999997E+02  0.45594000000E+02  0.51100000000E-03 0. -1.
         23    2    1    2    0    0  0.00000000000E+00 -0.88817841970E-15  0.35527136788E-14  0.91188000000E+02  0.91188000000E+02 0.  0.
    9900012    2    3    3    0    0  0.32196058741E+02  0.54119643248E+01 -0.17026575197E+02  0.54367084487E+02  0.40000000705E+02 0.  0.
        -12    1    3    3    0    0 -0.32196058741E+02 -0.54119643248E+01  0.17026575197E+02  0.36820915513E+02  0.00000000000E+00 0.  1.
         11    1    4    4    0    0  0.22892903032E+02 -0.47035005953E+01 -0.25253235561E+02  0.34408339595E+02  0.51100000000E-03 0. -1.
        -11    1    4    4    0    0  0.65647670864E+00 -0.18504089992E+01 -0.13309072874E+01  0.23719801015E+01  0.51100000000E-03 0.  1.
        -12    1    4    4    0    0  0.86466790004E+01  0.11965873919E+02  0.95575676518E+01  0.17586764791E+02  0.00000000000E+00 0.  1.
</event>
<event>
 8    1  0.1229038E-006  0.9118800E+02  0.7816164E-02  0.1184000E+00
        -11   -1    0    0    0    0  0.00000000000E+00  0.00000000000E+00  0.45593999997E+02  0.45594000000E+02  0.51100000000E-03 0.  1.
         11   -1    0    0    0    0 -0.00000000000E+00 -0.00000000000E+00 -0.45593999997E+02  0.45594000000E+02  0.51100000000E-03 0. -1.
         23    2    1    2    0    0 -0.71054273576E-14 -0.61062266354E-15  0.35527136788E-14  0.91188000000E+02  0.91188000000E+02 0.  0.
    9900012    2    3    3    0    0 -0.28050587872E+02 -0.14362493559E+00  0.23852105382E+02  0.54367095078E+02  0.40000024850E+02 0.  0.
         12    1    3    3    0    0  0.28050587872E+02  0.14362493559E+00 -0.23852105382E+02  0.36820904922E+02  0.00000000000E+00 0. -1.
         11    1    4    4    0    0  0.37321299538E+01  0.12020539385E+02  0.19901884809E+01  0.12742959293E+02  0.51100000000E-03 0. -1.
        -11    1    4    4    0    0 -0.32574899138E+01  0.51625986281E+00  0.54136463120E+01  0.63391901247E+01  0.51100000000E-03 0.  1.
         12    1    4    4    0    0 -0.28525227912E+02 -0.12680424183E+02  0.16448270589E+02  0.35284945661E+02  0.00000000000E+00 0. -1.
</event>
<event>
 8    1  0.1229038E-006  0.9118800E+02  0.7816164E-02  0.1184000E+00
        -11   -1    0    0    0    0  0.00000000000E+00  0.00000000000E+00  0.45593999997E+02  0.45594000000E+02  0.51100000000E-03 0.  1.
         11   -1    0    0    0    0 -0.00000000000E+00 -0.00000000000E+00 -0.45593999997E+02  0.45594000000E+02  0.51100000000E-03 0. -1.
         23    2    1    2    0    0  0.35527136788E-14 -0.35527136788E-14  0.00000000000E+00  0.91188000000E+02  0.91188000000E+02 0.  0.
    9900012    2    3    3    0    0 -0.26484883612E+02  0.21887167181E+02  0.13239399092E+02  0.54367097845E+02  0.40000031158E+02 0.  0.
         12    1    3    3    0    0  0.26484883612E+02 -0.21887167181E+02 -0.13239399092E+02  0.36820902155E+02  0.00000000000E+00 0. -1.
         11    1    4    4    0    0 -0.26885894788E+01 -0.32980981435E+01 -0.17766451734E+01  0.46111205886E+01  0.51100000000E-03 0. -1.
        -11    1    4    4    0    0 -0.13279042029E+02  0.17589085929E+02  0.25042728577E+02  0.33359363841E+02  0.51100000000E-03 0.  1.
        -12    1    4    4    0    0 -0.10517252105E+02  0.75961793954E+01 -0.10026684311E+02  0.16396613416E+02  0.00000000000E+00 0.  1.
</event>
<event>
 8    1  0.1229038E-006  0.9118800E+02  0.7816164E-02  0.1184000E+00
        -11   -1    0    0    0    0  0.00000000000E+00  0.00000000000E+00  0.45593999997E+02  0.45594000000E+02  0.51100000000E-03 0. -1.
         11   -1    0    0    0    0 -0.00000000000E+00 -0.00000000000E+00 -0.45593999997E+02  0.45594000000E+02  0.51100000000E-03 0.  1.
         23    2    1    2    0    0 -0.35527136788E-14  0.00000000000E+00  0.00000000000E+00  0.91188000000E+02  0.91188000000E+02 0.  0.
    9900012    2    3    3    0    0  0.23548701471E+02  0.89482638879E+01  0.26854554177E+02  0.54367084101E+02  0.39999999825E+02 0.  0.
        -12    1    3    3    0    0 -0.23548701471E+02 -0.89482638879E+01 -0.26854554177E+02  0.36820915899E+02  0.00000000000E+00 0.  1.
         11    1    4    4    0    0  0.19177345000E+02  0.15147584891E+02  0.19580196411E+02  0.31314596932E+02  0.51100000000E-03 0. -1.
        -11    1    4    4    0    0  0.14760720048E+01 -0.10549947930E+02 -0.33878319692E+01  0.11178443344E+02  0.51100000000E-03 0.  1.
         12    1    4    4    0    0  0.28952844669E+01  0.43506269265E+01  0.10662189735E+02  0.11874043824E+02  0.00000000000E+00 0. -1.
</event>
<event>
 8    1  0.1229038E-006  0.9118800E+02  0.7816164E-02  0.1184000E+00
        -11   -1    0    0    0    0  0.00000000000E+00  0.00000000000E+00  0.45593999997E+02  0.45594000000E+02  0.51100000000E-03 0.  1.
         11   -1    0    0    0    0 -0.00000000000E+00 -0.00000000000E+00 -0.45593999997E+02  0.45594000000E+02  0.51100000000E-03 0. -1.
         23    2    1    2    0    0  0.00000000000E+00  0.00000000000E+00  0.35527136788E-14  0.91188000000E+02  0.91188000000E+02 0.  0.
    9900012    2    3    3    0    0  0.27301128715E+02 -0.91192947673E+01  0.22962292680E+02  0.54367081335E+02  0.39999993520E+02 0.  0.
         12    1    3    3    0    0 -0.27301128715E+02  0.91192947673E+01 -0.22962292680E+02  0.36820918665E+02  0.00000000000E+00 0. -1.
         11    1    4    4    0    0 -0.54841413946E+01 -0.10308654234E+02  0.70912811648E+01  0.13661274749E+02  0.51100000000E-03 0. -1.
        -11    1    4    4    0    0  0.29931104955E+02  0.49975521229E+01  0.18223637441E+02  0.35396998924E+02  0.51100000000E-03 0.  1.
         12    1    4    4    0    0  0.28541651555E+01 -0.38081926562E+01 -0.23526259254E+01  0.53088076615E+01  0.00000000000E+00 0. -1.
</event>
<event>
 8    1  0.1229038E-006  0.9118800E+02  0.7816164E-02  0.1184000E+00
        -11   -1    0    0    0    0  0.00000000000E+00  0.00000000000E+00  0.45593999997E+02  0.45594000000E+02  0.51100000000E-03 0.  1.
         11   -1    0    0    0    0 -0.00000000000E+00 -0.00000000000E+00 -0.45593999997E+02  0.45594000000E+02  0.51100000000E-03 0. -1.
         23    2    1    2    0    0  0.00000000000E+00 -0.71054273576E-14 -0.35527136788E-14  0.91188000000E+02  0.91188000000E+02 0.  0.
    9900012    2    3    3    0    0 -0.90546910402E+01 -0.33796688530E+02 -0.11470717486E+02  0.54367069199E+02  0.39999965853E+02 0.  0.
         12    1    3    3    0    0  0.90546910402E+01  0.33796688530E+02  0.11470717486E+02  0.36820930801E+02  0.00000000000E+00 0. -1.
         11    1    4    4    0    0  0.15706216575E+01 -0.10088305121E+02  0.39883360296E+01  0.10961185025E+02  0.51100000000E-03 0. -1.
        -11    1    4    4    0    0 -0.26695475925E+01 -0.11547312793E+02  0.90502236347E+01  0.14912191830E+02  0.51100000000E-03 0.  1.
         12    1    4    4    0    0 -0.79557651053E+01 -0.12161070616E+02 -0.24509277150E+02  0.28493692343E+02  0.00000000000E+00 0. -1.
</event>
<event>
 8    1  0.1229038E-006  0.9118800E+02  0.7816164E-02  0.1184000E+00
        -11   -1    0    0    0    0  0.00000000000E+00  0.00000000000E+00  0.45593999997E+02  0.45594000000E+02  0.51100000000E-03 0.  1.
         11   -1    0    0    0    0 -0.00000000000E+00 -0.00000000000E+00 -0.45593999997E+02  0.45594000000E+02  0.51100000000E-03 0. -1.
         23    2    1    2    0    0  0.00000000000E+00  0.00000000000E+00  0.00000000000E+00  0.91188000000E+02  0.91188000000E+02 0.  0.
    9900012    2    3    3    0    0 -0.15793799492E+02  0.21401998114E+02  0.25461523234E+02  0.54367098449E+02  0.40000032534E+02 0.  0.
         12    1    3    3    0    0  0.15793799492E+02 -0.21401998114E+02 -0.25461523234E+02  0.36820901551E+02  0.00000000000E+00 0. -1.
         11    1    4    4    0    0 -0.82963008537E+01  0.14227197049E+02 -0.55698799432E+01  0.17385778860E+02  0.51100000000E-03 0. -1.
        -11    1    4    4    0    0 -0.12172830655E+02  0.31412119627E+01  0.13754643132E+02  0.18634248756E+02  0.51100000000E-03 0.  1.
         12    1    4    4    0    0  0.46753320166E+01  0.40335891026E+01  0.17276760045E+02  0.18347070833E+02  0.00000000000E+00 0. -1.
</event>
<event>
 8    1  0.1229038E-006  0.9118800E+02  0.7816164E-02  0.1184000E+00
        -11   -1    0    0    0    0  0.00000000000E+00  0.00000000000E+00  0.45593999997E+02  0.45594000000E+02  0.51100000000E-03 0.  1.
         11   -1    0    0    0    0 -0.00000000000E+00 -0.00000000000E+00 -0.45593999997E+02  0.45594000000E+02  0.51100000000E-03 0. -1.
         23    2    1    2    0    0 -0.22204460493E-15 -0.35527136788E-14  0.00000000000E+00  0.91188000000E+02  0.91188000000E+02 0.  0.
    9900012    2    3    3    0    0 -0.77628565072E+00 -0.25209499679E+02 -0.26826441571E+02  0.54367089353E+02  0.40000011799E+02 0.  0.
        -12    1    3    3    0    0  0.77628565072E+00  0.25209499679E+02  0.26826441571E+02  0.36820910647E+02  0.00000000000E+00 0.  1.
         11    1    4    4    0    0 -0.47872743759E+01 -0.18403045578E+02 -0.10263707185E+01  0.19043201401E+02  0.51100000000E-03 0. -1.
        -11    1    4    4    0    0  0.31447666430E+01 -0.79734930899E+01  0.86905906772E+00  0.86151850368E+01  0.51100000000E-03 0.  1.
         12    1    4    4    0    0  0.86622208224E+00  0.11670389893E+01 -0.26669129920E+02  0.26708702915E+02  0.00000000000E+00 0. -1.
</event>
<event>
 8    1  0.1229038E-006  0.9118800E+02  0.7816164E-02  0.1184000E+00
        -11   -1    0    0    0    0  0.00000000000E+00  0.00000000000E+00  0.45593999997E+02  0.45594000000E+02  0.51100000000E-03 0.  1.
         11   -1    0    0    0    0 -0.00000000000E+00 -0.00000000000E+00 -0.45593999997E+02  0.45594000000E+02  0.51100000000E-03 0. -1.
         23    2    1    2    0    0  0.00000000000E+00  0.00000000000E+00  0.00000000000E+00  0.91188000000E+02  0.91188000000E+02 0.  0.
    9900012    2    3    3    0    0 -0.14575475888E+02  0.21497229686E+02 -0.26099889394E+02  0.54367087357E+02  0.40000007247E+02 0.  0.
        -12    1    3    3    0    0  0.14575475888E+02 -0.21497229686E+02  0.26099889394E+02  0.36820912643E+02  0.00000000000E+00 0.  1.
         11    1    4    4    0    0  0.67796068028E+01  0.22723774296E+02 -0.14756599655E+02  0.27930095243E+02  0.51100000000E-03 0. -1.
        -11    1    4    4    0    0 -0.18605464634E+02  0.25812159827E+01 -0.10905358328E+02  0.21719871794E+02  0.51100000000E-03 0.  1.
         12    1    4    4    0    0 -0.27496180561E+01 -0.38077605930E+01 -0.43793141106E+00  0.47171203195E+01  0.00000000000E+00 0. -1.
</event>
<event>
 8    1  0.1229038E-006  0.9118800E+02  0.7816164E-02  0.1184000E+00
        -11   -1    0    0    0    0  0.00000000000E+00  0.00000000000E+00  0.45593999997E+02  0.45594000000E+02  0.51100000000E-03 0. -1.
         11   -1    0    0    0    0 -0.00000000000E+00 -0.00000000000E+00 -0.45593999997E+02  0.45594000000E+02  0.51100000000E-03 0.  1.
         23    2    1    2    0    0  0.35527136788E-14  0.35527136788E-14  0.00000000000E+00  0.91188000000E+02  0.91188000000E+02 0.  0.
    9900012    2    3    3    0    0 -0.25985824583E+02  0.25975037871E+02  0.24113547198E+01  0.54367077914E+02  0.39999985721E+02 0.  0.
        -12    1    3    3    0    0  0.25985824583E+02 -0.25975037871E+02 -0.24113547198E+01  0.36820922086E+02  0.00000000000E+00 0.  1.
         11    1    4    4    0    0  0.97255128747E+01  0.93319890186E+01  0.60793927260E+01  0.14786163664E+02  0.51100000000E-03 0. -1.
        -11    1    4    4    0    0 -0.23071632170E+02  0.10578714147E+02 -0.19337791648E+01  0.25454840524E+02  0.51100000000E-03 0.  1.
         12    1    4    4    0    0 -0.12639705287E+02  0.60643347062E+01 -0.17342588414E+01  0.14126073726E+02  0.00000000000E+00 0. -1.
</event>
<event>
 8    1  0.1229038E-006  0.9118800E+02  0.7816164E-02  0.1184000E+00
        -11   -1    0    0    0    0  0.00000000000E+00  0.00000000000E+00  0.45593999997E+02  0.45594000000E+02  0.51100000000E-03 0. -1.
         11   -1    0    0    0    0 -0.00000000000E+00 -0.00000000000E+00 -0.45593999997E+02  0.45594000000E+02  0.51100000000E-03 0.  1.
         23    2    1    2    0    0  0.35527136788E-14  0.00000000000E+00  0.00000000000E+00  0.91188000000E+02  0.91188000000E+02 0.  0.
    9900012    2    3    3    0    0  0.18256041408E+02  0.21203581342E+02  0.23935408978E+02  0.54367099515E+02  0.40000034964E+02 0.  0.
        -12    1    3    3    0    0 -0.18256041408E+02 -0.21203581342E+02 -0.23935408978E+02  0.36820900485E+02  0.00000000000E+00 0.  1.
         11    1    4    4    0    0 -0.85263030231E+00  0.14000838344E+02  0.25438871050E+02  0.29049726562E+02  0.51100000000E-03 0. -1.
        -11    1    4    4    0    0  0.50355970155E+01  0.90959988707E+01 -0.35167248490E+01  0.10975508493E+02  0.51100000000E-03 0.  1.
         12    1    4    4    0    0  0.14073074695E+02 -0.18932558730E+01  0.20132627767E+01  0.14341864460E+02  0.00000000000E+00 0. -1.
</event>
<event>
 8    1  0.1229038E-006  0.9118800E+02  0.7816164E-02  0.1184000E+00
        -11   -1    0    0    0    0  0.00000000000E+00  0.00000000000E+00  0.45593999997E+02  0.45594000000E+02  0.51100000000E-03 0.  1.
         11   -1    0    0    0    0 -0.00000000000E+00 -0.00000000000E+00 -0.45593999997E+02  0.45594000000E+02  0.51100000000E-03 0. -1.
         23    2    1    2    0    0 -0.22204460493E-14  0.88817841970E-15  0.00000000000E+00  0.91188000000E+02  0.91188000000E+02 0.  0.
    9900012    2    3    3    0    0 -0.38112789996E+01  0.67396446340E+01 -0.35997651391E+02  0.54367087965E+02  0.40000008634E+02 0.  0.
        -12    1    3    3    0    0  0.38112789996E+01 -0.67396446340E+01  0.35997651391E+02  0.36820912035E+02  0.00000000000E+00 0.  1.
         11    1    4    4    0    0 -0.14229980242E+02  0.15889877190E+02 -0.19987066279E+02  0.29231205132E+02  0.51100000000E-03 0. -1.
        -11    1    4    4    0    0  0.35385294937E+01 -0.10628647617E+02 -0.13768858014E+02  0.17750233588E+02  0.51100000000E-03 0.  1.
         12    1    4    4    0    0  0.68801717489E+01  0.14784150615E+01 -0.22417270988E+01  0.73856492453E+01  0.00000000000E+00 0. -1.
</event>
<event>
 8    1  0.1229038E-006  0.9118800E+02  0.7816164E-02  0.1184000E+00
        -11   -1    0    0    0    0  0.00000000000E+00  0.00000000000E+00  0.45593999997E+02  0.45594000000E+02  0.51100000000E-03 0.  1.
         11   -1    0    0    0    0 -0.00000000000E+00 -0.00000000000E+00 -0.45593999997E+02  0.45594000000E+02  0.51100000000E-03 0. -1.
         23    2    1    2    0    0  0.71054273576E-14  0.17763568394E-14  0.35527136788E-14  0.91188000000E+02  0.91188000000E+02 0.  0.
    9900012    2    3    3    0    0  0.31462479276E+02  0.14218443988E+02  0.12795665662E+02  0.54367071014E+02  0.39999969991E+02 0.  0.
         12    1    3    3    0    0 -0.31462479276E+02 -0.14218443988E+02 -0.12795665662E+02  0.36820928986E+02  0.00000000000E+00 0. -1.
         11    1    4    4    0    0  0.14091628747E+02 -0.55600382506E+01  0.21538100591E+02  0.26332067967E+02  0.51100000000E-03 0.  1.
        -11    1    4    4    0    0  0.31022750580E+01  0.21117099966E+01 -0.24079943725E+01  0.44589087011E+01  0.51100000000E-03 0. -1.
        -12    1    4    4    0    0  0.14268575471E+02  0.17666772242E+02 -0.63344405564E+01  0.23576094346E+02  0.00000000000E+00 0.  1.
</event>
<event>
 8    1  0.1229038E-006  0.9118800E+02  0.7816164E-02  0.1184000E+00
        -11   -1    0    0    0    0  0.00000000000E+00  0.00000000000E+00  0.45593999997E+02  0.45594000000E+02  0.51100000000E-03 0.  1.
         11   -1    0    0    0    0 -0.00000000000E+00 -0.00000000000E+00 -0.45593999997E+02  0.45594000000E+02  0.51100000000E-03 0. -1.
         23    2    1    2    0    0  0.00000000000E+00  0.22204460493E-15 -0.35527136788E-14  0.91188000000E+02  0.91188000000E+02 0.  0.
    9900012    2    3    3    0    0  0.18931768714E+02 -0.35966852421E+00  0.31579103198E+02  0.54367068631E+02  0.39999964557E+02 0.  0.
         12    1    3    3    0    0 -0.18931768714E+02  0.35966852421E+00 -0.31579103198E+02  0.36820931369E+02  0.00000000000E+00 0. -1.
         11    1    4    4    0    0  0.33915189514E+01 -0.64627311578E+01  0.20311121409E+02  0.21582653868E+02  0.51100000000E-03 0. -1.
        -11    1    4    4    0    0  0.20096607420E+02 -0.22187706861E+01  0.11564279848E+02  0.23292254975E+02  0.51100000000E-03 0.  1.
         12    1    4    4    0    0 -0.45563576571E+01  0.83218333197E+01 -0.29629805918E+00  0.94921597880E+01  0.00000000000E+00 0. -1.
</event>
<event>
 8    1  0.1229038E-006  0.9118800E+02  0.7816164E-02  0.1184000E+00
        -11   -1    0    0    0    0  0.00000000000E+00  0.00000000000E+00  0.45593999997E+02  0.45594000000E+02  0.51100000000E-03 0.  1.
         11   -1    0    0    0    0 -0.00000000000E+00 -0.00000000000E+00 -0.45593999997E+02  0.45594000000E+02  0.51100000000E-03 0. -1.
         23    2    1    2    0    0 -0.17763568394E-14  0.35527136788E-14  0.00000000000E+00  0.91188000000E+02  0.91188000000E+02 0.  0.
    9900012    2    3    3    0    0  0.11601157788E+02 -0.87334247553E+01 -0.33836631889E+02  0.54367119679E+02  0.40000080933E+02 0.  0.
        -12    1    3    3    0    0 -0.11601157788E+02  0.87334247553E+01  0.33836631889E+02  0.36820880321E+02  0.00000000000E+00 0.  1.
         11    1    4    4    0    0 -0.10867940733E+01 -0.22306261340E+01 -0.10979322611E+02  0.11256213376E+02  0.51100000000E-03 0. -1.
        -11    1    4    4    0    0 -0.70390786970E+01  0.84990326000E+01 -0.11198561065E+02  0.15722275733E+02  0.51100000000E-03 0.  1.
        -12    1    4    4    0    0  0.19727030558E+02 -0.15001831221E+02 -0.11658748213E+02  0.27388630571E+02  0.00000000000E+00 0.  1.
</event>
<event>
 8    1  0.1229038E-006  0.9118800E+02  0.7816164E-02  0.1184000E+00
        -11   -1    0    0    0    0  0.00000000000E+00  0.00000000000E+00  0.45593999997E+02  0.45594000000E+02  0.51100000000E-03 0.  1.
         11   -1    0    0    0    0 -0.00000000000E+00 -0.00000000000E+00 -0.45593999997E+02  0.45594000000E+02  0.51100000000E-03 0. -1.
         23    2    1    2    0    0  0.00000000000E+00  0.17763568394E-14  0.00000000000E+00  0.91188000000E+02  0.91188000000E+02 0.  0.
    9900012    2    3    3    0    0  0.23947078209E+02 -0.12075545723E+02 -0.25228912307E+02  0.54367090513E+02  0.40000014442E+02 0.  0.
        -12    1    3    3    0    0 -0.23947078209E+02  0.12075545723E+02  0.25228912307E+02  0.36820909487E+02  0.00000000000E+00 0.  1.
         11    1    4    4    0    0  0.71559225064E+01 -0.16527530151E+01  0.10563777499E+01  0.74198890597E+01  0.51100000000E-03 0. -1.
        -11    1    4    4    0    0  0.13743995530E+02  0.10669021299E+02 -0.14127377014E+02  0.22412233493E+02  0.51100000000E-03 0.  1.
         12    1    4    4    0    0  0.30471601725E+01 -0.21091814007E+02 -0.12157913044E+02  0.24534967960E+02  0.00000000000E+00 0. -1.
</event>
<event>
 8    1  0.1229038E-006  0.9118800E+02  0.7816164E-02  0.1184000E+00
        -11   -1    0    0    0    0  0.00000000000E+00  0.00000000000E+00  0.45593999997E+02  0.45594000000E+02  0.51100000000E-03 0.  1.
         11   -1    0    0    0    0 -0.00000000000E+00 -0.00000000000E+00 -0.45593999997E+02  0.45594000000E+02  0.51100000000E-03 0. -1.
         23    2    1    2    0    0 -0.35527136788E-14 -0.35527136788E-14 -0.35527136788E-14  0.91188000000E+02  0.91188000000E+02 0.  0.
    9900012    2    3    3    0    0  0.24340689273E+02  0.19450045230E+02  0.19621517055E+02  0.54367118081E+02  0.40000077290E+02 0.  0.
         12    1    3    3    0    0 -0.24340689273E+02 -0.19450045230E+02 -0.19621517055E+02  0.36820881919E+02  0.00000000000E+00 0. -1.
         11    1    4    4    0    0  0.22900484757E+01  0.56861860081E+01 -0.26493587158E+01  0.66780337829E+01  0.51100000000E-03 0. -1.
        -11    1    4    4    0    0  0.14900056417E+02 -0.88019443359E+01  0.15066890510E+02  0.22945524514E+02  0.51100000000E-03 0.  1.
         12    1    4    4    0    0  0.71505843799E+01  0.22565803557E+02  0.72039852615E+01  0.24743559785E+02  0.00000000000E+00 0. -1.
</event>
<event>
 8    1  0.1229038E-006  0.9118800E+02  0.7816164E-02  0.1184000E+00
        -11   -1    0    0    0    0  0.00000000000E+00  0.00000000000E+00  0.45593999997E+02  0.45594000000E+02  0.51100000000E-03 0. -1.
         11   -1    0    0    0    0 -0.00000000000E+00 -0.00000000000E+00 -0.45593999997E+02  0.45594000000E+02  0.51100000000E-03 0.  1.
         23    2    1    2    0    0  0.00000000000E+00 -0.44408920985E-15 -0.44408920985E-15  0.91188000000E+02  0.91188000000E+02 0.  0.
    9900012    2    3    3    0    0 -0.36530693655E+02 -0.39304632909E+01 -0.24165150582E+01  0.54367086572E+02  0.40000005459E+02 0.  0.
         12    1    3    3    0    0  0.36530693655E+02  0.39304632909E+01  0.24165150582E+01  0.36820913428E+02  0.00000000000E+00 0. -1.
         11    1    4    4    0    0 -0.29410134873E+00  0.10698399430E+02 -0.44674333056E+01  0.11597422411E+02  0.51100000000E-03 0.  1.
        -11    1    4    4    0    0 -0.11406859493E+02 -0.11669735541E+02  0.61332383214E+01  0.17433180537E+02  0.51100000000E-03 0. -1.
         12    1    4    4    0    0 -0.24829732813E+02 -0.29591271806E+01 -0.40823200740E+01  0.25336483624E+02  0.00000000000E+00 0. -1.
</event>
<event>
 8    1  0.1229038E-006  0.9118800E+02  0.7816164E-02  0.1184000E+00
        -11   -1    0    0    0    0  0.00000000000E+00  0.00000000000E+00  0.45593999997E+02  0.45594000000E+02  0.51100000000E-03 0.  1.
         11   -1    0    0    0    0 -0.00000000000E+00 -0.00000000000E+00 -0.45593999997E+02  0.45594000000E+02  0.51100000000E-03 0. -1.
         23    2    1    2    0    0  0.00000000000E+00  0.88817841970E-15  0.00000000000E+00  0.91188000000E+02  0.91188000000E+02 0.  0.
    9900012    2    3    3    0    0  0.32176521711E+02  0.64826429422E+01  0.16686221036E+02  0.54367038832E+02  0.39999896624E+02 0.  0.
         12    1    3    3    0    0 -0.32176521711E+02 -0.64826429422E+01 -0.16686221036E+02  0.36820961168E+02  0.00000000000E+00 0. -1.
         11    1    4    4    0    0  0.23131092185E+02  0.38679436135E+01  0.10571814514E+02  0.25724923242E+02  0.51100000000E-03 0. -1.
        -11    1    4    4    0    0  0.13233507825E+02  0.18777993390E+01 -0.68350465282E+01  0.15012318975E+02  0.51100000000E-03 0.  1.
         12    1    4    4    0    0 -0.41880782991E+01  0.73689998972E+00  0.12949453050E+02  0.13629796614E+02  0.00000000000E+00 0. -1.
</event>
<event>
 8    1  0.1229038E-006  0.9118800E+02  0.7816164E-02  0.1184000E+00
        -11   -1    0    0    0    0  0.00000000000E+00  0.00000000000E+00  0.45593999997E+02  0.45594000000E+02  0.51100000000E-03 0.  1.
         11   -1    0    0    0    0 -0.00000000000E+00 -0.00000000000E+00 -0.45593999997E+02  0.45594000000E+02  0.51100000000E-03 0. -1.
         23    2    1    2    0    0  0.00000000000E+00  0.11102230246E-15  0.71054273576E-14  0.91188000000E+02  0.91188000000E+02 0.  0.
    9900012    2    3    3    0    0  0.12541198045E+02 -0.99334694139E+00  0.34605039433E+02  0.54367120859E+02  0.40000083622E+02 0.  0.
         12    1    3    3    0    0 -0.12541198045E+02  0.99334694139E+00 -0.34605039433E+02  0.36820879141E+02  0.00000000000E+00 0. -1.
         11    1    4    4    0    0  0.15506632324E+01  0.66483351647E+00 -0.31914895331E+01  0.36100091088E+01  0.51100000000E-03 0. -1.
        -11    1    4    4    0    0  0.23645243600E+01  0.14529325057E+02  0.22427759017E+02  0.26827162296E+02  0.51100000000E-03 0.  1.
        -12    1    4    4    0    0  0.86260104530E+01 -0.16187505515E+02  0.15368769949E+02  0.23929949454E+02  0.00000000000E+00 0.  1.
</event>
<event>
 8    1  0.1229038E-006  0.9118800E+02  0.7816164E-02  0.1184000E+00
        -11   -1    0    0    0    0  0.00000000000E+00  0.00000000000E+00  0.45593999997E+02  0.45594000000E+02  0.51100000000E-03 0. -1.
         11   -1    0    0    0    0 -0.00000000000E+00 -0.00000000000E+00 -0.45593999997E+02  0.45594000000E+02  0.51100000000E-03 0.  1.
         23    2    1    2    0    0 -0.88817841970E-15  0.35527136788E-14  0.00000000000E+00  0.91188000000E+02  0.91188000000E+02 0.  0.
    9900012    2    3    3    0    0  0.70107497448E+01 -0.31408017609E+02  0.17893187540E+02  0.54367077382E+02  0.39999984507E+02 0.  0.
        -12    1    3    3    0    0 -0.70107497448E+01  0.31408017609E+02 -0.17893187540E+02  0.36820922618E+02  0.00000000000E+00 0.  1.
         11    1    4    4    0    0 -0.73584636577E+01  0.55534544922E+01  0.14163485556E+00  0.92199731503E+01  0.51100000000E-03 0. -1.
        -11    1    4    4    0    0  0.13159963098E+02 -0.17735282684E+02  0.74881624124E+01  0.23319465200E+02  0.51100000000E-03 0.  1.
         12    1    4    4    0    0  0.12092503045E+01 -0.19226189417E+02  0.10263390272E+02  0.21827639031E+02  0.00000000000E+00 0. -1.
</event>
<event>
 8    1  0.1229038E-006  0.9118800E+02  0.7816164E-02  0.1184000E+00
        -11   -1    0    0    0    0  0.00000000000E+00  0.00000000000E+00  0.45593999997E+02  0.45594000000E+02  0.51100000000E-03 0.  1.
         11   -1    0    0    0    0 -0.00000000000E+00 -0.00000000000E+00 -0.45593999997E+02  0.45594000000E+02  0.51100000000E-03 0. -1.
         23    2    1    2    0    0  0.44408920985E-15 -0.17763568394E-14  0.00000000000E+00  0.91188000000E+02  0.91188000000E+02 0.  0.
    9900012    2    3    3    0    0 -0.28054253230E+01 -0.99258325101E+01  0.35346612651E+02  0.54367141941E+02  0.40000131684E+02 0.  0.
         12    1    3    3    0    0  0.28054253230E+01  0.99258325101E+01 -0.35346612651E+02  0.36820858059E+02  0.00000000000E+00 0. -1.
         11    1    4    4    0    0 -0.37656792701E-03  0.90472343102E+00  0.26409472608E+02  0.26424964869E+02  0.51100000000E-03 0. -1.
        -11    1    4    4    0    0  0.44761064312E+01 -0.81337985303E+01  0.15304755287E+02  0.17900551443E+02  0.51100000000E-03 0.  1.
         12    1    4    4    0    0 -0.72811551863E+01 -0.26967574109E+01 -0.63676152440E+01  0.10041625629E+02  0.00000000000E+00 0. -1.
</event>
<event>
 8    1  0.1229038E-006  0.9118800E+02  0.7816164E-02  0.1184000E+00
        -11   -1    0    0    0    0  0.00000000000E+00  0.00000000000E+00  0.45593999997E+02  0.45594000000E+02  0.51100000000E-03 0.  1.
         11   -1    0    0    0    0 -0.00000000000E+00 -0.00000000000E+00 -0.45593999997E+02  0.45594000000E+02  0.51100000000E-03 0. -1.
         23    2    1    2    0    0  0.00000000000E+00  0.17763568394E-14  0.00000000000E+00  0.91188000000E+02  0.91188000000E+02 0.  0.
    9900012    2    3    3    0    0 -0.47364924123E+01 -0.44311720560E+01 -0.36245126677E+02  0.54367097594E+02  0.40000030584E+02 0.  0.
        -12    1    3    3    0    0  0.47364924123E+01  0.44311720560E+01  0.36245126677E+02  0.36820902406E+02  0.00000000000E+00 0.  1.
         11    1    4    4    0    0  0.42588872794E+01  0.12377720456E+02 -0.29313563800E+01  0.13414131915E+02  0.51100000000E-03 0. -1.
        -11    1    4    4    0    0  0.19511345573E+01  0.30994869989E+00 -0.92461297091E+01  0.94548352242E+01  0.51100000000E-03 0.  1.
        -12    1    4    4    0    0 -0.10946514249E+02 -0.17118841212E+02 -0.24067640588E+02  0.31498130454E+02  0.00000000000E+00 0.  1.
</event>
<event>
 8    1  0.1229038E-006  0.9118800E+02  0.7816164E-02  0.1184000E+00
        -11   -1    0    0    0    0  0.00000000000E+00  0.00000000000E+00  0.45593999997E+02  0.45594000000E+02  0.51100000000E-03 0. -1.
         11   -1    0    0    0    0 -0.00000000000E+00 -0.00000000000E+00 -0.45593999997E+02  0.45594000000E+02  0.51100000000E-03 0.  1.
         23    2    1    2    0    0 -0.17763568394E-14 -0.17763568394E-14  0.35527136788E-14  0.91188000000E+02  0.91188000000E+02 0.  0.
    9900012    2    3    3    0    0  0.15427489195E+02  0.98816557438E+01 -0.31939418332E+02  0.54367068637E+02  0.39999964571E+02 0.  0.
         12    1    3    3    0    0 -0.15427489195E+02 -0.98816557438E+01  0.31939418332E+02  0.36820931363E+02  0.00000000000E+00 0. -1.
         11    1    4    4    0    0  0.10450511325E+02  0.19123267741E+01 -0.55184879140E+01  0.11971795595E+02  0.51100000000E-03 0. -1.
        -11    1    4    4    0    0 -0.39368001720E+01 -0.99363041165E+01 -0.17474819712E+02  0.20484087954E+02  0.51100000000E-03 0.  1.
         12    1    4    4    0    0  0.89137780423E+01  0.17905633086E+02 -0.89461107058E+01  0.21911185088E+02  0.00000000000E+00 0. -1.
</event>
<event>
 8    1  0.1229038E-006  0.9118800E+02  0.7816164E-02  0.1184000E+00
        -11   -1    0    0    0    0  0.00000000000E+00  0.00000000000E+00  0.45593999997E+02  0.45594000000E+02  0.51100000000E-03 0.  1.
         11   -1    0    0    0    0 -0.00000000000E+00 -0.00000000000E+00 -0.45593999997E+02  0.45594000000E+02  0.51100000000E-03 0. -1.
         23    2    1    2    0    0 -0.35527136788E-14  0.00000000000E+00 -0.71054273576E-14  0.91188000000E+02  0.91188000000E+02 0.  0.
    9900012    2    3    3    0    0  0.15570147370E+02 -0.73339269279E+01 -0.32550916228E+02  0.54367107553E+02  0.40000053287E+02 0.  0.
        -12    1    3    3    0    0 -0.15570147370E+02  0.73339269279E+01  0.32550916228E+02  0.36820892447E+02  0.00000000000E+00 0.  1.
         11    1    4    4    0    0  0.30958560161E+01 -0.12402815092E+02 -0.32293752476E+02  0.34731838361E+02  0.51100000000E-03 0. -1.
        -11    1    4    4    0    0  0.23258351749E+01  0.15769614679E+01  0.64111614645E+01  0.69999505939E+01  0.51100000000E-03 0.  1.
         12    1    4    4    0    0  0.10148456179E+02  0.34919266958E+01 -0.66683252169E+01  0.12635318598E+02  0.00000000000E+00 0. -1.
</event>
<event>
 8    1  0.1229038E-006  0.9118800E+02  0.7816164E-02  0.1184000E+00
        -11   -1    0    0    0    0  0.00000000000E+00  0.00000000000E+00  0.45593999997E+02  0.45594000000E+02  0.51100000000E-03 0. -1.
         11   -1    0    0    0    0 -0.00000000000E+00 -0.00000000000E+00 -0.45593999997E+02  0.45594000000E+02  0.51100000000E-03 0.  1.
         23    2    1    2    0    0 -0.71054273576E-14  0.17763568394E-14 -0.17763568394E-14  0.91188000000E+02  0.91188000000E+02 0.  0.
    9900012    2    3    3    0    0 -0.33027366598E+02 -0.45921962922E+01  0.15616809322E+02  0.54367082784E+02  0.39999996823E+02 0.  0.
        -12    1    3    3    0    0  0.33027366598E+02  0.45921962922E+01 -0.15616809322E+02  0.36820917216E+02  0.00000000000E+00 0.  1.
         11    1    4    4    0    0 -0.97918368094E-01  0.44867426937E+01  0.17236511781E+02  0.17811170278E+02  0.51100000000E-03 0. -1.
        -11    1    4    4    0    0 -0.19679743203E+02 -0.10579945121E+02 -0.47870268965E+01  0.22850452032E+02  0.51100000000E-03 0.  1.
         12    1    4    4    0    0 -0.13249705027E+02  0.15010061350E+01  0.31673244373E+01  0.13705460474E+02  0.00000000000E+00 0. -1.
</event>
<event>
 8    1  0.1229038E-006  0.9118800E+02  0.7816164E-02  0.1184000E+00
        -11   -1    0    0    0    0  0.00000000000E+00  0.00000000000E+00  0.45593999997E+02  0.45594000000E+02  0.51100000000E-03 0. -1.
         11   -1    0    0    0    0 -0.00000000000E+00 -0.00000000000E+00 -0.45593999997E+02  0.45594000000E+02  0.51100000000E-03 0.  1.
         23    2    1    2    0    0  0.71054273576E-14  0.00000000000E+00  0.17763568394E-14  0.91188000000E+02  0.91188000000E+02 0.  0.
    9900012    2    3    3    0    0  0.32622514829E+02  0.10990615972E+02  0.13067447394E+02  0.54367078032E+02  0.39999985989E+02 0.  0.
        -12    1    3    3    0    0 -0.32622514829E+02 -0.10990615972E+02 -0.13067447394E+02  0.36820921968E+02  0.00000000000E+00 0.  1.
         11    1    4    4    0    0  0.86485876500E+01  0.11443085566E+02  0.59906841569E+01  0.15544470803E+02  0.51100000000E-03 0. -1.
        -11    1    4    4    0    0  0.13047452270E+02  0.65251614885E+01 -0.97754934783E+01  0.17560581317E+02  0.51100000000E-03 0.  1.
         12    1    4    4    0    0  0.10926474908E+02 -0.69776310829E+01  0.16852256716E+02  0.21262025912E+02  0.00000000000E+00 0. -1.
</event>
<event>
 8    1  0.1229038E-006  0.9118800E+02  0.7816164E-02  0.1184000E+00
        -11   -1    0    0    0    0  0.00000000000E+00  0.00000000000E+00  0.45593999997E+02  0.45594000000E+02  0.51100000000E-03 0. -1.
         11   -1    0    0    0    0 -0.00000000000E+00 -0.00000000000E+00 -0.45593999997E+02  0.45594000000E+02  0.51100000000E-03 0.  1.
         23    2    1    2    0    0  0.00000000000E+00  0.00000000000E+00  0.35527136788E-14  0.91188000000E+02  0.91188000000E+02 0.  0.
    9900012    2    3    3    0    0 -0.51186954223E+01  0.25247199631E+02  0.26308893616E+02  0.54367081823E+02  0.39999994633E+02 0.  0.
        -12    1    3    3    0    0  0.51186954223E+01 -0.25247199631E+02 -0.26308893616E+02  0.36820918177E+02  0.00000000000E+00 0.  1.
         11    1    4    4    0    0 -0.10466160885E+02 -0.57176863973E+01  0.55330548599E+01  0.13147134964E+02  0.51100000000E-03 0. -1.
        -11    1    4    4    0    0  0.54150477007E+01  0.50364906866E+01 -0.86682317730E+00  0.74458285448E+01  0.51100000000E-03 0.  1.
         12    1    4    4    0    0 -0.67582237731E-01  0.25928395342E+02  0.21642661934E+02  0.33774118315E+02  0.00000000000E+00 0. -1.
</event>
<event>
 8    1  0.1229038E-006  0.9118800E+02  0.7816164E-02  0.1184000E+00
        -11   -1    0    0    0    0  0.00000000000E+00  0.00000000000E+00  0.45593999997E+02  0.45594000000E+02  0.51100000000E-03 0.  1.
         11   -1    0    0    0    0 -0.00000000000E+00 -0.00000000000E+00 -0.45593999997E+02  0.45594000000E+02  0.51100000000E-03 0. -1.
         23    2    1    2    0    0  0.35527136788E-14 -0.35527136788E-14  0.00000000000E+00  0.91188000000E+02  0.91188000000E+02 0.  0.
    9900012    2    3    3    0    0  0.21575685281E+02  0.12678283965E+02  0.27009824646E+02  0.54367086010E+02  0.40000004178E+02 0.  0.
         12    1    3    3    0    0 -0.21575685281E+02 -0.12678283965E+02 -0.27009824646E+02  0.36820913990E+02  0.00000000000E+00 0. -1.
         11    1    4    4    0    0  0.66322668645E+00  0.10413017277E+02  0.45198876731E+01  0.11371023845E+02  0.51100000000E-03 0. -1.
        -11    1    4    4    0    0  0.12416860714E+02 -0.56747536199E+01  0.27212689967E+02  0.30445225473E+02  0.51100000000E-03 0.  1.
        -12    1    4    4    0    0  0.84955978800E+01  0.79400203072E+01 -0.47227529939E+01  0.12550836692E+02  0.00000000000E+00 0.  1.
</event>
<event>
 8    1  0.1229038E-006  0.9118800E+02  0.7816164E-02  0.1184000E+00
        -11   -1    0    0    0    0  0.00000000000E+00  0.00000000000E+00  0.45593999997E+02  0.45594000000E+02  0.51100000000E-03 0. -1.
         11   -1    0    0    0    0 -0.00000000000E+00 -0.00000000000E+00 -0.45593999997E+02  0.45594000000E+02  0.51100000000E-03 0.  1.
         23    2    1    2    0    0 -0.44408920985E-15 -0.17763568394E-14  0.00000000000E+00  0.91188000000E+02  0.91188000000E+02 0.  0.
    9900012    2    3    3    0    0 -0.21647619594E+01  0.69512723889E+01  0.36093966720E+02  0.54367070955E+02  0.39999969857E+02 0.  0.
        -12    1    3    3    0    0  0.21647619594E+01 -0.69512723889E+01 -0.36093966720E+02  0.36820929045E+02  0.00000000000E+00 0.  1.
         11    1    4    4    0    0 -0.74311245784E+01  0.16394114567E+02  0.23231679180E+02  0.29388765246E+02  0.51100000000E-03 0. -1.
        -11    1    4    4    0    0 -0.79088599093E+00 -0.80123910091E+01  0.16071732644E+02  0.17975664126E+02  0.51100000000E-03 0.  1.
        -12    1    4    4    0    0  0.60572486099E+01 -0.14304511691E+01 -0.32094451037E+01  0.70026415832E+01  0.00000000000E+00 0.  1.
</event>
<event>
 8    1  0.1229038E-006  0.9118800E+02  0.7816164E-02  0.1184000E+00
        -11   -1    0    0    0    0  0.00000000000E+00  0.00000000000E+00  0.45593999997E+02  0.45594000000E+02  0.51100000000E-03 0.  1.
         11   -1    0    0    0    0 -0.00000000000E+00 -0.00000000000E+00 -0.45593999997E+02  0.45594000000E+02  0.51100000000E-03 0. -1.
         23    2    1    2    0    0  0.13322676296E-14 -0.71054273576E-14  0.00000000000E+00  0.91188000000E+02  0.91188000000E+02 0.  0.
    9900012    2    3    3    0    0 -0.22538896364E+01 -0.33738863061E+02  0.14573575212E+02  0.54367082119E+02  0.39999995306E+02 0.  0.
         12    1    3    3    0    0  0.22538896364E+01  0.33738863061E+02 -0.14573575212E+02  0.36820917881E+02  0.00000000000E+00 0. -1.
         11    1    4    4    0    0  0.13038222526E+02 -0.29352578280E+00  0.90544937211E+00  0.13072920211E+02  0.51100000000E-03 0. -1.
        -11    1    4    4    0    0 -0.13454520811E+02 -0.24945780676E+02  0.45704446682E+01  0.28708971916E+02  0.51100000000E-03 0.  1.
        -12    1    4    4    0    0 -0.18375913516E+01 -0.84995566030E+01  0.90976811714E+01  0.12585189991E+02  0.00000000000E+00 0.  1.
</event>
<event>
 8    1  0.1229038E-006  0.9118800E+02  0.7816164E-02  0.1184000E+00
        -11   -1    0    0    0    0  0.00000000000E+00  0.00000000000E+00  0.45593999997E+02  0.45594000000E+02  0.51100000000E-03 0.  1.
         11   -1    0    0    0    0 -0.00000000000E+00 -0.00000000000E+00 -0.45593999997E+02  0.45594000000E+02  0.51100000000E-03 0. -1.
         23    2    1    2    0    0  0.00000000000E+00  0.00000000000E+00  0.71054273576E-14  0.91188000000E+02  0.91188000000E+02 0.  0.
    9900012    2    3    3    0    0  0.11222442276E+02  0.98615413691E+01  0.33653923803E+02  0.54367084800E+02  0.40000001418E+02 0.  0.
         12    1    3    3    0    0 -0.11222442276E+02 -0.98615413691E+01 -0.33653923803E+02  0.36820915200E+02  0.00000000000E+00 0. -1.
         11    1    4    4    0    0 -0.52136990071E+01  0.11570685687E+02  0.10496170517E+02  0.16469153602E+02  0.51100000000E-03 0. -1.
        -11    1    4    4    0    0 -0.49842006053E+01 -0.40416544502E+01  0.21079927352E+00  0.64204098750E+01  0.51100000000E-03 0.  1.
        -12    1    4    4    0    0  0.21420341888E+02  0.23325101326E+01  0.22946954013E+02  0.31477521322E+02  0.00000000000E+00 0.  1.
</event>
<event>
 8    1  0.1229038E-006  0.9118800E+02  0.7816164E-02  0.1184000E+00
        -11   -1    0    0    0    0  0.00000000000E+00  0.00000000000E+00  0.45593999997E+02  0.45594000000E+02  0.51100000000E-03 0.  1.
         11   -1    0    0    0    0 -0.00000000000E+00 -0.00000000000E+00 -0.45593999997E+02  0.45594000000E+02  0.51100000000E-03 0. -1.
         23    2    1    2    0    0 -0.35527136788E-14  0.00000000000E+00 -0.17763568394E-14  0.91188000000E+02  0.91188000000E+02 0.  0.
    9900012    2    3    3    0    0  0.16306958758E+02 -0.31735628484E+02 -0.90949026574E+01  0.54367024001E+02  0.39999862814E+02 0.  0.
        -12    1    3    3    0    0 -0.16306958758E+02  0.31735628484E+02  0.90949026574E+01  0.36820975999E+02  0.00000000000E+00 0.  1.
         11    1    4    4    0    0  0.13679706566E+02 -0.27785403376E+02 -0.45244985679E+01  0.31299107017E+02  0.51100000000E-03 0. -1.
        -11    1    4    4    0    0 -0.90032600029E+01  0.50593090555E+00  0.16160738773E+01  0.91611326700E+01  0.51100000000E-03 0.  1.
         12    1    4    4    0    0  0.11630512195E+02 -0.44561560135E+01 -0.61864779668E+01  0.13906784314E+02  0.00000000000E+00 0. -1.
</event>
<event>
 8    1  0.1229038E-006  0.9118800E+02  0.7816164E-02  0.1184000E+00
        -11   -1    0    0    0    0  0.00000000000E+00  0.00000000000E+00  0.45593999997E+02  0.45594000000E+02  0.51100000000E-03 0.  1.
         11   -1    0    0    0    0 -0.00000000000E+00 -0.00000000000E+00 -0.45593999997E+02  0.45594000000E+02  0.51100000000E-03 0. -1.
         23    2    1    2    0    0 -0.35527136788E-14  0.00000000000E+00 -0.88817841970E-15  0.91188000000E+02  0.91188000000E+02 0.  0.
    9900012    2    3    3    0    0  0.28477382971E+02 -0.22529482927E+02  0.61025335120E+01  0.54367083973E+02  0.39999999533E+02 0.  0.
         12    1    3    3    0    0 -0.28477382971E+02  0.22529482927E+02 -0.61025335120E+01  0.36820916027E+02  0.00000000000E+00 0. -1.
         11    1    4    4    0    0  0.53819337530E+01 -0.20625243576E+02 -0.31489380496E+01  0.21547196908E+02  0.51100000000E-03 0. -1.
        -11    1    4    4    0    0  0.52725086556E+01  0.88632093820E+01  0.78897460236E+00  0.10343031918E+02  0.51100000000E-03 0.  1.
        -12    1    4    4    0    0  0.17822940562E+02 -0.10767448732E+02  0.84624969593E+01  0.22476855146E+02  0.00000000000E+00 0.  1.
</event>
<event>
 8    1  0.1229038E-006  0.9118800E+02  0.7816164E-02  0.1184000E+00
        -11   -1    0    0    0    0  0.00000000000E+00  0.00000000000E+00  0.45593999997E+02  0.45594000000E+02  0.51100000000E-03 0. -1.
         11   -1    0    0    0    0 -0.00000000000E+00 -0.00000000000E+00 -0.45593999997E+02  0.45594000000E+02  0.51100000000E-03 0.  1.
         23    2    1    2    0    0  0.00000000000E+00 -0.26645352591E-14  0.71054273576E-14  0.91188000000E+02  0.91188000000E+02 0.  0.
    9900012    2    3    3    0    0 -0.72633799760E+01  0.23432579747E+01  0.36021266735E+02  0.54367092843E+02  0.40000019755E+02 0.  0.
        -12    1    3    3    0    0  0.72633799760E+01 -0.23432579747E+01 -0.36021266735E+02  0.36820907157E+02  0.00000000000E+00 0.  1.
         11    1    4    4    0    0  0.27469214098E-01  0.32331305075E+01  0.14924332183E+02  0.15270546120E+02  0.51100000000E-03 0. -1.
        -11    1    4    4    0    0 -0.58860105669E+01  0.15287598406E+02  0.13209714618E+02  0.21044057260E+02  0.51100000000E-03 0.  1.
        -12    1    4    4    0    0 -0.14048386233E+01 -0.16177470939E+02  0.78872199345E+01  0.18052489463E+02  0.00000000000E+00 0.  1.
</event>
<event>
 8    1  0.1229038E-006  0.9118800E+02  0.7816164E-02  0.1184000E+00
        -11   -1    0    0    0    0  0.00000000000E+00  0.00000000000E+00  0.45593999997E+02  0.45594000000E+02  0.51100000000E-03 0. -1.
         11   -1    0    0    0    0 -0.00000000000E+00 -0.00000000000E+00 -0.45593999997E+02  0.45594000000E+02  0.51100000000E-03 0.  1.
         23    2    1    2    0    0  0.00000000000E+00 -0.13322676296E-14  0.00000000000E+00  0.91188000000E+02  0.91188000000E+02 0.  0.
    9900012    2    3    3    0    0  0.29572615870E+02  0.18708491154E+01  0.21857275189E+02  0.54367079798E+02  0.39999990015E+02 0.  0.
        -12    1    3    3    0    0 -0.29572615870E+02 -0.18708491154E+01 -0.21857275189E+02  0.36820920202E+02  0.00000000000E+00 0.  1.
         11    1    4    4    0    0  0.27227472610E+02  0.16206967821E+02  0.18114749720E+02  0.36498564744E+02  0.51100000000E-03 0. -1.
        -11    1    4    4    0    0  0.45575294138E+00 -0.15093109037E+02  0.44026822934E+01  0.15728740025E+02  0.51100000000E-03 0.  1.
        -12    1    4    4    0    0  0.18893903192E+01  0.75699033182E+00 -0.66015682424E+00  0.21397750287E+01  0.00000000000E+00 0.  1.
</event>
<event>
 8    1  0.1229038E-006  0.9118800E+02  0.7816164E-02  0.1184000E+00
        -11   -1    0    0    0    0  0.00000000000E+00  0.00000000000E+00  0.45593999997E+02  0.45594000000E+02  0.51100000000E-03 0. -1.
         11   -1    0    0    0    0 -0.00000000000E+00 -0.00000000000E+00 -0.45593999997E+02  0.45594000000E+02  0.51100000000E-03 0.  1.
         23    2    1    2    0    0 -0.35527136788E-14  0.00000000000E+00  0.17763568394E-14  0.91188000000E+02  0.91188000000E+02 0.  0.
    9900012    2    3    3    0    0 -0.31476810972E+02 -0.16000961744E+02 -0.10438369245E+02  0.54367082599E+02  0.39999996401E+02 0.  0.
         12    1    3    3    0    0  0.31476810972E+02  0.16000961744E+02  0.10438369245E+02  0.36820917401E+02  0.00000000000E+00 0. -1.
         11    1    4    4    0    0 -0.93170380932E+01  0.95398300411E+01 -0.70498793441E+01  0.15083645285E+02  0.51100000000E-03 0. -1.
        -11    1    4    4    0    0 -0.49638010171E+01 -0.17043484638E+02 -0.81306705672E+01  0.19525047843E+02  0.51100000000E-03 0.  1.
         12    1    4    4    0    0 -0.17195971862E+02 -0.84973071476E+01  0.47421806660E+01  0.19758389472E+02  0.00000000000E+00 0. -1.
</event>
<event>
 8    1  0.1229038E-006  0.9118800E+02  0.7816164E-02  0.1184000E+00
        -11   -1    0    0    0    0  0.00000000000E+00  0.00000000000E+00  0.45593999997E+02  0.45594000000E+02  0.51100000000E-03 0. -1.
         11   -1    0    0    0    0 -0.00000000000E+00 -0.00000000000E+00 -0.45593999997E+02  0.45594000000E+02  0.51100000000E-03 0.  1.
         23    2    1    2    0    0  0.17763568394E-14  0.00000000000E+00  0.35527136788E-14  0.91188000000E+02  0.91188000000E+02 0.  0.
    9900012    2    3    3    0    0  0.13199648499E+02 -0.14793772043E+02 -0.31027297749E+02  0.54367087228E+02  0.40000006954E+02 0.  0.
         12    1    3    3    0    0 -0.13199648499E+02  0.14793772043E+02  0.31027297749E+02  0.36820912772E+02  0.00000000000E+00 0. -1.
         11    1    4    4    0    0 -0.28716921444E+01 -0.12586560583E+02 -0.24862856123E+01  0.13147233150E+02  0.51100000000E-03 0. -1.
        -11    1    4    4    0    0  0.16377605042E+02  0.62894230822E+01 -0.85922212349E+01  0.19534816498E+02  0.51100000000E-03 0.  1.
        -12    1    4    4    0    0 -0.30626439813E+00 -0.84966345424E+01 -0.19948790901E+02  0.21685037580E+02  0.00000000000E+00 0.  1.
</event>
<event>
 8    1  0.1229038E-006  0.9118800E+02  0.7816164E-02  0.1184000E+00
        -11   -1    0    0    0    0  0.00000000000E+00  0.00000000000E+00  0.45593999997E+02  0.45594000000E+02  0.51100000000E-03 0. -1.
         11   -1    0    0    0    0 -0.00000000000E+00 -0.00000000000E+00 -0.45593999997E+02  0.45594000000E+02  0.51100000000E-03 0.  1.
         23    2    1    2    0    0  0.35527136788E-14 -0.35527136788E-14  0.22204460493E-15  0.91188000000E+02  0.91188000000E+02 0.  0.
    9900012    2    3    3    0    0  0.29079789470E+02  0.22500997426E+02  0.19621228224E+01  0.54367096063E+02  0.40000027095E+02 0.  0.
        -12    1    3    3    0    0 -0.29079789470E+02 -0.22500997426E+02 -0.19621228224E+01  0.36820903937E+02  0.00000000000E+00 0.  1.
         11    1    4    4    0    0  0.13827303654E+02  0.20053036535E+02  0.74393679321E+01  0.25468859341E+02  0.51100000000E-03 0. -1.
        -11    1    4    4    0    0  0.74628670317E+01  0.11641170771E+02  0.30200136466E+01  0.14153858977E+02  0.51100000000E-03 0.  1.
        -12    1    4    4    0    0  0.77896187843E+01 -0.91932098808E+01 -0.84972587563E+01  0.14744377745E+02  0.00000000000E+00 0.  1.
</event>
<event>
 8    1  0.1229038E-006  0.9118800E+02  0.7816164E-02  0.1184000E+00
        -11   -1    0    0    0    0  0.00000000000E+00  0.00000000000E+00  0.45593999997E+02  0.45594000000E+02  0.51100000000E-03 0.  1.
         11   -1    0    0    0    0 -0.00000000000E+00 -0.00000000000E+00 -0.45593999997E+02  0.45594000000E+02  0.51100000000E-03 0. -1.
         23    2    1    2    0    0  0.00000000000E+00  0.00000000000E+00 -0.35527136788E-14  0.91188000000E+02  0.91188000000E+02 0.  0.
    9900012    2    3    3    0    0  0.11720144371E+02  0.27338940614E+02  0.21702546097E+02  0.54367082506E+02  0.39999996189E+02 0.  0.
         12    1    3    3    0    0 -0.11720144371E+02 -0.27338940614E+02 -0.21702546097E+02  0.36820917494E+02  0.00000000000E+00 0. -1.
         11    1    4    4    0    0  0.15407095693E+02  0.21054853413E+02  0.38187311935E+01  0.26367938071E+02  0.51100000000E-03 0. -1.
        -11    1    4    4    0    0  0.45606662802E+01  0.66915729233E+01  0.18003183665E+02  0.19740604029E+02  0.51100000000E-03 0.  1.
         12    1    4    4    0    0 -0.82476176023E+01 -0.40748572238E+00 -0.11936876109E+00  0.82585404055E+01  0.00000000000E+00 0. -1.
</event>
<event>
 8    1  0.1229038E-006  0.9118800E+02  0.7816164E-02  0.1184000E+00
        -11   -1    0    0    0    0  0.00000000000E+00  0.00000000000E+00  0.45593999997E+02  0.45594000000E+02  0.51100000000E-03 0.  1.
         11   -1    0    0    0    0 -0.00000000000E+00 -0.00000000000E+00 -0.45593999997E+02  0.45594000000E+02  0.51100000000E-03 0. -1.
         23    2    1    2    0    0  0.35527136788E-14  0.88817841970E-15  0.35527136788E-14  0.91188000000E+02  0.91188000000E+02 0.  0.
    9900012    2    3    3    0    0 -0.24687052292E+02  0.52244569463E+01  0.26815125766E+02  0.54366858368E+02  0.39999485218E+02 0.  0.
         12    1    3    3    0    0  0.24687052292E+02 -0.52244569463E+01 -0.26815125766E+02  0.36821141632E+02  0.00000000000E+00 0. -1.
         11    1    4    4    0    0 -0.84338083474E+01 -0.37390255760E+01  0.28144952952E+02  0.29618369510E+02  0.51100000000E-03 0. -1.
        -11    1    4    4    0    0 -0.42656083494E+01  0.93604436099E+01  0.47166968759E+01  0.11316384089E+02  0.51100000000E-03 0.  1.
         12    1    4    4    0    0 -0.11987635596E+02 -0.39696108764E+00 -0.60465240626E+01  0.13432104769E+02  0.00000000000E+00 0. -1.
</event>
<event>
 8    1  0.1229038E-006  0.9118800E+02  0.7816164E-02  0.1184000E+00
        -11   -1    0    0    0    0  0.00000000000E+00  0.00000000000E+00  0.45593999997E+02  0.45594000000E+02  0.51100000000E-03 0.  1.
         11   -1    0    0    0    0 -0.00000000000E+00 -0.00000000000E+00 -0.45593999997E+02  0.45594000000E+02  0.51100000000E-03 0. -1.
         23    2    1    2    0    0 -0.17763568394E-14  0.00000000000E+00  0.00000000000E+00  0.91188000000E+02  0.91188000000E+02 0.  0.
    9900012    2    3    3    0    0 -0.13122158209E+02  0.12926678685E+02 -0.31882404801E+02  0.54367111991E+02  0.40000063405E+02 0.  0.
        -12    1    3    3    0    0  0.13122158209E+02 -0.12926678685E+02  0.31882404801E+02  0.36820888009E+02  0.00000000000E+00 0.  1.
         11    1    4    4    0    0  0.25898587951E+01 -0.86009768884E+01 -0.22707015124E+02  0.24419105391E+02  0.51100000000E-03 0. -1.
        -11    1    4    4    0    0 -0.48232883528E+01  0.28045070703E+01  0.15331550092E+01  0.57861848385E+01  0.51100000000E-03 0.  1.
         12    1    4    4    0    0 -0.10888728651E+02  0.18723148503E+02 -0.10708544687E+02  0.24161821761E+02  0.00000000000E+00 0. -1.
</event>
<event>
 8    1  0.1229038E-006  0.9118800E+02  0.7816164E-02  0.1184000E+00
        -11   -1    0    0    0    0  0.00000000000E+00  0.00000000000E+00  0.45593999997E+02  0.45594000000E+02  0.51100000000E-03 0.  1.
         11   -1    0    0    0    0 -0.00000000000E+00 -0.00000000000E+00 -0.45593999997E+02  0.45594000000E+02  0.51100000000E-03 0. -1.
         23    2    1    2    0    0  0.00000000000E+00  0.00000000000E+00  0.00000000000E+00  0.91188000000E+02  0.91188000000E+02 0.  0.
    9900012    2    3    3    0    0 -0.34771799404E+01 -0.11915399149E+02 -0.34665719234E+02  0.54367087365E+02  0.40000007267E+02 0.  0.
        -12    1    3    3    0    0  0.34771799404E+01  0.11915399149E+02  0.34665719234E+02  0.36820912635E+02  0.00000000000E+00 0.  1.
         11    1    4    4    0    0 -0.14514743458E+02 -0.56967181116E+01 -0.28715981527E+02  0.32676260040E+02  0.51100000000E-03 0. -1.
        -11    1    4    4    0    0 -0.22014009183E+01 -0.32178179994E+01 -0.70659550800E+01  0.80702069450E+01  0.51100000000E-03 0.  1.
        -12    1    4    4    0    0  0.13238964436E+02 -0.30008630382E+01  0.11162173731E+01  0.13620620380E+02  0.00000000000E+00 0.  1.
</event>
<event>
 8    1  0.1229038E-006  0.9118800E+02  0.7816164E-02  0.1184000E+00
        -11   -1    0    0    0    0  0.00000000000E+00  0.00000000000E+00  0.45593999997E+02  0.45594000000E+02  0.51100000000E-03 0. -1.
         11   -1    0    0    0    0 -0.00000000000E+00 -0.00000000000E+00 -0.45593999997E+02  0.45594000000E+02  0.51100000000E-03 0.  1.
         23    2    1    2    0    0  0.17763568394E-14  0.00000000000E+00 -0.88817841970E-15  0.91188000000E+02  0.91188000000E+02 0.  0.
    9900012    2    3    3    0    0 -0.43814486532E+01 -0.36305969170E+02  0.42971595095E+01  0.54366999613E+02  0.39999807217E+02 0.  0.
        -12    1    3    3    0    0  0.43814486532E+01  0.36305969170E+02 -0.42971595095E+01  0.36821000387E+02  0.00000000000E+00 0.  1.
         11    1    4    4    0    0 -0.55528330102E+00 -0.35910671620E+02  0.80499133434E+01  0.36806056306E+02  0.51100000000E-03 0. -1.
        -11    1    4    4    0    0 -0.84008886940E+01  0.33262989591E+00  0.33754922309E+01  0.90597749177E+01  0.51100000000E-03 0.  1.
         12    1    4    4    0    0  0.45747233419E+01 -0.72792744590E+00 -0.71282460647E+01  0.85011683891E+01  0.00000000000E+00 0. -1.
</event>
<event>
 8    1  0.1229038E-006  0.9118800E+02  0.7816164E-02  0.1184000E+00
        -11   -1    0    0    0    0  0.00000000000E+00  0.00000000000E+00  0.45593999997E+02  0.45594000000E+02  0.51100000000E-03 0.  1.
         11   -1    0    0    0    0 -0.00000000000E+00 -0.00000000000E+00 -0.45593999997E+02  0.45594000000E+02  0.51100000000E-03 0. -1.
         23    2    1    2    0    0  0.00000000000E+00  0.35527136788E-14  0.71054273576E-14  0.91188000000E+02  0.91188000000E+02 0.  0.
    9900012    2    3    3    0    0  0.29143645538E+02 -0.12012315632E+02 -0.19029782126E+02  0.54367076467E+02  0.39999982421E+02 0.  0.
        -12    1    3    3    0    0 -0.29143645538E+02  0.12012315632E+02  0.19029782126E+02  0.36820923533E+02  0.00000000000E+00 0.  1.
         11    1    4    4    0    0  0.10411674479E+02 -0.10799328192E+02 -0.26826571138E+02  0.30735864623E+02  0.51100000000E-03 0. -1.
        -11    1    4    4    0    0  0.18514953326E+02  0.22176070288E+01  0.53101301661E+01  0.19388624506E+02  0.51100000000E-03 0.  1.
        -12    1    4    4    0    0  0.21701773256E+00 -0.34305944682E+01  0.24866588454E+01  0.42425873374E+01  0.00000000000E+00 0.  1.
</event>
<event>
 8    1  0.1229038E-006  0.9118800E+02  0.7816164E-02  0.1184000E+00
        -11   -1    0    0    0    0  0.00000000000E+00  0.00000000000E+00  0.45593999997E+02  0.45594000000E+02  0.51100000000E-03 0. -1.
         11   -1    0    0    0    0 -0.00000000000E+00 -0.00000000000E+00 -0.45593999997E+02  0.45594000000E+02  0.51100000000E-03 0.  1.
         23    2    1    2    0    0 -0.35527136788E-14 -0.17763568394E-14  0.00000000000E+00  0.91188000000E+02  0.91188000000E+02 0.  0.
    9900012    2    3    3    0    0  0.30529926149E+02 -0.11993881727E+02  0.16728729591E+02  0.54367082260E+02  0.39999995627E+02 0.  0.
        -12    1    3    3    0    0 -0.30529926149E+02  0.11993881727E+02 -0.16728729591E+02  0.36820917740E+02  0.00000000000E+00 0.  1.
         11    1    4    4    0    0  0.30615007239E+02 -0.50308845765E+01  0.15590372070E+02  0.34722444750E+02  0.51100000000E-03 0. -1.
        -11    1    4    4    0    0 -0.62719264782E+01  0.30545303680E+00  0.62137901869E+01  0.88341129749E+01  0.51100000000E-03 0.  1.
        -12    1    4    4    0    0  0.61868453879E+01 -0.72684501871E+01 -0.50754326656E+01  0.10810524535E+02  0.00000000000E+00 0.  1.
</event>
<event>
 8    1  0.1229038E-006  0.9118800E+02  0.7816164E-02  0.1184000E+00
        -11   -1    0    0    0    0  0.00000000000E+00  0.00000000000E+00  0.45593999997E+02  0.45594000000E+02  0.51100000000E-03 0. -1.
         11   -1    0    0    0    0 -0.00000000000E+00 -0.00000000000E+00 -0.45593999997E+02  0.45594000000E+02  0.51100000000E-03 0.  1.
         23    2    1    2    0    0  0.00000000000E+00  0.35527136788E-14  0.35527136788E-14  0.91188000000E+02  0.91188000000E+02 0.  0.
    9900012    2    3    3    0    0 -0.16225324138E+02 -0.17076165250E+02 -0.28300594176E+02  0.54367079401E+02  0.39999989110E+02 0.  0.
         12    1    3    3    0    0  0.16225324138E+02  0.17076165250E+02  0.28300594176E+02  0.36820920599E+02  0.00000000000E+00 0. -1.
         11    1    4    4    0    0 -0.34101906457E+01 -0.15423789506E+01  0.13746717905E+01  0.39872366195E+01  0.51100000000E-03 0. -1.
        -11    1    4    4    0    0 -0.23590827380E+02 -0.54979217902E+01 -0.11016557416E+02  0.26610502025E+02  0.51100000000E-03 0.  1.
         12    1    4    4    0    0  0.10775693887E+02 -0.10035864509E+02 -0.18658708551E+02  0.23769340756E+02  0.00000000000E+00 0. -1.
</event>
<event>
 8    1  0.1229038E-006  0.9118800E+02  0.7816164E-02  0.1184000E+00
        -11   -1    0    0    0    0  0.00000000000E+00  0.00000000000E+00  0.45593999997E+02  0.45594000000E+02  0.51100000000E-03 0.  1.
         11   -1    0    0    0    0 -0.00000000000E+00 -0.00000000000E+00 -0.45593999997E+02  0.45594000000E+02  0.51100000000E-03 0. -1.
         23    2    1    2    0    0  0.00000000000E+00 -0.13322676296E-14  0.00000000000E+00  0.91188000000E+02  0.91188000000E+02 0.  0.
    9900012    2    3    3    0    0  0.17276741532E+02 -0.26342252547E+01  0.32409237794E+02  0.54367032671E+02  0.39999882579E+02 0.  0.
         12    1    3    3    0    0 -0.17276741532E+02  0.26342252547E+01 -0.32409237794E+02  0.36820967329E+02  0.00000000000E+00 0. -1.
         11    1    4    4    0    0  0.20537574187E+02  0.14362527434E+02  0.13036066943E+02  0.28249127232E+02  0.51100000000E-03 0. -1.
        -11    1    4    4    0    0 -0.11111818288E+01 -0.33261789791E+01  0.25590394599E+01  0.43412987546E+01  0.51100000000E-03 0.  1.
         12    1    4    4    0    0 -0.21496508263E+01 -0.13670573709E+02  0.16814131391E+02  0.21776606684E+02  0.00000000000E+00 0. -1.
</event>
<event>
 8    1  0.1229038E-006  0.9118800E+02  0.7816164E-02  0.1184000E+00
        -11   -1    0    0    0    0  0.00000000000E+00  0.00000000000E+00  0.45593999997E+02  0.45594000000E+02  0.51100000000E-03 0.  1.
         11   -1    0    0    0    0 -0.00000000000E+00 -0.00000000000E+00 -0.45593999997E+02  0.45594000000E+02  0.51100000000E-03 0. -1.
         23    2    1    2    0    0  0.00000000000E+00 -0.17763568394E-14  0.17763568394E-14  0.91188000000E+02  0.91188000000E+02 0.  0.
    9900012    2    3    3    0    0  0.30256235929E+02  0.14939428442E+02 -0.14736134832E+02  0.54367081970E+02  0.39999994967E+02 0.  0.
        -12    1    3    3    0    0 -0.30256235929E+02 -0.14939428442E+02  0.14736134832E+02  0.36820918030E+02  0.00000000000E+00 0.  1.
         11    1    4    4    0    0  0.23199950342E+02  0.16964538483E+00 -0.38555517489E+01  0.23518753261E+02  0.51100000000E-03 0. -1.
        -11    1    4    4    0    0  0.86549990784E+01  0.67726434384E+01 -0.17282213388E+02  0.20480542182E+02  0.51100000000E-03 0.  1.
        -12    1    4    4    0    0 -0.15987134906E+01  0.79971396187E+01  0.64016303057E+01  0.10367786527E+02  0.00000000000E+00 0.  1.
</event>
<event>
 8    1  0.1229038E-006  0.9118800E+02  0.7816164E-02  0.1184000E+00
        -11   -1    0    0    0    0  0.00000000000E+00  0.00000000000E+00  0.45593999997E+02  0.45594000000E+02  0.51100000000E-03 0.  1.
         11   -1    0    0    0    0 -0.00000000000E+00 -0.00000000000E+00 -0.45593999997E+02  0.45594000000E+02  0.51100000000E-03 0. -1.
         23    2    1    2    0    0 -0.17763568394E-14  0.35527136788E-14  0.00000000000E+00  0.91188000000E+02  0.91188000000E+02 0.  0.
    9900012    2    3    3    0    0 -0.11082760538E+02  0.19111345601E+02  0.29456901114E+02  0.54367080198E+02  0.39999990927E+02 0.  0.
         12    1    3    3    0    0  0.11082760538E+02 -0.19111345601E+02 -0.29456901114E+02  0.36820919802E+02  0.00000000000E+00 0. -1.
         11    1    4    4    0    0 -0.10476060837E+02 -0.36478132362E+01  0.11888141957E+02  0.16259837377E+02  0.51100000000E-03 0. -1.
        -11    1    4    4    0    0 -0.32342021515E+01  0.25277673427E+01 -0.57875619599E+01  0.70954594633E+01  0.51100000000E-03 0.  1.
        -12    1    4    4    0    0  0.26275024501E+01  0.20231391495E+02  0.23356321116E+02  0.31011783358E+02  0.00000000000E+00 0.  1.
</event>
<event>
 8    1  0.1229038E-006  0.9118800E+02  0.7816164E-02  0.1184000E+00
        -11   -1    0    0    0    0  0.00000000000E+00  0.00000000000E+00  0.45593999997E+02  0.45594000000E+02  0.51100000000E-03 0.  1.
         11   -1    0    0    0    0 -0.00000000000E+00 -0.00000000000E+00 -0.45593999997E+02  0.45594000000E+02  0.51100000000E-03 0. -1.
         23    2    1    2    0    0  0.00000000000E+00 -0.17763568394E-14  0.00000000000E+00  0.91188000000E+02  0.91188000000E+02 0.  0.
    9900012    2    3    3    0    0 -0.22907201060E+02  0.15973891989E+02  0.23997348327E+02  0.54367111738E+02  0.40000062829E+02 0.  0.
         12    1    3    3    0    0  0.22907201060E+02 -0.15973891989E+02 -0.23997348327E+02  0.36820888262E+02  0.00000000000E+00 0. -1.
         11    1    4    4    0    0 -0.91331255547E+00  0.75178667234E+01  0.27867334702E+01  0.80695937685E+01  0.51100000000E-03 0. -1.
        -11    1    4    4    0    0  0.54187449606E+01 -0.34480481377E+01  0.14222675198E+02  0.15605650353E+02  0.51100000000E-03 0.  1.
         12    1    4    4    0    0 -0.27412633465E+02  0.11904073404E+02  0.69879396589E+01  0.30691867616E+02  0.00000000000E+00 0. -1.
</event>
<event>
 8    1  0.1229038E-006  0.9118800E+02  0.7816164E-02  0.1184000E+00
        -11   -1    0    0    0    0  0.00000000000E+00  0.00000000000E+00  0.45593999997E+02  0.45594000000E+02  0.51100000000E-03 0. -1.
         11   -1    0    0    0    0 -0.00000000000E+00 -0.00000000000E+00 -0.45593999997E+02  0.45594000000E+02  0.51100000000E-03 0.  1.
         23    2    1    2    0    0  0.00000000000E+00  0.00000000000E+00 -0.35527136788E-14  0.91188000000E+02  0.91188000000E+02 0.  0.
    9900012    2    3    3    0    0 -0.19397623519E+02 -0.18097652836E+02 -0.25534053246E+02  0.54367072370E+02  0.39999973082E+02 0.  0.
         12    1    3    3    0    0  0.19397623519E+02  0.18097652836E+02  0.25534053246E+02  0.36820927630E+02  0.00000000000E+00 0. -1.
         11    1    4    4    0    0 -0.13358696957E+02 -0.13230245786E+02 -0.20912708749E+02  0.28121798936E+02  0.51100000000E-03 0. -1.
        -11    1    4    4    0    0 -0.63697245356E+01 -0.86920442478E+01 -0.13085306006E+02  0.16951408714E+02  0.51100000000E-03 0.  1.
         12    1    4    4    0    0  0.33079797339E+00  0.38246371979E+01  0.84639615092E+01  0.92938647195E+01  0.00000000000E+00 0. -1.
</event>
<event>
 8    1  0.1229038E-006  0.9118800E+02  0.7816164E-02  0.1184000E+00
        -11   -1    0    0    0    0  0.00000000000E+00  0.00000000000E+00  0.45593999997E+02  0.45594000000E+02  0.51100000000E-03 0. -1.
         11   -1    0    0    0    0 -0.00000000000E+00 -0.00000000000E+00 -0.45593999997E+02  0.45594000000E+02  0.51100000000E-03 0.  1.
         23    2    1    2    0    0  0.00000000000E+00  0.17763568394E-14 -0.35527136788E-14  0.91188000000E+02  0.91188000000E+02 0.  0.
    9900012    2    3    3    0    0 -0.24917237415E+02 -0.14558892950E+02  0.22867987587E+02  0.54367150735E+02  0.40000151731E+02 0.  0.
         12    1    3    3    0    0  0.24917237415E+02  0.14558892950E+02 -0.22867987587E+02  0.36820849265E+02  0.00000000000E+00 0. -1.
         11    1    4    4    0    0 -0.29482377471E+01  0.48532533053E+01  0.13361572744E+01  0.58336515136E+01  0.51100000000E-03 0. -1.
        -11    1    4    4    0    0 -0.71341349748E+01  0.84690661588E+01  0.99733965880E+01  0.14902671009E+02  0.51100000000E-03 0.  1.
         12    1    4    4    0    0 -0.14834864693E+02 -0.27881212414E+02  0.11558433725E+02  0.33630828213E+02  0.00000000000E+00 0. -1.
</event>
<event>
 8    1  0.1229038E-006  0.9118800E+02  0.7816164E-02  0.1184000E+00
        -11   -1    0    0    0    0  0.00000000000E+00  0.00000000000E+00  0.45593999997E+02  0.45594000000E+02  0.51100000000E-03 0. -1.
         11   -1    0    0    0    0 -0.00000000000E+00 -0.00000000000E+00 -0.45593999997E+02  0.45594000000E+02  0.51100000000E-03 0.  1.
         23    2    1    2    0    0  0.00000000000E+00  0.00000000000E+00  0.00000000000E+00  0.91188000000E+02  0.91188000000E+02 0.  0.
    9900012    2    3    3    0    0 -0.20231192211E+02  0.10848151966E+02 -0.28788812183E+02  0.54367092267E+02  0.40000018442E+02 0.  0.
         12    1    3    3    0    0  0.20231192211E+02 -0.10848151966E+02  0.28788812183E+02  0.36820907733E+02  0.00000000000E+00 0. -1.
         11    1    4    4    0    0 -0.12785303144E+02  0.11358730475E+02  0.31554800091E+01  0.17390853597E+02  0.51100000000E-03 0. -1.
        -11    1    4    4    0    0 -0.19829167844E+00 -0.14426174175E+01  0.18763974630E+01  0.23751489013E+01  0.51100000000E-03 0.  1.
        -12    1    4    4    0    0 -0.72475973881E+01  0.93203890841E+00 -0.33820689655E+02  0.34601089769E+02  0.00000000000E+00 0.  1.
</event>
<event>
 8    1  0.1229038E-006  0.9118800E+02  0.7816164E-02  0.1184000E+00
        -11   -1    0    0    0    0  0.00000000000E+00  0.00000000000E+00  0.45593999997E+02  0.45594000000E+02  0.51100000000E-03 0.  1.
         11   -1    0    0    0    0 -0.00000000000E+00 -0.00000000000E+00 -0.45593999997E+02  0.45594000000E+02  0.51100000000E-03 0. -1.
         23    2    1    2    0    0  0.35527136788E-14  0.35527136788E-14  0.17763568394E-14  0.91188000000E+02  0.91188000000E+02 0.  0.
    9900012    2    3    3    0    0 -0.22167006396E+02 -0.29107757637E+02 -0.41402698812E+01  0.54367087981E+02  0.40000008671E+02 0.  0.
        -12    1    3    3    0    0  0.22167006396E+02  0.29107757637E+02  0.41402698812E+01  0.36820912019E+02  0.00000000000E+00 0.  1.
         11    1    4    4    0    0 -0.21054497678E+02 -0.10462294556E+02 -0.64625334487E+01  0.24382695066E+02  0.51100000000E-03 0. -1.
        -11    1    4    4    0    0 -0.10203879052E+02 -0.49679912276E+01  0.64451702843E+01  0.13051448379E+02  0.51100000000E-03 0.  1.
        -12    1    4    4    0    0  0.90913703345E+01 -0.13677471853E+02 -0.41229067168E+01  0.16932944536E+02  0.00000000000E+00 0.  1.
</event>
<event>
 8    1  0.1229038E-006  0.9118800E+02  0.7816164E-02  0.1184000E+00
        -11   -1    0    0    0    0  0.00000000000E+00  0.00000000000E+00  0.45593999997E+02  0.45594000000E+02  0.51100000000E-03 0. -1.
         11   -1    0    0    0    0 -0.00000000000E+00 -0.00000000000E+00 -0.45593999997E+02  0.45594000000E+02  0.51100000000E-03 0.  1.
         23    2    1    2    0    0 -0.33306690739E-15 -0.88817841970E-15  0.00000000000E+00  0.91188000000E+02  0.91188000000E+02 0.  0.
    9900012    2    3    3    0    0  0.83120685004E+00  0.68847984547E+01 -0.36161966340E+02  0.54367093382E+02  0.40000020983E+02 0.  0.
         12    1    3    3    0    0 -0.83120685004E+00 -0.68847984547E+01  0.36161966340E+02  0.36820906618E+02  0.00000000000E+00 0. -1.
         11    1    4    4    0    0 -0.43736896788E+01  0.71300027803E+00  0.10083922455E+00  0.44325725728E+01  0.51100000000E-03 0. -1.
        -11    1    4    4    0    0  0.34468970589E+01  0.18192915918E+02 -0.32163245007E+02  0.37112499492E+02  0.51100000000E-03 0.  1.
        -12    1    4    4    0    0  0.17579994700E+01 -0.12021117741E+02 -0.40995605580E+01  0.12822021317E+02  0.00000000000E+00 0.  1.
</event>
<event>
 8    1  0.1229038E-006  0.9118800E+02  0.7816164E-02  0.1184000E+00
        -11   -1    0    0    0    0  0.00000000000E+00  0.00000000000E+00  0.45593999997E+02  0.45594000000E+02  0.51100000000E-03 0. -1.
         11   -1    0    0    0    0 -0.00000000000E+00 -0.00000000000E+00 -0.45593999997E+02  0.45594000000E+02  0.51100000000E-03 0.  1.
         23    2    1    2    0    0  0.00000000000E+00  0.88817841970E-15  0.00000000000E+00  0.91188000000E+02  0.91188000000E+02 0.  0.
    9900012    2    3    3    0    0  0.48572981564E+01  0.62075541623E+01  0.35967307164E+02  0.54367159995E+02  0.40000172839E+02 0.  0.
        -12    1    3    3    0    0 -0.48572981564E+01 -0.62075541623E+01 -0.35967307164E+02  0.36820840005E+02  0.00000000000E+00 0.  1.
         11    1    4    4    0    0  0.33515889277E+01  0.44608516475E+01 -0.12615459478E+01  0.57204758719E+01  0.51100000000E-03 0. -1.
        -11    1    4    4    0    0 -0.76095683921E+01 -0.29873465410E+01  0.37491115892E+02  0.38372041144E+02  0.51100000000E-03 0.  1.
        -12    1    4    4    0    0  0.91152776209E+01  0.47340490558E+01 -0.26226278013E+00  0.10274642978E+02  0.00000000000E+00 0.  1.
</event>
<event>
 8    1  0.1229038E-006  0.9118800E+02  0.7816164E-02  0.1184000E+00
        -11   -1    0    0    0    0  0.00000000000E+00  0.00000000000E+00  0.45593999997E+02  0.45594000000E+02  0.51100000000E-03 0.  1.
         11   -1    0    0    0    0 -0.00000000000E+00 -0.00000000000E+00 -0.45593999997E+02  0.45594000000E+02  0.51100000000E-03 0. -1.
         23    2    1    2    0    0  0.22204460493E-15  0.44408920985E-15  0.00000000000E+00  0.91188000000E+02  0.91188000000E+02 0.  0.
    9900012    2    3    3    0    0  0.16901269665E+01 -0.33759055689E+01 -0.36626853023E+02  0.54367087057E+02  0.40000006565E+02 0.  0.
        -12    1    3    3    0    0 -0.16901269665E+01  0.33759055689E+01  0.36626853023E+02  0.36820912943E+02  0.00000000000E+00 0.  1.
         11    1    4    4    0    0  0.14181478674E+02 -0.64021650894E+01 -0.31986005297E+02  0.35569742624E+02  0.51100000000E-03 0. -1.
        -11    1    4    4    0    0 -0.53329109023E+01  0.31085804076E+01 -0.86235676113E+01  0.10605146366E+02  0.51100000000E-03 0.  1.
        -12    1    4    4    0    0 -0.71584408055E+01 -0.82320887098E-01  0.39827198850E+01  0.81921980674E+01  0.00000000000E+00 0.  1.
</event>
<event>
 8    1  0.1229038E-006  0.9118800E+02  0.7816164E-02  0.1184000E+00
        -11   -1    0    0    0    0  0.00000000000E+00  0.00000000000E+00  0.45593999997E+02  0.45594000000E+02  0.51100000000E-03 0. -1.
         11   -1    0    0    0    0 -0.00000000000E+00 -0.00000000000E+00 -0.45593999997E+02  0.45594000000E+02  0.51100000000E-03 0.  1.
         23    2    1    2    0    0  0.00000000000E+00  0.00000000000E+00  0.88817841970E-15  0.91188000000E+02  0.91188000000E+02 0.  0.
    9900012    2    3    3    0    0 -0.23866318363E+02  0.27687266706E+02  0.44264752083E+01  0.54367087835E+02  0.40000008338E+02 0.  0.
        -12    1    3    3    0    0  0.23866318363E+02 -0.27687266706E+02 -0.44264752083E+01  0.36820912165E+02  0.00000000000E+00 0.  1.
         11    1    4    4    0    0 -0.18451447989E+02 -0.48226618160E-03  0.36948274422E+01  0.18817749154E+02  0.51100000000E-03 0. -1.
        -11    1    4    4    0    0 -0.64135572999E+01  0.28150598145E+02  0.65684097042E+01  0.29609692660E+02  0.51100000000E-03 0.  1.
         12    1    4    4    0    0  0.99868692589E+00 -0.46284917254E+00 -0.58367619381E+01  0.59396460210E+01  0.00000000000E+00 0. -1.
</event>
<event>
 8    1  0.1229038E-006  0.9118800E+02  0.7816164E-02  0.1184000E+00
        -11   -1    0    0    0    0  0.00000000000E+00  0.00000000000E+00  0.45593999997E+02  0.45594000000E+02  0.51100000000E-03 0. -1.
         11   -1    0    0    0    0 -0.00000000000E+00 -0.00000000000E+00 -0.45593999997E+02  0.45594000000E+02  0.51100000000E-03 0.  1.
         23    2    1    2    0    0  0.00000000000E+00  0.00000000000E+00  0.00000000000E+00  0.91188000000E+02  0.91188000000E+02 0.  0.
    9900012    2    3    3    0    0 -0.16336336411E+02 -0.29900310978E+02  0.13959792279E+02  0.54367078170E+02  0.39999986305E+02 0.  0.
         12    1    3    3    0    0  0.16336336411E+02  0.29900310978E+02 -0.13959792279E+02  0.36820921830E+02  0.00000000000E+00 0. -1.
         11    1    4    4    0    0  0.35327041401E-01  0.34706956705E+01  0.12053614014E+02  0.12543388199E+02  0.51100000000E-03 0. -1.
        -11    1    4    4    0    0 -0.18617664224E+02 -0.16935128535E+02  0.18400129561E+01  0.25234929118E+02  0.51100000000E-03 0.  1.
        -12    1    4    4    0    0  0.22460007714E+01 -0.16435878113E+02  0.66165308600E-01  0.16588760854E+02  0.00000000000E+00 0.  1.
</event>
<event>
 8    1  0.1229038E-006  0.9118800E+02  0.7816164E-02  0.1184000E+00
        -11   -1    0    0    0    0  0.00000000000E+00  0.00000000000E+00  0.45593999997E+02  0.45594000000E+02  0.51100000000E-03 0. -1.
         11   -1    0    0    0    0 -0.00000000000E+00 -0.00000000000E+00 -0.45593999997E+02  0.45594000000E+02  0.51100000000E-03 0.  1.
         23    2    1    2    0    0  0.00000000000E+00  0.17763568394E-14 -0.44408920985E-15  0.91188000000E+02  0.91188000000E+02 0.  0.
    9900012    2    3    3    0    0  0.35261055639E+02 -0.99922967307E+01  0.35483587807E+01  0.54367097122E+02  0.40000029509E+02 0.  0.
        -12    1    3    3    0    0 -0.35261055639E+02  0.99922967307E+01 -0.35483587807E+01  0.36820902878E+02  0.00000000000E+00 0.  1.
         11    1    4    4    0    0  0.17604499833E+02  0.12164127599E+02  0.45895560702E+00  0.21403155261E+02  0.51100000000E-03 0. -1.
        -11    1    4    4    0    0  0.10277663333E+01 -0.79254105692E+01 -0.52280043561E+01  0.95498935143E+01  0.51100000000E-03 0.  1.
         12    1    4    4    0    0  0.16628789472E+02 -0.14231013760E+02  0.83174075298E+01  0.23414048346E+02  0.00000000000E+00 0. -1.
</event>
<event>
 8    1  0.1229038E-006  0.9118800E+02  0.7816164E-02  0.1184000E+00
        -11   -1    0    0    0    0  0.00000000000E+00  0.00000000000E+00  0.45593999997E+02  0.45594000000E+02  0.51100000000E-03 0. -1.
         11   -1    0    0    0    0 -0.00000000000E+00 -0.00000000000E+00 -0.45593999997E+02  0.45594000000E+02  0.51100000000E-03 0.  1.
         23    2    1    2    0    0  0.17763568394E-14  0.00000000000E+00  0.00000000000E+00  0.91188000000E+02  0.91188000000E+02 0.  0.
    9900012    2    3    3    0    0  0.13726592248E+02  0.32156912092E+02  0.11545262984E+02  0.54367089808E+02  0.40000012835E+02 0.  0.
        -12    1    3    3    0    0 -0.13726592248E+02 -0.32156912092E+02 -0.11545262984E+02  0.36820910192E+02  0.00000000000E+00 0.  1.
         11    1    4    4    0    0 -0.11193377779E+01  0.33955785484E+02  0.10017776188E+02  0.35420391372E+02  0.51100000000E-03 0. -1.
        -11    1    4    4    0    0  0.12543832738E+02  0.18733993200E+00  0.57036475235E+01  0.13780944501E+02  0.51100000000E-03 0.  1.
         12    1    4    4    0    0  0.23020972876E+01 -0.19862133243E+01 -0.41761607277E+01  0.51657539348E+01  0.00000000000E+00 0. -1.
</event>
<event>
 8    1  0.1229038E-006  0.9118800E+02  0.7816164E-02  0.1184000E+00
        -11   -1    0    0    0    0  0.00000000000E+00  0.00000000000E+00  0.45593999997E+02  0.45594000000E+02  0.51100000000E-03 0. -1.
         11   -1    0    0    0    0 -0.00000000000E+00 -0.00000000000E+00 -0.45593999997E+02  0.45594000000E+02  0.51100000000E-03 0.  1.
         23    2    1    2    0    0  0.35527136788E-14  0.00000000000E+00 -0.35527136788E-14  0.91188000000E+02  0.91188000000E+02 0.  0.
    9900012    2    3    3    0    0 -0.27062380141E+02  0.80189374646E+01  0.23645346847E+02  0.54367106414E+02  0.40000050692E+02 0.  0.
        -12    1    3    3    0    0  0.27062380141E+02 -0.80189374646E+01 -0.23645346847E+02  0.36820893586E+02  0.00000000000E+00 0.  1.
         11    1    4    4    0    0 -0.18131893091E+02 -0.27402833171E+01  0.32040553096E+02  0.36917092825E+02  0.51100000000E-03 0. -1.
        -11    1    4    4    0    0 -0.57775465880E+00  0.23061834672E+01  0.70769987500E+00  0.24805487305E+01  0.51100000000E-03 0.  1.
         12    1    4    4    0    0 -0.83527323917E+01  0.84530373145E+01 -0.91029061237E+01  0.14969464858E+02  0.00000000000E+00 0. -1.
</event>
<event>
 8    1  0.1229038E-006  0.9118800E+02  0.7816164E-02  0.1184000E+00
        -11   -1    0    0    0    0  0.00000000000E+00  0.00000000000E+00  0.45593999997E+02  0.45594000000E+02  0.51100000000E-03 0. -1.
         11   -1    0    0    0    0 -0.00000000000E+00 -0.00000000000E+00 -0.45593999997E+02  0.45594000000E+02  0.51100000000E-03 0.  1.
         23    2    1    2    0    0 -0.35527136788E-14  0.00000000000E+00  0.00000000000E+00  0.91188000000E+02  0.91188000000E+02 0.  0.
    9900012    2    3    3    0    0 -0.27849235366E+02 -0.16684671694E+02  0.17373335345E+02  0.54366933190E+02  0.39999655792E+02 0.  0.
        -12    1    3    3    0    0  0.27849235366E+02  0.16684671694E+02 -0.17373335345E+02  0.36821066810E+02  0.00000000000E+00 0.  1.
         11    1    4    4    0    0 -0.53542992228E+01 -0.95207739787E+01  0.70554771238E+00  0.10945841912E+02  0.51100000000E-03 0.  1.
        -11    1    4    4    0    0 -0.15655639348E+02 -0.16868819314E+02  0.20627469363E+02  0.30905478496E+02  0.51100000000E-03 0. -1.
        -12    1    4    4    0    0 -0.68392967956E+01  0.97049215994E+01 -0.39596817312E+01  0.12515612782E+02  0.00000000000E+00 0.  1.
</event>
<event>
 8    1  0.1229038E-006  0.9118800E+02  0.7816164E-02  0.1184000E+00
        -11   -1    0    0    0    0  0.00000000000E+00  0.00000000000E+00  0.45593999997E+02  0.45594000000E+02  0.51100000000E-03 0. -1.
         11   -1    0    0    0    0 -0.00000000000E+00 -0.00000000000E+00 -0.45593999997E+02  0.45594000000E+02  0.51100000000E-03 0.  1.
         23    2    1    2    0    0  0.00000000000E+00  0.00000000000E+00 -0.11102230246E-14  0.91188000000E+02  0.91188000000E+02 0.  0.
    9900012    2    3    3    0    0  0.31814003777E+02  0.18472229039E+02 -0.15591957804E+01  0.54367011780E+02  0.39999834955E+02 0.  0.
        -12    1    3    3    0    0 -0.31814003777E+02 -0.18472229039E+02  0.15591957804E+01  0.36820988220E+02  0.00000000000E+00 0.  1.
         11    1    4    4    0    0  0.76903612900E+01 -0.82130888544E+01  0.21414043436E+01  0.11453475373E+02  0.51100000000E-03 0. -1.
        -11    1    4    4    0    0 -0.10197393358E+01  0.62083419349E+01  0.63756867109E+01  0.89572740937E+01  0.51100000000E-03 0.  1.
         12    1    4    4    0    0  0.25143381823E+02  0.20476975959E+02 -0.10076286835E+02  0.33956262313E+02  0.00000000000E+00 0. -1.
</event>
<event>
 8    1  0.1229038E-006  0.9118800E+02  0.7816164E-02  0.1184000E+00
        -11   -1    0    0    0    0  0.00000000000E+00  0.00000000000E+00  0.45593999997E+02  0.45594000000E+02  0.51100000000E-03 0.  1.
         11   -1    0    0    0    0 -0.00000000000E+00 -0.00000000000E+00 -0.45593999997E+02  0.45594000000E+02  0.51100000000E-03 0. -1.
         23    2    1    2    0    0  0.00000000000E+00 -0.17763568394E-14  0.00000000000E+00  0.91188000000E+02  0.91188000000E+02 0.  0.
    9900012    2    3    3    0    0 -0.33015445529E+02  0.11697991285E+02 -0.11354150628E+02  0.54367090451E+02  0.40000014300E+02 0.  0.
        -12    1    3    3    0    0  0.33015445529E+02 -0.11697991285E+02  0.11354150628E+02  0.36820909549E+02  0.00000000000E+00 0.  1.
         11    1    4    4    0    0 -0.14172444209E+02  0.74946242707E+01 -0.15951111826E+02  0.22615603829E+02  0.51100000000E-03 0. -1.
        -11    1    4    4    0    0 -0.99581540443E+01 -0.92764713624E+01 -0.29571362659E+01  0.13927038740E+02  0.51100000000E-03 0.  1.
        -12    1    4    4    0    0 -0.88848472753E+01  0.13479838377E+02  0.75540974640E+01  0.17824447881E+02  0.00000000000E+00 0.  1.
</event>
<event>
 8    1  0.1229038E-006  0.9118800E+02  0.7816164E-02  0.1184000E+00
        -11   -1    0    0    0    0  0.00000000000E+00  0.00000000000E+00  0.45593999997E+02  0.45594000000E+02  0.51100000000E-03 0.  1.
         11   -1    0    0    0    0 -0.00000000000E+00 -0.00000000000E+00 -0.45593999997E+02  0.45594000000E+02  0.51100000000E-03 0. -1.
         23    2    1    2    0    0  0.35527136788E-14  0.00000000000E+00  0.88817841970E-15  0.91188000000E+02  0.91188000000E+02 0.  0.
    9900012    2    3    3    0    0  0.31042448775E+02  0.18512304343E+02 -0.70311492541E+01  0.54367135020E+02  0.40000115906E+02 0.  0.
        -12    1    3    3    0    0 -0.31042448775E+02 -0.18512304343E+02  0.70311492541E+01  0.36820864980E+02  0.00000000000E+00 0.  1.
         11    1    4    4    0    0  0.10917659515E+02  0.24595668248E+02 -0.16033943151E+02  0.31324583302E+02  0.51100000000E-03 0. -1.
        -11    1    4    4    0    0  0.11573148625E+02 -0.49378068378E+01  0.52619090893E+01  0.13638452735E+02  0.51100000000E-03 0.  1.
         12    1    4    4    0    0  0.85516406347E+01 -0.11455570675E+01  0.37408848078E+01  0.94040989832E+01  0.00000000000E+00 0. -1.
</event>
<event>
 8    1  0.1229038E-006  0.9118800E+02  0.7816164E-02  0.1184000E+00
        -11   -1    0    0    0    0  0.00000000000E+00  0.00000000000E+00  0.45593999997E+02  0.45594000000E+02  0.51100000000E-03 0.  1.
         11   -1    0    0    0    0 -0.00000000000E+00 -0.00000000000E+00 -0.45593999997E+02  0.45594000000E+02  0.51100000000E-03 0. -1.
         23    2    1    2    0    0  0.00000000000E+00  0.17763568394E-14  0.35527136788E-14  0.91188000000E+02  0.91188000000E+02 0.  0.
    9900012    2    3    3    0    0  0.24944820517E+02  0.13675001506E+02  0.23377979945E+02  0.54367086335E+02  0.40000004918E+02 0.  0.
         12    1    3    3    0    0 -0.24944820517E+02 -0.13675001506E+02 -0.23377979945E+02  0.36820913665E+02  0.00000000000E+00 0. -1.
         11    1    4    4    0    0  0.13268164708E+01  0.15495365845E+02  0.22435824640E+02  0.27298956613E+02  0.51100000000E-03 0. -1.
        -11    1    4    4    0    0  0.14090013560E+02  0.95504599785E+00  0.66608686204E+01  0.15614344879E+02  0.51100000000E-03 0.  1.
         12    1    4    4    0    0  0.95279904862E+01 -0.27754103363E+01 -0.57187133152E+01  0.11453784843E+02  0.00000000000E+00 0. -1.
</event>
<event>
 8    1  0.1229038E-006  0.9118800E+02  0.7816164E-02  0.1184000E+00
        -11   -1    0    0    0    0  0.00000000000E+00  0.00000000000E+00  0.45593999997E+02  0.45594000000E+02  0.51100000000E-03 0.  1.
         11   -1    0    0    0    0 -0.00000000000E+00 -0.00000000000E+00 -0.45593999997E+02  0.45594000000E+02  0.51100000000E-03 0. -1.
         23    2    1    2    0    0  0.00000000000E+00 -0.17763568394E-14 -0.71054273576E-14  0.91188000000E+02  0.91188000000E+02 0.  0.
    9900012    2    3    3    0    0 -0.25073047569E+01 -0.13488140230E+02 -0.34169588116E+02  0.54367119293E+02  0.40000080052E+02 0.  0.
        -12    1    3    3    0    0  0.25073047569E+01  0.13488140230E+02  0.34169588116E+02  0.36820880707E+02  0.00000000000E+00 0.  1.
         11    1    4    4    0    0  0.28785422988E+01 -0.35774664360E+01  0.12670313265E+01  0.47633644108E+01  0.51100000000E-03 0. -1.
        -11    1    4    4    0    0  0.66493173707E+01 -0.81295350906E+01  0.15966985642E+01  0.10623192027E+02  0.51100000000E-03 0.  1.
         12    1    4    4    0    0 -0.12035164426E+02 -0.17811387037E+01 -0.37033318007E+02  0.38980562855E+02  0.00000000000E+00 0. -1.
</event>
<event>
 8    1  0.1229038E-006  0.9118800E+02  0.7816164E-02  0.1184000E+00
        -11   -1    0    0    0    0  0.00000000000E+00  0.00000000000E+00  0.45593999997E+02  0.45594000000E+02  0.51100000000E-03 0. -1.
         11   -1    0    0    0    0 -0.00000000000E+00 -0.00000000000E+00 -0.45593999997E+02  0.45594000000E+02  0.51100000000E-03 0.  1.
         23    2    1    2    0    0 -0.35527136788E-14 -0.35527136788E-14  0.17763568394E-14  0.91188000000E+02  0.91188000000E+02 0.  0.
    9900012    2    3    3    0    0 -0.20421344748E+02 -0.30110416737E+02 -0.56665792322E+01  0.54367100532E+02  0.40000037283E+02 0.  0.
        -12    1    3    3    0    0  0.20421344748E+02  0.30110416737E+02  0.56665792322E+01  0.36820899468E+02  0.00000000000E+00 0.  1.
         11    1    4    4    0    0 -0.98753500907E+01 -0.20275639149E+02 -0.94805935176E+01  0.24464376878E+02  0.51100000000E-03 0. -1.
        -11    1    4    4    0    0 -0.57291203820E+01 -0.87134888232E+01 -0.10475715134E+02  0.14781350265E+02  0.51100000000E-03 0.  1.
        -12    1    4    4    0    0 -0.48168742756E+01 -0.11212887650E+01  0.14289729420E+02  0.15121373389E+02  0.00000000000E+00 0.  1.
</event>
<event>
 8    1  0.1229038E-006  0.9118800E+02  0.7816164E-02  0.1184000E+00
        -11   -1    0    0    0    0  0.00000000000E+00  0.00000000000E+00  0.45593999997E+02  0.45594000000E+02  0.51100000000E-03 0. -1.
         11   -1    0    0    0    0 -0.00000000000E+00 -0.00000000000E+00 -0.45593999997E+02  0.45594000000E+02  0.51100000000E-03 0.  1.
         23    2    1    2    0    0  0.17763568394E-14  0.00000000000E+00 -0.88817841970E-15  0.91188000000E+02  0.91188000000E+02 0.  0.
    9900012    2    3    3    0    0  0.11092801590E+02 -0.35033248653E+02  0.23239070099E+01  0.54367091509E+02  0.40000016713E+02 0.  0.
         12    1    3    3    0    0 -0.11092801590E+02  0.35033248653E+02 -0.23239070099E+01  0.36820908491E+02  0.00000000000E+00 0. -1.
         11    1    4    4    0    0  0.18792145751E+02 -0.85717239317E+01  0.12816299923E+02  0.24307956251E+02  0.51100000000E-03 0. -1.
        -11    1    4    4    0    0 -0.52545485216E+01 -0.86806692580E+01 -0.27568384325E+01  0.10514963497E+02  0.51100000000E-03 0.  1.
         12    1    4    4    0    0 -0.24447956392E+01 -0.17780855463E+02 -0.77355544807E+01  0.19544171762E+02  0.00000000000E+00 0. -1.
</event>
<event>
 8    1  0.1229038E-006  0.9118800E+02  0.7816164E-02  0.1184000E+00
        -11   -1    0    0    0    0  0.00000000000E+00  0.00000000000E+00  0.45593999997E+02  0.45594000000E+02  0.51100000000E-03 0. -1.
         11   -1    0    0    0    0 -0.00000000000E+00 -0.00000000000E+00 -0.45593999997E+02  0.45594000000E+02  0.51100000000E-03 0.  1.
         23    2    1    2    0    0 -0.71054273576E-14  0.88817841970E-15  0.00000000000E+00  0.91188000000E+02  0.91188000000E+02 0.  0.
    9900012    2    3    3    0    0  0.32642193832E+02  0.22383168412E+01  0.16889430029E+02  0.54367140054E+02  0.40000127380E+02 0.  0.
        -12    1    3    3    0    0 -0.32642193832E+02 -0.22383168412E+01 -0.16889430029E+02  0.36820859946E+02  0.00000000000E+00 0.  1.
         11    1    4    4    0    0  0.46256808652E+01 -0.22411404913E+01 -0.44356122610E+01  0.67892776169E+01  0.51100000000E-03 0. -1.
        -11    1    4    4    0    0  0.66146257816E+01 -0.12313812021E+02  0.18023320036E+01  0.14093673816E+02  0.51100000000E-03 0.  1.
        -12    1    4    4    0    0  0.21401887186E+02  0.16793269353E+02  0.19522710287E+02  0.33484188621E+02  0.00000000000E+00 0.  1.
</event>
<event>
 8    1  0.1229038E-006  0.9118800E+02  0.7816164E-02  0.1184000E+00
        -11   -1    0    0    0    0  0.00000000000E+00  0.00000000000E+00  0.45593999997E+02  0.45594000000E+02  0.51100000000E-03 0. -1.
         11   -1    0    0    0    0 -0.00000000000E+00 -0.00000000000E+00 -0.45593999997E+02  0.45594000000E+02  0.51100000000E-03 0.  1.
         23    2    1    2    0    0  0.00000000000E+00  0.17763568394E-14  0.00000000000E+00  0.91188000000E+02  0.91188000000E+02 0.  0.
    9900012    2    3    3    0    0 -0.22905918013E+02 -0.14841063107E+02  0.24715203684E+02  0.54367088451E+02  0.40000009742E+02 0.  0.
        -12    1    3    3    0    0  0.22905918013E+02  0.14841063107E+02 -0.24715203684E+02  0.36820911549E+02  0.00000000000E+00 0.  1.
         11    1    4    4    0    0 -0.18633130188E+01 -0.21121663756E+02  0.16744553935E+02  0.27018081019E+02  0.51100000000E-03 0. -1.
        -11    1    4    4    0    0 -0.20886113865E+02  0.75449954260E+01  0.32308015223E+01  0.22440917697E+02  0.51100000000E-03 0.  1.
        -12    1    4    4    0    0 -0.15649112856E+00 -0.12643947767E+01  0.47398482269E+01  0.49080897342E+01  0.00000000000E+00 0.  1.
</event>
<event>
 8    1  0.1229038E-006  0.9118800E+02  0.7816164E-02  0.1184000E+00
        -11   -1    0    0    0    0  0.00000000000E+00  0.00000000000E+00  0.45593999997E+02  0.45594000000E+02  0.51100000000E-03 0.  1.
         11   -1    0    0    0    0 -0.00000000000E+00 -0.00000000000E+00 -0.45593999997E+02  0.45594000000E+02  0.51100000000E-03 0. -1.
         23    2    1    2    0    0  0.00000000000E+00  0.00000000000E+00  0.35527136788E-14  0.91188000000E+02  0.91188000000E+02 0.  0.
    9900012    2    3    3    0    0  0.94345580830E+01  0.21623441299E+02  0.28270052098E+02  0.54367082773E+02  0.39999996797E+02 0.  0.
         12    1    3    3    0    0 -0.94345580830E+01 -0.21623441299E+02 -0.28270052098E+02  0.36820917227E+02  0.00000000000E+00 0. -1.
         11    1    4    4    0    0  0.10949585217E+02  0.14024344160E+02  0.18145805509E+01  0.17884863667E+02  0.51100000000E-03 0. -1.
        -11    1    4    4    0    0  0.10585731727E+02  0.75761736221E+01  0.13448031779E+02  0.18716454844E+02  0.51100000000E-03 0.  1.
         12    1    4    4    0    0 -0.12100758861E+02  0.22923516924E-01  0.13007439769E+02  0.17765764263E+02  0.00000000000E+00 0. -1.
</event>
<event>
 8    1  0.1229038E-006  0.9118800E+02  0.7816164E-02  0.1184000E+00
        -11   -1    0    0    0    0  0.00000000000E+00  0.00000000000E+00  0.45593999997E+02  0.45594000000E+02  0.51100000000E-03 0.  1.
         11   -1    0    0    0    0 -0.00000000000E+00 -0.00000000000E+00 -0.45593999997E+02  0.45594000000E+02  0.51100000000E-03 0. -1.
         23    2    1    2    0    0 -0.35527136788E-14  0.00000000000E+00  0.00000000000E+00  0.91188000000E+02  0.91188000000E+02 0.  0.
    9900012    2    3    3    0    0 -0.18843171217E+02  0.31570849822E+02 -0.19986221533E+01  0.54367107147E+02  0.40000052362E+02 0.  0.
        -12    1    3    3    0    0  0.18843171217E+02 -0.31570849822E+02  0.19986221533E+01  0.36820892853E+02  0.00000000000E+00 0.  1.
         11    1    4    4    0    0 -0.13270777285E+01  0.12774786313E+02 -0.29621826693E+01  0.13180699036E+02  0.51100000000E-03 0. -1.
        -11    1    4    4    0    0  0.18398279396E+01  0.15188424511E+02  0.11232596334E+02  0.18980106076E+02  0.51100000000E-03 0.  1.
        -12    1    4    4    0    0 -0.19355921428E+02  0.36076389980E+01 -0.10269035818E+02  0.22206302035E+02  0.00000000000E+00 0.  1.
</event>
<event>
 8    1  0.1229038E-006  0.9118800E+02  0.7816164E-02  0.1184000E+00
        -11   -1    0    0    0    0  0.00000000000E+00  0.00000000000E+00  0.45593999997E+02  0.45594000000E+02  0.51100000000E-03 0.  1.
         11   -1    0    0    0    0 -0.00000000000E+00 -0.00000000000E+00 -0.45593999997E+02  0.45594000000E+02  0.51100000000E-03 0. -1.
         23    2    1    2    0    0  0.00000000000E+00  0.00000000000E+00  0.00000000000E+00  0.91188000000E+02  0.91188000000E+02 0.  0.
    9900012    2    3    3    0    0  0.24905257241E+01 -0.18309345268E+02 -0.31848810247E+02  0.54367060894E+02  0.39999946920E+02 0.  0.
        -12    1    3    3    0    0 -0.24905257241E+01  0.18309345268E+02  0.31848810247E+02  0.36820939106E+02  0.00000000000E+00 0.  1.
         11    1    4    4    0    0  0.16448932320E+01 -0.21450881264E+02 -0.18262623510E+02  0.28220017691E+02  0.51100000000E-03 0. -1.
        -11    1    4    4    0    0 -0.44298516817E+00 -0.90651635084E+01 -0.96720199450E+01  0.13263536307E+02  0.51100000000E-03 0.  1.
         12    1    4    4    0    0  0.12886176603E+01  0.12206699504E+02 -0.39141667916E+01  0.12883506896E+02  0.00000000000E+00 0. -1.
</event>
<event>
 8    1  0.1229038E-006  0.9118800E+02  0.7816164E-02  0.1184000E+00
        -11   -1    0    0    0    0  0.00000000000E+00  0.00000000000E+00  0.45593999997E+02  0.45594000000E+02  0.51100000000E-03 0. -1.
         11   -1    0    0    0    0 -0.00000000000E+00 -0.00000000000E+00 -0.45593999997E+02  0.45594000000E+02  0.51100000000E-03 0.  1.
         23    2    1    2    0    0  0.35527136788E-14 -0.35527136788E-14  0.17763568394E-14  0.91188000000E+02  0.91188000000E+02 0.  0.
    9900012    2    3    3    0    0  0.27589009986E+02 -0.21064714178E+02  0.12284321420E+02  0.54367079206E+02  0.39999988666E+02 0.  0.
        -12    1    3    3    0    0 -0.27589009986E+02  0.21064714178E+02 -0.12284321420E+02  0.36820920794E+02  0.00000000000E+00 0.  1.
         11    1    4    4    0    0  0.30713599303E+02 -0.23214446672E+02  0.21662759807E+01  0.38560711460E+02  0.51100000000E-03 0. -1.
        -11    1    4    4    0    0 -0.10178764879E+01 -0.25293560032E+01 -0.14954667876E+01  0.31096841494E+01  0.51100000000E-03 0.  1.
        -12    1    4    4    0    0 -0.21067128289E+01  0.46790884974E+01  0.11613512227E+02  0.12696683596E+02  0.00000000000E+00 0.  1.
</event>
<event>
 8    1  0.1229038E-006  0.9118800E+02  0.7816164E-02  0.1184000E+00
        -11   -1    0    0    0    0  0.00000000000E+00  0.00000000000E+00  0.45593999997E+02  0.45594000000E+02  0.51100000000E-03 0.  1.
         11   -1    0    0    0    0 -0.00000000000E+00 -0.00000000000E+00 -0.45593999997E+02  0.45594000000E+02  0.51100000000E-03 0. -1.
         23    2    1    2    0    0 -0.35527136788E-14  0.00000000000E+00  0.17763568394E-14  0.91188000000E+02  0.91188000000E+02 0.  0.
    9900012    2    3    3    0    0 -0.23961749230E+02  0.24118036594E+02  0.14139899522E+02  0.54367056587E+02  0.39999937101E+02 0.  0.
         12    1    3    3    0    0  0.23961749230E+02 -0.24118036594E+02 -0.14139899522E+02  0.36820943413E+02  0.00000000000E+00 0. -1.
         11    1    4    4    0    0 -0.18028937679E+02  0.11322593296E+02 -0.34844106240E+01  0.21572779849E+02  0.51100000000E-03 0. -1.
        -11    1    4    4    0    0 -0.12942499193E+02  0.15234248105E+02  0.10844231598E+02  0.22741766860E+02  0.51100000000E-03 0.  1.
        -12    1    4    4    0    0  0.70096876412E+01 -0.24388048073E+01  0.67800785484E+01  0.10052509878E+02  0.00000000000E+00 0.  1.
</event>
<event>
 8    1  0.1229038E-006  0.9118800E+02  0.7816164E-02  0.1184000E+00
        -11   -1    0    0    0    0  0.00000000000E+00  0.00000000000E+00  0.45593999997E+02  0.45594000000E+02  0.51100000000E-03 0.  1.
         11   -1    0    0    0    0 -0.00000000000E+00 -0.00000000000E+00 -0.45593999997E+02  0.45594000000E+02  0.51100000000E-03 0. -1.
         23    2    1    2    0    0  0.44408920985E-15  0.00000000000E+00  0.00000000000E+00  0.91188000000E+02  0.91188000000E+02 0.  0.
    9900012    2    3    3    0    0  0.26836715321E+01  0.35136160922E+02 -0.10678793370E+02  0.54366966268E+02  0.39999731201E+02 0.  0.
        -12    1    3    3    0    0 -0.26836715321E+01 -0.35136160922E+02  0.10678793370E+02  0.36821033732E+02  0.00000000000E+00 0.  1.
         11    1    4    4    0    0 -0.77986127201E+01  0.31757870044E+02 -0.27075147371E+01  0.32813279422E+02  0.51100000000E-03 0.  1.
        -11    1    4    4    0    0  0.74853050843E+01  0.87671250316E+01 -0.66131019584E-01  0.11528080807E+02  0.51100000000E-03 0. -1.
        -12    1    4    4    0    0  0.29969791679E+01 -0.53888341540E+01 -0.79051476128E+01  0.10025606039E+02  0.00000000000E+00 0.  1.
</event>
<event>
 8    1  0.1229038E-006  0.9118800E+02  0.7816164E-02  0.1184000E+00
        -11   -1    0    0    0    0  0.00000000000E+00  0.00000000000E+00  0.45593999997E+02  0.45594000000E+02  0.51100000000E-03 0. -1.
         11   -1    0    0    0    0 -0.00000000000E+00 -0.00000000000E+00 -0.45593999997E+02  0.45594000000E+02  0.51100000000E-03 0.  1.
         23    2    1    2    0    0  0.17763568394E-14  0.00000000000E+00 -0.35527136788E-14  0.91188000000E+02  0.91188000000E+02 0.  0.
    9900012    2    3    3    0    0  0.14744394819E+02  0.22015401849E+02 -0.25567679261E+02  0.54367064108E+02  0.39999954248E+02 0.  0.
         12    1    3    3    0    0 -0.14744394819E+02 -0.22015401849E+02  0.25567679261E+02  0.36820935892E+02  0.00000000000E+00 0. -1.
         11    1    4    4    0    0  0.98063272396E+01  0.39817779209E+01  0.49117927217E+00  0.10595275677E+02  0.51100000000E-03 0. -1.
        -11    1    4    4    0    0  0.73403940643E+00  0.16918478381E+02  0.41850533228E+00  0.16939565270E+02  0.51100000000E-03 0.  1.
         12    1    4    4    0    0  0.42040281726E+01  0.11151455469E+01 -0.26477363866E+02  0.26832223161E+02  0.00000000000E+00 0. -1.
</event>
<event>
 8    1  0.1229038E-006  0.9118800E+02  0.7816164E-02  0.1184000E+00
        -11   -1    0    0    0    0  0.00000000000E+00  0.00000000000E+00  0.45593999997E+02  0.45594000000E+02  0.51100000000E-03 0.  1.
         11   -1    0    0    0    0 -0.00000000000E+00 -0.00000000000E+00 -0.45593999997E+02  0.45594000000E+02  0.51100000000E-03 0. -1.
         23    2    1    2    0    0 -0.17763568394E-14 -0.35527136788E-14  0.35527136788E-14  0.91188000000E+02  0.91188000000E+02 0.  0.
    9900012    2    3    3    0    0  0.12809248521E+02  0.19368399922E+02  0.28575663111E+02  0.54367078156E+02  0.39999986272E+02 0.  0.
         12    1    3    3    0    0 -0.12809248521E+02 -0.19368399922E+02 -0.28575663111E+02  0.36820921844E+02  0.00000000000E+00 0. -1.
         11    1    4    4    0    0 -0.17530881753E+01 -0.85098634884E+01  0.69207142553E+01  0.11107987253E+02  0.51100000000E-03 0.  1.
        -11    1    4    4    0    0  0.95558397448E+01  0.13525845089E+02 -0.29047965682E+00  0.16563421666E+02  0.51100000000E-03 0. -1.
        -12    1    4    4    0    0  0.50064969517E+01  0.14352418321E+02  0.21945428513E+02  0.26695669237E+02  0.00000000000E+00 0.  1.
</event>
<event>
 8    1  0.1229038E-006  0.9118800E+02  0.7816164E-02  0.1184000E+00
        -11   -1    0    0    0    0  0.00000000000E+00  0.00000000000E+00  0.45593999997E+02  0.45594000000E+02  0.51100000000E-03 0.  1.
         11   -1    0    0    0    0 -0.00000000000E+00 -0.00000000000E+00 -0.45593999997E+02  0.45594000000E+02  0.51100000000E-03 0. -1.
         23    2    1    2    0    0  0.17763568394E-14  0.00000000000E+00  0.14432899320E-14  0.91188000000E+02  0.91188000000E+02 0.  0.
    9900012    2    3    3    0    0  0.13207725776E+02 -0.34361541682E+02 -0.78898348816E+00  0.54367054033E+02  0.39999931279E+02 0.  0.
        -12    1    3    3    0    0 -0.13207725776E+02  0.34361541682E+02  0.78898348816E+00  0.36820945967E+02  0.00000000000E+00 0.  1.
         11    1    4    4    0    0 -0.32690781512E+01 -0.31892050230E+01  0.66456560268E+01  0.80636620046E+01  0.51100000000E-03 0. -1.
        -11    1    4    4    0    0  0.14619385593E+02 -0.18227639097E+01 -0.82472113682E+01  0.16883879856E+02  0.51100000000E-03 0.  1.
         12    1    4    4    0    0  0.18574183342E+01 -0.29349572750E+02  0.81257185330E+00  0.29419512172E+02  0.00000000000E+00 0. -1.
</event>
<event>
 8    1  0.1229038E-006  0.9118800E+02  0.7816164E-02  0.1184000E+00
        -11   -1    0    0    0    0  0.00000000000E+00  0.00000000000E+00  0.45593999997E+02  0.45594000000E+02  0.51100000000E-03 0.  1.
         11   -1    0    0    0    0 -0.00000000000E+00 -0.00000000000E+00 -0.45593999997E+02  0.45594000000E+02  0.51100000000E-03 0. -1.
         23    2    1    2    0    0  0.17763568394E-14 -0.88817841970E-15  0.71054273576E-14  0.91188000000E+02  0.91188000000E+02 0.  0.
    9900012    2    3    3    0    0  0.12502867705E+02  0.66060581256E+01 -0.33997325054E+02  0.54367084535E+02  0.40000000816E+02 0.  0.
        -12    1    3    3    0    0 -0.12502867705E+02 -0.66060581256E+01  0.33997325054E+02  0.36820915465E+02  0.00000000000E+00 0.  1.
         11    1    4    4    0    0  0.11076139969E+01  0.16459499989E+01 -0.10293695224E+02  0.10483135113E+02  0.51100000000E-03 0. -1.
        -11    1    4    4    0    0  0.18568000954E+02  0.10813582224E+02 -0.36482454106E+01  0.21794813942E+02  0.51100000000E-03 0.  1.
        -12    1    4    4    0    0 -0.71727472463E+01 -0.58534740970E+01 -0.20055384420E+02  0.22089135481E+02  0.00000000000E+00 0.  1.
</event>
<event>
 8    1  0.1229038E-006  0.9118800E+02  0.7816164E-02  0.1184000E+00
        -11   -1    0    0    0    0  0.00000000000E+00  0.00000000000E+00  0.45593999997E+02  0.45594000000E+02  0.51100000000E-03 0.  1.
         11   -1    0    0    0    0 -0.00000000000E+00 -0.00000000000E+00 -0.45593999997E+02  0.45594000000E+02  0.51100000000E-03 0. -1.
         23    2    1    2    0    0  0.00000000000E+00  0.00000000000E+00  0.35527136788E-14  0.91188000000E+02  0.91188000000E+02 0.  0.
    9900012    2    3    3    0    0  0.33470778343E+02 -0.36985087397E+01  0.14893189360E+02  0.54367094809E+02  0.40000024236E+02 0.  0.
         12    1    3    3    0    0 -0.33470778343E+02  0.36985087397E+01 -0.14893189360E+02  0.36820905191E+02  0.00000000000E+00 0. -1.
         11    1    4    4    0    0  0.12014947642E+02 -0.13706739439E+02  0.42642888485E+00  0.18232265761E+02  0.51100000000E-03 0. -1.
        -11    1    4    4    0    0  0.20770647421E+02  0.93525446937E+01  0.20126121667E+02  0.30396556716E+02  0.51100000000E-03 0.  1.
         12    1    4    4    0    0  0.68518327943E+00  0.65568600605E+00 -0.56593611921E+01  0.57382723330E+01  0.00000000000E+00 0. -1.
</event>
<event>
 8    1  0.1229038E-006  0.9118800E+02  0.7816164E-02  0.1184000E+00
        -11   -1    0    0    0    0  0.00000000000E+00  0.00000000000E+00  0.45593999997E+02  0.45594000000E+02  0.51100000000E-03 0. -1.
         11   -1    0    0    0    0 -0.00000000000E+00 -0.00000000000E+00 -0.45593999997E+02  0.45594000000E+02  0.51100000000E-03 0.  1.
         23    2    1    2    0    0 -0.35527136788E-14  0.00000000000E+00 -0.71054273576E-14  0.91188000000E+02  0.91188000000E+02 0.  0.
    9900012    2    3    3    0    0  0.22705125418E+02 -0.15687020459E+02  0.24375730715E+02  0.54367060590E+02  0.39999946227E+02 0.  0.
        -12    1    3    3    0    0 -0.22705125418E+02  0.15687020459E+02 -0.24375730715E+02  0.36820939410E+02  0.00000000000E+00 0.  1.
         11    1    4    4    0    0  0.10937104028E+02  0.31785419363E+01  0.16083756642E+02  0.19708135410E+02  0.51100000000E-03 0. -1.
        -11    1    4    4    0    0 -0.72460029657E+01 -0.75741961897E+01 -0.12844974071E+01  0.10560442261E+02  0.51100000000E-03 0.  1.
        -12    1    4    4    0    0  0.19014024355E+02 -0.11291366206E+02  0.95764714804E+01  0.24098482919E+02  0.00000000000E+00 0.  1.
</event>
<event>
 8    1  0.1229038E-006  0.9118800E+02  0.7816164E-02  0.1184000E+00
        -11   -1    0    0    0    0  0.00000000000E+00  0.00000000000E+00  0.45593999997E+02  0.45594000000E+02  0.51100000000E-03 0.  1.
         11   -1    0    0    0    0 -0.00000000000E+00 -0.00000000000E+00 -0.45593999997E+02  0.45594000000E+02  0.51100000000E-03 0. -1.
         23    2    1    2    0    0  0.35527136788E-14  0.00000000000E+00  0.71054273576E-14  0.91188000000E+02  0.91188000000E+02 0.  0.
    9900012    2    3    3    0    0 -0.30006421663E+02 -0.45442888098E+01 -0.20850545102E+02  0.54367066649E+02  0.39999960039E+02 0.  0.
        -12    1    3    3    0    0  0.30006421663E+02  0.45442888098E+01  0.20850545102E+02  0.36820933351E+02  0.00000000000E+00 0.  1.
         11    1    4    4    0    0 -0.84405175415E+01  0.92974400084E+01  0.23007552556E+01  0.12766291634E+02  0.51100000000E-03 0. -1.
        -11    1    4    4    0    0  0.46535447224E+01 -0.77913495133E+00 -0.87296286145E+00  0.47983949581E+01  0.51100000000E-03 0.  1.
        -12    1    4    4    0    0 -0.26219448844E+02 -0.13062593867E+02 -0.22278337497E+02  0.36802380056E+02  0.00000000000E+00 0.  1.
</event>
<event>
 8    1  0.1229038E-006  0.9118800E+02  0.7816164E-02  0.1184000E+00
        -11   -1    0    0    0    0  0.00000000000E+00  0.00000000000E+00  0.45593999997E+02  0.45594000000E+02  0.51100000000E-03 0. -1.
         11   -1    0    0    0    0 -0.00000000000E+00 -0.00000000000E+00 -0.45593999997E+02  0.45594000000E+02  0.51100000000E-03 0.  1.
         23    2    1    2    0    0  0.00000000000E+00  0.00000000000E+00 -0.35527136788E-14  0.91188000000E+02  0.91188000000E+02 0.  0.
    9900012    2    3    3    0    0 -0.92951250950E+01  0.28709782370E+02  0.21098103236E+02  0.54367069616E+02  0.39999966803E+02 0.  0.
        -12    1    3    3    0    0  0.92951250950E+01 -0.28709782370E+02 -0.21098103236E+02  0.36820930384E+02  0.00000000000E+00 0.  1.
         11    1    4    4    0    0 -0.52904936276E+01  0.12260253776E+02 -0.86948841438E+01  0.15934370274E+02  0.51100000000E-03 0.  1.
        -11    1    4    4    0    0 -0.13143587690E+01  0.34301193579E+01 -0.18481833130E+01  0.41120602625E+01  0.51100000000E-03 0. -1.
         12    1    4    4    0    0 -0.26902726983E+01  0.13019409235E+02  0.31641170692E+02  0.34320639079E+02  0.00000000000E+00 0. -1.
</event>
<event>
 8    1  0.1229038E-006  0.9118800E+02  0.7816164E-02  0.1184000E+00
        -11   -1    0    0    0    0  0.00000000000E+00  0.00000000000E+00  0.45593999997E+02  0.45594000000E+02  0.51100000000E-03 0. -1.
         11   -1    0    0    0    0 -0.00000000000E+00 -0.00000000000E+00 -0.45593999997E+02  0.45594000000E+02  0.51100000000E-03 0.  1.
         23    2    1    2    0    0  0.71054273576E-14  0.00000000000E+00 -0.35527136788E-14  0.91188000000E+02  0.91188000000E+02 0.  0.
    9900012    2    3    3    0    0  0.22577471462E+02 -0.27043474561E+02 -0.10709204003E+02  0.54367098540E+02  0.40000032741E+02 0.  0.
        -12    1    3    3    0    0 -0.22577471462E+02  0.27043474561E+02  0.10709204003E+02  0.36820901460E+02  0.00000000000E+00 0.  1.
         11    1    4    4    0    0 -0.37216986535E+01 -0.64983353200E+01 -0.16297189862E+01  0.76639015543E+01  0.51100000000E-03 0. -1.
        -11    1    4    4    0    0  0.10203516860E+02 -0.25428279569E+02 -0.11490958510E+02  0.29711130673E+02  0.51100000000E-03 0.  1.
         12    1    4    4    0    0  0.16095653255E+02  0.48831403271E+01  0.24114734931E+01  0.16992066312E+02  0.00000000000E+00 0. -1.
</event>
<event>
 8    1  0.1229038E-006  0.9118800E+02  0.7816164E-02  0.1184000E+00
        -11   -1    0    0    0    0  0.00000000000E+00  0.00000000000E+00  0.45593999997E+02  0.45594000000E+02  0.51100000000E-03 0. -1.
         11   -1    0    0    0    0 -0.00000000000E+00 -0.00000000000E+00 -0.45593999997E+02  0.45594000000E+02  0.51100000000E-03 0.  1.
         23    2    1    2    0    0  0.00000000000E+00  0.00000000000E+00  0.00000000000E+00  0.91188000000E+02  0.91188000000E+02 0.  0.
    9900012    2    3    3    0    0 -0.21674064316E+02  0.27110965791E+02  0.12288614019E+02  0.54367087944E+02  0.40000008587E+02 0.  0.
        -12    1    3    3    0    0  0.21674064316E+02 -0.27110965791E+02 -0.12288614019E+02  0.36820912056E+02  0.00000000000E+00 0.  1.
         11    1    4    4    0    0 -0.76357698273E+01  0.42326577876E+01  0.19988940029E+02  0.21812338172E+02  0.51100000000E-03 0. -1.
        -11    1    4    4    0    0 -0.59499789237E+01 -0.44306794707E+00  0.15990205542E+01  0.61770078025E+01  0.51100000000E-03 0.  1.
         12    1    4    4    0    0 -0.80883155648E+01  0.23321375950E+02 -0.92993465639E+01  0.26377741970E+02  0.00000000000E+00 0. -1.
</event>
<event>
 8    1  0.1229038E-006  0.9118800E+02  0.7816164E-02  0.1184000E+00
        -11   -1    0    0    0    0  0.00000000000E+00  0.00000000000E+00  0.45593999997E+02  0.45594000000E+02  0.51100000000E-03 0. -1.
         11   -1    0    0    0    0 -0.00000000000E+00 -0.00000000000E+00 -0.45593999997E+02  0.45594000000E+02  0.51100000000E-03 0.  1.
         23    2    1    2    0    0  0.71054273576E-14  0.00000000000E+00 -0.17763568394E-14  0.91188000000E+02  0.91188000000E+02 0.  0.
    9900012    2    3    3    0    0 -0.33028305458E+02 -0.48287214473E+01  0.15543258139E+02  0.54367103952E+02  0.40000045079E+02 0.  0.
        -12    1    3    3    0    0  0.33028305458E+02  0.48287214473E+01 -0.15543258139E+02  0.36820896048E+02  0.00000000000E+00 0.  1.
         11    1    4    4    0    0 -0.22462149565E+02 -0.61277283044E+01  0.23153155362E+02  0.32835435444E+02  0.51100000000E-03 0. -1.
        -11    1    4    4    0    0 -0.13970046400E+02  0.25273686460E+01 -0.12980510684E+01  0.14256041720E+02  0.51100000000E-03 0.  1.
        -12    1    4    4    0    0  0.34038905078E+01 -0.12283617889E+01 -0.63118461552E+01  0.72756267882E+01  0.00000000000E+00 0.  1.
</event>
<event>
 8    1  0.1229038E-006  0.9118800E+02  0.7816164E-02  0.1184000E+00
        -11   -1    0    0    0    0  0.00000000000E+00  0.00000000000E+00  0.45593999997E+02  0.45594000000E+02  0.51100000000E-03 0. -1.
         11   -1    0    0    0    0 -0.00000000000E+00 -0.00000000000E+00 -0.45593999997E+02  0.45594000000E+02  0.51100000000E-03 0.  1.
         23    2    1    2    0    0  0.00000000000E+00  0.35527136788E-14  0.17763568394E-14  0.91188000000E+02  0.91188000000E+02 0.  0.
    9900012    2    3    3    0    0 -0.27909820839E+02 -0.18648016923E+02 -0.15135172909E+02  0.54367080763E+02  0.39999992217E+02 0.  0.
         12    1    3    3    0    0  0.27909820839E+02  0.18648016923E+02  0.15135172909E+02  0.36820919237E+02  0.00000000000E+00 0. -1.
         11    1    4    4    0    0 -0.20262623246E+02 -0.96144106808E+01 -0.13294658997E+02  0.26072183484E+02  0.51100000000E-03 0. -1.
        -11    1    4    4    0    0 -0.73849225289E+00  0.44926658319E+01 -0.10047485328E+02  0.11030928282E+02  0.51100000000E-03 0.  1.
         12    1    4    4    0    0 -0.69087053398E+01 -0.13526272074E+02  0.82069714155E+01  0.17263968997E+02  0.00000000000E+00 0. -1.
</event>
<event>
 8    1  0.1229038E-006  0.9118800E+02  0.7816164E-02  0.1184000E+00
        -11   -1    0    0    0    0  0.00000000000E+00  0.00000000000E+00  0.45593999997E+02  0.45594000000E+02  0.51100000000E-03 0. -1.
         11   -1    0    0    0    0 -0.00000000000E+00 -0.00000000000E+00 -0.45593999997E+02  0.45594000000E+02  0.51100000000E-03 0.  1.
         23    2    1    2    0    0  0.00000000000E+00  0.17763568394E-14  0.35527136788E-14  0.91188000000E+02  0.91188000000E+02 0.  0.
    9900012    2    3    3    0    0  0.20427926055E+02  0.94951726219E+01 -0.29125856691E+02  0.54367163589E+02  0.40000181033E+02 0.  0.
         12    1    3    3    0    0 -0.20427926055E+02 -0.94951726219E+01  0.29125856691E+02  0.36820836411E+02  0.00000000000E+00 0. -1.
         11    1    4    4    0    0  0.11195499816E+02 -0.45785679072E+01 -0.57185190901E+01  0.13379236191E+02  0.51100000000E-03 0. -1.
        -11    1    4    4    0    0  0.17387140030E+02  0.17477057647E+01 -0.67860719293E+01  0.18746143239E+02  0.51100000000E-03 0.  1.
         12    1    4    4    0    0 -0.81547137910E+01  0.12326034764E+02 -0.16621265671E+02  0.22241784158E+02  0.00000000000E+00 0. -1.
</event>
<event>
 8    1  0.1229038E-006  0.9118800E+02  0.7816164E-02  0.1184000E+00
        -11   -1    0    0    0    0  0.00000000000E+00  0.00000000000E+00  0.45593999997E+02  0.45594000000E+02  0.51100000000E-03 0. -1.
         11   -1    0    0    0    0 -0.00000000000E+00 -0.00000000000E+00 -0.45593999997E+02  0.45594000000E+02  0.51100000000E-03 0.  1.
         23    2    1    2    0    0 -0.74940054162E-15 -0.71054273576E-14 -0.35527136788E-14  0.91188000000E+02  0.91188000000E+02 0.  0.
    9900012    2    3    3    0    0  0.19899105941E+00 -0.32373042723E+02 -0.17542152542E+02  0.54367073770E+02  0.39999976274E+02 0.  0.
         12    1    3    3    0    0 -0.19899105941E+00  0.32373042723E+02  0.17542152542E+02  0.36820926230E+02  0.00000000000E+00 0. -1.
         11    1    4    4    0    0  0.16268790988E+02 -0.16584329818E+02 -0.18712520174E+02  0.29830721870E+02  0.51100000000E-03 0.  1.
        -11    1    4    4    0    0 -0.33603483575E+01 -0.42365143332E+01  0.45079294439E+01  0.70399874226E+01  0.51100000000E-03 0. -1.
        -12    1    4    4    0    0 -0.12709451571E+02 -0.11552198573E+02 -0.33375618111E+01  0.17496364478E+02  0.00000000000E+00 0.  1.
</event>
<event>
 8    1  0.1229038E-006  0.9118800E+02  0.7816164E-02  0.1184000E+00
        -11   -1    0    0    0    0  0.00000000000E+00  0.00000000000E+00  0.45593999997E+02  0.45594000000E+02  0.51100000000E-03 0. -1.
         11   -1    0    0    0    0 -0.00000000000E+00 -0.00000000000E+00 -0.45593999997E+02  0.45594000000E+02  0.51100000000E-03 0.  1.
         23    2    1    2    0    0 -0.66613381478E-15  0.00000000000E+00  0.00000000000E+00  0.91188000000E+02  0.91188000000E+02 0.  0.
    9900012    2    3    3    0    0  0.11191090944E+01 -0.33749513834E+02  0.14679832085E+02  0.54367088017E+02  0.40000008753E+02 0.  0.
        -12    1    3    3    0    0 -0.11191090944E+01  0.33749513834E+02 -0.14679832085E+02  0.36820911983E+02  0.00000000000E+00 0.  1.
         11    1    4    4    0    0 -0.61330988577E+01 -0.23221202529E+02  0.22033967848E+02  0.32593479223E+02  0.51100000000E-03 0. -1.
        -11    1    4    4    0    0  0.59561198822E+01 -0.11164194345E+02  0.15544889950E+01  0.12748766047E+02  0.51100000000E-03 0.  1.
        -12    1    4    4    0    0  0.12960880699E+01  0.63588304026E+00 -0.89086247577E+01  0.90248427465E+01  0.00000000000E+00 0.  1.
</event>
<event>
 8    1  0.1229038E-006  0.9118800E+02  0.7816164E-02  0.1184000E+00
        -11   -1    0    0    0    0  0.00000000000E+00  0.00000000000E+00  0.45593999997E+02  0.45594000000E+02  0.51100000000E-03 0.  1.
         11   -1    0    0    0    0 -0.00000000000E+00 -0.00000000000E+00 -0.45593999997E+02  0.45594000000E+02  0.51100000000E-03 0. -1.
         23    2    1    2    0    0  0.00000000000E+00 -0.17763568394E-14 -0.71054273576E-14  0.91188000000E+02  0.91188000000E+02 0.  0.
    9900012    2    3    3    0    0 -0.22389301685E+02  0.87010469897E+01  0.27906837965E+02  0.54367073153E+02  0.39999974867E+02 0.  0.
         12    1    3    3    0    0  0.22389301685E+02 -0.87010469897E+01 -0.27906837965E+02  0.36820926847E+02  0.00000000000E+00 0. -1.
         11    1    4    4    0    0  0.25749514603E+01 -0.66193359758E+01 -0.51861603729E+01  0.87944438971E+01  0.51100000000E-03 0. -1.
        -11    1    4    4    0    0 -0.32344411539E+01 -0.15502015151E+01  0.58088741545E+01  0.68269871480E+01  0.51100000000E-03 0.  1.
         12    1    4    4    0    0 -0.21729811991E+02  0.16870584481E+02  0.27284124183E+02  0.38745642108E+02  0.00000000000E+00 0. -1.
</event>
<event>
 8    1  0.1229038E-006  0.9118800E+02  0.7816164E-02  0.1184000E+00
        -11   -1    0    0    0    0  0.00000000000E+00  0.00000000000E+00  0.45593999997E+02  0.45594000000E+02  0.51100000000E-03 0.  1.
         11   -1    0    0    0    0 -0.00000000000E+00 -0.00000000000E+00 -0.45593999997E+02  0.45594000000E+02  0.51100000000E-03 0. -1.
         23    2    1    2    0    0  0.35527136788E-14 -0.19984014443E-14  0.71054273576E-14  0.91188000000E+02  0.91188000000E+02 0.  0.
    9900012    2    3    3    0    0  0.24098030855E+02  0.11107445873E+01  0.27817811005E+02  0.54367089450E+02  0.40000012019E+02 0.  0.
         12    1    3    3    0    0 -0.24098030855E+02 -0.11107445873E+01 -0.27817811005E+02  0.36820910550E+02  0.00000000000E+00 0. -1.
         11    1    4    4    0    0  0.13172390721E+02  0.32232825244E+01 -0.12108860604E+01  0.13614979722E+02  0.51100000000E-03 0. -1.
        -11    1    4    4    0    0 -0.11215314169E+01 -0.11937106949E+02  0.73067175197E+01  0.14040672214E+02  0.51100000000E-03 0.  1.
        -12    1    4    4    0    0  0.12047171551E+02  0.98245690124E+01  0.21721979546E+02  0.26711437514E+02  0.00000000000E+00 0.  1.
</event>
<event>
 8    1  0.1229038E-006  0.9118800E+02  0.7816164E-02  0.1184000E+00
        -11   -1    0    0    0    0  0.00000000000E+00  0.00000000000E+00  0.45593999997E+02  0.45594000000E+02  0.51100000000E-03 0.  1.
         11   -1    0    0    0    0 -0.00000000000E+00 -0.00000000000E+00 -0.45593999997E+02  0.45594000000E+02  0.51100000000E-03 0. -1.
         23    2    1    2    0    0  0.00000000000E+00  0.17763568394E-14  0.35527136788E-14  0.91188000000E+02  0.91188000000E+02 0.  0.
    9900012    2    3    3    0    0 -0.28018364305E+02 -0.84540540541E+01 -0.22344573542E+02  0.54367085630E+02  0.40000003312E+02 0.  0.
        -12    1    3    3    0    0  0.28018364305E+02  0.84540540541E+01  0.22344573542E+02  0.36820914370E+02  0.00000000000E+00 0.  1.
         11    1    4    4    0    0  0.46186726608E+00  0.39663491530E+00  0.36626113452E+01  0.37128644945E+01  0.51100000000E-03 0.  1.
        -11    1    4    4    0    0 -0.23774189545E+02 -0.73043898587E-01 -0.10662128235E+01  0.23798198124E+02  0.51100000000E-03 0. -1.
         12    1    4    4    0    0 -0.47060420260E+01 -0.87776450708E+01 -0.24940972063E+02  0.26856023012E+02  0.00000000000E+00 0. -1.
</event>
<event>
 8    1  0.1229038E-006  0.9118800E+02  0.7816164E-02  0.1184000E+00
        -11   -1    0    0    0    0  0.00000000000E+00  0.00000000000E+00  0.45593999997E+02  0.45594000000E+02  0.51100000000E-03 0.  1.
         11   -1    0    0    0    0 -0.00000000000E+00 -0.00000000000E+00 -0.45593999997E+02  0.45594000000E+02  0.51100000000E-03 0. -1.
         23    2    1    2    0    0  0.17763568394E-14 -0.35527136788E-14  0.35527136788E-14  0.91188000000E+02  0.91188000000E+02 0.  0.
    9900012    2    3    3    0    0 -0.73369602396E+01 -0.21430811544E+02 -0.29028743419E+02  0.54367100860E+02  0.40000038030E+02 0.  0.
        -12    1    3    3    0    0  0.73369602396E+01  0.21430811544E+02  0.29028743419E+02  0.36820899140E+02  0.00000000000E+00 0.  1.
         11    1    4    4    0    0 -0.12815532761E+02 -0.11267319456E+02 -0.95408424006E+01  0.19550397480E+02  0.51100000000E-03 0. -1.
        -11    1    4    4    0    0  0.71048311725E+01  0.54883885203E+00  0.45465272411E+01  0.84528551561E+01  0.51100000000E-03 0.  1.
         12    1    4    4    0    0 -0.16262586515E+01 -0.10712330940E+02 -0.24034428260E+02  0.26363848223E+02  0.00000000000E+00 0. -1.
</event>
<event>
 8    1  0.1229038E-006  0.9118800E+02  0.7816164E-02  0.1184000E+00
        -11   -1    0    0    0    0  0.00000000000E+00  0.00000000000E+00  0.45593999997E+02  0.45594000000E+02  0.51100000000E-03 0.  1.
         11   -1    0    0    0    0 -0.00000000000E+00 -0.00000000000E+00 -0.45593999997E+02  0.45594000000E+02  0.51100000000E-03 0. -1.
         23    2    1    2    0    0  0.35527136788E-14  0.35527136788E-14  0.17763568394E-14  0.91188000000E+02  0.91188000000E+02 0.  0.
    9900012    2    3    3    0    0 -0.21184510568E+02 -0.27561262655E+02 -0.12139691925E+02  0.54367098229E+02  0.40000032033E+02 0.  0.
        -12    1    3    3    0    0  0.21184510568E+02  0.27561262655E+02  0.12139691925E+02  0.36820901771E+02  0.00000000000E+00 0.  1.
         11    1    4    4    0    0 -0.30353097876E+01 -0.25147978869E+02  0.44667053139E+01  0.25721302520E+02  0.51100000000E-03 0. -1.
        -11    1    4    4    0    0 -0.10632382673E+02 -0.14942255639E+01 -0.17987317498E+02  0.20948123123E+02  0.51100000000E-03 0.  1.
         12    1    4    4    0    0 -0.75168181081E+01 -0.91905822288E+00  0.13809202590E+01  0.76976725865E+01  0.00000000000E+00 0. -1.
</event>
<event>
 8    1  0.1229038E-006  0.9118800E+02  0.7816164E-02  0.1184000E+00
        -11   -1    0    0    0    0  0.00000000000E+00  0.00000000000E+00  0.45593999997E+02  0.45594000000E+02  0.51100000000E-03 0.  1.
         11   -1    0    0    0    0 -0.00000000000E+00 -0.00000000000E+00 -0.45593999997E+02  0.45594000000E+02  0.51100000000E-03 0. -1.
         23    2    1    2    0    0 -0.35527136788E-14  0.00000000000E+00 -0.66613381478E-15  0.91188000000E+02  0.91188000000E+02 0.  0.
    9900012    2    3    3    0    0  0.16228481463E+02  0.33027067231E+02  0.12765041015E+01  0.54367078730E+02  0.39999987580E+02 0.  0.
        -12    1    3    3    0    0 -0.16228481463E+02 -0.33027067231E+02 -0.12765041015E+01  0.36820921270E+02  0.00000000000E+00 0.  1.
         11    1    4    4    0    0  0.52716271642E+01 -0.29355235381E+01 -0.10219980773E+02  0.11868250025E+02  0.51100000000E-03 0. -1.
        -11    1    4    4    0    0 -0.29493188692E+00 -0.76587972920E+00 -0.16952791435E+01  0.18834883098E+01  0.51100000000E-03 0.  1.
        -12    1    4    4    0    0  0.11251786185E+02  0.36728470498E+02  0.13191764018E+02  0.40615340395E+02  0.00000000000E+00 0.  1.
</event>
<event>
 8    1  0.1229038E-006  0.9118800E+02  0.7816164E-02  0.1184000E+00
        -11   -1    0    0    0    0  0.00000000000E+00  0.00000000000E+00  0.45593999997E+02  0.45594000000E+02  0.51100000000E-03 0. -1.
         11   -1    0    0    0    0 -0.00000000000E+00 -0.00000000000E+00 -0.45593999997E+02  0.45594000000E+02  0.51100000000E-03 0.  1.
         23    2    1    2    0    0  0.00000000000E+00 -0.44408920985E-15  0.71054273576E-14  0.91188000000E+02  0.91188000000E+02 0.  0.
    9900012    2    3    3    0    0 -0.11839596499E+02 -0.33993043836E+01 -0.34699387846E+02  0.54367097886E+02  0.40000031251E+02 0.  0.
         12    1    3    3    0    0  0.11839596499E+02  0.33993043836E+01  0.34699387846E+02  0.36820902114E+02  0.00000000000E+00 0. -1.
         11    1    4    4    0    0 -0.12590368617E+02 -0.11122721451E+02 -0.19537147507E+02  0.25766886645E+02  0.51100000000E-03 0. -1.
        -11    1    4    4    0    0 -0.24935742852E+01  0.66961627195E+01 -0.20812136160E+02  0.22004579516E+02  0.51100000000E-03 0.  1.
         12    1    4    4    0    0  0.32443464030E+01  0.10272543482E+01  0.56498958203E+01  0.65956317255E+01  0.00000000000E+00 0. -1.
</event>
<event>
 8    1  0.1229038E-006  0.9118800E+02  0.7816164E-02  0.1184000E+00
        -11   -1    0    0    0    0  0.00000000000E+00  0.00000000000E+00  0.45593999997E+02  0.45594000000E+02  0.51100000000E-03 0.  1.
         11   -1    0    0    0    0 -0.00000000000E+00 -0.00000000000E+00 -0.45593999997E+02  0.45594000000E+02  0.51100000000E-03 0. -1.
         23    2    1    2    0    0  0.00000000000E+00  0.88817841970E-15  0.71054273576E-14  0.91188000000E+02  0.91188000000E+02 0.  0.
    9900012    2    3    3    0    0 -0.19057385972E+02  0.59652244194E+01 -0.30935620410E+02  0.54367075614E+02  0.39999980478E+02 0.  0.
        -12    1    3    3    0    0  0.19057385972E+02 -0.59652244194E+01  0.30935620410E+02  0.36820924386E+02  0.00000000000E+00 0.  1.
         11    1    4    4    0    0 -0.15572155132E+02  0.17026542339E+02 -0.92394516208E+01  0.24854831040E+02  0.51100000000E-03 0. -1.
        -11    1    4    4    0    0  0.59802219756E+00 -0.34147092314E+01  0.21908666575E+01  0.41009470438E+01  0.51100000000E-03 0.  1.
         12    1    4    4    0    0 -0.40832530379E+01 -0.76466086884E+01 -0.23887035446E+02  0.25411297531E+02  0.00000000000E+00 0. -1.
</event>
<event>
 8    1  0.1229038E-006  0.9118800E+02  0.7816164E-02  0.1184000E+00
        -11   -1    0    0    0    0  0.00000000000E+00  0.00000000000E+00  0.45593999997E+02  0.45594000000E+02  0.51100000000E-03 0.  1.
         11   -1    0    0    0    0 -0.00000000000E+00 -0.00000000000E+00 -0.45593999997E+02  0.45594000000E+02  0.51100000000E-03 0. -1.
         23    2    1    2    0    0  0.00000000000E+00  0.00000000000E+00 -0.17763568394E-14  0.91188000000E+02  0.91188000000E+02 0.  0.
    9900012    2    3    3    0    0  0.18404264818E+02 -0.30373532713E+02  0.97216822559E+01  0.54367088023E+02  0.40000008765E+02 0.  0.
         12    1    3    3    0    0 -0.18404264818E+02  0.30373532713E+02 -0.97216822559E+01  0.36820911977E+02  0.00000000000E+00 0. -1.
         11    1    4    4    0    0 -0.42297981885E+01 -0.35388961593E+00  0.91012548121E+01  0.10042373723E+02  0.51100000000E-03 0. -1.
        -11    1    4    4    0    0  0.40037802911E+01 -0.23876813659E+02 -0.29377258661E+01  0.24387757598E+02  0.51100000000E-03 0.  1.
        -12    1    4    4    0    0  0.18630282715E+02 -0.61428294382E+01  0.35581533098E+01  0.19936956702E+02  0.00000000000E+00 0.  1.
</event>
<event>
 8    1  0.1229038E-006  0.9118800E+02  0.7816164E-02  0.1184000E+00
        -11   -1    0    0    0    0  0.00000000000E+00  0.00000000000E+00  0.45593999997E+02  0.45594000000E+02  0.51100000000E-03 0.  1.
         11   -1    0    0    0    0 -0.00000000000E+00 -0.00000000000E+00 -0.45593999997E+02  0.45594000000E+02  0.51100000000E-03 0. -1.
         23    2    1    2    0    0  0.71054273576E-14 -0.35527136788E-14  0.17763568394E-14  0.91188000000E+02  0.91188000000E+02 0.  0.
    9900012    2    3    3    0    0 -0.30870191329E+02 -0.17683393881E+02 -0.94925879961E+01  0.54367077161E+02  0.39999984004E+02 0.  0.
        -12    1    3    3    0    0  0.30870191329E+02  0.17683393881E+02  0.94925879961E+01  0.36820922839E+02  0.00000000000E+00 0.  1.
         11    1    4    4    0    0  0.37134768898E+01  0.82069652477E+01 -0.34699837036E+01  0.96532365739E+01  0.51100000000E-03 0. -1.
        -11    1    4    4    0    0 -0.14567419226E+02 -0.16903543228E+02 -0.41058524067E+01  0.22689149407E+02  0.51100000000E-03 0.  1.
         12    1    4    4    0    0 -0.20016248993E+02 -0.89868159006E+01 -0.19167518858E+01  0.22024691180E+02  0.00000000000E+00 0. -1.
</event>
<event>
 8    1  0.1229038E-006  0.9118800E+02  0.7816164E-02  0.1184000E+00
        -11   -1    0    0    0    0  0.00000000000E+00  0.00000000000E+00  0.45593999997E+02  0.45594000000E+02  0.51100000000E-03 0.  1.
         11   -1    0    0    0    0 -0.00000000000E+00 -0.00000000000E+00 -0.45593999997E+02  0.45594000000E+02  0.51100000000E-03 0. -1.
         23    2    1    2    0    0  0.35527136788E-14  0.00000000000E+00  0.00000000000E+00  0.91188000000E+02  0.91188000000E+02 0.  0.
    9900012    2    3    3    0    0  0.13989883230E+02  0.47595857045E+01  0.33725516213E+02  0.54367069367E+02  0.39999966236E+02 0.  0.
         12    1    3    3    0    0 -0.13989883230E+02 -0.47595857045E+01 -0.33725516213E+02  0.36820930633E+02  0.00000000000E+00 0. -1.
         11    1    4    4    0    0  0.24140180859E+01  0.72204929642E+00 -0.48316685853E+00  0.25655971975E+01  0.51100000000E-03 0. -1.
        -11    1    4    4    0    0 -0.58569437912E+01  0.39117305744E+01  0.33628947030E+02  0.34358572515E+02  0.51100000000E-03 0.  1.
        -12    1    4    4    0    0  0.17432808935E+02  0.12580583365E+00  0.57973604137E+00  0.17442899655E+02  0.00000000000E+00 0.  1.
</event>
<event>
 8    1  0.1229038E-006  0.9118800E+02  0.7816164E-02  0.1184000E+00
        -11   -1    0    0    0    0  0.00000000000E+00  0.00000000000E+00  0.45593999997E+02  0.45594000000E+02  0.51100000000E-03 0. -1.
         11   -1    0    0    0    0 -0.00000000000E+00 -0.00000000000E+00 -0.45593999997E+02  0.45594000000E+02  0.51100000000E-03 0.  1.
         23    2    1    2    0    0  0.35527136788E-14  0.88817841970E-15  0.35527136788E-14  0.91188000000E+02  0.91188000000E+02 0.  0.
    9900012    2    3    3    0    0 -0.21209821233E+02 -0.74519198619E+01 -0.29161487866E+02  0.54367082019E+02  0.39999995079E+02 0.  0.
         12    1    3    3    0    0  0.21209821233E+02  0.74519198619E+01  0.29161487866E+02  0.36820917981E+02  0.00000000000E+00 0. -1.
         11    1    4    4    0    0 -0.11184425372E+02 -0.19122968369E-04 -0.10747750396E+02  0.15511463816E+02  0.51100000000E-03 0.  1.
        -11    1    4    4    0    0 -0.16206673528E+02 -0.21563955607E+01 -0.23959628804E+02  0.29006380701E+02  0.51100000000E-03 0. -1.
         12    1    4    4    0    0  0.61812776671E+01 -0.52955051783E+01  0.55458913334E+01  0.98492375021E+01  0.00000000000E+00 0. -1.
</event>
<event>
 8    1  0.1229038E-006  0.9118800E+02  0.7816164E-02  0.1184000E+00
        -11   -1    0    0    0    0  0.00000000000E+00  0.00000000000E+00  0.45593999997E+02  0.45594000000E+02  0.51100000000E-03 0.  1.
         11   -1    0    0    0    0 -0.00000000000E+00 -0.00000000000E+00 -0.45593999997E+02  0.45594000000E+02  0.51100000000E-03 0. -1.
         23    2    1    2    0    0  0.00000000000E+00  0.44408920985E-15 -0.22204460493E-15  0.91188000000E+02  0.91188000000E+02 0.  0.
    9900012    2    3    3    0    0 -0.36670310382E+02  0.31093056094E+01 -0.11833915388E+01  0.54367083927E+02  0.39999999429E+02 0.  0.
         12    1    3    3    0    0  0.36670310382E+02 -0.31093056094E+01  0.11833915388E+01  0.36820916073E+02  0.00000000000E+00 0. -1.
         11    1    4    4    0    0  0.32593030145E+01  0.42520111805E+01 -0.61058991532E+01  0.81230942349E+01  0.51100000000E-03 0. -1.
        -11    1    4    4    0    0 -0.72888984753E+01  0.49988637168E+01 -0.66623005995E+01  0.11068104128E+02  0.51100000000E-03 0.  1.
        -12    1    4    4    0    0 -0.32640714922E+02 -0.61415692879E+01  0.11584808214E+02  0.35175885565E+02  0.00000000000E+00 0.  1.
</event>
<event>
 8    1  0.1229038E-006  0.9118800E+02  0.7816164E-02  0.1184000E+00
        -11   -1    0    0    0    0  0.00000000000E+00  0.00000000000E+00  0.45593999997E+02  0.45594000000E+02  0.51100000000E-03 0. -1.
         11   -1    0    0    0    0 -0.00000000000E+00 -0.00000000000E+00 -0.45593999997E+02  0.45594000000E+02  0.51100000000E-03 0.  1.
         23    2    1    2    0    0  0.00000000000E+00 -0.35527136788E-14 -0.35527136788E-14  0.91188000000E+02  0.91188000000E+02 0.  0.
    9900012    2    3    3    0    0  0.86788504146E+01  0.16470113769E+02 -0.31767802462E+02  0.54367077071E+02  0.39999983799E+02 0.  0.
         12    1    3    3    0    0 -0.86788504146E+01 -0.16470113769E+02  0.31767802462E+02  0.36820922929E+02  0.00000000000E+00 0. -1.
         11    1    4    4    0    0 -0.96582594442E+01  0.43089578471E+01 -0.10299603941E+02  0.14762484033E+02  0.51100000000E-03 0.  1.
        -11    1    4    4    0    0  0.40551338512E+01  0.64157385806E+01 -0.22918074391E+02  0.24142161174E+02  0.51100000000E-03 0. -1.
         12    1    4    4    0    0  0.14281976008E+02  0.57454173416E+01  0.14498758709E+01  0.15462431864E+02  0.00000000000E+00 0. -1.
</event>
<event>
 8    1  0.1229038E-006  0.9118800E+02  0.7816164E-02  0.1184000E+00
        -11   -1    0    0    0    0  0.00000000000E+00  0.00000000000E+00  0.45593999997E+02  0.45594000000E+02  0.51100000000E-03 0.  1.
         11   -1    0    0    0    0 -0.00000000000E+00 -0.00000000000E+00 -0.45593999997E+02  0.45594000000E+02  0.51100000000E-03 0. -1.
         23    2    1    2    0    0 -0.88817841970E-15  0.88817841970E-15 -0.71054273576E-14  0.91188000000E+02  0.91188000000E+02 0.  0.
    9900012    2    3    3    0    0  0.75394552580E+01  0.15403151361E+01  0.36007828602E+02  0.54367086419E+02  0.40000005109E+02 0.  0.
         12    1    3    3    0    0 -0.75394552580E+01 -0.15403151361E+01 -0.36007828602E+02  0.36820913581E+02  0.00000000000E+00 0. -1.
         11    1    4    4    0    0  0.94732006555E+01  0.51981742842E+01  0.84020951554E+01  0.13687868710E+02  0.51100000000E-03 0. -1.
        -11    1    4    4    0    0  0.90843248874E+01  0.88132846955E+01  0.15951817808E+02  0.20363188292E+02  0.51100000000E-03 0.  1.
         12    1    4    4    0    0 -0.11018070285E+02 -0.12471143844E+02  0.11653915638E+02  0.20316029417E+02  0.00000000000E+00 0. -1.
</event>
<event>
 8    1  0.1229038E-006  0.9118800E+02  0.7816164E-02  0.1184000E+00
        -11   -1    0    0    0    0  0.00000000000E+00  0.00000000000E+00  0.45593999997E+02  0.45594000000E+02  0.51100000000E-03 0. -1.
         11   -1    0    0    0    0 -0.00000000000E+00 -0.00000000000E+00 -0.45593999997E+02  0.45594000000E+02  0.51100000000E-03 0.  1.
         23    2    1    2    0    0 -0.17763568394E-14  0.38857805862E-15  0.00000000000E+00  0.91188000000E+02  0.91188000000E+02 0.  0.
    9900012    2    3    3    0    0 -0.76593609573E+01  0.26921184880E+00 -0.36014471983E+02  0.54367075548E+02  0.39999980326E+02 0.  0.
         12    1    3    3    0    0  0.76593609573E+01 -0.26921184880E+00  0.36014471983E+02  0.36820924452E+02  0.00000000000E+00 0. -1.
         11    1    4    4    0    0  0.96957247805E+00  0.75088178240E+01 -0.14248742844E+02  0.16135336650E+02  0.51100000000E-03 0. -1.
        -11    1    4    4    0    0 -0.10918822775E+02 -0.12455945635E+02 -0.26210687528E+02  0.31005989960E+02  0.51100000000E-03 0.  1.
         12    1    4    4    0    0  0.22898893393E+01  0.52163396596E+01  0.44449583891E+01  0.72257489377E+01  0.00000000000E+00 0. -1.
</event>
<event>
 8    1  0.1229038E-006  0.9118800E+02  0.7816164E-02  0.1184000E+00
        -11   -1    0    0    0    0  0.00000000000E+00  0.00000000000E+00  0.45593999997E+02  0.45594000000E+02  0.51100000000E-03 0. -1.
         11   -1    0    0    0    0 -0.00000000000E+00 -0.00000000000E+00 -0.45593999997E+02  0.45594000000E+02  0.51100000000E-03 0.  1.
         23    2    1    2    0    0  0.71054273576E-14  0.35527136788E-14  0.17763568394E-14  0.91188000000E+02  0.91188000000E+02 0.  0.
    9900012    2    3    3    0    0  0.22177567472E+02  0.27981238039E+02  0.89991614686E+01  0.54367094412E+02  0.40000023332E+02 0.  0.
         12    1    3    3    0    0 -0.22177567472E+02 -0.27981238039E+02 -0.89991614686E+01  0.36820905588E+02  0.00000000000E+00 0. -1.
         11    1    4    4    0    0  0.25276200429E+02  0.26445489365E+02 -0.47041158770E+00  0.36585126803E+02  0.51100000000E-03 0.  1.
        -11    1    4    4    0    0  0.57894100270E+01  0.19756874759E+01  0.44538828197E+01  0.75668805922E+01  0.51100000000E-03 0. -1.
        -12    1    4    4    0    0 -0.88880429836E+01 -0.43993880203E+00  0.50156902366E+01  0.10215087018E+02  0.00000000000E+00 0.  1.
</event>
<event>
 8    1  0.1229038E-006  0.9118800E+02  0.7816164E-02  0.1184000E+00
        -11   -1    0    0    0    0  0.00000000000E+00  0.00000000000E+00  0.45593999997E+02  0.45594000000E+02  0.51100000000E-03 0. -1.
         11   -1    0    0    0    0 -0.00000000000E+00 -0.00000000000E+00 -0.45593999997E+02  0.45594000000E+02  0.51100000000E-03 0.  1.
         23    2    1    2    0    0  0.00000000000E+00  0.00000000000E+00  0.11379786002E-14  0.91188000000E+02  0.91188000000E+02 0.  0.
    9900012    2    3    3    0    0  0.91919375495E+01 -0.35654623299E+02 -0.19136064502E+00  0.54367075277E+02  0.39999979710E+02 0.  0.
         12    1    3    3    0    0 -0.91919375495E+01  0.35654623299E+02  0.19136064502E+00  0.36820924723E+02  0.00000000000E+00 0. -1.
         11    1    4    4    0    0  0.11208212875E+01 -0.78737868726E+01  0.11700031975E+02  0.14147208507E+02  0.51100000000E-03 0. -1.
        -11    1    4    4    0    0 -0.48956721247E+00 -0.29269766973E+02 -0.64770905880E+01  0.29981855137E+02  0.51100000000E-03 0.  1.
         12    1    4    4    0    0  0.85606834744E+01  0.14889305459E+01 -0.54143020316E+01  0.10238011634E+02  0.00000000000E+00 0. -1.
</event>
<event>
 8    1  0.1229038E-006  0.9118800E+02  0.7816164E-02  0.1184000E+00
        -11   -1    0    0    0    0  0.00000000000E+00  0.00000000000E+00  0.45593999997E+02  0.45594000000E+02  0.51100000000E-03 0.  1.
         11   -1    0    0    0    0 -0.00000000000E+00 -0.00000000000E+00 -0.45593999997E+02  0.45594000000E+02  0.51100000000E-03 0. -1.
         23    2    1    2    0    0  0.00000000000E+00 -0.35527136788E-14  0.00000000000E+00  0.91188000000E+02  0.91188000000E+02 0.  0.
    9900012    2    3    3    0    0  0.40567582653E+01  0.18964063522E+02 -0.31299946590E+02  0.54367086793E+02  0.40000005962E+02 0.  0.
        -12    1    3    3    0    0 -0.40567582653E+01 -0.18964063522E+02  0.31299946590E+02  0.36820913207E+02  0.00000000000E+00 0.  1.
         11    1    4    4    0    0  0.14393863352E+01  0.21613153973E+02 -0.53517142119E+01  0.22312353147E+02  0.51100000000E-03 0. -1.
        -11    1    4    4    0    0  0.41274086294E+01 -0.86491364346E+01 -0.63332572670E+01  0.11487088880E+02  0.51100000000E-03 0.  1.
         12    1    4    4    0    0 -0.15100366993E+01  0.60000459836E+01 -0.19614975111E+02  0.20567644766E+02  0.00000000000E+00 0. -1.
</event>
<event>
 8    1  0.1229038E-006  0.9118800E+02  0.7816164E-02  0.1184000E+00
        -11   -1    0    0    0    0  0.00000000000E+00  0.00000000000E+00  0.45593999997E+02  0.45594000000E+02  0.51100000000E-03 0.  1.
         11   -1    0    0    0    0 -0.00000000000E+00 -0.00000000000E+00 -0.45593999997E+02  0.45594000000E+02  0.51100000000E-03 0. -1.
         23    2    1    2    0    0  0.17763568394E-14  0.71054273576E-14 -0.17763568394E-14  0.91188000000E+02  0.91188000000E+02 0.  0.
    9900012    2    3    3    0    0 -0.95807797425E+01 -0.32309338905E+02  0.14835627652E+02  0.54367074309E+02  0.39999977502E+02 0.  0.
         12    1    3    3    0    0  0.95807797425E+01  0.32309338905E+02 -0.14835627652E+02  0.36820925691E+02  0.00000000000E+00 0. -1.
         11    1    4    4    0    0 -0.60408787903E+01  0.53982059447E+01 -0.37617654373E+00  0.81101389035E+01  0.51100000000E-03 0. -1.
        -11    1    4    4    0    0  0.14019635715E+01 -0.44814631734E+01  0.11547964604E+02  0.12466134156E+02  0.51100000000E-03 0.  1.
        -12    1    4    4    0    0 -0.49418645237E+01 -0.33226081676E+02  0.36638395910E+01  0.33790801249E+02  0.00000000000E+00 0.  1.
</event>
<event>
 8    1  0.1229038E-006  0.9118800E+02  0.7816164E-02  0.1184000E+00
        -11   -1    0    0    0    0  0.00000000000E+00  0.00000000000E+00  0.45593999997E+02  0.45594000000E+02  0.51100000000E-03 0. -1.
         11   -1    0    0    0    0 -0.00000000000E+00 -0.00000000000E+00 -0.45593999997E+02  0.45594000000E+02  0.51100000000E-03 0.  1.
         23    2    1    2    0    0  0.00000000000E+00  0.00000000000E+00  0.35527136788E-14  0.91188000000E+02  0.91188000000E+02 0.  0.
    9900012    2    3    3    0    0  0.28815530837E+02  0.97381874877E+01 -0.20751255227E+02  0.54367058860E+02  0.39999942282E+02 0.  0.
         12    1    3    3    0    0 -0.28815530837E+02 -0.97381874877E+01  0.20751255227E+02  0.36820941140E+02  0.00000000000E+00 0. -1.
         11    1    4    4    0    0  0.62173544698E+01  0.29832713771E+01  0.13369396371E+00  0.68973385483E+01  0.51100000000E-03 0. -1.
        -11    1    4    4    0    0  0.98898862558E+01  0.44264762325E+01  0.95264845610E+01  0.14427662678E+02  0.51100000000E-03 0.  1.
        -12    1    4    4    0    0  0.12708290112E+02  0.23284398781E+01 -0.30411433752E+02  0.33042057633E+02  0.00000000000E+00 0.  1.
</event>
<event>
 8    1  0.1229038E-006  0.9118800E+02  0.7816164E-02  0.1184000E+00
        -11   -1    0    0    0    0  0.00000000000E+00  0.00000000000E+00  0.45593999997E+02  0.45594000000E+02  0.51100000000E-03 0.  1.
         11   -1    0    0    0    0 -0.00000000000E+00 -0.00000000000E+00 -0.45593999997E+02  0.45594000000E+02  0.51100000000E-03 0. -1.
         23    2    1    2    0    0  0.53290705182E-14  0.71054273576E-14  0.35527136788E-14  0.91188000000E+02  0.91188000000E+02 0.  0.
    9900012    2    3    3    0    0  0.62269069442E+01  0.23377721455E+02  0.27757620664E+02  0.54367112783E+02  0.40000065212E+02 0.  0.
         12    1    3    3    0    0 -0.62269069442E+01 -0.23377721455E+02 -0.27757620664E+02  0.36820887217E+02  0.00000000000E+00 0. -1.
         11    1    4    4    0    0 -0.44187391713E+01  0.50384396607E+00  0.95443635974E+01  0.10529671949E+02  0.51100000000E-03 0. -1.
        -11    1    4    4    0    0 -0.91471467959E+01  0.94129333398E+01  0.14595608269E+02  0.19629197374E+02  0.51100000000E-03 0.  1.
         12    1    4    4    0    0  0.19792792911E+02  0.13460944149E+02  0.36176487975E+01  0.24208243460E+02  0.00000000000E+00 0. -1.
</event>
<event>
 8    1  0.1229038E-006  0.9118800E+02  0.7816164E-02  0.1184000E+00
        -11   -1    0    0    0    0  0.00000000000E+00  0.00000000000E+00  0.45593999997E+02  0.45594000000E+02  0.51100000000E-03 0.  1.
         11   -1    0    0    0    0 -0.00000000000E+00 -0.00000000000E+00 -0.45593999997E+02  0.45594000000E+02  0.51100000000E-03 0. -1.
         23    2    1    2    0    0  0.35527136788E-14 -0.35527136788E-14  0.00000000000E+00  0.91188000000E+02  0.91188000000E+02 0.  0.
    9900012    2    3    3    0    0 -0.24085537946E+02  0.25688628031E+02 -0.10759261248E+02  0.54367075910E+02  0.39999981151E+02 0.  0.
        -12    1    3    3    0    0  0.24085537946E+02 -0.25688628031E+02  0.10759261248E+02  0.36820924090E+02  0.00000000000E+00 0.  1.
         11    1    4    4    0    0 -0.24756557278E+02  0.98067121331E+01 -0.38863574301E+01  0.26910267659E+02  0.51100000000E-03 0. -1.
        -11    1    4    4    0    0  0.52500560961E+01 -0.37009399746E+01 -0.96176862527E+00  0.64950015286E+01  0.51100000000E-03 0.  1.
        -12    1    4    4    0    0 -0.45790367640E+01  0.19582855872E+02 -0.59111351925E+01  0.20961806722E+02  0.00000000000E+00 0.  1.
</event>
<event>
 8    1  0.1229038E-006  0.9118800E+02  0.7816164E-02  0.1184000E+00
        -11   -1    0    0    0    0  0.00000000000E+00  0.00000000000E+00  0.45593999997E+02  0.45594000000E+02  0.51100000000E-03 0. -1.
         11   -1    0    0    0    0 -0.00000000000E+00 -0.00000000000E+00 -0.45593999997E+02  0.45594000000E+02  0.51100000000E-03 0.  1.
         23    2    1    2    0    0  0.35527136788E-14  0.88817841970E-15  0.00000000000E+00  0.91188000000E+02  0.91188000000E+02 0.  0.
    9900012    2    3    3    0    0 -0.12888787286E+02  0.53788468198E+01  0.34069424669E+02  0.54367102019E+02  0.40000040674E+02 0.  0.
        -12    1    3    3    0    0  0.12888787286E+02 -0.53788468198E+01 -0.34069424669E+02  0.36820897981E+02  0.00000000000E+00 0.  1.
         11    1    4    4    0    0  0.52083852781E+01  0.41574301880E+01  0.32636914074E+02  0.33310353699E+02  0.51100000000E-03 0. -1.
        -11    1    4    4    0    0 -0.11852096761E+01  0.27426881897E+01 -0.21773688103E+01  0.36970252474E+01  0.51100000000E-03 0.  1.
         12    1    4    4    0    0 -0.16911962888E+02 -0.15212715579E+01  0.36098794052E+01  0.17359723073E+02  0.00000000000E+00 0. -1.
</event>
<event>
 8    1  0.1229038E-006  0.9118800E+02  0.7816164E-02  0.1184000E+00
        -11   -1    0    0    0    0  0.00000000000E+00  0.00000000000E+00  0.45593999997E+02  0.45594000000E+02  0.51100000000E-03 0. -1.
         11   -1    0    0    0    0 -0.00000000000E+00 -0.00000000000E+00 -0.45593999997E+02  0.45594000000E+02  0.51100000000E-03 0.  1.
         23    2    1    2    0    0  0.17763568394E-14 -0.71054273576E-14 -0.11102230246E-15  0.91188000000E+02  0.91188000000E+02 0.  0.
    9900012    2    3    3    0    0  0.13822451012E+02 -0.34116674944E+02 -0.87907830764E+00  0.54367076059E+02  0.39999981491E+02 0.  0.
        -12    1    3    3    0    0 -0.13822451012E+02  0.34116674944E+02  0.87907830764E+00  0.36820923941E+02  0.00000000000E+00 0.  1.
         11    1    4    4    0    0  0.43908764271E+01 -0.12562362217E+02 -0.42519644233E+01  0.13970395198E+02  0.51100000000E-03 0. -1.
        -11    1    4    4    0    0  0.11935732290E+02  0.54364911794E+01  0.18718450779E+01  0.13248431828E+02  0.51100000000E-03 0.  1.
         12    1    4    4    0    0 -0.25041577052E+01 -0.26990803907E+02  0.15010410378E+01  0.27148249033E+02  0.00000000000E+00 0. -1.
</event>
<event>
 8    1  0.1229038E-006  0.9118800E+02  0.7816164E-02  0.1184000E+00
        -11   -1    0    0    0    0  0.00000000000E+00  0.00000000000E+00  0.45593999997E+02  0.45594000000E+02  0.51100000000E-03 0.  1.
         11   -1    0    0    0    0 -0.00000000000E+00 -0.00000000000E+00 -0.45593999997E+02  0.45594000000E+02  0.51100000000E-03 0. -1.
         23    2    1    2    0    0 -0.71054273576E-14  0.88817841970E-15  0.00000000000E+00  0.91188000000E+02  0.91188000000E+02 0.  0.
    9900012    2    3    3    0    0 -0.35943092091E+02 -0.69638501445E+01 -0.39216132622E+01  0.54367080288E+02  0.39999991132E+02 0.  0.
         12    1    3    3    0    0  0.35943092091E+02  0.69638501445E+01  0.39216132622E+01  0.36820919712E+02  0.00000000000E+00 0. -1.
         11    1    4    4    0    0 -0.15308140898E+02 -0.12071183390E+02 -0.65959764583E+01  0.20580562478E+02  0.51100000000E-03 0. -1.
        -11    1    4    4    0    0  0.34394711204E+01 -0.48691741173E+01  0.47810260887E+01  0.76417948739E+01  0.51100000000E-03 0.  1.
        -12    1    4    4    0    0 -0.24074422313E+02  0.99765073628E+01 -0.21066628927E+01  0.26144722936E+02  0.00000000000E+00 0.  1.
</event>
<event>
 8    1  0.1229038E-006  0.9118800E+02  0.7816164E-02  0.1184000E+00
        -11   -1    0    0    0    0  0.00000000000E+00  0.00000000000E+00  0.45593999997E+02  0.45594000000E+02  0.51100000000E-03 0.  1.
         11   -1    0    0    0    0 -0.00000000000E+00 -0.00000000000E+00 -0.45593999997E+02  0.45594000000E+02  0.51100000000E-03 0. -1.
         23    2    1    2    0    0  0.00000000000E+00  0.00000000000E+00  0.00000000000E+00  0.91188000000E+02  0.91188000000E+02 0.  0.
    9900012    2    3    3    0    0 -0.64334050501E+01 -0.21155469747E+02 -0.29442116228E+02  0.54367071050E+02  0.39999970072E+02 0.  0.
        -12    1    3    3    0    0  0.64334050501E+01  0.21155469747E+02  0.29442116228E+02  0.36820928950E+02  0.00000000000E+00 0.  1.
         11    1    4    4    0    0  0.30824793704E+01  0.33859336554E+01  0.58348402184E+00  0.46159159061E+01  0.51100000000E-03 0. -1.
        -11    1    4    4    0    0 -0.40769681312E+01 -0.64029880374E+00  0.53228896117E+01  0.67353400642E+01  0.51100000000E-03 0.  1.
         12    1    4    4    0    0 -0.54389162893E+01 -0.23901104599E+02 -0.35348489862E+02  0.43015815079E+02  0.00000000000E+00 0. -1.
</event>
<event>
 8    1  0.1229038E-006  0.9118800E+02  0.7816164E-02  0.1184000E+00
        -11   -1    0    0    0    0  0.00000000000E+00  0.00000000000E+00  0.45593999997E+02  0.45594000000E+02  0.51100000000E-03 0.  1.
         11   -1    0    0    0    0 -0.00000000000E+00 -0.00000000000E+00 -0.45593999997E+02  0.45594000000E+02  0.51100000000E-03 0. -1.
         23    2    1    2    0    0  0.00000000000E+00  0.00000000000E+00  0.00000000000E+00  0.91188000000E+02  0.91188000000E+02 0.  0.
    9900012    2    3    3    0    0 -0.89089614801E+01 -0.16980216641E+02  0.31433957263E+02  0.54366932374E+02  0.39999653932E+02 0.  0.
         12    1    3    3    0    0  0.89089614801E+01  0.16980216641E+02 -0.31433957263E+02  0.36821067626E+02  0.00000000000E+00 0. -1.
         11    1    4    4    0    0 -0.19044895603E+01  0.81708950209E+01 -0.22151696539E+00  0.83928347985E+01  0.51100000000E-03 0. -1.
        -11    1    4    4    0    0  0.68602099814E+01 -0.11992451941E+02  0.16886944431E+02  0.21818576421E+02  0.51100000000E-03 0.  1.
         12    1    4    4    0    0 -0.13864681901E+02 -0.13158659721E+02  0.14768529797E+02  0.24155521155E+02  0.00000000000E+00 0. -1.
</event>
<event>
 8    1  0.1229038E-006  0.9118800E+02  0.7816164E-02  0.1184000E+00
        -11   -1    0    0    0    0  0.00000000000E+00  0.00000000000E+00  0.45593999997E+02  0.45594000000E+02  0.51100000000E-03 0. -1.
         11   -1    0    0    0    0 -0.00000000000E+00 -0.00000000000E+00 -0.45593999997E+02  0.45594000000E+02  0.51100000000E-03 0.  1.
         23    2    1    2    0    0 -0.17763568394E-14  0.00000000000E+00  0.88817841970E-15  0.91188000000E+02  0.91188000000E+02 0.  0.
    9900012    2    3    3    0    0 -0.13216736685E+02 -0.34298784694E+02  0.21652432535E+01  0.54367122248E+02  0.40000086788E+02 0.  0.
        -12    1    3    3    0    0  0.13216736685E+02  0.34298784694E+02 -0.21652432535E+01  0.36820877752E+02  0.00000000000E+00 0.  1.
         11    1    4    4    0    0 -0.19504534873E+02 -0.23746664507E+02  0.74531417141E+01  0.31620883566E+02  0.51100000000E-03 0. -1.
        -11    1    4    4    0    0  0.51625382354E+01 -0.30145641255E+01  0.64225312589E+01  0.87742980307E+01  0.51100000000E-03 0.  1.
        -12    1    4    4    0    0  0.11252599528E+01 -0.75375560615E+01 -0.11710429719E+02  0.13971940651E+02  0.00000000000E+00 0.  1.
</event>
<event>
 8    1  0.1229038E-006  0.9118800E+02  0.7816164E-02  0.1184000E+00
        -11   -1    0    0    0    0  0.00000000000E+00  0.00000000000E+00  0.45593999997E+02  0.45594000000E+02  0.51100000000E-03 0.  1.
         11   -1    0    0    0    0 -0.00000000000E+00 -0.00000000000E+00 -0.45593999997E+02  0.45594000000E+02  0.51100000000E-03 0. -1.
         23    2    1    2    0    0  0.00000000000E+00 -0.17763568394E-14  0.00000000000E+00  0.91188000000E+02  0.91188000000E+02 0.  0.
    9900012    2    3    3    0    0  0.20225891415E+02  0.10028507820E+02  0.29088180241E+02  0.54367083629E+02  0.39999998750E+02 0.  0.
         12    1    3    3    0    0 -0.20225891415E+02 -0.10028507820E+02 -0.29088180241E+02  0.36820916371E+02  0.00000000000E+00 0. -1.
         11    1    4    4    0    0  0.20828050350E+02 -0.74930523327E+01  0.60732699682E+01  0.22952954559E+02  0.51100000000E-03 0. -1.
        -11    1    4    4    0    0  0.43202691390E+01  0.12374012019E+02  0.19438431103E+02  0.23444263752E+02  0.51100000000E-03 0.  1.
         12    1    4    4    0    0 -0.49224280739E+01  0.51475481330E+01  0.35764791703E+01  0.79698653175E+01  0.00000000000E+00 0. -1.
</event>
<event>
 8    1  0.1229038E-006  0.9118800E+02  0.7816164E-02  0.1184000E+00
        -11   -1    0    0    0    0  0.00000000000E+00  0.00000000000E+00  0.45593999997E+02  0.45594000000E+02  0.51100000000E-03 0. -1.
         11   -1    0    0    0    0 -0.00000000000E+00 -0.00000000000E+00 -0.45593999997E+02  0.45594000000E+02  0.51100000000E-03 0.  1.
         23    2    1    2    0    0  0.00000000000E+00 -0.22759572005E-14  0.00000000000E+00  0.91188000000E+02  0.91188000000E+02 0.  0.
    9900012    2    3    3    0    0  0.18209956578E+02 -0.25402794347E+00 -0.32001770140E+02  0.54367077403E+02  0.39999984556E+02 0.  0.
         12    1    3    3    0    0 -0.18209956578E+02  0.25402794347E+00  0.32001770140E+02  0.36820922597E+02  0.00000000000E+00 0. -1.
         11    1    4    4    0    0  0.79568446591E+01  0.65375223663E+01 -0.28139133223E+01  0.10675611648E+02  0.51100000000E-03 0. -1.
        -11    1    4    4    0    0  0.93860424555E-01  0.10083234415E+02 -0.19013600236E+02  0.21522021751E+02  0.51100000000E-03 0.  1.
        -12    1    4    4    0    0  0.10159251494E+02 -0.16874784725E+02 -0.10174256582E+02  0.22169444004E+02  0.00000000000E+00 0.  1.
</event>
<event>
 8    1  0.1229038E-006  0.9118800E+02  0.7816164E-02  0.1184000E+00
        -11   -1    0    0    0    0  0.00000000000E+00  0.00000000000E+00  0.45593999997E+02  0.45594000000E+02  0.51100000000E-03 0.  1.
         11   -1    0    0    0    0 -0.00000000000E+00 -0.00000000000E+00 -0.45593999997E+02  0.45594000000E+02  0.51100000000E-03 0. -1.
         23    2    1    2    0    0 -0.35527136788E-14 -0.71054273576E-14 -0.88817841970E-15  0.91188000000E+02  0.91188000000E+02 0.  0.
    9900012    2    3    3    0    0 -0.25028749033E+02 -0.26853575261E+02 -0.28683689960E+01  0.54367077644E+02  0.39999985105E+02 0.  0.
        -12    1    3    3    0    0  0.25028749033E+02  0.26853575261E+02  0.28683689960E+01  0.36820922356E+02  0.00000000000E+00 0.  1.
         11    1    4    4    0    0 -0.23630647183E+02 -0.19265760650E+02 -0.78922394199E+01  0.31493879771E+02  0.51100000000E-03 0. -1.
        -11    1    4    4    0    0 -0.34459525015E+01 -0.11718573231E+02 -0.39054091056E+01  0.12823874912E+02  0.51100000000E-03 0.  1.
        -12    1    4    4    0    0  0.20478506519E+01  0.41307586196E+01  0.89292795295E+01  0.10049322961E+02  0.00000000000E+00 0.  1.
</event>
<event>
 8    1  0.1229038E-006  0.9118800E+02  0.7816164E-02  0.1184000E+00
        -11   -1    0    0    0    0  0.00000000000E+00  0.00000000000E+00  0.45593999997E+02  0.45594000000E+02  0.51100000000E-03 0. -1.
         11   -1    0    0    0    0 -0.00000000000E+00 -0.00000000000E+00 -0.45593999997E+02  0.45594000000E+02  0.51100000000E-03 0.  1.
         23    2    1    2    0    0  0.00000000000E+00  0.35527136788E-14  0.00000000000E+00  0.91188000000E+02  0.91188000000E+02 0.  0.
    9900012    2    3    3    0    0  0.20631330841E+02 -0.28509018414E+02  0.10833567336E+02  0.54367053184E+02  0.39999929345E+02 0.  0.
        -12    1    3    3    0    0 -0.20631330841E+02  0.28509018414E+02 -0.10833567336E+02  0.36820946816E+02  0.00000000000E+00 0.  1.
         11    1    4    4    0    0  0.19945746900E+02 -0.24879885163E+02  0.20900481210E+01  0.31956373488E+02  0.51100000000E-03 0. -1.
        -11    1    4    4    0    0  0.88777554696E+00  0.43260958656E+01 -0.49121546879E+01  0.66054912610E+01  0.51100000000E-03 0.  1.
        -12    1    4    4    0    0 -0.20219160587E+00 -0.79552291160E+01  0.13655673903E+02  0.15805188435E+02  0.00000000000E+00 0.  1.
</event>
<event>
 8    1  0.1229038E-006  0.9118800E+02  0.7816164E-02  0.1184000E+00
        -11   -1    0    0    0    0  0.00000000000E+00  0.00000000000E+00  0.45593999997E+02  0.45594000000E+02  0.51100000000E-03 0.  1.
         11   -1    0    0    0    0 -0.00000000000E+00 -0.00000000000E+00 -0.45593999997E+02  0.45594000000E+02  0.51100000000E-03 0. -1.
         23    2    1    2    0    0  0.00000000000E+00  0.35527136788E-14  0.00000000000E+00  0.91188000000E+02  0.91188000000E+02 0.  0.
    9900012    2    3    3    0    0 -0.11673089669E+02 -0.31807123931E+02 -0.14416127899E+02  0.54367096986E+02  0.40000029198E+02 0.  0.
        -12    1    3    3    0    0  0.11673089669E+02  0.31807123931E+02  0.14416127899E+02  0.36820903014E+02  0.00000000000E+00 0.  1.
         11    1    4    4    0    0  0.10072361741E+01 -0.23814070086E+02 -0.10830683237E+02  0.26180682925E+02  0.51100000000E-03 0. -1.
        -11    1    4    4    0    0 -0.32356559981E+01 -0.28783005391E+01  0.99827149193E+01  0.10881575307E+02  0.51100000000E-03 0.  1.
         12    1    4    4    0    0 -0.94446698452E+01 -0.51147533057E+01 -0.13568159582E+02  0.17304838754E+02  0.00000000000E+00 0. -1.
</event>
<event>
 8    1  0.1229038E-006  0.9118800E+02  0.7816164E-02  0.1184000E+00
        -11   -1    0    0    0    0  0.00000000000E+00  0.00000000000E+00  0.45593999997E+02  0.45594000000E+02  0.51100000000E-03 0.  1.
         11   -1    0    0    0    0 -0.00000000000E+00 -0.00000000000E+00 -0.45593999997E+02  0.45594000000E+02  0.51100000000E-03 0. -1.
         23    2    1    2    0    0  0.00000000000E+00 -0.13322676296E-14  0.71054273576E-14  0.91188000000E+02  0.91188000000E+02 0.  0.
    9900012    2    3    3    0    0  0.18398495416E+02 -0.37398643274E+01  0.31674682352E+02  0.54367126560E+02  0.40000096618E+02 0.  0.
         12    1    3    3    0    0 -0.18398495416E+02  0.37398643274E+01 -0.31674682352E+02  0.36820873440E+02  0.00000000000E+00 0. -1.
         11    1    4    4    0    0  0.37294100464E+01 -0.17997673056E+02  0.19191717048E+02  0.26573421651E+02  0.51100000000E-03 0. -1.
        -11    1    4    4    0    0  0.49154038432E+01 -0.22789577040E+01  0.12870748492E+01  0.55687884757E+01  0.51100000000E-03 0.  1.
        -12    1    4    4    0    0  0.97536815266E+01  0.16536766433E+02  0.11195890455E+02  0.22224916433E+02  0.00000000000E+00 0.  1.
</event>
<event>
 8    1  0.1229038E-006  0.9118800E+02  0.7816164E-02  0.1184000E+00
        -11   -1    0    0    0    0  0.00000000000E+00  0.00000000000E+00  0.45593999997E+02  0.45594000000E+02  0.51100000000E-03 0.  1.
         11   -1    0    0    0    0 -0.00000000000E+00 -0.00000000000E+00 -0.45593999997E+02  0.45594000000E+02  0.51100000000E-03 0. -1.
         23    2    1    2    0    0  0.00000000000E+00  0.00000000000E+00  0.00000000000E+00  0.91188000000E+02  0.91188000000E+02 0.  0.
    9900012    2    3    3    0    0 -0.22731140693E+02 -0.90666797685E+01  0.27511172125E+02  0.54367163088E+02  0.40000179892E+02 0.  0.
         12    1    3    3    0    0  0.22731140693E+02  0.90666797685E+01 -0.27511172125E+02  0.36820836912E+02  0.00000000000E+00 0. -1.
         11    1    4    4    0    0  0.22174776032E+01  0.33630151309E+01 -0.39668229040E+01  0.56535618776E+01  0.51100000000E-03 0. -1.
        -11    1    4    4    0    0 -0.29785733166E+02 -0.12011676400E+02  0.28955675859E+02  0.43242356953E+02  0.51100000000E-03 0.  1.
        -12    1    4    4    0    0  0.48371148700E+01 -0.41801849981E+00  0.25223191695E+01  0.54712442574E+01  0.00000000000E+00 0.  1.
</event>
<event>
 8    1  0.1229038E-006  0.9118800E+02  0.7816164E-02  0.1184000E+00
        -11   -1    0    0    0    0  0.00000000000E+00  0.00000000000E+00  0.45593999997E+02  0.45594000000E+02  0.51100000000E-03 0.  1.
         11   -1    0    0    0    0 -0.00000000000E+00 -0.00000000000E+00 -0.45593999997E+02  0.45594000000E+02  0.51100000000E-03 0. -1.
         23    2    1    2    0    0 -0.35527136788E-14  0.00000000000E+00  0.00000000000E+00  0.91188000000E+02  0.91188000000E+02 0.  0.
    9900012    2    3    3    0    0  0.29905396837E+02 -0.12479120696E+01 -0.21445058083E+02  0.54367074419E+02  0.39999977753E+02 0.  0.
        -12    1    3    3    0    0 -0.29905396837E+02  0.12479120696E+01  0.21445058083E+02  0.36820925581E+02  0.00000000000E+00 0.  1.
         11    1    4    4    0    0  0.68572675381E+01  0.81797584221E+01 -0.12651616962E+02  0.16552763453E+02  0.51100000000E-03 0. -1.
        -11    1    4    4    0    0 -0.56075942615E+01  0.16242155047E+01  0.10193411735E+00  0.58389708196E+01  0.51100000000E-03 0.  1.
        -12    1    4    4    0    0  0.28655723560E+02 -0.11051885996E+02 -0.88953752382E+01  0.31975340146E+02  0.00000000000E+00 0.  1.
</event>
<event>
 8    1  0.1229038E-006  0.9118800E+02  0.7816164E-02  0.1184000E+00
        -11   -1    0    0    0    0  0.00000000000E+00  0.00000000000E+00  0.45593999997E+02  0.45594000000E+02  0.51100000000E-03 0. -1.
         11   -1    0    0    0    0 -0.00000000000E+00 -0.00000000000E+00 -0.45593999997E+02  0.45594000000E+02  0.51100000000E-03 0.  1.
         23    2    1    2    0    0  0.00000000000E+00  0.00000000000E+00 -0.17763568394E-14  0.91188000000E+02  0.91188000000E+02 0.  0.
    9900012    2    3    3    0    0 -0.14142998711E+02 -0.32458006305E+02 -0.10111034077E+02  0.54367087519E+02  0.40000007617E+02 0.  0.
        -12    1    3    3    0    0  0.14142998711E+02  0.32458006305E+02  0.10111034077E+02  0.36820912481E+02  0.00000000000E+00 0.  1.
         11    1    4    4    0    0  0.23886702848E+01  0.27502748445E+01  0.79908546614E+01  0.87819995406E+01  0.51100000000E-03 0. -1.
        -11    1    4    4    0    0  0.15450639850E+00 -0.14975700785E+02 -0.10463631246E+02  0.18269730850E+02  0.51100000000E-03 0.  1.
         12    1    4    4    0    0 -0.16686175395E+02 -0.20232580365E+02 -0.76382574925E+01  0.27315357128E+02  0.00000000000E+00 0. -1.
</event>
<event>
 8    1  0.1229038E-006  0.9118800E+02  0.7816164E-02  0.1184000E+00
        -11   -1    0    0    0    0  0.00000000000E+00  0.00000000000E+00  0.45593999997E+02  0.45594000000E+02  0.51100000000E-03 0.  1.
         11   -1    0    0    0    0 -0.00000000000E+00 -0.00000000000E+00 -0.45593999997E+02  0.45594000000E+02  0.51100000000E-03 0. -1.
         23    2    1    2    0    0 -0.44408920985E-15 -0.71054273576E-14  0.88817841970E-15  0.91188000000E+02  0.91188000000E+02 0.  0.
    9900012    2    3    3    0    0  0.39151673403E+01  0.36025035309E+02 -0.65305568327E+01  0.54367083704E+02  0.39999998919E+02 0.  0.
         12    1    3    3    0    0 -0.39151673403E+01 -0.36025035309E+02  0.65305568327E+01  0.36820916296E+02  0.00000000000E+00 0. -1.
         11    1    4    4    0    0 -0.10797032198E+02  0.29669922667E+02 -0.80218106657E+01  0.32576520102E+02  0.51100000000E-03 0. -1.
        -11    1    4    4    0    0  0.13547386669E+01  0.44435697947E+01  0.59778357924E+01  0.75706770106E+01  0.51100000000E-03 0.  1.
         12    1    4    4    0    0  0.13357460871E+02  0.19115428481E+01 -0.44865819594E+01  0.14219886591E+02  0.00000000000E+00 0. -1.
</event>
<event>
 8    1  0.1229038E-006  0.9118800E+02  0.7816164E-02  0.1184000E+00
        -11   -1    0    0    0    0  0.00000000000E+00  0.00000000000E+00  0.45593999997E+02  0.45594000000E+02  0.51100000000E-03 0.  1.
         11   -1    0    0    0    0 -0.00000000000E+00 -0.00000000000E+00 -0.45593999997E+02  0.45594000000E+02  0.51100000000E-03 0. -1.
         23    2    1    2    0    0  0.00000000000E+00  0.00000000000E+00  0.00000000000E+00  0.91188000000E+02  0.91188000000E+02 0.  0.
    9900012    2    3    3    0    0  0.29632038503E+02 -0.11266888930E+02 -0.18729152324E+02  0.54367059778E+02  0.39999944376E+02 0.  0.
        -12    1    3    3    0    0 -0.29632038503E+02  0.11266888930E+02  0.18729152324E+02  0.36820940222E+02  0.00000000000E+00 0.  1.
         11    1    4    4    0    0  0.15250708175E+02 -0.75782485488E+01  0.44934354366E+01  0.17612635044E+02  0.51100000000E-03 0. -1.
        -11    1    4    4    0    0 -0.44097368486E-01  0.82298121358E+01 -0.13124582153E+02  0.15491494741E+02  0.51100000000E-03 0.  1.
         12    1    4    4    0    0  0.14425427697E+02 -0.11918452517E+02 -0.10098005608E+02  0.21262929993E+02  0.00000000000E+00 0. -1.
</event>
<event>
 8    1  0.1229038E-006  0.9118800E+02  0.7816164E-02  0.1184000E+00
        -11   -1    0    0    0    0  0.00000000000E+00  0.00000000000E+00  0.45593999997E+02  0.45594000000E+02  0.51100000000E-03 0. -1.
         11   -1    0    0    0    0 -0.00000000000E+00 -0.00000000000E+00 -0.45593999997E+02  0.45594000000E+02  0.51100000000E-03 0.  1.
         23    2    1    2    0    0 -0.35527136788E-14  0.00000000000E+00  0.35527136788E-14  0.91188000000E+02  0.91188000000E+02 0.  0.
    9900012    2    3    3    0    0  0.23476911546E+02  0.65842615638E+00  0.28358055561E+02  0.54367106259E+02  0.40000050338E+02 0.  0.
        -12    1    3    3    0    0 -0.23476911546E+02 -0.65842615638E+00 -0.28358055561E+02  0.36820893741E+02  0.00000000000E+00 0.  1.
         11    1    4    4    0    0 -0.28089414171E+01  0.28896845191E+01 -0.28826965827E+01  0.49548328280E+01  0.51100000000E-03 0. -1.
        -11    1    4    4    0    0  0.70670828512E+01  0.19353045901E+01 -0.45141634179E+01  0.86062033154E+01  0.51100000000E-03 0.  1.
        -12    1    4    4    0    0  0.19218770112E+02 -0.41665629528E+01  0.35754915561E+02  0.40806070115E+02  0.00000000000E+00 0.  1.
</event>
<event>
 8    1  0.1229038E-006  0.9118800E+02  0.7816164E-02  0.1184000E+00
        -11   -1    0    0    0    0  0.00000000000E+00  0.00000000000E+00  0.45593999997E+02  0.45594000000E+02  0.51100000000E-03 0. -1.
         11   -1    0    0    0    0 -0.00000000000E+00 -0.00000000000E+00 -0.45593999997E+02  0.45594000000E+02  0.51100000000E-03 0.  1.
         23    2    1    2    0    0  0.35527136788E-14  0.35527136788E-14  0.88817841970E-15  0.91188000000E+02  0.91188000000E+02 0.  0.
    9900012    2    3    3    0    0  0.22097971674E+02 -0.29109573995E+02  0.44826647169E+01  0.54367055780E+02  0.39999935262E+02 0.  0.
        -12    1    3    3    0    0 -0.22097971674E+02  0.29109573995E+02 -0.44826647169E+01  0.36820944220E+02  0.00000000000E+00 0.  1.
         11    1    4    4    0    0  0.51181579480E+01 -0.33844979797E+02  0.47350921006E+01  0.34555741863E+02  0.51100000000E-03 0. -1.
        -11    1    4    4    0    0  0.77790301300E+01  0.46083410687E+01 -0.39857953721E+01  0.98811275763E+01  0.51100000000E-03 0.  1.
         12    1    4    4    0    0  0.92007835963E+01  0.12706473379E+00  0.37333679884E+01  0.99301863411E+01  0.00000000000E+00 0. -1.
</event>
<event>
 8    1  0.1229038E-006  0.9118800E+02  0.7816164E-02  0.1184000E+00
        -11   -1    0    0    0    0  0.00000000000E+00  0.00000000000E+00  0.45593999997E+02  0.45594000000E+02  0.51100000000E-03 0.  1.
         11   -1    0    0    0    0 -0.00000000000E+00 -0.00000000000E+00 -0.45593999997E+02  0.45594000000E+02  0.51100000000E-03 0. -1.
         23    2    1    2    0    0  0.35527136788E-14 -0.35527136788E-14 -0.35527136788E-14  0.91188000000E+02  0.91188000000E+02 0.  0.
    9900012    2    3    3    0    0 -0.27859316688E+02  0.22413818360E+02  0.87896553077E+01  0.54367098053E+02  0.40000031631E+02 0.  0.
         12    1    3    3    0    0  0.27859316688E+02 -0.22413818360E+02 -0.87896553077E+01  0.36820901947E+02  0.00000000000E+00 0. -1.
         11    1    4    4    0    0 -0.15732305245E+02 -0.91050387138E+00 -0.43222475237E+00  0.15764557212E+02  0.51100000000E-03 0. -1.
        -11    1    4    4    0    0 -0.55162047232E+01  0.12545582511E+02 -0.90200681860E+01  0.16406760357E+02  0.51100000000E-03 0.  1.
        -12    1    4    4    0    0 -0.66108067201E+01  0.10778739720E+02  0.18241948246E+02  0.22195780483E+02  0.00000000000E+00 0.  1.
</event>
<event>
 8    1  0.1229038E-006  0.9118800E+02  0.7816164E-02  0.1184000E+00
        -11   -1    0    0    0    0  0.00000000000E+00  0.00000000000E+00  0.45593999997E+02  0.45594000000E+02  0.51100000000E-03 0. -1.
         11   -1    0    0    0    0 -0.00000000000E+00 -0.00000000000E+00 -0.45593999997E+02  0.45594000000E+02  0.51100000000E-03 0.  1.
         23    2    1    2    0    0  0.00000000000E+00 -0.35527136788E-14 -0.71054273576E-14  0.91188000000E+02  0.91188000000E+02 0.  0.
    9900012    2    3    3    0    0 -0.10168798368E+02 -0.24934938987E+02 -0.25112226374E+02  0.54367088061E+02  0.40000008853E+02 0.  0.
         12    1    3    3    0    0  0.10168798368E+02  0.24934938987E+02  0.25112226374E+02  0.36820911939E+02  0.00000000000E+00 0. -1.
         11    1    4    4    0    0  0.17721935114E+01  0.14939069390E+01  0.38020377162E+01  0.44528551336E+01  0.51100000000E-03 0. -1.
        -11    1    4    4    0    0  0.10926914020E+00  0.58265963558E+01 -0.18375684181E+01  0.61104682955E+01  0.51100000000E-03 0.  1.
        -12    1    4    4    0    0 -0.12050261020E+02 -0.32255442282E+02 -0.27076695672E+02  0.43803764632E+02  0.00000000000E+00 0.  1.
</event>
<event>
 8    1  0.1229038E-006  0.9118800E+02  0.7816164E-02  0.1184000E+00
        -11   -1    0    0    0    0  0.00000000000E+00  0.00000000000E+00  0.45593999997E+02  0.45594000000E+02  0.51100000000E-03 0. -1.
         11   -1    0    0    0    0 -0.00000000000E+00 -0.00000000000E+00 -0.45593999997E+02  0.45594000000E+02  0.51100000000E-03 0.  1.
         23    2    1    2    0    0 -0.35527136788E-14 -0.91593399532E-15 -0.71054273576E-14  0.91188000000E+02  0.91188000000E+02 0.  0.
    9900012    2    3    3    0    0 -0.75815902145E+01 -0.61703430835E-01 -0.36031871004E+02  0.54367081414E+02  0.39999993699E+02 0.  0.
         12    1    3    3    0    0  0.75815902145E+01  0.61703430835E-01  0.36031871004E+02  0.36820918586E+02  0.00000000000E+00 0. -1.
         11    1    4    4    0    0  0.66950984755E+01  0.71247576457E+01 -0.26446746307E+02  0.28196044148E+02  0.51100000000E-03 0. -1.
        -11    1    4    4    0    0 -0.43868543245E+00  0.14327107707E+01 -0.97529714474E+01  0.98673987137E+01  0.51100000000E-03 0.  1.
         12    1    4    4    0    0 -0.13838003258E+02 -0.86191718471E+01  0.16784675079E+00  0.16303638551E+02  0.00000000000E+00 0. -1.
</event>
<event>
 8    1  0.1229038E-006  0.9118800E+02  0.7816164E-02  0.1184000E+00
        -11   -1    0    0    0    0  0.00000000000E+00  0.00000000000E+00  0.45593999997E+02  0.45594000000E+02  0.51100000000E-03 0. -1.
         11   -1    0    0    0    0 -0.00000000000E+00 -0.00000000000E+00 -0.45593999997E+02  0.45594000000E+02  0.51100000000E-03 0.  1.
         23    2    1    2    0    0  0.35527136788E-14  0.35527136788E-14 -0.17763568394E-14  0.91188000000E+02  0.91188000000E+02 0.  0.
    9900012    2    3    3    0    0 -0.27815453387E+02 -0.20065216350E+02  0.13396553827E+02  0.54367081913E+02  0.39999994837E+02 0.  0.
         12    1    3    3    0    0  0.27815453387E+02  0.20065216350E+02 -0.13396553827E+02  0.36820918087E+02  0.00000000000E+00 0. -1.
         11    1    4    4    0    0 -0.20586775997E+02 -0.25942181060E+02  0.37558245082E+01  0.33330441373E+02  0.51100000000E-03 0. -1.
        -11    1    4    4    0    0 -0.10976459409E+02  0.32302174139E+01  0.12977281208E+01  0.11515253546E+02  0.51100000000E-03 0.  1.
        -12    1    4    4    0    0  0.37477820182E+01  0.26467472961E+01  0.83430011978E+01  0.95213869941E+01  0.00000000000E+00 0.  1.
</event>
<event>
 8    1  0.1229038E-006  0.9118800E+02  0.7816164E-02  0.1184000E+00
        -11   -1    0    0    0    0  0.00000000000E+00  0.00000000000E+00  0.45593999997E+02  0.45594000000E+02  0.51100000000E-03 0.  1.
         11   -1    0    0    0    0 -0.00000000000E+00 -0.00000000000E+00 -0.45593999997E+02  0.45594000000E+02  0.51100000000E-03 0. -1.
         23    2    1    2    0    0 -0.35527136788E-14  0.00000000000E+00  0.00000000000E+00  0.91188000000E+02  0.91188000000E+02 0.  0.
    9900012    2    3    3    0    0  0.24926420413E+02 -0.12462374732E+02 -0.24065358320E+02  0.54367099826E+02  0.40000035673E+02 0.  0.
        -12    1    3    3    0    0 -0.24926420413E+02  0.12462374732E+02  0.24065358320E+02  0.36820900174E+02  0.00000000000E+00 0.  1.
         11    1    4    4    0    0  0.11681983317E+02 -0.10973866185E+02 -0.10921007820E+02  0.19394919060E+02  0.51100000000E-03 0. -1.
        -11    1    4    4    0    0 -0.89120356206E+01 -0.42656946201E+01 -0.58441370280E+01  0.11479306049E+02  0.51100000000E-03 0.  1.
        -12    1    4    4    0    0  0.22156472717E+02  0.27771860740E+01 -0.73002134722E+01  0.23492874717E+02  0.00000000000E+00 0.  1.
</event>
<event>
 8    1  0.1229038E-006  0.9118800E+02  0.7816164E-02  0.1184000E+00
        -11   -1    0    0    0    0  0.00000000000E+00  0.00000000000E+00  0.45593999997E+02  0.45594000000E+02  0.51100000000E-03 0.  1.
         11   -1    0    0    0    0 -0.00000000000E+00 -0.00000000000E+00 -0.45593999997E+02  0.45594000000E+02  0.51100000000E-03 0. -1.
         23    2    1    2    0    0  0.88817841970E-15  0.00000000000E+00 -0.17763568394E-14  0.91188000000E+02  0.91188000000E+02 0.  0.
    9900012    2    3    3    0    0 -0.58069869367E+01 -0.35010752746E+02  0.98136265248E+01  0.54367066135E+02  0.39999958869E+02 0.  0.
        -12    1    3    3    0    0  0.58069869367E+01  0.35010752746E+02 -0.98136265248E+01  0.36820933865E+02  0.00000000000E+00 0.  1.
         11    1    4    4    0    0  0.57270136757E+01 -0.20406286197E+02 -0.91598119477E+01  0.23089334273E+02  0.51100000000E-03 0. -1.
        -11    1    4    4    0    0 -0.10542544782E+02 -0.11852440567E+02  0.21964783292E+02  0.27093860987E+02  0.51100000000E-03 0.  1.
        -12    1    4    4    0    0 -0.99145583070E+00 -0.27520259813E+01 -0.29913448197E+01  0.41838708747E+01  0.00000000000E+00 0.  1.
</event>
<event>
 8    1  0.1229038E-006  0.9118800E+02  0.7816164E-02  0.1184000E+00
        -11   -1    0    0    0    0  0.00000000000E+00  0.00000000000E+00  0.45593999997E+02  0.45594000000E+02  0.51100000000E-03 0. -1.
         11   -1    0    0    0    0 -0.00000000000E+00 -0.00000000000E+00 -0.45593999997E+02  0.45594000000E+02  0.51100000000E-03 0.  1.
         23    2    1    2    0    0  0.00000000000E+00  0.00000000000E+00 -0.22204460493E-15  0.91188000000E+02  0.91188000000E+02 0.  0.
    9900012    2    3    3    0    0 -0.28624832043E+02  0.23160215296E+02  0.49880266437E-01  0.54367094659E+02  0.40000023895E+02 0.  0.
         12    1    3    3    0    0  0.28624832043E+02 -0.23160215296E+02 -0.49880266437E-01  0.36820905341E+02  0.00000000000E+00 0. -1.
         11    1    4    4    0    0 -0.18930074061E+01 -0.99015933729E+01 -0.58345449755E+00  0.10097794203E+02  0.51100000000E-03 0. -1.
        -11    1    4    4    0    0 -0.18871352927E+02  0.16074906993E+02 -0.36798129980E+01  0.25061357108E+02  0.51100000000E-03 0.  1.
         12    1    4    4    0    0 -0.78604717101E+01  0.16986901676E+02  0.43131477620E+01  0.19207943348E+02  0.00000000000E+00 0. -1.
</event>
<event>
 8    1  0.1229038E-006  0.9118800E+02  0.7816164E-02  0.1184000E+00
        -11   -1    0    0    0    0  0.00000000000E+00  0.00000000000E+00  0.45593999997E+02  0.45594000000E+02  0.51100000000E-03 0. -1.
         11   -1    0    0    0    0 -0.00000000000E+00 -0.00000000000E+00 -0.45593999997E+02  0.45594000000E+02  0.51100000000E-03 0.  1.
         23    2    1    2    0    0  0.00000000000E+00  0.00000000000E+00  0.00000000000E+00  0.91188000000E+02  0.91188000000E+02 0.  0.
    9900012    2    3    3    0    0 -0.27059909456E+01 -0.30893397286E+02 -0.19850794996E+02  0.54367103150E+02  0.40000043252E+02 0.  0.
         12    1    3    3    0    0  0.27059909456E+01  0.30893397286E+02  0.19850794996E+02  0.36820896850E+02  0.00000000000E+00 0. -1.
         11    1    4    4    0    0 -0.54407724599E+01  0.33978589430E-01  0.11373644574E+01  0.55584851961E+01  0.51100000000E-03 0. -1.
        -11    1    4    4    0    0 -0.53247310417E+01 -0.36488258147E+01 -0.19258889526E+02  0.20311856550E+02  0.51100000000E-03 0.  1.
         12    1    4    4    0    0  0.80595125560E+01 -0.27278550060E+02 -0.17292699279E+01  0.28496761404E+02  0.00000000000E+00 0. -1.
</event>
<event>
 8    1  0.1229038E-006  0.9118800E+02  0.7816164E-02  0.1184000E+00
        -11   -1    0    0    0    0  0.00000000000E+00  0.00000000000E+00  0.45593999997E+02  0.45594000000E+02  0.51100000000E-03 0. -1.
         11   -1    0    0    0    0 -0.00000000000E+00 -0.00000000000E+00 -0.45593999997E+02  0.45594000000E+02  0.51100000000E-03 0.  1.
         23    2    1    2    0    0  0.49960036108E-15  0.00000000000E+00  0.00000000000E+00  0.91188000000E+02  0.91188000000E+02 0.  0.
    9900012    2    3    3    0    0  0.33424048568E+00  0.20818788174E+02 -0.30368503567E+02  0.54367086559E+02  0.40000005428E+02 0.  0.
         12    1    3    3    0    0 -0.33424048568E+00 -0.20818788174E+02  0.30368503567E+02  0.36820913441E+02  0.00000000000E+00 0. -1.
         11    1    4    4    0    0 -0.10442055322E+02  0.19465331716E+02 -0.21410553707E+02  0.30762761067E+02  0.51100000000E-03 0. -1.
        -11    1    4    4    0    0  0.28098423622E+01  0.98170451661E+01 -0.39606167015E+01  0.10952446065E+02  0.51100000000E-03 0.  1.
         12    1    4    4    0    0  0.79664534454E+01 -0.84635887086E+01 -0.49973331583E+01  0.12651879426E+02  0.00000000000E+00 0. -1.
</event>
<event>
 8    1  0.1229038E-006  0.9118800E+02  0.7816164E-02  0.1184000E+00
        -11   -1    0    0    0    0  0.00000000000E+00  0.00000000000E+00  0.45593999997E+02  0.45594000000E+02  0.51100000000E-03 0.  1.
         11   -1    0    0    0    0 -0.00000000000E+00 -0.00000000000E+00 -0.45593999997E+02  0.45594000000E+02  0.51100000000E-03 0. -1.
         23    2    1    2    0    0  0.00000000000E+00  0.00000000000E+00  0.00000000000E+00  0.91188000000E+02  0.91188000000E+02 0.  0.
    9900012    2    3    3    0    0 -0.12947797337E+02  0.34448675397E+02 -0.11930022559E+01  0.54367082753E+02  0.39999996753E+02 0.  0.
         12    1    3    3    0    0  0.12947797337E+02 -0.34448675397E+02  0.11930022559E+01  0.36820917247E+02  0.00000000000E+00 0. -1.
         11    1    4    4    0    0 -0.14111339487E+02  0.64160468098E+01  0.36086593779E+01  0.15915966246E+02  0.51100000000E-03 0.  1.
        -11    1    4    4    0    0  0.23335745006E+01 -0.44081544791E+01  0.18408646749E+01  0.53165946690E+01  0.51100000000E-03 0. -1.
        -12    1    4    4    0    0 -0.11700323506E+01  0.32440783067E+02 -0.66425263087E+01  0.33134521838E+02  0.00000000000E+00 0.  1.
</event>
<event>
 8    1  0.1229038E-006  0.9118800E+02  0.7816164E-02  0.1184000E+00
        -11   -1    0    0    0    0  0.00000000000E+00  0.00000000000E+00  0.45593999997E+02  0.45594000000E+02  0.51100000000E-03 0.  1.
         11   -1    0    0    0    0 -0.00000000000E+00 -0.00000000000E+00 -0.45593999997E+02  0.45594000000E+02  0.51100000000E-03 0. -1.
         23    2    1    2    0    0  0.00000000000E+00  0.00000000000E+00  0.00000000000E+00  0.91188000000E+02  0.91188000000E+02 0.  0.
    9900012    2    3    3    0    0  0.30037802302E+02 -0.20591793391E+02 -0.54303509777E+01  0.54367078856E+02  0.39999987867E+02 0.  0.
        -12    1    3    3    0    0 -0.30037802302E+02  0.20591793391E+02  0.54303509777E+01  0.36820921144E+02  0.00000000000E+00 0.  1.
         11    1    4    4    0    0  0.15477540639E+02 -0.12133368648E+02 -0.16679009156E+02  0.25786861881E+02  0.51100000000E-03 0. -1.
        -11    1    4    4    0    0 -0.34890384758E+01 -0.73484971802E+01  0.26409025839E+01  0.85526701685E+01  0.51100000000E-03 0.  1.
         12    1    4    4    0    0  0.18049300138E+02 -0.11099275624E+01  0.86077555947E+01  0.20027546806E+02  0.00000000000E+00 0. -1.
</event>
<event>
 8    1  0.1229038E-006  0.9118800E+02  0.7816164E-02  0.1184000E+00
        -11   -1    0    0    0    0  0.00000000000E+00  0.00000000000E+00  0.45593999997E+02  0.45594000000E+02  0.51100000000E-03 0.  1.
         11   -1    0    0    0    0 -0.00000000000E+00 -0.00000000000E+00 -0.45593999997E+02  0.45594000000E+02  0.51100000000E-03 0. -1.
         23    2    1    2    0    0  0.00000000000E+00 -0.17763568394E-14 -0.35527136788E-14  0.91188000000E+02  0.91188000000E+02 0.  0.
    9900012    2    3    3    0    0 -0.30516535792E+02  0.59894836789E+01  0.19713912108E+02  0.54367201502E+02  0.40000267462E+02 0.  0.
         12    1    3    3    0    0  0.30516535792E+02 -0.59894836789E+01 -0.19713912108E+02  0.36820798498E+02  0.00000000000E+00 0. -1.
         11    1    4    4    0    0  0.14687795625E+01 -0.89334281484E+01  0.29712064223E+00  0.90582411551E+01  0.51100000000E-03 0. -1.
        -11    1    4    4    0    0 -0.31491428853E+02  0.18724074646E+02  0.15357761463E+02  0.39726085888E+02  0.51100000000E-03 0.  1.
        -12    1    4    4    0    0 -0.49388650085E+00 -0.38011628191E+01  0.40590300031E+01  0.55828744585E+01  0.00000000000E+00 0.  1.
</event>
<event>
 8    1  0.1229038E-006  0.9118800E+02  0.7816164E-02  0.1184000E+00
        -11   -1    0    0    0    0  0.00000000000E+00  0.00000000000E+00  0.45593999997E+02  0.45594000000E+02  0.51100000000E-03 0.  1.
         11   -1    0    0    0    0 -0.00000000000E+00 -0.00000000000E+00 -0.45593999997E+02  0.45594000000E+02  0.51100000000E-03 0. -1.
         23    2    1    2    0    0  0.00000000000E+00  0.17763568394E-14 -0.35527136788E-14  0.91188000000E+02  0.91188000000E+02 0.  0.
    9900012    2    3    3    0    0  0.20871279251E+02  0.13088897711E+02 -0.27365078738E+02  0.54367121748E+02  0.40000085650E+02 0.  0.
        -12    1    3    3    0    0 -0.20871279251E+02 -0.13088897711E+02  0.27365078738E+02  0.36820878252E+02  0.00000000000E+00 0.  1.
         11    1    4    4    0    0  0.27708474879E+02  0.72324275041E+01 -0.13637259290E+02  0.31718171904E+02  0.51100000000E-03 0. -1.
        -11    1    4    4    0    0 -0.10464357050E+01 -0.99575195026E+00  0.31887576640E+01  0.35006749823E+01  0.51100000000E-03 0.  1.
        -12    1    4    4    0    0 -0.57907599236E+01  0.68522221577E+01 -0.16916577112E+02  0.19148274862E+02  0.00000000000E+00 0.  1.
</event>
<event>
 8    1  0.1229038E-006  0.9118800E+02  0.7816164E-02  0.1184000E+00
        -11   -1    0    0    0    0  0.00000000000E+00  0.00000000000E+00  0.45593999997E+02  0.45594000000E+02  0.51100000000E-03 0. -1.
         11   -1    0    0    0    0 -0.00000000000E+00 -0.00000000000E+00 -0.45593999997E+02  0.45594000000E+02  0.51100000000E-03 0.  1.
         23    2    1    2    0    0  0.00000000000E+00  0.17763568394E-14 -0.35527136788E-14  0.91188000000E+02  0.91188000000E+02 0.  0.
    9900012    2    3    3    0    0 -0.14602677200E+02  0.12866340146E+02 -0.31256989513E+02  0.54367078181E+02  0.39999986330E+02 0.  0.
         12    1    3    3    0    0  0.14602677200E+02 -0.12866340146E+02  0.31256989513E+02  0.36820921819E+02  0.00000000000E+00 0. -1.
         11    1    4    4    0    0 -0.22655973107E+02  0.60919540934E+01 -0.16443401316E+02  0.28649440993E+02  0.51100000000E-03 0. -1.
        -11    1    4    4    0    0  0.71864464929E+00  0.98194964117E+01 -0.14800214755E+02  0.17775975838E+02  0.51100000000E-03 0.  1.
         12    1    4    4    0    0  0.73346512573E+01 -0.30451103588E+01 -0.13373441159E-01  0.79416613509E+01  0.00000000000E+00 0. -1.
</event>
<event>
 8    1  0.1229038E-006  0.9118800E+02  0.7816164E-02  0.1184000E+00
        -11   -1    0    0    0    0  0.00000000000E+00  0.00000000000E+00  0.45593999997E+02  0.45594000000E+02  0.51100000000E-03 0.  1.
         11   -1    0    0    0    0 -0.00000000000E+00 -0.00000000000E+00 -0.45593999997E+02  0.45594000000E+02  0.51100000000E-03 0. -1.
         23    2    1    2    0    0  0.00000000000E+00  0.00000000000E+00  0.00000000000E+00  0.91188000000E+02  0.91188000000E+02 0.  0.
    9900012    2    3    3    0    0 -0.25599228535E+02  0.16559448480E+02  0.20645948291E+02  0.54366932438E+02  0.39999654077E+02 0.  0.
         12    1    3    3    0    0  0.25599228535E+02 -0.16559448480E+02 -0.20645948291E+02  0.36821067562E+02  0.00000000000E+00 0. -1.
         11    1    4    4    0    0 -0.35944021704E+01  0.36692002887E+00 -0.22978756303E+01  0.42818909309E+01  0.51100000000E-03 0. -1.
        -11    1    4    4    0    0  0.11271401090E+01  0.17787696949E+02  0.19874539655E+02  0.26695878602E+02  0.51100000000E-03 0.  1.
        -12    1    4    4    0    0 -0.23131966474E+02 -0.15951684971E+01  0.30692842658E+01  0.23389162905E+02  0.00000000000E+00 0.  1.
</event>
<event>
 8    1  0.1229038E-006  0.9118800E+02  0.7816164E-02  0.1184000E+00
        -11   -1    0    0    0    0  0.00000000000E+00  0.00000000000E+00  0.45593999997E+02  0.45594000000E+02  0.51100000000E-03 0.  1.
         11   -1    0    0    0    0 -0.00000000000E+00 -0.00000000000E+00 -0.45593999997E+02  0.45594000000E+02  0.51100000000E-03 0. -1.
         23    2    1    2    0    0 -0.35527136788E-14  0.00000000000E+00 -0.17763568394E-14  0.91188000000E+02  0.91188000000E+02 0.  0.
    9900012    2    3    3    0    0 -0.19009480639E+02  0.27535036198E+02  0.15370226463E+02  0.54367048979E+02  0.39999919757E+02 0.  0.
         12    1    3    3    0    0  0.19009480639E+02 -0.27535036198E+02 -0.15370226463E+02  0.36820951021E+02  0.00000000000E+00 0. -1.
         11    1    4    4    0    0  0.18453553271E+01  0.64068723436E+00  0.32374619196E+01  0.37811342687E+01  0.51100000000E-03 0. -1.
        -11    1    4    4    0    0 -0.16934594610E+02  0.94225612420E+01  0.22658144152E+02  0.29815376094E+02  0.51100000000E-03 0.  1.
         12    1    4    4    0    0 -0.39202413562E+01  0.17471787722E+02 -0.10525379609E+02  0.20770538616E+02  0.00000000000E+00 0. -1.
</event>
<event>
 8    1  0.1229038E-006  0.9118800E+02  0.7816164E-02  0.1184000E+00
        -11   -1    0    0    0    0  0.00000000000E+00  0.00000000000E+00  0.45593999997E+02  0.45594000000E+02  0.51100000000E-03 0. -1.
         11   -1    0    0    0    0 -0.00000000000E+00 -0.00000000000E+00 -0.45593999997E+02  0.45594000000E+02  0.51100000000E-03 0.  1.
         23    2    1    2    0    0  0.00000000000E+00  0.00000000000E+00 -0.35527136788E-14  0.91188000000E+02  0.91188000000E+02 0.  0.
    9900012    2    3    3    0    0 -0.24376272982E+02  0.71484965118E+01 -0.26654805862E+02  0.54367049952E+02  0.39999921976E+02 0.  0.
         12    1    3    3    0    0  0.24376272982E+02 -0.71484965118E+01  0.26654805862E+02  0.36820950048E+02  0.00000000000E+00 0. -1.
         11    1    4    4    0    0  0.11846977544E+01  0.66417705820E+01 -0.19980036409E+02  0.21088349400E+02  0.51100000000E-03 0.  1.
        -11    1    4    4    0    0 -0.60937491945E+01 -0.58321424887E+01  0.49051484282E+01  0.97574661987E+01  0.51100000000E-03 0. -1.
        -12    1    4    4    0    0 -0.19467221542E+02  0.63388684186E+01 -0.11579917881E+02  0.23521234354E+02  0.00000000000E+00 0.  1.
</event>
<event>
 8    1  0.1229038E-006  0.9118800E+02  0.7816164E-02  0.1184000E+00
        -11   -1    0    0    0    0  0.00000000000E+00  0.00000000000E+00  0.45593999997E+02  0.45594000000E+02  0.51100000000E-03 0.  1.
         11   -1    0    0    0    0 -0.00000000000E+00 -0.00000000000E+00 -0.45593999997E+02  0.45594000000E+02  0.51100000000E-03 0. -1.
         23    2    1    2    0    0  0.35527136788E-14 -0.35527136788E-14 -0.35527136788E-14  0.91188000000E+02  0.91188000000E+02 0.  0.
    9900012    2    3    3    0    0  0.19038426455E+02 -0.25683050913E+02 -0.18267438304E+02  0.54367080833E+02  0.39999992375E+02 0.  0.
        -12    1    3    3    0    0 -0.19038426455E+02  0.25683050913E+02  0.18267438304E+02  0.36820919167E+02  0.00000000000E+00 0.  1.
         11    1    4    4    0    0  0.13173862451E+02 -0.74400423740E+01  0.13220254896E+00  0.15130180441E+02  0.51100000000E-03 0. -1.
        -11    1    4    4    0    0  0.14375822920E+02 -0.66649232586E+01  0.57090237548E-01  0.15845780076E+02  0.51100000000E-03 0.  1.
        -12    1    4    4    0    0 -0.85112589152E+01 -0.11578085281E+02 -0.18456731091E+02  0.23391120316E+02  0.00000000000E+00 0.  1.
</event>
<event>
 8    1  0.1229038E-006  0.9118800E+02  0.7816164E-02  0.1184000E+00
        -11   -1    0    0    0    0  0.00000000000E+00  0.00000000000E+00  0.45593999997E+02  0.45594000000E+02  0.51100000000E-03 0. -1.
         11   -1    0    0    0    0 -0.00000000000E+00 -0.00000000000E+00 -0.45593999997E+02  0.45594000000E+02  0.51100000000E-03 0.  1.
         23    2    1    2    0    0  0.35527136788E-14  0.00000000000E+00  0.00000000000E+00  0.91188000000E+02  0.91188000000E+02 0.  0.
    9900012    2    3    3    0    0  0.24069917488E+02  0.25431871133E+02 -0.11385834968E+02  0.54367105998E+02  0.40000049743E+02 0.  0.
         12    1    3    3    0    0 -0.24069917488E+02 -0.25431871133E+02  0.11385834968E+02  0.36820894002E+02  0.00000000000E+00 0. -1.
         11    1    4    4    0    0  0.83296506838E+01 -0.89006392339E+01 -0.10267878985E+02  0.15938437765E+02  0.51100000000E-03 0. -1.
        -11    1    4    4    0    0  0.10562593547E+02  0.22951533668E+02  0.25619962762E+01  0.25394981893E+02  0.51100000000E-03 0.  1.
         12    1    4    4    0    0  0.51776732576E+01  0.11380976698E+02 -0.36799522595E+01  0.13033686339E+02  0.00000000000E+00 0. -1.
</event>
<event>
 8    1  0.1229038E-006  0.9118800E+02  0.7816164E-02  0.1184000E+00
        -11   -1    0    0    0    0  0.00000000000E+00  0.00000000000E+00  0.45593999997E+02  0.45594000000E+02  0.51100000000E-03 0. -1.
         11   -1    0    0    0    0 -0.00000000000E+00 -0.00000000000E+00 -0.45593999997E+02  0.45594000000E+02  0.51100000000E-03 0.  1.
         23    2    1    2    0    0 -0.35527136788E-14  0.17763568394E-14 -0.17763568394E-14  0.91188000000E+02  0.91188000000E+02 0.  0.
    9900012    2    3    3    0    0 -0.31800027016E+02  0.11482816587E+02 -0.14583647905E+02  0.54367087719E+02  0.40000008073E+02 0.  0.
        -12    1    3    3    0    0  0.31800027016E+02 -0.11482816587E+02  0.14583647905E+02  0.36820912281E+02  0.00000000000E+00 0.  1.
         11    1    4    4    0    0 -0.26441401026E+01  0.45106931907E+01  0.60440814922E+01  0.79917927456E+01  0.51100000000E-03 0. -1.
        -11    1    4    4    0    0 -0.27523749871E+01 -0.98442630205E+01 -0.55044348144E+01  0.11609646221E+02  0.51100000000E-03 0.  1.
         12    1    4    4    0    0 -0.26403511926E+02  0.16816386417E+02 -0.15123294582E+02  0.34765648753E+02  0.00000000000E+00 0. -1.
</event>
<event>
 8    1  0.1229038E-006  0.9118800E+02  0.7816164E-02  0.1184000E+00
        -11   -1    0    0    0    0  0.00000000000E+00  0.00000000000E+00  0.45593999997E+02  0.45594000000E+02  0.51100000000E-03 0.  1.
         11   -1    0    0    0    0 -0.00000000000E+00 -0.00000000000E+00 -0.45593999997E+02  0.45594000000E+02  0.51100000000E-03 0. -1.
         23    2    1    2    0    0  0.17763568394E-14  0.44408920985E-15 -0.71054273576E-14  0.91188000000E+02  0.91188000000E+02 0.  0.
    9900012    2    3    3    0    0  0.54691531381E+01  0.23300542940E+01 -0.36337854528E+02  0.54367075775E+02  0.39999980845E+02 0.  0.
        -12    1    3    3    0    0 -0.54691531381E+01 -0.23300542940E+01  0.36337854528E+02  0.36820924225E+02  0.00000000000E+00 0.  1.
         11    1    4    4    0    0 -0.15765809612E+01 -0.11481308946E+02 -0.19428547662E+02  0.22622434156E+02  0.51100000000E-03 0. -1.
        -11    1    4    4    0    0  0.87516783316E+01  0.36399912199E+00  0.14963764379E+01  0.88861415522E+01  0.51100000000E-03 0.  1.
         12    1    4    4    0    0 -0.17059442323E+01  0.13447364118E+02 -0.18405683304E+02  0.22858500067E+02  0.00000000000E+00 0. -1.
</event>
<event>
 8    1  0.1229038E-006  0.9118800E+02  0.7816164E-02  0.1184000E+00
        -11   -1    0    0    0    0  0.00000000000E+00  0.00000000000E+00  0.45593999997E+02  0.45594000000E+02  0.51100000000E-03 0.  1.
         11   -1    0    0    0    0 -0.00000000000E+00 -0.00000000000E+00 -0.45593999997E+02  0.45594000000E+02  0.51100000000E-03 0. -1.
         23    2    1    2    0    0 -0.35527136788E-14  0.00000000000E+00  0.00000000000E+00  0.91188000000E+02  0.91188000000E+02 0.  0.
    9900012    2    3    3    0    0 -0.25732581006E+02 -0.15606568590E+02 -0.21214365855E+02  0.54367081665E+02  0.39999994271E+02 0.  0.
        -12    1    3    3    0    0  0.25732581006E+02  0.15606568590E+02  0.21214365855E+02  0.36820918335E+02  0.00000000000E+00 0.  1.
         11    1    4    4    0    0 -0.25117164861E+01 -0.12724153808E+02  0.75572724774E+01  0.15010835333E+02  0.51100000000E-03 0. -1.
        -11    1    4    4    0    0 -0.11879311328E+02  0.23084545266E+01 -0.22136094476E+02  0.25228033591E+02  0.51100000000E-03 0.  1.
        -12    1    4    4    0    0 -0.11341553192E+02 -0.51908693091E+01 -0.66355438563E+01  0.14128212741E+02  0.00000000000E+00 0.  1.
</event>
<event>
 8    1  0.1229038E-006  0.9118800E+02  0.7816164E-02  0.1184000E+00
        -11   -1    0    0    0    0  0.00000000000E+00  0.00000000000E+00  0.45593999997E+02  0.45594000000E+02  0.51100000000E-03 0.  1.
         11   -1    0    0    0    0 -0.00000000000E+00 -0.00000000000E+00 -0.45593999997E+02  0.45594000000E+02  0.51100000000E-03 0. -1.
         23    2    1    2    0    0  0.00000000000E+00 -0.17763568394E-14 -0.17763568394E-14  0.91188000000E+02  0.91188000000E+02 0.  0.
    9900012    2    3    3    0    0 -0.31076741428E+02  0.12380751373E+02  0.15386210394E+02  0.54367050357E+02  0.39999922899E+02 0.  0.
         12    1    3    3    0    0  0.31076741428E+02 -0.12380751373E+02 -0.15386210394E+02  0.36820949643E+02  0.00000000000E+00 0. -1.
         11    1    4    4    0    0 -0.25784263699E+02  0.16037342690E+02  0.24350660753E+02  0.38922734930E+02  0.51100000000E-03 0. -1.
        -11    1    4    4    0    0 -0.30267606229E+01  0.26490130605E+01  0.27437321607E+00  0.40316040215E+01  0.51100000000E-03 0.  1.
         12    1    4    4    0    0 -0.22657171057E+01 -0.63056043777E+01 -0.92388235754E+01  0.11412711406E+02  0.00000000000E+00 0. -1.
</event>
<event>
 8    1  0.1229038E-006  0.9118800E+02  0.7816164E-02  0.1184000E+00
        -11   -1    0    0    0    0  0.00000000000E+00  0.00000000000E+00  0.45593999997E+02  0.45594000000E+02  0.51100000000E-03 0. -1.
         11   -1    0    0    0    0 -0.00000000000E+00 -0.00000000000E+00 -0.45593999997E+02  0.45594000000E+02  0.51100000000E-03 0.  1.
         23    2    1    2    0    0  0.17763568394E-14 -0.17763568394E-14  0.71054273576E-14  0.91188000000E+02  0.91188000000E+02 0.  0.
    9900012    2    3    3    0    0 -0.91055716942E+01 -0.10991109005E+02  0.33942058592E+02  0.54367092155E+02  0.40000018186E+02 0.  0.
        -12    1    3    3    0    0  0.91055716942E+01  0.10991109005E+02 -0.33942058592E+02  0.36820907845E+02  0.00000000000E+00 0.  1.
         11    1    4    4    0    0 -0.13856641451E+02 -0.82030408422E+01  0.30639234244E+02  0.34612989854E+02  0.51100000000E-03 0. -1.
        -11    1    4    4    0    0 -0.27006173069E+01 -0.35790556044E+00 -0.65910272868E+01  0.71318350503E+01  0.51100000000E-03 0.  1.
        -12    1    4    4    0    0  0.74516870632E+01 -0.24301626028E+01  0.98938516350E+01  0.12622267250E+02  0.00000000000E+00 0.  1.
</event>
<event>
 8    1  0.1229038E-006  0.9118800E+02  0.7816164E-02  0.1184000E+00
        -11   -1    0    0    0    0  0.00000000000E+00  0.00000000000E+00  0.45593999997E+02  0.45594000000E+02  0.51100000000E-03 0.  1.
         11   -1    0    0    0    0 -0.00000000000E+00 -0.00000000000E+00 -0.45593999997E+02  0.45594000000E+02  0.51100000000E-03 0. -1.
         23    2    1    2    0    0  0.00000000000E+00  0.00000000000E+00  0.00000000000E+00  0.91188000000E+02  0.91188000000E+02 0.  0.
    9900012    2    3    3    0    0  0.25489689689E+02 -0.14345369064E+02  0.22366633242E+02  0.54367079634E+02  0.39999989642E+02 0.  0.
         12    1    3    3    0    0 -0.25489689689E+02  0.14345369064E+02 -0.22366633242E+02  0.36820920366E+02  0.00000000000E+00 0. -1.
         11    1    4    4    0    0  0.30088487344E+02 -0.11019476810E+02  0.71627855045E+01  0.32833693612E+02  0.51100000000E-03 0.  1.
        -11    1    4    4    0    0 -0.66373021387E+01 -0.60829694551E+00  0.77501682587E+00  0.67100265421E+01  0.51100000000E-03 0. -1.
        -12    1    4    4    0    0  0.20385044840E+01 -0.27175953084E+01  0.14428830911E+02  0.14823359480E+02  0.00000000000E+00 0.  1.
</event>
<event>
 8    1  0.1229038E-006  0.9118800E+02  0.7816164E-02  0.1184000E+00
        -11   -1    0    0    0    0  0.00000000000E+00  0.00000000000E+00  0.45593999997E+02  0.45594000000E+02  0.51100000000E-03 0. -1.
         11   -1    0    0    0    0 -0.00000000000E+00 -0.00000000000E+00 -0.45593999997E+02  0.45594000000E+02  0.51100000000E-03 0.  1.
         23    2    1    2    0    0  0.00000000000E+00  0.00000000000E+00 -0.35527136788E-14  0.91188000000E+02  0.91188000000E+02 0.  0.
    9900012    2    3    3    0    0 -0.12536455773E+02  0.19318708252E+02  0.28729604741E+02  0.54367280284E+02  0.40000447060E+02 0.  0.
        -12    1    3    3    0    0  0.12536455773E+02 -0.19318708252E+02 -0.28729604741E+02  0.36820719716E+02  0.00000000000E+00 0.  1.
         11    1    4    4    0    0 -0.62227970264E+01  0.14877850851E+02  0.27342539333E+02  0.31744103488E+02  0.51100000000E-03 0. -1.
        -11    1    4    4    0    0 -0.46291239130E+01 -0.53545613559E+01  0.80025232782E+01  0.10683655488E+02  0.51100000000E-03 0.  1.
        -12    1    4    4    0    0 -0.16845348331E+01  0.97954187563E+01 -0.66154578702E+01  0.11939521307E+02  0.00000000000E+00 0.  1.
</event>
<event>
 8    1  0.1229038E-006  0.9118800E+02  0.7816164E-02  0.1184000E+00
        -11   -1    0    0    0    0  0.00000000000E+00  0.00000000000E+00  0.45593999997E+02  0.45594000000E+02  0.51100000000E-03 0. -1.
         11   -1    0    0    0    0 -0.00000000000E+00 -0.00000000000E+00 -0.45593999997E+02  0.45594000000E+02  0.51100000000E-03 0.  1.
         23    2    1    2    0    0  0.00000000000E+00  0.00000000000E+00  0.00000000000E+00  0.91188000000E+02  0.91188000000E+02 0.  0.
    9900012    2    3    3    0    0  0.10692746100E+02 -0.35090407258E+02 -0.31811296396E+01  0.54366931487E+02  0.39999651908E+02 0.  0.
         12    1    3    3    0    0 -0.10692746100E+02  0.35090407258E+02  0.31811296396E+01  0.36821068513E+02  0.00000000000E+00 0. -1.
         11    1    4    4    0    0  0.77399266115E+01  0.42988368919E+01 -0.10367166415E+02  0.13633216873E+02  0.51100000000E-03 0. -1.
        -11    1    4    4    0    0  0.43863150546E+01 -0.26047328731E+02  0.25506302088E+01  0.26536932914E+02  0.51100000000E-03 0.  1.
         12    1    4    4    0    0 -0.14334955660E+01 -0.13341915419E+02  0.46354065663E+01  0.14196781699E+02  0.00000000000E+00 0. -1.
</event>
<event>
 8    1  0.1229038E-006  0.9118800E+02  0.7816164E-02  0.1184000E+00
        -11   -1    0    0    0    0  0.00000000000E+00  0.00000000000E+00  0.45593999997E+02  0.45594000000E+02  0.51100000000E-03 0.  1.
         11   -1    0    0    0    0 -0.00000000000E+00 -0.00000000000E+00 -0.45593999997E+02  0.45594000000E+02  0.51100000000E-03 0. -1.
         23    2    1    2    0    0  0.00000000000E+00 -0.17763568394E-14  0.00000000000E+00  0.91188000000E+02  0.91188000000E+02 0.  0.
    9900012    2    3    3    0    0 -0.65135687813E+01  0.10772562482E+02  0.34602097561E+02  0.54367084255E+02  0.40000000176E+02 0.  0.
         12    1    3    3    0    0  0.65135687813E+01 -0.10772562482E+02 -0.34602097561E+02  0.36820915745E+02  0.00000000000E+00 0. -1.
         11    1    4    4    0    0  0.58754160235E+01 -0.31523237332E+01  0.50832014753E+01  0.83843065228E+01  0.51100000000E-03 0. -1.
        -11    1    4    4    0    0  0.40727836071E+01 -0.18864170176E+01 -0.36044836389E+01  0.57565995204E+01  0.51100000000E-03 0.  1.
        -12    1    4    4    0    0 -0.16461768412E+02  0.15811303233E+02  0.33123379724E+02  0.40226178212E+02  0.00000000000E+00 0.  1.
</event>
<event>
 8    1  0.1229038E-006  0.9118800E+02  0.7816164E-02  0.1184000E+00
        -11   -1    0    0    0    0  0.00000000000E+00  0.00000000000E+00  0.45593999997E+02  0.45594000000E+02  0.51100000000E-03 0.  1.
         11   -1    0    0    0    0 -0.00000000000E+00 -0.00000000000E+00 -0.45593999997E+02  0.45594000000E+02  0.51100000000E-03 0. -1.
         23    2    1    2    0    0  0.00000000000E+00  0.00000000000E+00  0.00000000000E+00  0.91188000000E+02  0.91188000000E+02 0.  0.
    9900012    2    3    3    0    0  0.29168004288E+02 -0.18028150520E+02  0.13416168348E+02  0.54367078522E+02  0.39999987107E+02 0.  0.
         12    1    3    3    0    0 -0.29168004288E+02  0.18028150520E+02 -0.13416168348E+02  0.36820921478E+02  0.00000000000E+00 0. -1.
         11    1    4    4    0    0  0.16879915642E+02  0.96984393399E+01  0.94981009225E+01  0.21661144917E+02  0.51100000000E-03 0. -1.
        -11    1    4    4    0    0  0.12519516156E+02 -0.18269257629E+02 -0.74309886703E+00  0.22159789152E+02  0.51100000000E-03 0.  1.
        -12    1    4    4    0    0 -0.23142750905E+00 -0.94573322314E+01  0.46611662929E+01  0.10546144454E+02  0.00000000000E+00 0.  1.
</event>
<event>
 8    1  0.1229038E-006  0.9118800E+02  0.7816164E-02  0.1184000E+00
        -11   -1    0    0    0    0  0.00000000000E+00  0.00000000000E+00  0.45593999997E+02  0.45594000000E+02  0.51100000000E-03 0.  1.
         11   -1    0    0    0    0 -0.00000000000E+00 -0.00000000000E+00 -0.45593999997E+02  0.45594000000E+02  0.51100000000E-03 0. -1.
         23    2    1    2    0    0 -0.35527136788E-14  0.35527136788E-14  0.00000000000E+00  0.91188000000E+02  0.91188000000E+02 0.  0.
    9900012    2    3    3    0    0  0.19400051580E+02  0.29462760614E+02  0.10552915077E+02  0.54367078217E+02  0.39999986411E+02 0.  0.
         12    1    3    3    0    0 -0.19400051580E+02 -0.29462760614E+02 -0.10552915077E+02  0.36820921783E+02  0.00000000000E+00 0. -1.
         11    1    4    4    0    0 -0.43654660446E+00 -0.38419152095E+01 -0.22626763109E+01  0.44800211790E+01  0.51100000000E-03 0. -1.
        -11    1    4    4    0    0  0.32098774212E+01 -0.27179854530E+01  0.91168967973E+01  0.10040346879E+02  0.51100000000E-03 0.  1.
        -12    1    4    4    0    0  0.16626720764E+02  0.36022661277E+02  0.36986945909E+01  0.39846710159E+02  0.00000000000E+00 0.  1.
</event>
<event>
 8    1  0.1229038E-006  0.9118800E+02  0.7816164E-02  0.1184000E+00
        -11   -1    0    0    0    0  0.00000000000E+00  0.00000000000E+00  0.45593999997E+02  0.45594000000E+02  0.51100000000E-03 0. -1.
         11   -1    0    0    0    0 -0.00000000000E+00 -0.00000000000E+00 -0.45593999997E+02  0.45594000000E+02  0.51100000000E-03 0.  1.
         23    2    1    2    0    0  0.00000000000E+00  0.00000000000E+00  0.00000000000E+00  0.91188000000E+02  0.91188000000E+02 0.  0.
    9900012    2    3    3    0    0  0.34908436259E+02  0.11664018644E+02 -0.10638932843E+01  0.54367080377E+02  0.39999991334E+02 0.  0.
        -12    1    3    3    0    0 -0.34908436259E+02 -0.11664018644E+02  0.10638932843E+01  0.36820919623E+02  0.00000000000E+00 0.  1.
         11    1    4    4    0    0  0.31303228459E+02  0.19356449747E+02  0.17174827022E-01  0.36804409437E+02  0.51100000000E-03 0.  1.
        -11    1    4    4    0    0  0.28019831861E+01 -0.10834039186E+02  0.36994434744E+01  0.11786152771E+02  0.51100000000E-03 0. -1.
        -12    1    4    4    0    0  0.80322461413E+00  0.31416080827E+01 -0.47805115857E+01  0.57765181681E+01  0.00000000000E+00 0.  1.
</event>
<event>
 8    1  0.1229038E-006  0.9118800E+02  0.7816164E-02  0.1184000E+00
        -11   -1    0    0    0    0  0.00000000000E+00  0.00000000000E+00  0.45593999997E+02  0.45594000000E+02  0.51100000000E-03 0. -1.
         11   -1    0    0    0    0 -0.00000000000E+00 -0.00000000000E+00 -0.45593999997E+02  0.45594000000E+02  0.51100000000E-03 0.  1.
         23    2    1    2    0    0  0.00000000000E+00  0.00000000000E+00  0.00000000000E+00  0.91188000000E+02  0.91188000000E+02 0.  0.
    9900012    2    3    3    0    0 -0.12523575325E+02  0.18621002078E+02 -0.29192385366E+02  0.54367122489E+02  0.40000087339E+02 0.  0.
         12    1    3    3    0    0  0.12523575325E+02 -0.18621002078E+02  0.29192385366E+02  0.36820877511E+02  0.00000000000E+00 0. -1.
         11    1    4    4    0    0 -0.11718476909E+02  0.94456597715E+01  0.95645896392E+00  0.15081710898E+02  0.51100000000E-03 0. -1.
        -11    1    4    4    0    0  0.94800654790E+01 -0.53563142053E+00 -0.58014667714E+01  0.11127244019E+02  0.51100000000E-03 0.  1.
        -12    1    4    4    0    0 -0.10285163894E+02  0.97109737273E+01 -0.24347377558E+02  0.28158167572E+02  0.00000000000E+00 0.  1.
</event>
<event>
 8    1  0.1229038E-006  0.9118800E+02  0.7816164E-02  0.1184000E+00
        -11   -1    0    0    0    0  0.00000000000E+00  0.00000000000E+00  0.45593999997E+02  0.45594000000E+02  0.51100000000E-03 0. -1.
         11   -1    0    0    0    0 -0.00000000000E+00 -0.00000000000E+00 -0.45593999997E+02  0.45594000000E+02  0.51100000000E-03 0.  1.
         23    2    1    2    0    0  0.00000000000E+00  0.00000000000E+00  0.00000000000E+00  0.91188000000E+02  0.91188000000E+02 0.  0.
    9900012    2    3    3    0    0 -0.27168695851E+02 -0.21690724383E+02  0.12130773882E+02  0.54367065282E+02  0.39999956924E+02 0.  0.
        -12    1    3    3    0    0  0.27168695851E+02  0.21690724383E+02 -0.12130773882E+02  0.36820934718E+02  0.00000000000E+00 0.  1.
         11    1    4    4    0    0 -0.16797372488E+02  0.52448821299E+01  0.67404796032E+01  0.18843953317E+02  0.51100000000E-03 0. -1.
        -11    1    4    4    0    0  0.11330586683E+01 -0.97621181318E+01  0.10342850879E+02  0.14267352135E+02  0.51100000000E-03 0.  1.
        -12    1    4    4    0    0 -0.11504382031E+02 -0.17173488381E+02 -0.49525566006E+01  0.21255759831E+02  0.00000000000E+00 0.  1.
</event>
<event>
 8    1  0.1229038E-006  0.9118800E+02  0.7816164E-02  0.1184000E+00
        -11   -1    0    0    0    0  0.00000000000E+00  0.00000000000E+00  0.45593999997E+02  0.45594000000E+02  0.51100000000E-03 0. -1.
         11   -1    0    0    0    0 -0.00000000000E+00 -0.00000000000E+00 -0.45593999997E+02  0.45594000000E+02  0.51100000000E-03 0.  1.
         23    2    1    2    0    0  0.00000000000E+00  0.71054273576E-14  0.00000000000E+00  0.91188000000E+02  0.91188000000E+02 0.  0.
    9900012    2    3    3    0    0  0.89533060876E+01 -0.32055374555E+02  0.15750346718E+02  0.54367052843E+02  0.39999928567E+02 0.  0.
         12    1    3    3    0    0 -0.89533060876E+01  0.32055374555E+02 -0.15750346718E+02  0.36820947157E+02  0.00000000000E+00 0. -1.
         11    1    4    4    0    0  0.10137237543E+01  0.82811428941E+01  0.40608405402E+01  0.92787601346E+01  0.51100000000E-03 0. -1.
        -11    1    4    4    0    0  0.11611324130E+02 -0.23648675110E+02  0.86783401661E+01  0.27737993273E+02  0.51100000000E-03 0.  1.
         12    1    4    4    0    0 -0.36717417967E+01 -0.16687842339E+02  0.30111660120E+01  0.17350299436E+02  0.00000000000E+00 0. -1.
</event>
<event>
 8    1  0.1229038E-006  0.9118800E+02  0.7816164E-02  0.1184000E+00
        -11   -1    0    0    0    0  0.00000000000E+00  0.00000000000E+00  0.45593999997E+02  0.45594000000E+02  0.51100000000E-03 0.  1.
         11   -1    0    0    0    0 -0.00000000000E+00 -0.00000000000E+00 -0.45593999997E+02  0.45594000000E+02  0.51100000000E-03 0. -1.
         23    2    1    2    0    0 -0.17763568394E-14  0.00000000000E+00 -0.22204460493E-15  0.91188000000E+02  0.91188000000E+02 0.  0.
    9900012    2    3    3    0    0  0.14941891086E+02 -0.33597190324E+02  0.19358656195E+01  0.54367097206E+02  0.40000029700E+02 0.  0.
         12    1    3    3    0    0 -0.14941891086E+02  0.33597190324E+02 -0.19358656195E+01  0.36820902794E+02  0.00000000000E+00 0. -1.
         11    1    4    4    0    0  0.18568065519E+02 -0.31280121473E+01 -0.23106400951E+01  0.18970940277E+02  0.51100000000E-03 0. -1.
        -11    1    4    4    0    0  0.33436630831E+01 -0.41450859647E+01 -0.43112928593E+01  0.68519389116E+01  0.51100000000E-03 0.  1.
         12    1    4    4    0    0 -0.69698375153E+01 -0.26324092212E+02  0.85577985740E+01  0.28544218017E+02  0.00000000000E+00 0. -1.
</event>
<event>
 8    1  0.1229038E-006  0.9118800E+02  0.7816164E-02  0.1184000E+00
        -11   -1    0    0    0    0  0.00000000000E+00  0.00000000000E+00  0.45593999997E+02  0.45594000000E+02  0.51100000000E-03 0. -1.
         11   -1    0    0    0    0 -0.00000000000E+00 -0.00000000000E+00 -0.45593999997E+02  0.45594000000E+02  0.51100000000E-03 0.  1.
         23    2    1    2    0    0 -0.22204460493E-14  0.00000000000E+00  0.35527136788E-14  0.91188000000E+02  0.91188000000E+02 0.  0.
    9900012    2    3    3    0    0  0.10621350326E+01 -0.19743547833E+02 -0.31061927539E+02  0.54367093515E+02  0.40000021287E+02 0.  0.
         12    1    3    3    0    0 -0.10621350326E+01  0.19743547833E+02  0.31061927539E+02  0.36820906485E+02  0.00000000000E+00 0. -1.
         11    1    4    4    0    0  0.99104529587E+01 -0.11001802947E+02 -0.76460063869E+01  0.16664878033E+02  0.51100000000E-03 0. -1.
        -11    1    4    4    0    0 -0.82252138029E+01  0.37743613213E+01 -0.23487217315E+02  0.25170405697E+02  0.51100000000E-03 0.  1.
        -12    1    4    4    0    0 -0.62310412323E+00 -0.12516106208E+02  0.71296162413E-01  0.12531809786E+02  0.00000000000E+00 0.  1.
</event>
<event>
 8    1  0.1229038E-006  0.9118800E+02  0.7816164E-02  0.1184000E+00
        -11   -1    0    0    0    0  0.00000000000E+00  0.00000000000E+00  0.45593999997E+02  0.45594000000E+02  0.51100000000E-03 0. -1.
         11   -1    0    0    0    0 -0.00000000000E+00 -0.00000000000E+00 -0.45593999997E+02  0.45594000000E+02  0.51100000000E-03 0.  1.
         23    2    1    2    0    0 -0.88817841970E-15  0.00000000000E+00  0.00000000000E+00  0.91188000000E+02  0.91188000000E+02 0.  0.
    9900012    2    3    3    0    0 -0.33100637166E+01 -0.47734843151E+01 -0.36359808343E+02  0.54367104614E+02  0.40000046588E+02 0.  0.
         12    1    3    3    0    0  0.33100637166E+01  0.47734843151E+01  0.36359808343E+02  0.36820895386E+02  0.00000000000E+00 0. -1.
         11    1    4    4    0    0  0.71363622749E+01 -0.30681562191E+01 -0.13718684016E+02  0.15765263731E+02  0.51100000000E-03 0.  1.
        -11    1    4    4    0    0  0.39490695672E+01  0.51124866466E+01  0.39739395144E+01  0.75845148615E+01  0.51100000000E-03 0. -1.
         12    1    4    4    0    0 -0.14395495559E+02 -0.68178147426E+01 -0.26615063841E+02  0.31017326022E+02  0.00000000000E+00 0. -1.
</event>
<event>
 8    1  0.1229038E-006  0.9118800E+02  0.7816164E-02  0.1184000E+00
        -11   -1    0    0    0    0  0.00000000000E+00  0.00000000000E+00  0.45593999997E+02  0.45594000000E+02  0.51100000000E-03 0. -1.
         11   -1    0    0    0    0 -0.00000000000E+00 -0.00000000000E+00 -0.45593999997E+02  0.45594000000E+02  0.51100000000E-03 0.  1.
         23    2    1    2    0    0  0.71054273576E-14 -0.35527136788E-14  0.00000000000E+00  0.91188000000E+02  0.91188000000E+02 0.  0.
    9900012    2    3    3    0    0  0.19759228613E+02 -0.29629161400E+02 -0.93523302366E+01  0.54367076580E+02  0.39999982679E+02 0.  0.
         12    1    3    3    0    0 -0.19759228613E+02  0.29629161400E+02  0.93523302366E+01  0.36820923420E+02  0.00000000000E+00 0. -1.
         11    1    4    4    0    0  0.10079345374E+01 -0.19021958310E+02  0.20979279468E+01  0.19163823521E+02  0.51100000000E-03 0. -1.
        -11    1    4    4    0    0 -0.31523523743E+01 -0.23662947261E+01 -0.11120412535E+02  0.11798315618E+02  0.51100000000E-03 0.  1.
        -12    1    4    4    0    0  0.21903646450E+02 -0.82409083632E+01 -0.32984564843E+00  0.23404937441E+02  0.00000000000E+00 0.  1.
</event>
<event>
 8    1  0.1229038E-006  0.9118800E+02  0.7816164E-02  0.1184000E+00
        -11   -1    0    0    0    0  0.00000000000E+00  0.00000000000E+00  0.45593999997E+02  0.45594000000E+02  0.51100000000E-03 0.  1.
         11   -1    0    0    0    0 -0.00000000000E+00 -0.00000000000E+00 -0.45593999997E+02  0.45594000000E+02  0.51100000000E-03 0. -1.
         23    2    1    2    0    0  0.00000000000E+00  0.17763568394E-14  0.00000000000E+00  0.91188000000E+02  0.91188000000E+02 0.  0.
    9900012    2    3    3    0    0  0.20748970841E+01  0.12632483836E+02  0.34523773477E+02  0.54367139325E+02  0.40000125720E+02 0.  0.
         12    1    3    3    0    0 -0.20748970841E+01 -0.12632483836E+02 -0.34523773477E+02  0.36820860675E+02  0.00000000000E+00 0. -1.
         11    1    4    4    0    0 -0.11471119325E+01  0.23840413913E-01 -0.51199379726E+01  0.52469228368E+01  0.51100000000E-03 0. -1.
        -11    1    4    4    0    0  0.12917808273E+02  0.14178668052E+02  0.26254368856E+02  0.32514554934E+02  0.51100000000E-03 0.  1.
        -12    1    4    4    0    0 -0.96957992564E+01 -0.15700246304E+01  0.13389342594E+02  0.16605661554E+02  0.00000000000E+00 0.  1.
</event>
<event>
 8    1  0.1229038E-006  0.9118800E+02  0.7816164E-02  0.1184000E+00
        -11   -1    0    0    0    0  0.00000000000E+00  0.00000000000E+00  0.45593999997E+02  0.45594000000E+02  0.51100000000E-03 0.  1.
         11   -1    0    0    0    0 -0.00000000000E+00 -0.00000000000E+00 -0.45593999997E+02  0.45594000000E+02  0.51100000000E-03 0. -1.
         23    2    1    2    0    0  0.00000000000E+00  0.00000000000E+00  0.00000000000E+00  0.91188000000E+02  0.91188000000E+02 0.  0.
    9900012    2    3    3    0    0 -0.93570992093E+01  0.73630672507E+01 -0.34842637703E+02  0.54367089269E+02  0.40000011607E+02 0.  0.
        -12    1    3    3    0    0  0.93570992093E+01 -0.73630672507E+01  0.34842637703E+02  0.36820910731E+02  0.00000000000E+00 0.  1.
         11    1    4    4    0    0 -0.13614683922E+01 -0.24849321599E+00 -0.73988321973E+01  0.75271550539E+01  0.51100000000E-03 0. -1.
        -11    1    4    4    0    0 -0.85853705910E+00  0.59067993390E+01 -0.35467848950E+02  0.35966591077E+02  0.51100000000E-03 0.  1.
        -12    1    4    4    0    0 -0.71370937580E+01  0.17047611277E+01  0.80240434443E+01  0.10873343139E+02  0.00000000000E+00 0.  1.
</event>
<event>
 8    1  0.1229038E-006  0.9118800E+02  0.7816164E-02  0.1184000E+00
        -11   -1    0    0    0    0  0.00000000000E+00  0.00000000000E+00  0.45593999997E+02  0.45594000000E+02  0.51100000000E-03 0.  1.
         11   -1    0    0    0    0 -0.00000000000E+00 -0.00000000000E+00 -0.45593999997E+02  0.45594000000E+02  0.51100000000E-03 0. -1.
         23    2    1    2    0    0  0.71054273576E-14  0.00000000000E+00  0.00000000000E+00  0.91188000000E+02  0.91188000000E+02 0.  0.
    9900012    2    3    3    0    0  0.33843942295E+02 -0.42391348070E+01 -0.13870748074E+02  0.54367077332E+02  0.39999984394E+02 0.  0.
        -12    1    3    3    0    0 -0.33843942295E+02  0.42391348070E+01  0.13870748074E+02  0.36820922668E+02  0.00000000000E+00 0.  1.
         11    1    4    4    0    0  0.24620553889E+02 -0.41049946587E+01 -0.14507731118E+02  0.28870346680E+02  0.51100000000E-03 0. -1.
        -11    1    4    4    0    0  0.16386918090E+02  0.36050932996E+01  0.30707337919E+01  0.17057467235E+02  0.51100000000E-03 0.  1.
         12    1    4    4    0    0 -0.71635296847E+01 -0.37392334479E+01 -0.24337507481E+01  0.84392634173E+01  0.00000000000E+00 0. -1.
</event>
<event>
 8    1  0.1229038E-006  0.9118800E+02  0.7816164E-02  0.1184000E+00
        -11   -1    0    0    0    0  0.00000000000E+00  0.00000000000E+00  0.45593999997E+02  0.45594000000E+02  0.51100000000E-03 0. -1.
         11   -1    0    0    0    0 -0.00000000000E+00 -0.00000000000E+00 -0.45593999997E+02  0.45594000000E+02  0.51100000000E-03 0.  1.
         23    2    1    2    0    0  0.00000000000E+00  0.00000000000E+00  0.35527136788E-14  0.91188000000E+02  0.91188000000E+02 0.  0.
    9900012    2    3    3    0    0  0.29552138801E+02  0.15774834481E+02 -0.15284102568E+02  0.54367107807E+02  0.40000053867E+02 0.  0.
         12    1    3    3    0    0 -0.29552138801E+02 -0.15774834481E+02  0.15284102568E+02  0.36820892193E+02  0.00000000000E+00 0. -1.
         11    1    4    4    0    0 -0.14737044083E+01  0.17418405160E+01  0.35157333475E+01  0.41912043970E+01  0.51100000000E-03 0. -1.
        -11    1    4    4    0    0 -0.18857135585E+01 -0.68441030514E+01 -0.49392709789E+00  0.71162930267E+01  0.51100000000E-03 0.  1.
         12    1    4    4    0    0  0.32911556768E+02  0.20877097016E+02 -0.18305908817E+02  0.43059610383E+02  0.00000000000E+00 0. -1.
</event>
<event>
 8    1  0.1229038E-006  0.9118800E+02  0.7816164E-02  0.1184000E+00
        -11   -1    0    0    0    0  0.00000000000E+00  0.00000000000E+00  0.45593999997E+02  0.45594000000E+02  0.51100000000E-03 0.  1.
         11   -1    0    0    0    0 -0.00000000000E+00 -0.00000000000E+00 -0.45593999997E+02  0.45594000000E+02  0.51100000000E-03 0. -1.
         23    2    1    2    0    0 -0.88817841970E-15  0.00000000000E+00  0.00000000000E+00  0.91188000000E+02  0.91188000000E+02 0.  0.
    9900012    2    3    3    0    0 -0.48646069579E+01 -0.36030717496E+02  0.58226030691E+01  0.54367085962E+02  0.40000004067E+02 0.  0.
        -12    1    3    3    0    0  0.48646069579E+01  0.36030717496E+02 -0.58226030691E+01  0.36820914038E+02  0.00000000000E+00 0.  1.
         11    1    4    4    0    0  0.44792891689E+01 -0.51344766090E+01 -0.12132288636E+02  0.13914715567E+02  0.51100000000E-03 0. -1.
        -11    1    4    4    0    0 -0.10305458445E+02 -0.94390405493E+01  0.30364851767E+01  0.14300986076E+02  0.51100000000E-03 0.  1.
         12    1    4    4    0    0  0.96156231799E+00 -0.21457200337E+02  0.14918406529E+02  0.26151384318E+02  0.00000000000E+00 0. -1.
</event>
<event>
 8    1  0.1229038E-006  0.9118800E+02  0.7816164E-02  0.1184000E+00
        -11   -1    0    0    0    0  0.00000000000E+00  0.00000000000E+00  0.45593999997E+02  0.45594000000E+02  0.51100000000E-03 0.  1.
         11   -1    0    0    0    0 -0.00000000000E+00 -0.00000000000E+00 -0.45593999997E+02  0.45594000000E+02  0.51100000000E-03 0. -1.
         23    2    1    2    0    0  0.71054273576E-14 -0.35527136788E-14  0.35527136788E-14  0.91188000000E+02  0.91188000000E+02 0.  0.
    9900012    2    3    3    0    0  0.21390945073E+02 -0.17499023871E+02  0.24330854067E+02  0.54367097958E+02  0.40000031414E+02 0.  0.
         12    1    3    3    0    0 -0.21390945073E+02  0.17499023871E+02 -0.24330854067E+02  0.36820902042E+02  0.00000000000E+00 0. -1.
         11    1    4    4    0    0 -0.24289214291E+00 -0.26256393085E+01  0.48472459175E+00  0.26810327418E+01  0.51100000000E-03 0. -1.
        -11    1    4    4    0    0 -0.86821340394E+01 -0.50488046838E+01  0.15959176894E+02  0.18856436768E+02  0.51100000000E-03 0.  1.
        -12    1    4    4    0    0  0.30315971256E+02 -0.98245798791E+01  0.78869525818E+01  0.32829628447E+02  0.00000000000E+00 0.  1.
</event>
<event>
 8    1  0.1229038E-006  0.9118800E+02  0.7816164E-02  0.1184000E+00
        -11   -1    0    0    0    0  0.00000000000E+00  0.00000000000E+00  0.45593999997E+02  0.45594000000E+02  0.51100000000E-03 0.  1.
         11   -1    0    0    0    0 -0.00000000000E+00 -0.00000000000E+00 -0.45593999997E+02  0.45594000000E+02  0.51100000000E-03 0. -1.
         23    2    1    2    0    0  0.00000000000E+00 -0.44408920985E-15  0.71054273576E-14  0.91188000000E+02  0.91188000000E+02 0.  0.
    9900012    2    3    3    0    0  0.23006746970E+02  0.22624483438E+01  0.28659211053E+02  0.54367089408E+02  0.40000011922E+02 0.  0.
         12    1    3    3    0    0 -0.23006746970E+02 -0.22624483438E+01 -0.28659211053E+02  0.36820910592E+02  0.00000000000E+00 0. -1.
         11    1    4    4    0    0  0.52338324989E+01  0.41042139679E+01  0.20425788972E+02  0.21481397308E+02  0.51100000000E-03 0. -1.
        -11    1    4    4    0    0  0.75725700460E+01  0.12019432251E+02  0.63912431617E+01  0.15577501666E+02  0.51100000000E-03 0.  1.
        -12    1    4    4    0    0  0.10200344426E+02 -0.13861197875E+02  0.18421789192E+01  0.17308190434E+02  0.00000000000E+00 0.  1.
</event>
<event>
 8    1  0.1229038E-006  0.9118800E+02  0.7816164E-02  0.1184000E+00
        -11   -1    0    0    0    0  0.00000000000E+00  0.00000000000E+00  0.45593999997E+02  0.45594000000E+02  0.51100000000E-03 0.  1.
         11   -1    0    0    0    0 -0.00000000000E+00 -0.00000000000E+00 -0.45593999997E+02  0.45594000000E+02  0.51100000000E-03 0. -1.
         23    2    1    2    0    0  0.44408920985E-15  0.71054273576E-14  0.00000000000E+00  0.91188000000E+02  0.91188000000E+02 0.  0.
    9900012    2    3    3    0    0  0.33053712307E+01 -0.35883711113E+02  0.75639694678E+01  0.54367084254E+02  0.40000000175E+02 0.  0.
         12    1    3    3    0    0 -0.33053712307E+01  0.35883711113E+02 -0.75639694678E+01  0.36820915746E+02  0.00000000000E+00 0. -1.
         11    1    4    4    0    0  0.21251689917E+01 -0.13034307531E+02 -0.96953024239E+01  0.16383174461E+02  0.51100000000E-03 0. -1.
        -11    1    4    4    0    0 -0.18304650995E+01 -0.25323948029E+02  0.60280780689E+01  0.26095797970E+02  0.51100000000E-03 0.  1.
         12    1    4    4    0    0  0.30106673386E+01  0.24745444464E+01  0.11231193823E+02  0.11888111823E+02  0.00000000000E+00 0. -1.
</event>
<event>
 8    1  0.1229038E-006  0.9118800E+02  0.7816164E-02  0.1184000E+00
        -11   -1    0    0    0    0  0.00000000000E+00  0.00000000000E+00  0.45593999997E+02  0.45594000000E+02  0.51100000000E-03 0. -1.
         11   -1    0    0    0    0 -0.00000000000E+00 -0.00000000000E+00 -0.45593999997E+02  0.45594000000E+02  0.51100000000E-03 0.  1.
         23    2    1    2    0    0 -0.88817841970E-15  0.00000000000E+00 -0.35527136788E-14  0.91188000000E+02  0.91188000000E+02 0.  0.
    9900012    2    3    3    0    0  0.74686412753E+01 -0.24015876538E+02 -0.26893074173E+02  0.54367077050E+02  0.39999983752E+02 0.  0.
         12    1    3    3    0    0 -0.74686412753E+01  0.24015876538E+02  0.26893074173E+02  0.36820922950E+02  0.00000000000E+00 0. -1.
         11    1    4    4    0    0  0.67823629423E+01 -0.28229496986E+01  0.55101967150E+01  0.91832325562E+01  0.51100000000E-03 0. -1.
        -11    1    4    4    0    0 -0.25620975271E+01 -0.41045499647E+01 -0.26312871678E+02  0.26754044374E+02  0.51100000000E-03 0.  1.
        -12    1    4    4    0    0  0.32483758600E+01 -0.17088376875E+02 -0.60903992095E+01  0.18429800120E+02  0.00000000000E+00 0.  1.
</event>
<event>
 8    1  0.1229038E-006  0.9118800E+02  0.7816164E-02  0.1184000E+00
        -11   -1    0    0    0    0  0.00000000000E+00  0.00000000000E+00  0.45593999997E+02  0.45594000000E+02  0.51100000000E-03 0.  1.
         11   -1    0    0    0    0 -0.00000000000E+00 -0.00000000000E+00 -0.45593999997E+02  0.45594000000E+02  0.51100000000E-03 0. -1.
         23    2    1    2    0    0 -0.88817841970E-15  0.00000000000E+00  0.00000000000E+00  0.91188000000E+02  0.91188000000E+02 0.  0.
    9900012    2    3    3    0    0 -0.63156937968E+01  0.23189575698E+02  0.27895131177E+02  0.54367044654E+02  0.39999909898E+02 0.  0.
         12    1    3    3    0    0  0.63156937968E+01 -0.23189575698E+02 -0.27895131177E+02  0.36820955346E+02  0.00000000000E+00 0. -1.
         11    1    4    4    0    0  0.62717089409E+01  0.43330327555E+00  0.47561707772E+00  0.63046250193E+01  0.51100000000E-03 0. -1.
        -11    1    4    4    0    0  0.24686756985E+01  0.23420089272E+02  0.11738009767E+02  0.26313035073E+02  0.51100000000E-03 0.  1.
        -12    1    4    4    0    0 -0.15056078436E+02 -0.66381684938E+00  0.15681504332E+02  0.21749384562E+02  0.00000000000E+00 0.  1.
</event>
<event>
 8    1  0.1229038E-006  0.9118800E+02  0.7816164E-02  0.1184000E+00
        -11   -1    0    0    0    0  0.00000000000E+00  0.00000000000E+00  0.45593999997E+02  0.45594000000E+02  0.51100000000E-03 0. -1.
         11   -1    0    0    0    0 -0.00000000000E+00 -0.00000000000E+00 -0.45593999997E+02  0.45594000000E+02  0.51100000000E-03 0.  1.
         23    2    1    2    0    0  0.00000000000E+00  0.00000000000E+00  0.00000000000E+00  0.91188000000E+02  0.91188000000E+02 0.  0.
    9900012    2    3    3    0    0 -0.12266891161E+02 -0.21116660233E+02 -0.27557021590E+02  0.54367090219E+02  0.40000013772E+02 0.  0.
         12    1    3    3    0    0  0.12266891161E+02  0.21116660233E+02  0.27557021590E+02  0.36820909781E+02  0.00000000000E+00 0. -1.
         11    1    4    4    0    0  0.11196383848E+02 -0.12039598517E+02 -0.70199703563E+01  0.17877106248E+02  0.51100000000E-03 0. -1.
        -11    1    4    4    0    0  0.22294928582E+01 -0.12474338796E+01  0.19192372418E+00  0.25619454845E+01  0.51100000000E-03 0.  1.
        -12    1    4    4    0    0 -0.25692767868E+02 -0.78296278366E+01 -0.20728974958E+02  0.33928038487E+02  0.00000000000E+00 0.  1.
</event>
<event>
 8    1  0.1229038E-006  0.9118800E+02  0.7816164E-02  0.1184000E+00
        -11   -1    0    0    0    0  0.00000000000E+00  0.00000000000E+00  0.45593999997E+02  0.45594000000E+02  0.51100000000E-03 0. -1.
         11   -1    0    0    0    0 -0.00000000000E+00 -0.00000000000E+00 -0.45593999997E+02  0.45594000000E+02  0.51100000000E-03 0.  1.
         23    2    1    2    0    0  0.00000000000E+00  0.00000000000E+00  0.00000000000E+00  0.91188000000E+02  0.91188000000E+02 0.  0.
    9900012    2    3    3    0    0  0.81637685907E+01  0.32418276919E+02  0.15433390036E+02  0.54367064054E+02  0.39999954123E+02 0.  0.
        -12    1    3    3    0    0 -0.81637685907E+01 -0.32418276919E+02 -0.15433390036E+02  0.36820935946E+02  0.00000000000E+00 0.  1.
         11    1    4    4    0    0  0.13492420080E+02  0.75651845094E+00  0.49608470309E+01  0.14395406326E+02  0.51100000000E-03 0. -1.
        -11    1    4    4    0    0  0.28088617195E+01  0.33342057291E+01 -0.50411672404E+01  0.66648330369E+01  0.51100000000E-03 0.  1.
         12    1    4    4    0    0 -0.81375132085E+01  0.28327552739E+02  0.15513710245E+02  0.33306824690E+02  0.00000000000E+00 0. -1.
</event>
<event>
 8    1  0.1229038E-006  0.9118800E+02  0.7816164E-02  0.1184000E+00
        -11   -1    0    0    0    0  0.00000000000E+00  0.00000000000E+00  0.45593999997E+02  0.45594000000E+02  0.51100000000E-03 0.  1.
         11   -1    0    0    0    0 -0.00000000000E+00 -0.00000000000E+00 -0.45593999997E+02  0.45594000000E+02  0.51100000000E-03 0. -1.
         23    2    1    2    0    0  0.00000000000E+00  0.35527136788E-14 -0.35527136788E-14  0.91188000000E+02  0.91188000000E+02 0.  0.
    9900012    2    3    3    0    0 -0.22467833683E+02  0.22370058958E+02  0.18723144037E+02  0.54367092748E+02  0.40000019538E+02 0.  0.
         12    1    3    3    0    0  0.22467833683E+02 -0.22370058958E+02 -0.18723144037E+02  0.36820907252E+02  0.00000000000E+00 0. -1.
         11    1    4    4    0    0  0.11196870387E+01  0.18717391026E+02 -0.11290173738E-01  0.18750854744E+02  0.51100000000E-03 0. -1.
        -11    1    4    4    0    0 -0.11697049733E+02 -0.70687886828E+01  0.12212233484E+02  0.18328322149E+02  0.51100000000E-03 0.  1.
        -12    1    4    4    0    0 -0.11890470989E+02  0.10721456615E+02  0.65222007271E+01  0.17287915855E+02  0.00000000000E+00 0.  1.
</event>
<event>
 8    1  0.1229038E-006  0.9118800E+02  0.7816164E-02  0.1184000E+00
        -11   -1    0    0    0    0  0.00000000000E+00  0.00000000000E+00  0.45593999997E+02  0.45594000000E+02  0.51100000000E-03 0.  1.
         11   -1    0    0    0    0 -0.00000000000E+00 -0.00000000000E+00 -0.45593999997E+02  0.45594000000E+02  0.51100000000E-03 0. -1.
         23    2    1    2    0    0  0.00000000000E+00 -0.17208456882E-14  0.00000000000E+00  0.91188000000E+02  0.91188000000E+02 0.  0.
    9900012    2    3    3    0    0  0.17534223617E+02  0.29394398280E+00  0.32376610767E+02  0.54367077610E+02  0.39999985027E+02 0.  0.
         12    1    3    3    0    0 -0.17534223617E+02 -0.29394398280E+00 -0.32376610767E+02  0.36820922390E+02  0.00000000000E+00 0. -1.
         11    1    4    4    0    0  0.39964505719E+01  0.11683822835E+02  0.21447367971E+02  0.24748190365E+02  0.51100000000E-03 0. -1.
        -11    1    4    4    0    0  0.16423169804E+02 -0.15213144540E+02  0.10729027645E+02  0.24824832480E+02  0.51100000000E-03 0.  1.
        -12    1    4    4    0    0 -0.28853967595E+01  0.38232656877E+01  0.20021515134E+00  0.47940547646E+01  0.00000000000E+00 0.  1.
</event>
<event>
 8    1  0.1229038E-006  0.9118800E+02  0.7816164E-02  0.1184000E+00
        -11   -1    0    0    0    0  0.00000000000E+00  0.00000000000E+00  0.45593999997E+02  0.45594000000E+02  0.51100000000E-03 0. -1.
         11   -1    0    0    0    0 -0.00000000000E+00 -0.00000000000E+00 -0.45593999997E+02  0.45594000000E+02  0.51100000000E-03 0.  1.
         23    2    1    2    0    0 -0.10658141036E-13 -0.88817841970E-15 -0.35527136788E-14  0.91188000000E+02  0.91188000000E+02 0.  0.
    9900012    2    3    3    0    0 -0.24854348975E+02 -0.75710607482E+01 -0.26090606156E+02  0.54367090812E+02  0.40000015124E+02 0.  0.
         12    1    3    3    0    0  0.24854348975E+02  0.75710607482E+01  0.26090606156E+02  0.36820909188E+02  0.00000000000E+00 0. -1.
         11    1    4    4    0    0 -0.78102348587E+01 -0.52612806291E+01  0.36091055334E+01  0.10084963333E+02  0.51100000000E-03 0. -1.
        -11    1    4    4    0    0 -0.13155406685E+02 -0.14776641871E+02 -0.18137987643E+02  0.26840276936E+02  0.51100000000E-03 0.  1.
         12    1    4    4    0    0 -0.38887074315E+01  0.12466861752E+02 -0.11561724047E+02  0.17441850543E+02  0.00000000000E+00 0. -1.
</event>
<event>
 8    1  0.1229038E-006  0.9118800E+02  0.7816164E-02  0.1184000E+00
        -11   -1    0    0    0    0  0.00000000000E+00  0.00000000000E+00  0.45593999997E+02  0.45594000000E+02  0.51100000000E-03 0. -1.
         11   -1    0    0    0    0 -0.00000000000E+00 -0.00000000000E+00 -0.45593999997E+02  0.45594000000E+02  0.51100000000E-03 0.  1.
         23    2    1    2    0    0  0.00000000000E+00  0.35527136788E-14  0.00000000000E+00  0.91188000000E+02  0.91188000000E+02 0.  0.
    9900012    2    3    3    0    0  0.28054196321E+02  0.22429624915E+02  0.81027554379E+01  0.54367073195E+02  0.39999974963E+02 0.  0.
        -12    1    3    3    0    0 -0.28054196321E+02 -0.22429624915E+02 -0.81027554379E+01  0.36820926805E+02  0.00000000000E+00 0.  1.
         11    1    4    4    0    0  0.12544800805E+02  0.32718096868E+02  0.43826775306E+01  0.35313648247E+02  0.51100000000E-03 0. -1.
        -11    1    4    4    0    0  0.12640318584E+02 -0.76701879400E+01  0.32749503018E+01  0.15143801923E+02  0.51100000000E-03 0.  1.
         12    1    4    4    0    0  0.28690769325E+01 -0.26182840125E+01  0.44512760557E+00  0.39096230253E+01  0.00000000000E+00 0. -1.
</event>
<event>
 8    1  0.1229038E-006  0.9118800E+02  0.7816164E-02  0.1184000E+00
        -11   -1    0    0    0    0  0.00000000000E+00  0.00000000000E+00  0.45593999997E+02  0.45594000000E+02  0.51100000000E-03 0.  1.
         11   -1    0    0    0    0 -0.00000000000E+00 -0.00000000000E+00 -0.45593999997E+02  0.45594000000E+02  0.51100000000E-03 0. -1.
         23    2    1    2    0    0  0.71054273576E-14  0.00000000000E+00 -0.44408920985E-15  0.91188000000E+02  0.91188000000E+02 0.  0.
    9900012    2    3    3    0    0  0.33370047462E+02 -0.15376842189E+02  0.24026586320E+01  0.54367080514E+02  0.39999991647E+02 0.  0.
         12    1    3    3    0    0 -0.33370047462E+02  0.15376842189E+02 -0.24026586320E+01  0.36820919486E+02  0.00000000000E+00 0. -1.
         11    1    4    4    0    0 -0.37850029637E+01 -0.30040280195E+01 -0.92155458245E+00  0.49193185388E+01  0.51100000000E-03 0. -1.
        -11    1    4    4    0    0  0.41148513316E+02 -0.58985652777E+01  0.13597151517E+01  0.41591369850E+02  0.51100000000E-03 0.  1.
        -12    1    4    4    0    0 -0.39934628906E+01 -0.64742488922E+01  0.19644980627E+01  0.78563921246E+01  0.00000000000E+00 0.  1.
</event>
<event>
 8    1  0.1229038E-006  0.9118800E+02  0.7816164E-02  0.1184000E+00
        -11   -1    0    0    0    0  0.00000000000E+00  0.00000000000E+00  0.45593999997E+02  0.45594000000E+02  0.51100000000E-03 0.  1.
         11   -1    0    0    0    0 -0.00000000000E+00 -0.00000000000E+00 -0.45593999997E+02  0.45594000000E+02  0.51100000000E-03 0. -1.
         23    2    1    2    0    0  0.88817841970E-15  0.71054273576E-14 -0.17763568394E-14  0.91188000000E+02  0.91188000000E+02 0.  0.
    9900012    2    3    3    0    0  0.53579369743E+01  0.33166179607E+02 -0.15069049472E+02  0.54367092755E+02  0.40000019553E+02 0.  0.
        -12    1    3    3    0    0 -0.53579369743E+01 -0.33166179607E+02  0.15069049472E+02  0.36820907245E+02  0.00000000000E+00 0.  1.
         11    1    4    4    0    0 -0.37907580743E+01  0.32323368255E+02 -0.21164454547E+01  0.32613637083E+02  0.51100000000E-03 0. -1.
        -11    1    4    4    0    0  0.53872893612E+01 -0.96224459869E+00 -0.15787665030E+02  0.16709253983E+02  0.51100000000E-03 0.  1.
         12    1    4    4    0    0  0.37614056875E+01  0.18050559509E+01  0.28350610123E+01  0.50442016886E+01  0.00000000000E+00 0. -1.
</event>
<event>
 8    1  0.1229038E-006  0.9118800E+02  0.7816164E-02  0.1184000E+00
        -11   -1    0    0    0    0  0.00000000000E+00  0.00000000000E+00  0.45593999997E+02  0.45594000000E+02  0.51100000000E-03 0. -1.
         11   -1    0    0    0    0 -0.00000000000E+00 -0.00000000000E+00 -0.45593999997E+02  0.45594000000E+02  0.51100000000E-03 0.  1.
         23    2    1    2    0    0 -0.88817841970E-15  0.00000000000E+00 -0.35527136788E-14  0.91188000000E+02  0.91188000000E+02 0.  0.
    9900012    2    3    3    0    0 -0.66609567364E+01 -0.21442015227E+02 -0.29183068273E+02  0.54367084266E+02  0.40000000201E+02 0.  0.
         12    1    3    3    0    0  0.66609567364E+01  0.21442015227E+02  0.29183068273E+02  0.36820915734E+02  0.00000000000E+00 0. -1.
         11    1    4    4    0    0  0.13955610832E+00  0.77324063668E+01 -0.99934305613E+00  0.77979658203E+01  0.51100000000E-03 0.  1.
        -11    1    4    4    0    0  0.35940021827E+01  0.19199281929E+01 -0.16677673205E+01  0.44027745856E+01  0.51100000000E-03 0. -1.
        -12    1    4    4    0    0 -0.10394515027E+02 -0.31094349787E+02 -0.26515957897E+02  0.42166343860E+02  0.00000000000E+00 0.  1.
</event>
<event>
 8    1  0.1229038E-006  0.9118800E+02  0.7816164E-02  0.1184000E+00
        -11   -1    0    0    0    0  0.00000000000E+00  0.00000000000E+00  0.45593999997E+02  0.45594000000E+02  0.51100000000E-03 0.  1.
         11   -1    0    0    0    0 -0.00000000000E+00 -0.00000000000E+00 -0.45593999997E+02  0.45594000000E+02  0.51100000000E-03 0. -1.
         23    2    1    2    0    0  0.00000000000E+00  0.00000000000E+00 -0.35527136788E-14  0.91188000000E+02  0.91188000000E+02 0.  0.
    9900012    2    3    3    0    0 -0.21779971518E+02  0.24252077269E+02 -0.17124522315E+02  0.54367086436E+02  0.40000005148E+02 0.  0.
        -12    1    3    3    0    0  0.21779971518E+02 -0.24252077269E+02  0.17124522315E+02  0.36820913564E+02  0.00000000000E+00 0.  1.
         11    1    4    4    0    0  0.27412821608E+01  0.48128804466E+01 -0.65940993059E+01  0.86116544285E+01  0.51100000000E-03 0. -1.
        -11    1    4    4    0    0 -0.21510989439E+02  0.15042219139E+02  0.72191079166E+01  0.27223272078E+02  0.51100000000E-03 0.  1.
         12    1    4    4    0    0 -0.30102642398E+01  0.43969776828E+01 -0.17749530926E+02  0.18532159929E+02  0.00000000000E+00 0. -1.
</event>
<event>
 8    1  0.1229038E-006  0.9118800E+02  0.7816164E-02  0.1184000E+00
        -11   -1    0    0    0    0  0.00000000000E+00  0.00000000000E+00  0.45593999997E+02  0.45594000000E+02  0.51100000000E-03 0.  1.
         11   -1    0    0    0    0 -0.00000000000E+00 -0.00000000000E+00 -0.45593999997E+02  0.45594000000E+02  0.51100000000E-03 0. -1.
         23    2    1    2    0    0  0.00000000000E+00 -0.88817841970E-15  0.00000000000E+00  0.91188000000E+02  0.91188000000E+02 0.  0.
    9900012    2    3    3    0    0  0.19299341941E+02  0.37368553850E+01  0.31134399758E+02  0.54367088336E+02  0.40000009479E+02 0.  0.
         12    1    3    3    0    0 -0.19299341941E+02 -0.37368553850E+01 -0.31134399758E+02  0.36820911664E+02  0.00000000000E+00 0. -1.
         11    1    4    4    0    0 -0.93345541830E+01 -0.16629619373E-01  0.19348554706E+01  0.95329871652E+01  0.51100000000E-03 0. -1.
        -11    1    4    4    0    0  0.38120307476E+00 -0.44283648796E+01  0.54274454851E+01  0.70151903784E+01  0.51100000000E-03 0.  1.
        -12    1    4    4    0    0  0.28252693049E+02  0.81818498840E+01  0.23772098802E+02  0.37818910792E+02  0.00000000000E+00 0.  1.
</event>
<event>
 8    1  0.1229038E-006  0.9118800E+02  0.7816164E-02  0.1184000E+00
        -11   -1    0    0    0    0  0.00000000000E+00  0.00000000000E+00  0.45593999997E+02  0.45594000000E+02  0.51100000000E-03 0. -1.
         11   -1    0    0    0    0 -0.00000000000E+00 -0.00000000000E+00 -0.45593999997E+02  0.45594000000E+02  0.51100000000E-03 0.  1.
         23    2    1    2    0    0  0.00000000000E+00  0.00000000000E+00  0.00000000000E+00  0.91188000000E+02  0.91188000000E+02 0.  0.
    9900012    2    3    3    0    0  0.29098053176E+02 -0.19831327585E+02  0.10761119517E+02  0.54367082770E+02  0.39999996790E+02 0.  0.
         12    1    3    3    0    0 -0.29098053176E+02  0.19831327585E+02 -0.10761119517E+02  0.36820917230E+02  0.00000000000E+00 0. -1.
         11    1    4    4    0    0  0.15991291912E+01  0.42357513282E+01 -0.17627310352E+00  0.45309906149E+01  0.51100000000E-03 0. -1.
        -11    1    4    4    0    0 -0.17147033489E+01  0.34478002278E+01  0.88492167252E+01  0.96507083106E+01  0.51100000000E-03 0.  1.
        -12    1    4    4    0    0  0.29213627334E+02 -0.27514879141E+02  0.20881758956E+01  0.40185383844E+02  0.00000000000E+00 0.  1.
</event>
<event>
 8    1  0.1229038E-006  0.9118800E+02  0.7816164E-02  0.1184000E+00
        -11   -1    0    0    0    0  0.00000000000E+00  0.00000000000E+00  0.45593999997E+02  0.45594000000E+02  0.51100000000E-03 0. -1.
         11   -1    0    0    0    0 -0.00000000000E+00 -0.00000000000E+00 -0.45593999997E+02  0.45594000000E+02  0.51100000000E-03 0.  1.
         23    2    1    2    0    0  0.00000000000E+00  0.00000000000E+00 -0.12212453271E-14  0.91188000000E+02  0.91188000000E+02 0.  0.
    9900012    2    3    3    0    0  0.30750688912E+02 -0.20242946562E+02  0.63083999918E+00  0.54367085927E+02  0.40000003988E+02 0.  0.
        -12    1    3    3    0    0 -0.30750688912E+02  0.20242946562E+02 -0.63083999918E+00  0.36820914073E+02  0.00000000000E+00 0.  1.
         11    1    4    4    0    0  0.23474214731E+02 -0.25451592884E+02  0.56497072466E+01  0.35081925970E+02  0.51100000000E-03 0. -1.
        -11    1    4    4    0    0  0.14370732170E+01 -0.72990644354E+00  0.55785010183E+01  0.58066872414E+01  0.51100000000E-03 0.  1.
         12    1    4    4    0    0  0.58394009641E+01  0.59385527658E+01 -0.10597368266E+02  0.13478472715E+02  0.00000000000E+00 0. -1.
</event>
<event>
 8    1  0.1229038E-006  0.9118800E+02  0.7816164E-02  0.1184000E+00
        -11   -1    0    0    0    0  0.00000000000E+00  0.00000000000E+00  0.45593999997E+02  0.45594000000E+02  0.51100000000E-03 0. -1.
         11   -1    0    0    0    0 -0.00000000000E+00 -0.00000000000E+00 -0.45593999997E+02  0.45594000000E+02  0.51100000000E-03 0.  1.
         23    2    1    2    0    0  0.00000000000E+00 -0.88817841970E-15  0.35527136788E-14  0.91188000000E+02  0.91188000000E+02 0.  0.
    9900012    2    3    3    0    0  0.21651589302E+02 -0.56371316627E+01  0.29244015257E+02  0.54367068439E+02  0.39999964120E+02 0.  0.
        -12    1    3    3    0    0 -0.21651589302E+02  0.56371316627E+01 -0.29244015257E+02  0.36820931561E+02  0.00000000000E+00 0.  1.
         11    1    4    4    0    0  0.58367027301E+01  0.48124001154E+01  0.11651748659E+02  0.13892067546E+02  0.51100000000E-03 0. -1.
        -11    1    4    4    0    0  0.71555999109E+01 -0.17275843747E+02  0.21756890007E+02  0.28688319057E+02  0.51100000000E-03 0.  1.
        -12    1    4    4    0    0  0.86592866611E+01  0.68263119694E+01 -0.41646234087E+01  0.11786681837E+02  0.00000000000E+00 0.  1.
</event>
<event>
 8    1  0.1229038E-006  0.9118800E+02  0.7816164E-02  0.1184000E+00
        -11   -1    0    0    0    0  0.00000000000E+00  0.00000000000E+00  0.45593999997E+02  0.45594000000E+02  0.51100000000E-03 0. -1.
         11   -1    0    0    0    0 -0.00000000000E+00 -0.00000000000E+00 -0.45593999997E+02  0.45594000000E+02  0.51100000000E-03 0.  1.
         23    2    1    2    0    0  0.35527136788E-14 -0.35527136788E-14 -0.35527136788E-14  0.91188000000E+02  0.91188000000E+02 0.  0.
    9900012    2    3    3    0    0  0.17221143558E+02 -0.24197297032E+02 -0.21764772151E+02  0.54367051127E+02  0.39999924655E+02 0.  0.
         12    1    3    3    0    0 -0.17221143558E+02  0.24197297032E+02  0.21764772151E+02  0.36820948873E+02  0.00000000000E+00 0. -1.
         11    1    4    4    0    0  0.16629187060E+02 -0.23101901789E+01 -0.14796741588E+02  0.22378793596E+02  0.51100000000E-03 0.  1.
        -11    1    4    4    0    0 -0.10578258346E+02 -0.79032713868E+01 -0.15888366158E+01  0.13299836476E+02  0.51100000000E-03 0. -1.
         12    1    4    4    0    0  0.11170214844E+02 -0.13983835466E+02 -0.53791939473E+01  0.18688421055E+02  0.00000000000E+00 0. -1.
</event>
<event>
 8    1  0.1229038E-006  0.9118800E+02  0.7816164E-02  0.1184000E+00
        -11   -1    0    0    0    0  0.00000000000E+00  0.00000000000E+00  0.45593999997E+02  0.45594000000E+02  0.51100000000E-03 0.  1.
         11   -1    0    0    0    0 -0.00000000000E+00 -0.00000000000E+00 -0.45593999997E+02  0.45594000000E+02  0.51100000000E-03 0. -1.
         23    2    1    2    0    0 -0.17763568394E-14  0.88817841970E-15  0.71054273576E-14  0.91188000000E+02  0.91188000000E+02 0.  0.
    9900012    2    3    3    0    0 -0.10366351279E+02 -0.78175034272E+01  0.34455851626E+02  0.54367077823E+02  0.39999985514E+02 0.  0.
         12    1    3    3    0    0  0.10366351279E+02  0.78175034272E+01 -0.34455851626E+02  0.36820922177E+02  0.00000000000E+00 0. -1.
         11    1    4    4    0    0 -0.53640305270E+01  0.67481033464E+01 -0.47911634615E+00  0.86336130908E+01  0.51100000000E-03 0. -1.
        -11    1    4    4    0    0  0.57659066042E+00 -0.14229710173E+02  0.47158928042E+01  0.15001891667E+02  0.51100000000E-03 0.  1.
        -12    1    4    4    0    0 -0.55789114121E+01 -0.33589660060E+00  0.30219075168E+02  0.30731573065E+02  0.00000000000E+00 0.  1.
</event>
<event>
 8    1  0.1229038E-006  0.9118800E+02  0.7816164E-02  0.1184000E+00
        -11   -1    0    0    0    0  0.00000000000E+00  0.00000000000E+00  0.45593999997E+02  0.45594000000E+02  0.51100000000E-03 0. -1.
         11   -1    0    0    0    0 -0.00000000000E+00 -0.00000000000E+00 -0.45593999997E+02  0.45594000000E+02  0.51100000000E-03 0.  1.
         23    2    1    2    0    0 -0.35527136788E-14  0.00000000000E+00  0.71054273576E-14  0.91188000000E+02  0.91188000000E+02 0.  0.
    9900012    2    3    3    0    0  0.23063032074E+02  0.82317430904E+01 -0.27497604129E+02  0.54367037552E+02  0.39999893707E+02 0.  0.
         12    1    3    3    0    0 -0.23063032074E+02 -0.82317430904E+01  0.27497604129E+02  0.36820962448E+02  0.00000000000E+00 0. -1.
         11    1    4    4    0    0 -0.11348300871E+00  0.50963011167E+01 -0.45691741821E+01  0.68456202373E+01  0.51100000000E-03 0. -1.
        -11    1    4    4    0    0  0.23249443123E+02  0.48914683689E+01 -0.31114885537E+02  0.39148424879E+02  0.51100000000E-03 0.  1.
         12    1    4    4    0    0 -0.72928039760E-01 -0.17560263953E+01  0.81864555895E+01  0.83729924351E+01  0.00000000000E+00 0. -1.
</event>
<event>
 8    1  0.1229038E-006  0.9118800E+02  0.7816164E-02  0.1184000E+00
        -11   -1    0    0    0    0  0.00000000000E+00  0.00000000000E+00  0.45593999997E+02  0.45594000000E+02  0.51100000000E-03 0. -1.
         11   -1    0    0    0    0 -0.00000000000E+00 -0.00000000000E+00 -0.45593999997E+02  0.45594000000E+02  0.51100000000E-03 0.  1.
         23    2    1    2    0    0  0.00000000000E+00  0.22204460493E-14  0.71054273576E-14  0.91188000000E+02  0.91188000000E+02 0.  0.
    9900012    2    3    3    0    0  0.16124167506E+02  0.35271466791E+01  0.32914293457E+02  0.54367078566E+02  0.39999987206E+02 0.  0.
        -12    1    3    3    0    0 -0.16124167506E+02 -0.35271466791E+01 -0.32914293457E+02  0.36820921434E+02  0.00000000000E+00 0.  1.
         11    1    4    4    0    0 -0.26906302882E+01  0.98487711279E+01  0.37638237706E+01  0.10881367272E+02  0.51100000000E-03 0. -1.
        -11    1    4    4    0    0 -0.35025049827E+01 -0.50317236403E+01 -0.72406236031E+00  0.61733338245E+01  0.51100000000E-03 0.  1.
         12    1    4    4    0    0  0.22317302777E+02 -0.12899008086E+01  0.29874532047E+02  0.37312377469E+02  0.00000000000E+00 0. -1.
</event>
<event>
 8    1  0.1229038E-006  0.9118800E+02  0.7816164E-02  0.1184000E+00
        -11   -1    0    0    0    0  0.00000000000E+00  0.00000000000E+00  0.45593999997E+02  0.45594000000E+02  0.51100000000E-03 0. -1.
         11   -1    0    0    0    0 -0.00000000000E+00 -0.00000000000E+00 -0.45593999997E+02  0.45594000000E+02  0.51100000000E-03 0.  1.
         23    2    1    2    0    0 -0.35527136788E-14  0.00000000000E+00  0.00000000000E+00  0.91188000000E+02  0.91188000000E+02 0.  0.
    9900012    2    3    3    0    0 -0.22982518445E+02 -0.12955951022E+02 -0.25685151078E+02  0.54367084655E+02  0.40000001088E+02 0.  0.
         12    1    3    3    0    0  0.22982518445E+02  0.12955951022E+02  0.25685151078E+02  0.36820915345E+02  0.00000000000E+00 0. -1.
         11    1    4    4    0    0 -0.93403611937E+01 -0.30677986757E+01  0.50177992935E+01  0.11037755476E+02  0.51100000000E-03 0. -1.
        -11    1    4    4    0    0 -0.11349831482E+02 -0.13063630955E+02 -0.59972529077E+01  0.18315135029E+02  0.51100000000E-03 0.  1.
        -12    1    4    4    0    0 -0.22923257692E+01  0.31754786089E+01 -0.24705697463E+02  0.25014194150E+02  0.00000000000E+00 0.  1.
</event>
<event>
 8    1  0.1229038E-006  0.9118800E+02  0.7816164E-02  0.1184000E+00
        -11   -1    0    0    0    0  0.00000000000E+00  0.00000000000E+00  0.45593999997E+02  0.45594000000E+02  0.51100000000E-03 0.  1.
         11   -1    0    0    0    0 -0.00000000000E+00 -0.00000000000E+00 -0.45593999997E+02  0.45594000000E+02  0.51100000000E-03 0. -1.
         23    2    1    2    0    0  0.00000000000E+00 -0.22204460493E-15  0.00000000000E+00  0.91188000000E+02  0.91188000000E+02 0.  0.
    9900012    2    3    3    0    0 -0.27746328079E+02 -0.18869835092E+01  0.24132170743E+02  0.54367067185E+02  0.39999961262E+02 0.  0.
         12    1    3    3    0    0  0.27746328079E+02  0.18869835092E+01 -0.24132170743E+02  0.36820932815E+02  0.00000000000E+00 0. -1.
         11    1    4    4    0    0 -0.20803153715E+02 -0.12930940113E+01 -0.30660661699E+00  0.20845558387E+02  0.51100000000E-03 0. -1.
        -11    1    4    4    0    0  0.49700315135E+01 -0.58317601908E+01  0.25854382134E+01  0.80867256158E+01  0.51100000000E-03 0.  1.
         12    1    4    4    0    0 -0.11913205877E+02  0.52378706929E+01  0.21853339146E+02  0.25434783182E+02  0.00000000000E+00 0. -1.
</event>
<event>
 8    1  0.1229038E-006  0.9118800E+02  0.7816164E-02  0.1184000E+00
        -11   -1    0    0    0    0  0.00000000000E+00  0.00000000000E+00  0.45593999997E+02  0.45594000000E+02  0.51100000000E-03 0.  1.
         11   -1    0    0    0    0 -0.00000000000E+00 -0.00000000000E+00 -0.45593999997E+02  0.45594000000E+02  0.51100000000E-03 0. -1.
         23    2    1    2    0    0  0.35527136788E-14  0.00000000000E+00  0.22204460493E-15  0.91188000000E+02  0.91188000000E+02 0.  0.
    9900012    2    3    3    0    0 -0.17634764086E+02  0.32321526922E+02  0.33727955941E+00  0.54367085231E+02  0.40000002401E+02 0.  0.
         12    1    3    3    0    0  0.17634764086E+02 -0.32321526922E+02 -0.33727955941E+00  0.36820914769E+02  0.00000000000E+00 0. -1.
         11    1    4    4    0    0  0.95414382909E+01  0.57247848939E+00 -0.65209509905E+01  0.11571066431E+02  0.51100000000E-03 0. -1.
        -11    1    4    4    0    0 -0.96643521409E+01  0.73797198131E+01  0.83274809143E+00  0.12188249935E+02  0.51100000000E-03 0.  1.
        -12    1    4    4    0    0 -0.17511850236E+02  0.24369328619E+02  0.60254824585E+01  0.30607768865E+02  0.00000000000E+00 0.  1.
</event>
<event>
 8    1  0.1229038E-006  0.9118800E+02  0.7816164E-02  0.1184000E+00
        -11   -1    0    0    0    0  0.00000000000E+00  0.00000000000E+00  0.45593999997E+02  0.45594000000E+02  0.51100000000E-03 0.  1.
         11   -1    0    0    0    0 -0.00000000000E+00 -0.00000000000E+00 -0.45593999997E+02  0.45594000000E+02  0.51100000000E-03 0. -1.
         23    2    1    2    0    0  0.00000000000E+00  0.35527136788E-14  0.00000000000E+00  0.91188000000E+02  0.91188000000E+02 0.  0.
    9900012    2    3    3    0    0 -0.25825299245E+02  0.25430138879E+02  0.64920161704E+01  0.54367023391E+02  0.39999861424E+02 0.  0.
        -12    1    3    3    0    0  0.25825299245E+02 -0.25430138879E+02 -0.64920161704E+01  0.36820976609E+02  0.00000000000E+00 0.  1.
         11    1    4    4    0    0 -0.33450509554E+01  0.17883168471E+02 -0.35091493941E+01  0.18528659158E+02  0.51100000000E-03 0. -1.
        -11    1    4    4    0    0 -0.53750832963E+01 -0.90706212565E+01  0.24657171483E+01  0.10828086245E+02  0.51100000000E-03 0.  1.
         12    1    4    4    0    0 -0.17105164993E+02  0.16617591665E+02  0.75354484162E+01  0.25010277987E+02  0.00000000000E+00 0. -1.
</event>
<event>
 8    1  0.1229038E-006  0.9118800E+02  0.7816164E-02  0.1184000E+00
        -11   -1    0    0    0    0  0.00000000000E+00  0.00000000000E+00  0.45593999997E+02  0.45594000000E+02  0.51100000000E-03 0.  1.
         11   -1    0    0    0    0 -0.00000000000E+00 -0.00000000000E+00 -0.45593999997E+02  0.45594000000E+02  0.51100000000E-03 0. -1.
         23    2    1    2    0    0 -0.35527136788E-14  0.00000000000E+00  0.00000000000E+00  0.91188000000E+02  0.91188000000E+02 0.  0.
    9900012    2    3    3    0    0  0.19260561066E+02  0.25347763767E+02 -0.18501412211E+02  0.54367073961E+02  0.39999976708E+02 0.  0.
        -12    1    3    3    0    0 -0.19260561066E+02 -0.25347763767E+02  0.18501412211E+02  0.36820926039E+02  0.00000000000E+00 0.  1.
         11    1    4    4    0    0  0.21182817023E+02 -0.21818676944E+01 -0.13572518867E+02  0.25252436563E+02  0.51100000000E-03 0. -1.
        -11    1    4    4    0    0 -0.15836059262E+01  0.13752164114E+02  0.14682082986E+01  0.13920684661E+02  0.51100000000E-03 0.  1.
         12    1    4    4    0    0 -0.33865003088E+00  0.13777467348E+02 -0.63971016424E+01  0.15193952737E+02  0.00000000000E+00 0. -1.
</event>
<event>
 8    1  0.1229038E-006  0.9118800E+02  0.7816164E-02  0.1184000E+00
        -11   -1    0    0    0    0  0.00000000000E+00  0.00000000000E+00  0.45593999997E+02  0.45594000000E+02  0.51100000000E-03 0.  1.
         11   -1    0    0    0    0 -0.00000000000E+00 -0.00000000000E+00 -0.45593999997E+02  0.45594000000E+02  0.51100000000E-03 0. -1.
         23    2    1    2    0    0  0.00000000000E+00  0.44408920985E-15  0.35527136788E-14  0.91188000000E+02  0.91188000000E+02 0.  0.
    9900012    2    3    3    0    0 -0.32593327975E+02  0.18832270264E+01  0.17026696246E+02  0.54367082608E+02  0.39999996422E+02 0.  0.
        -12    1    3    3    0    0  0.32593327975E+02 -0.18832270264E+01 -0.17026696246E+02  0.36820917392E+02  0.00000000000E+00 0.  1.
         11    1    4    4    0    0 -0.49357604986E+01  0.10125327762E+02 -0.33415948883E+01  0.11749478739E+02  0.51100000000E-03 0. -1.
        -11    1    4    4    0    0 -0.16917774472E+02  0.71642247298E+01  0.12687819636E+02  0.22327516128E+02  0.51100000000E-03 0.  1.
         12    1    4    4    0    0 -0.10739793005E+02 -0.15406325465E+02  0.76804714987E+01  0.20290087742E+02  0.00000000000E+00 0. -1.
</event>
<event>
 8    1  0.1229038E-006  0.9118800E+02  0.7816164E-02  0.1184000E+00
        -11   -1    0    0    0    0  0.00000000000E+00  0.00000000000E+00  0.45593999997E+02  0.45594000000E+02  0.51100000000E-03 0.  1.
         11   -1    0    0    0    0 -0.00000000000E+00 -0.00000000000E+00 -0.45593999997E+02  0.45594000000E+02  0.51100000000E-03 0. -1.
         23    2    1    2    0    0  0.00000000000E+00  0.35527136788E-14  0.00000000000E+00  0.91188000000E+02  0.91188000000E+02 0.  0.
    9900012    2    3    3    0    0  0.29474346468E+02 -0.20397082715E+02 -0.84262397371E+01  0.54367087476E+02  0.40000007519E+02 0.  0.
        -12    1    3    3    0    0 -0.29474346468E+02  0.20397082715E+02  0.84262397371E+01  0.36820912524E+02  0.00000000000E+00 0.  1.
         11    1    4    4    0    0  0.67704144882E+01  0.12226068749E+01 -0.77938128016E+01  0.10395999142E+02  0.51100000000E-03 0. -1.
        -11    1    4    4    0    0  0.10194306266E+02 -0.22761055539E+02 -0.11404199158E+02  0.27423444135E+02  0.51100000000E-03 0.  1.
        -12    1    4    4    0    0  0.12509625714E+02  0.11413659495E+01  0.10771772223E+02  0.16547644200E+02  0.00000000000E+00 0.  1.
</event>
<event>
 8    1  0.1229038E-006  0.9118800E+02  0.7816164E-02  0.1184000E+00
        -11   -1    0    0    0    0  0.00000000000E+00  0.00000000000E+00  0.45593999997E+02  0.45594000000E+02  0.51100000000E-03 0. -1.
         11   -1    0    0    0    0 -0.00000000000E+00 -0.00000000000E+00 -0.45593999997E+02  0.45594000000E+02  0.51100000000E-03 0.  1.
         23    2    1    2    0    0  0.17763568394E-14 -0.53290705182E-14  0.00000000000E+00  0.91188000000E+02  0.91188000000E+02 0.  0.
    9900012    2    3    3    0    0  0.12521425383E+02  0.82960184779E+01 -0.33618043356E+02  0.54367043260E+02  0.39999906719E+02 0.  0.
         12    1    3    3    0    0 -0.12521425383E+02 -0.82960184779E+01  0.33618043356E+02  0.36820956740E+02  0.00000000000E+00 0. -1.
         11    1    4    4    0    0 -0.19116539442E+01  0.31264135292E+01 -0.66277363599E+00  0.37239967121E+01  0.51100000000E-03 0. -1.
        -11    1    4    4    0    0  0.18667620595E+01 -0.13400213427E+02 -0.21655666473E+02  0.25534651185E+02  0.51100000000E-03 0.  1.
        -12    1    4    4    0    0  0.12566317267E+02  0.18569818376E+02 -0.11299603247E+02  0.25108395363E+02  0.00000000000E+00 0.  1.
</event>
<event>
 8    1  0.1229038E-006  0.9118800E+02  0.7816164E-02  0.1184000E+00
        -11   -1    0    0    0    0  0.00000000000E+00  0.00000000000E+00  0.45593999997E+02  0.45594000000E+02  0.51100000000E-03 0.  1.
         11   -1    0    0    0    0 -0.00000000000E+00 -0.00000000000E+00 -0.45593999997E+02  0.45594000000E+02  0.51100000000E-03 0. -1.
         23    2    1    2    0    0 -0.17763568394E-14  0.00000000000E+00  0.00000000000E+00  0.91188000000E+02  0.91188000000E+02 0.  0.
    9900012    2    3    3    0    0 -0.13068348697E+02  0.28589108528E+02  0.19174505336E+02  0.54367074985E+02  0.39999979044E+02 0.  0.
         12    1    3    3    0    0  0.13068348697E+02 -0.28589108528E+02 -0.19174505336E+02  0.36820925015E+02  0.00000000000E+00 0. -1.
         11    1    4    4    0    0  0.61486961692E+01  0.79322442190E+01  0.27960932582E+01  0.10418498006E+02  0.51100000000E-03 0. -1.
        -11    1    4    4    0    0 -0.15980654064E+02  0.27905366190E+02  0.97386222003E+01  0.33599576324E+02  0.51100000000E-03 0.  1.
         12    1    4    4    0    0 -0.32363908015E+01 -0.72485018815E+01  0.66397898775E+01  0.10349000655E+02  0.00000000000E+00 0. -1.
</event>
<event>
 8    1  0.1229038E-006  0.9118800E+02  0.7816164E-02  0.1184000E+00
        -11   -1    0    0    0    0  0.00000000000E+00  0.00000000000E+00  0.45593999997E+02  0.45594000000E+02  0.51100000000E-03 0.  1.
         11   -1    0    0    0    0 -0.00000000000E+00 -0.00000000000E+00 -0.45593999997E+02  0.45594000000E+02  0.51100000000E-03 0. -1.
         23    2    1    2    0    0 -0.35527136788E-14  0.00000000000E+00 -0.35527136788E-14  0.91188000000E+02  0.91188000000E+02 0.  0.
    9900012    2    3    3    0    0 -0.16119638709E+02  0.23108896810E+02 -0.23704761335E+02  0.54367087819E+02  0.40000008301E+02 0.  0.
        -12    1    3    3    0    0  0.16119638709E+02 -0.23108896810E+02  0.23704761335E+02  0.36820912181E+02  0.00000000000E+00 0.  1.
         11    1    4    4    0    0  0.86451061398E+01 -0.79528456211E+00 -0.69622240810E+00  0.87094812478E+01  0.51100000000E-03 0.  1.
        -11    1    4    4    0    0 -0.20744204335E+02  0.26601275357E+02 -0.16518627352E+02  0.37560816205E+02  0.51100000000E-03 0. -1.
        -12    1    4    4    0    0 -0.40205405135E+01 -0.26970939850E+01 -0.64899115745E+01  0.80967903659E+01  0.00000000000E+00 0.  1.
</event>
<event>
 8    1  0.1229038E-006  0.9118800E+02  0.7816164E-02  0.1184000E+00
        -11   -1    0    0    0    0  0.00000000000E+00  0.00000000000E+00  0.45593999997E+02  0.45594000000E+02  0.51100000000E-03 0. -1.
         11   -1    0    0    0    0 -0.00000000000E+00 -0.00000000000E+00 -0.45593999997E+02  0.45594000000E+02  0.51100000000E-03 0.  1.
         23    2    1    2    0    0  0.00000000000E+00 -0.35527136788E-14  0.88817841970E-15  0.91188000000E+02  0.91188000000E+02 0.  0.
    9900012    2    3    3    0    0 -0.21572646102E+02  0.29730110883E+02  0.25538573095E+01  0.54367071982E+02  0.39999972198E+02 0.  0.
        -12    1    3    3    0    0  0.21572646102E+02 -0.29730110883E+02 -0.25538573095E+01  0.36820928018E+02  0.00000000000E+00 0.  1.
         11    1    4    4    0    0 -0.19947076341E+02  0.15048101488E+02  0.10874215685E+02  0.27250317062E+02  0.51100000000E-03 0. -1.
        -11    1    4    4    0    0 -0.49522892731E+01 -0.20406557742E+01  0.34743680860E+01  0.63844090480E+01  0.51100000000E-03 0.  1.
        -12    1    4    4    0    0  0.33267195124E+01  0.16722665169E+02 -0.11794726462E+02  0.20732345872E+02  0.00000000000E+00 0.  1.
</event>
<event>
 8    1  0.1229038E-006  0.9118800E+02  0.7816164E-02  0.1184000E+00
        -11   -1    0    0    0    0  0.00000000000E+00  0.00000000000E+00  0.45593999997E+02  0.45594000000E+02  0.51100000000E-03 0.  1.
         11   -1    0    0    0    0 -0.00000000000E+00 -0.00000000000E+00 -0.45593999997E+02  0.45594000000E+02  0.51100000000E-03 0. -1.
         23    2    1    2    0    0  0.00000000000E+00  0.88817841970E-15  0.71054273576E-14  0.91188000000E+02  0.91188000000E+02 0.  0.
    9900012    2    3    3    0    0  0.84326330279E+01 -0.74240617169E+01 -0.35064994880E+02  0.54367083959E+02  0.39999999502E+02 0.  0.
        -12    1    3    3    0    0 -0.84326330279E+01  0.74240617169E+01  0.35064994880E+02  0.36820916041E+02  0.00000000000E+00 0.  1.
         11    1    4    4    0    0  0.52487807551E+01 -0.66125464675E+00 -0.34791498944E+02  0.35191410261E+02  0.51100000000E-03 0. -1.
        -11    1    4    4    0    0 -0.61053347731E+01 -0.42794120931E+01 -0.44605099644E+01  0.86881891069E+01  0.51100000000E-03 0.  1.
        -12    1    4    4    0    0  0.92891870458E+01 -0.24833949770E+01  0.41870140286E+01  0.10487484592E+02  0.00000000000E+00 0.  1.
</event>
<event>
 8    1  0.1229038E-006  0.9118800E+02  0.7816164E-02  0.1184000E+00
        -11   -1    0    0    0    0  0.00000000000E+00  0.00000000000E+00  0.45593999997E+02  0.45594000000E+02  0.51100000000E-03 0. -1.
         11   -1    0    0    0    0 -0.00000000000E+00 -0.00000000000E+00 -0.45593999997E+02  0.45594000000E+02  0.51100000000E-03 0.  1.
         23    2    1    2    0    0  0.00000000000E+00 -0.19984014443E-14 -0.35527136788E-14  0.91188000000E+02  0.91188000000E+02 0.  0.
    9900012    2    3    3    0    0 -0.28045672570E+02  0.19182674261E+00  0.23857572829E+02  0.54367077569E+02  0.39999984934E+02 0.  0.
        -12    1    3    3    0    0  0.28045672570E+02 -0.19182674261E+00 -0.23857572829E+02  0.36820922431E+02  0.00000000000E+00 0.  1.
         11    1    4    4    0    0 -0.13905698811E+02  0.93401295156E+01  0.17467627402E+02  0.24201745518E+02  0.51100000000E-03 0. -1.
        -11    1    4    4    0    0 -0.20390993588E+02 -0.88441543002E+01  0.15993110874E+01  0.22283839010E+02  0.51100000000E-03 0.  1.
         12    1    4    4    0    0  0.62510198288E+01 -0.30414847287E+00  0.47906343389E+01  0.78814930414E+01  0.00000000000E+00 0. -1.
</event>
<event>
 8    1  0.1229038E-006  0.9118800E+02  0.7816164E-02  0.1184000E+00
        -11   -1    0    0    0    0  0.00000000000E+00  0.00000000000E+00  0.45593999997E+02  0.45594000000E+02  0.51100000000E-03 0.  1.
         11   -1    0    0    0    0 -0.00000000000E+00 -0.00000000000E+00 -0.45593999997E+02  0.45594000000E+02  0.51100000000E-03 0. -1.
         23    2    1    2    0    0 -0.55511151231E-15 -0.17763568394E-14  0.00000000000E+00  0.91188000000E+02  0.91188000000E+02 0.  0.
    9900012    2    3    3    0    0 -0.68875330513E+00 -0.10685801817E+02 -0.35229523659E+02  0.54367080961E+02  0.39999992668E+02 0.  0.
        -12    1    3    3    0    0  0.68875330513E+00  0.10685801817E+02  0.35229523659E+02  0.36820919039E+02  0.00000000000E+00 0.  1.
         11    1    4    4    0    0 -0.84162274362E+01  0.32062601131E+01 -0.21421319475E+01  0.92575222231E+01  0.51100000000E-03 0. -1.
        -11    1    4    4    0    0 -0.45119438209E+01 -0.46549109113E+01  0.20277291557E+01  0.67924604103E+01  0.51100000000E-03 0.  1.
         12    1    4    4    0    0  0.12239417952E+02 -0.92371510189E+01 -0.35115120867E+02  0.38317098328E+02  0.00000000000E+00 0. -1.
</event>
<event>
 8    1  0.1229038E-006  0.9118800E+02  0.7816164E-02  0.1184000E+00
        -11   -1    0    0    0    0  0.00000000000E+00  0.00000000000E+00  0.45593999997E+02  0.45594000000E+02  0.51100000000E-03 0.  1.
         11   -1    0    0    0    0 -0.00000000000E+00 -0.00000000000E+00 -0.45593999997E+02  0.45594000000E+02  0.51100000000E-03 0. -1.
         23    2    1    2    0    0  0.35527136788E-14  0.00000000000E+00  0.17763568394E-14  0.91188000000E+02  0.91188000000E+02 0.  0.
    9900012    2    3    3    0    0  0.27633033442E+02 -0.20403074168E+02  0.13263142512E+02  0.54367069512E+02  0.39999966566E+02 0.  0.
         12    1    3    3    0    0 -0.27633033442E+02  0.20403074168E+02 -0.13263142512E+02  0.36820930488E+02  0.00000000000E+00 0. -1.
         11    1    4    4    0    0 -0.32394533259E+00 -0.12230490429E+02  0.45653218866E+01  0.13058790178E+02  0.51100000000E-03 0. -1.
        -11    1    4    4    0    0  0.70732357359E+01 -0.15369477598E+02 -0.14871947574E+01  0.16984206014E+02  0.51100000000E-03 0.  1.
        -12    1    4    4    0    0  0.20883743039E+02  0.71968938592E+01  0.10185015383E+02  0.24324073320E+02  0.00000000000E+00 0.  1.
</event>
<event>
 8    1  0.1229038E-006  0.9118800E+02  0.7816164E-02  0.1184000E+00
        -11   -1    0    0    0    0  0.00000000000E+00  0.00000000000E+00  0.45593999997E+02  0.45594000000E+02  0.51100000000E-03 0.  1.
         11   -1    0    0    0    0 -0.00000000000E+00 -0.00000000000E+00 -0.45593999997E+02  0.45594000000E+02  0.51100000000E-03 0. -1.
         23    2    1    2    0    0  0.00000000000E+00  0.00000000000E+00 -0.35527136788E-14  0.91188000000E+02  0.91188000000E+02 0.  0.
    9900012    2    3    3    0    0  0.86836955303E+01 -0.22108983866E+02  0.28134822809E+02  0.54367055008E+02  0.39999933501E+02 0.  0.
         12    1    3    3    0    0 -0.86836955303E+01  0.22108983866E+02 -0.28134822809E+02  0.36820944992E+02  0.00000000000E+00 0. -1.
         11    1    4    4    0    0 -0.79381057702E+01  0.13803007198E+01  0.89983137316E+00  0.81073084348E+01  0.51100000000E-03 0. -1.
        -11    1    4    4    0    0  0.15579773285E+01 -0.13889115743E+02  0.24475716325E+02  0.28185022962E+02  0.51100000000E-03 0.  1.
         12    1    4    4    0    0  0.15063823972E+02 -0.96001688425E+01  0.27592751105E+01  0.18074723611E+02  0.00000000000E+00 0. -1.
</event>
<event>
 8    1  0.1229038E-006  0.9118800E+02  0.7816164E-02  0.1184000E+00
        -11   -1    0    0    0    0  0.00000000000E+00  0.00000000000E+00  0.45593999997E+02  0.45594000000E+02  0.51100000000E-03 0.  1.
         11   -1    0    0    0    0 -0.00000000000E+00 -0.00000000000E+00 -0.45593999997E+02  0.45594000000E+02  0.51100000000E-03 0. -1.
         23    2    1    2    0    0 -0.71054273576E-14  0.17763568394E-14  0.00000000000E+00  0.91188000000E+02  0.91188000000E+02 0.  0.
    9900012    2    3    3    0    0 -0.27256522666E+02  0.96886387490E+01 -0.22781415991E+02  0.54367073027E+02  0.39999974579E+02 0.  0.
         12    1    3    3    0    0  0.27256522666E+02 -0.96886387490E+01  0.22781415991E+02  0.36820926973E+02  0.00000000000E+00 0. -1.
         11    1    4    4    0    0 -0.26817341595E+02  0.10935719616E+02 -0.14016398843E+02  0.32174822618E+02  0.51100000000E-03 0. -1.
        -11    1    4    4    0    0  0.64414141477E+01 -0.81794212855E+01 -0.61050748969E+01  0.12069245567E+02  0.51100000000E-03 0.  1.
        -12    1    4    4    0    0 -0.68805952186E+01  0.69323404189E+01 -0.26599422510E+01  0.10123004842E+02  0.00000000000E+00 0.  1.
</event>
<event>
 8    1  0.1229038E-006  0.9118800E+02  0.7816164E-02  0.1184000E+00
        -11   -1    0    0    0    0  0.00000000000E+00  0.00000000000E+00  0.45593999997E+02  0.45594000000E+02  0.51100000000E-03 0.  1.
         11   -1    0    0    0    0 -0.00000000000E+00 -0.00000000000E+00 -0.45593999997E+02  0.45594000000E+02  0.51100000000E-03 0. -1.
         23    2    1    2    0    0  0.00000000000E+00 -0.35527136788E-14  0.00000000000E+00  0.91188000000E+02  0.91188000000E+02 0.  0.
    9900012    2    3    3    0    0 -0.22474839248E+02 -0.27355015626E+02  0.10117522573E+02  0.54367088249E+02  0.40000009281E+02 0.  0.
        -12    1    3    3    0    0  0.22474839248E+02  0.27355015626E+02 -0.10117522573E+02  0.36820911751E+02  0.00000000000E+00 0.  1.
         11    1    4    4    0    0 -0.17471956606E+02 -0.12305532744E+02  0.56158238155E+01  0.22095992423E+02  0.51100000000E-03 0.  1.
        -11    1    4    4    0    0 -0.10850705100E+02  0.35110680397E+01  0.57479762490E+01  0.12771242350E+02  0.51100000000E-03 0. -1.
         12    1    4    4    0    0  0.58478224574E+01 -0.18560550922E+02 -0.12462774916E+01  0.19499853476E+02  0.00000000000E+00 0. -1.
</event>
<event>
 8    1  0.1229038E-006  0.9118800E+02  0.7816164E-02  0.1184000E+00
        -11   -1    0    0    0    0  0.00000000000E+00  0.00000000000E+00  0.45593999997E+02  0.45594000000E+02  0.51100000000E-03 0.  1.
         11   -1    0    0    0    0 -0.00000000000E+00 -0.00000000000E+00 -0.45593999997E+02  0.45594000000E+02  0.51100000000E-03 0. -1.
         23    2    1    2    0    0  0.00000000000E+00  0.71054273576E-14  0.35527136788E-14  0.91188000000E+02  0.91188000000E+02 0.  0.
    9900012    2    3    3    0    0 -0.44238523748E+01  0.28153158297E+02  0.23315412189E+02  0.54367092387E+02  0.40000018714E+02 0.  0.
         12    1    3    3    0    0  0.44238523748E+01 -0.28153158297E+02 -0.23315412189E+02  0.36820907613E+02  0.00000000000E+00 0. -1.
         11    1    4    4    0    0 -0.44181172972E+01 -0.37935749628E+01  0.59878618813E+01  0.83525721560E+01  0.51100000000E-03 0. -1.
        -11    1    4    4    0    0 -0.10236016565E+02  0.18641756549E+02 -0.83664440647E+00  0.21283587491E+02  0.51100000000E-03 0.  1.
         12    1    4    4    0    0  0.10230281487E+02  0.13304976711E+02  0.18164194714E+02  0.24730932740E+02  0.00000000000E+00 0. -1.
</event>
<event>
 8    1  0.1229038E-006  0.9118800E+02  0.7816164E-02  0.1184000E+00
        -11   -1    0    0    0    0  0.00000000000E+00  0.00000000000E+00  0.45593999997E+02  0.45594000000E+02  0.51100000000E-03 0.  1.
         11   -1    0    0    0    0 -0.00000000000E+00 -0.00000000000E+00 -0.45593999997E+02  0.45594000000E+02  0.51100000000E-03 0. -1.
         23    2    1    2    0    0  0.35527136788E-14  0.35527136788E-14 -0.35527136788E-14  0.91188000000E+02  0.91188000000E+02 0.  0.
    9900012    2    3    3    0    0  0.18020325718E+02  0.27004440829E+02  0.17372643157E+02  0.54367072612E+02  0.39999973634E+02 0.  0.
         12    1    3    3    0    0 -0.18020325718E+02 -0.27004440829E+02 -0.17372643157E+02  0.36820927388E+02  0.00000000000E+00 0. -1.
         11    1    4    4    0    0 -0.77410623900E+00  0.23733392105E+02  0.11907295119E+02  0.26564201825E+02  0.51100000000E-03 0. -1.
        -11    1    4    4    0    0  0.78221845164E+01  0.10149897056E+02  0.72613452772E+01  0.14728683456E+02  0.51100000000E-03 0.  1.
         12    1    4    4    0    0  0.10972247440E+02 -0.68788483324E+01 -0.17959972395E+01  0.13074187331E+02  0.00000000000E+00 0. -1.
</event>
<event>
 8    1  0.1229038E-006  0.9118800E+02  0.7816164E-02  0.1184000E+00
        -11   -1    0    0    0    0  0.00000000000E+00  0.00000000000E+00  0.45593999997E+02  0.45594000000E+02  0.51100000000E-03 0.  1.
         11   -1    0    0    0    0 -0.00000000000E+00 -0.00000000000E+00 -0.45593999997E+02  0.45594000000E+02  0.51100000000E-03 0. -1.
         23    2    1    2    0    0  0.00000000000E+00 -0.35527136788E-14  0.88817841970E-15  0.91188000000E+02  0.91188000000E+02 0.  0.
    9900012    2    3    3    0    0 -0.18496633242E+02 -0.31411066086E+02  0.51960795730E+01  0.54367085333E+02  0.40000002635E+02 0.  0.
        -12    1    3    3    0    0  0.18496633242E+02  0.31411066086E+02 -0.51960795730E+01  0.36820914667E+02  0.00000000000E+00 0.  1.
         11    1    4    4    0    0  0.89339767312E+01 -0.56589666717E+01 -0.70733279680E+01  0.12722885397E+02  0.51100000000E-03 0. -1.
        -11    1    4    4    0    0 -0.63792360868E+01 -0.10748050720E+02 -0.10883252278E+01  0.12545903690E+02  0.51100000000E-03 0.  1.
        -12    1    4    4    0    0 -0.21051373887E+02 -0.15004048694E+02  0.13357732769E+02  0.29098296247E+02  0.00000000000E+00 0.  1.
</event>
<event>
 8    1  0.1229038E-006  0.9118800E+02  0.7816164E-02  0.1184000E+00
        -11   -1    0    0    0    0  0.00000000000E+00  0.00000000000E+00  0.45593999997E+02  0.45594000000E+02  0.51100000000E-03 0.  1.
         11   -1    0    0    0    0 -0.00000000000E+00 -0.00000000000E+00 -0.45593999997E+02  0.45594000000E+02  0.51100000000E-03 0. -1.
         23    2    1    2    0    0  0.00000000000E+00  0.00000000000E+00  0.17763568394E-14  0.91188000000E+02  0.91188000000E+02 0.  0.
    9900012    2    3    3    0    0  0.11941318620E+02 -0.33368297535E+02  0.99871096793E+01  0.54367072112E+02  0.39999972494E+02 0.  0.
         12    1    3    3    0    0 -0.11941318620E+02  0.33368297535E+02 -0.99871096793E+01  0.36820927888E+02  0.00000000000E+00 0. -1.
         11    1    4    4    0    0  0.26677081691E+01  0.29565740678E+01 -0.54658603521E+01  0.67626641750E+01  0.51100000000E-03 0. -1.
        -11    1    4    4    0    0 -0.51971746764E+01 -0.25452047218E+02  0.42637706320E+01  0.26324837558E+02  0.51100000000E-03 0.  1.
         12    1    4    4    0    0  0.14470785127E+02 -0.10872824385E+02  0.11189199399E+02  0.21279570379E+02  0.00000000000E+00 0. -1.
</event>
<event>
 8    1  0.1229038E-006  0.9118800E+02  0.7816164E-02  0.1184000E+00
        -11   -1    0    0    0    0  0.00000000000E+00  0.00000000000E+00  0.45593999997E+02  0.45594000000E+02  0.51100000000E-03 0. -1.
         11   -1    0    0    0    0 -0.00000000000E+00 -0.00000000000E+00 -0.45593999997E+02  0.45594000000E+02  0.51100000000E-03 0.  1.
         23    2    1    2    0    0  0.00000000000E+00  0.35527136788E-14  0.00000000000E+00  0.91188000000E+02  0.91188000000E+02 0.  0.
    9900012    2    3    3    0    0 -0.14662253094E+02 -0.27209302989E+02 -0.20011282595E+02  0.54367091999E+02  0.40000017830E+02 0.  0.
         12    1    3    3    0    0  0.14662253094E+02  0.27209302989E+02  0.20011282595E+02  0.36820908001E+02  0.00000000000E+00 0. -1.
         11    1    4    4    0    0  0.53537790080E+00 -0.98541379143E-01 -0.10861395245E+00  0.55510102851E+00  0.51100000000E-03 0. -1.
        -11    1    4    4    0    0  0.80158984034E+01  0.21919389688E+01  0.42210500616E+01  0.93207557387E+01  0.51100000000E-03 0.  1.
        -12    1    4    4    0    0 -0.23213529399E+02 -0.29302700578E+02 -0.24123718704E+02  0.44491235232E+02  0.00000000000E+00 0.  1.
</event>
<event>
 8    1  0.1229038E-006  0.9118800E+02  0.7816164E-02  0.1184000E+00
        -11   -1    0    0    0    0  0.00000000000E+00  0.00000000000E+00  0.45593999997E+02  0.45594000000E+02  0.51100000000E-03 0.  1.
         11   -1    0    0    0    0 -0.00000000000E+00 -0.00000000000E+00 -0.45593999997E+02  0.45594000000E+02  0.51100000000E-03 0. -1.
         23    2    1    2    0    0 -0.13322676296E-14 -0.71054273576E-14 -0.66613381478E-15  0.91188000000E+02  0.91188000000E+02 0.  0.
    9900012    2    3    3    0    0  0.12304234024E+01 -0.36797022556E+02  0.49592592601E+00  0.54367071804E+02  0.39999971791E+02 0.  0.
         12    1    3    3    0    0 -0.12304234024E+01  0.36797022556E+02 -0.49592592601E+00  0.36820928196E+02  0.00000000000E+00 0. -1.
         11    1    4    4    0    0  0.83548024119E+01 -0.15513620266E+02 -0.79710290022E+01  0.19339401250E+02  0.51100000000E-03 0. -1.
        -11    1    4    4    0    0  0.94110787483E+01 -0.10862261165E+02  0.47124863465E+01  0.15124967724E+02  0.51100000000E-03 0.  1.
         12    1    4    4    0    0 -0.16535457758E+02 -0.10421141126E+02  0.37544685817E+01  0.19902702830E+02  0.00000000000E+00 0. -1.
</event>
<event>
 8    1  0.1229038E-006  0.9118800E+02  0.7816164E-02  0.1184000E+00
        -11   -1    0    0    0    0  0.00000000000E+00  0.00000000000E+00  0.45593999997E+02  0.45594000000E+02  0.51100000000E-03 0. -1.
         11   -1    0    0    0    0 -0.00000000000E+00 -0.00000000000E+00 -0.45593999997E+02  0.45594000000E+02  0.51100000000E-03 0.  1.
         23    2    1    2    0    0  0.13322676296E-14  0.00000000000E+00  0.00000000000E+00  0.91188000000E+02  0.91188000000E+02 0.  0.
    9900012    2    3    3    0    0 -0.15050866612E+01  0.36303742860E+02 -0.59628549957E+01  0.54367045760E+02  0.39999912418E+02 0.  0.
        -12    1    3    3    0    0  0.15050866612E+01 -0.36303742860E+02  0.59628549957E+01  0.36820954240E+02  0.00000000000E+00 0.  1.
         11    1    4    4    0    0 -0.16194027799E+02  0.12805049949E+02 -0.77978684773E+01  0.22068588392E+02  0.51100000000E-03 0. -1.
        -11    1    4    4    0    0  0.57840993863E+01 -0.58380740987E+00 -0.23742026238E+01  0.62796078828E+01  0.51100000000E-03 0.  1.
        -12    1    4    4    0    0  0.89048417516E+01  0.24082500321E+02  0.42092161054E+01  0.26018849485E+02  0.00000000000E+00 0.  1.
</event>
<event>
 8    1  0.1229038E-006  0.9118800E+02  0.7816164E-02  0.1184000E+00
        -11   -1    0    0    0    0  0.00000000000E+00  0.00000000000E+00  0.45593999997E+02  0.45594000000E+02  0.51100000000E-03 0. -1.
         11   -1    0    0    0    0 -0.00000000000E+00 -0.00000000000E+00 -0.45593999997E+02  0.45594000000E+02  0.51100000000E-03 0.  1.
         23    2    1    2    0    0  0.00000000000E+00  0.17763568394E-14  0.35527136788E-14  0.91188000000E+02  0.91188000000E+02 0.  0.
    9900012    2    3    3    0    0 -0.33204076397E+02  0.65887328685E+01  0.14486703411E+02  0.54366991515E+02  0.39999788755E+02 0.  0.
        -12    1    3    3    0    0  0.33204076397E+02 -0.65887328685E+01 -0.14486703411E+02  0.36821008485E+02  0.00000000000E+00 0.  1.
         11    1    4    4    0    0 -0.27763289262E+00  0.27992729612E+01 -0.47387847543E+01  0.55108157602E+01  0.51100000000E-03 0. -1.
        -11    1    4    4    0    0 -0.23365814079E+02 -0.67838591347E+01 -0.71889660577E+00  0.24341298752E+02  0.51100000000E-03 0.  1.
         12    1    4    4    0    0 -0.95606294249E+01  0.10573319042E+02  0.19944384771E+02  0.24514877003E+02  0.00000000000E+00 0. -1.
</event>
<event>
 8    1  0.1229038E-006  0.9118800E+02  0.7816164E-02  0.1184000E+00
        -11   -1    0    0    0    0  0.00000000000E+00  0.00000000000E+00  0.45593999997E+02  0.45594000000E+02  0.51100000000E-03 0.  1.
         11   -1    0    0    0    0 -0.00000000000E+00 -0.00000000000E+00 -0.45593999997E+02  0.45594000000E+02  0.51100000000E-03 0. -1.
         23    2    1    2    0    0  0.00000000000E+00  0.88817841970E-15  0.35527136788E-14  0.91188000000E+02  0.91188000000E+02 0.  0.
    9900012    2    3    3    0    0  0.29604675792E+02 -0.73690101556E+01 -0.20616482081E+02  0.54367102770E+02  0.40000042384E+02 0.  0.
        -12    1    3    3    0    0 -0.29604675792E+02  0.73690101556E+01  0.20616482081E+02  0.36820897230E+02  0.00000000000E+00 0.  1.
         11    1    4    4    0    0  0.41879627450E+01  0.10356749510E+02 -0.60887665269E+01  0.12722985909E+02  0.51100000000E-03 0. -1.
        -11    1    4    4    0    0 -0.25887760930E+00  0.43019533370E+01 -0.47841676119E+01  0.64391055380E+01  0.51100000000E-03 0.  1.
         12    1    4    4    0    0  0.25675590656E+02 -0.22027713003E+02 -0.97435479426E+01  0.35205011322E+02  0.00000000000E+00 0. -1.
</event>
<event>
 8    1  0.1229038E-006  0.9118800E+02  0.7816164E-02  0.1184000E+00
        -11   -1    0    0    0    0  0.00000000000E+00  0.00000000000E+00  0.45593999997E+02  0.45594000000E+02  0.51100000000E-03 0.  1.
         11   -1    0    0    0    0 -0.00000000000E+00 -0.00000000000E+00 -0.45593999997E+02  0.45594000000E+02  0.51100000000E-03 0. -1.
         23    2    1    2    0    0  0.00000000000E+00  0.00000000000E+00  0.00000000000E+00  0.91188000000E+02  0.91188000000E+02 0.  0.
    9900012    2    3    3    0    0  0.32477459163E+02 -0.68331176038E+01  0.15946875239E+02  0.54367086381E+02  0.40000005023E+02 0.  0.
         12    1    3    3    0    0 -0.32477459163E+02  0.68331176038E+01 -0.15946875239E+02  0.36820913619E+02  0.00000000000E+00 0. -1.
         11    1    4    4    0    0  0.37773345340E+01 -0.12880864542E+02 -0.40493074231E+01  0.14020763831E+02  0.51100000000E-03 0. -1.
        -11    1    4    4    0    0  0.99232639239E+01  0.47824451350E+01 -0.22131917139E+01  0.11235709421E+02  0.51100000000E-03 0.  1.
        -12    1    4    4    0    0  0.18776860705E+02  0.12653018032E+01  0.22209374376E+02  0.29110613129E+02  0.00000000000E+00 0.  1.
</event>
<event>
 8    1  0.1229038E-006  0.9118800E+02  0.7816164E-02  0.1184000E+00
        -11   -1    0    0    0    0  0.00000000000E+00  0.00000000000E+00  0.45593999997E+02  0.45594000000E+02  0.51100000000E-03 0.  1.
         11   -1    0    0    0    0 -0.00000000000E+00 -0.00000000000E+00 -0.45593999997E+02  0.45594000000E+02  0.51100000000E-03 0. -1.
         23    2    1    2    0    0  0.00000000000E+00  0.00000000000E+00 -0.17763568394E-14  0.91188000000E+02  0.91188000000E+02 0.  0.
    9900012    2    3    3    0    0 -0.33027267982E+02 -0.13382623801E+02  0.92668891090E+01  0.54367213970E+02  0.40000295885E+02 0.  0.
         12    1    3    3    0    0  0.33027267982E+02  0.13382623801E+02 -0.92668891090E+01  0.36820786030E+02  0.00000000000E+00 0. -1.
         11    1    4    4    0    0 -0.67554327365E+01 -0.79023214900E+01  0.17300231257E+01  0.10539237955E+02  0.51100000000E-03 0. -1.
        -11    1    4    4    0    0 -0.30471214415E+02 -0.13167971790E+02  0.10106233030E+02  0.34699082629E+02  0.51100000000E-03 0.  1.
        -12    1    4    4    0    0  0.41993791701E+01  0.76876694788E+01 -0.25693670463E+01  0.91288933857E+01  0.00000000000E+00 0.  1.
</event>
<event>
 8    1  0.1229038E-006  0.9118800E+02  0.7816164E-02  0.1184000E+00
        -11   -1    0    0    0    0  0.00000000000E+00  0.00000000000E+00  0.45593999997E+02  0.45594000000E+02  0.51100000000E-03 0.  1.
         11   -1    0    0    0    0 -0.00000000000E+00 -0.00000000000E+00 -0.45593999997E+02  0.45594000000E+02  0.51100000000E-03 0. -1.
         23    2    1    2    0    0  0.00000000000E+00 -0.17763568394E-14  0.00000000000E+00  0.91188000000E+02  0.91188000000E+02 0.  0.
    9900012    2    3    3    0    0 -0.30730353677E+02 -0.15536498527E+02 -0.13039989625E+02  0.54367098966E+02  0.40000033712E+02 0.  0.
        -12    1    3    3    0    0  0.30730353677E+02  0.15536498527E+02  0.13039989625E+02  0.36820901034E+02  0.00000000000E+00 0.  1.
         11    1    4    4    0    0 -0.13783150343E+02  0.86065306321E+01 -0.73606227221E+01  0.17838900471E+02  0.51100000000E-03 0. -1.
        -11    1    4    4    0    0 -0.56718722118E+01 -0.10799553561E+02  0.77860689892E+01  0.14471467171E+02  0.51100000000E-03 0.  1.
         12    1    4    4    0    0 -0.11275331122E+02 -0.13343475598E+02 -0.13465435892E+02  0.22056731324E+02  0.00000000000E+00 0. -1.
</event>
<event>
 8    1  0.1229038E-006  0.9118800E+02  0.7816164E-02  0.1184000E+00
        -11   -1    0    0    0    0  0.00000000000E+00  0.00000000000E+00  0.45593999997E+02  0.45594000000E+02  0.51100000000E-03 0.  1.
         11   -1    0    0    0    0 -0.00000000000E+00 -0.00000000000E+00 -0.45593999997E+02  0.45594000000E+02  0.51100000000E-03 0. -1.
         23    2    1    2    0    0  0.35527136788E-14  0.00000000000E+00  0.00000000000E+00  0.91188000000E+02  0.91188000000E+02 0.  0.
    9900012    2    3    3    0    0  0.27930902128E+02  0.16811700773E+02 -0.17117589800E+02  0.54367075824E+02  0.39999980956E+02 0.  0.
        -12    1    3    3    0    0 -0.27930902128E+02 -0.16811700773E+02  0.17117589800E+02  0.36820924176E+02  0.00000000000E+00 0.  1.
         11    1    4    4    0    0 -0.10490668706E+01  0.28886636878E+00 -0.48987794249E+01  0.50181695062E+01  0.51100000000E-03 0. -1.
        -11    1    4    4    0    0  0.75409199453E+01 -0.10509170132E+02 -0.61312659463E+01  0.14314347797E+02  0.51100000000E-03 0.  1.
        -12    1    4    4    0    0  0.21439049054E+02  0.27032004536E+02 -0.60875444289E+01  0.35034558521E+02  0.00000000000E+00 0.  1.
</event>
<event>
 8    1  0.1229038E-006  0.9118800E+02  0.7816164E-02  0.1184000E+00
        -11   -1    0    0    0    0  0.00000000000E+00  0.00000000000E+00  0.45593999997E+02  0.45594000000E+02  0.51100000000E-03 0. -1.
         11   -1    0    0    0    0 -0.00000000000E+00 -0.00000000000E+00 -0.45593999997E+02  0.45594000000E+02  0.51100000000E-03 0.  1.
         23    2    1    2    0    0  0.00000000000E+00  0.35527136788E-14  0.00000000000E+00  0.91188000000E+02  0.91188000000E+02 0.  0.
    9900012    2    3    3    0    0 -0.15059090761E+02 -0.16128967736E+02 -0.29476455963E+02  0.54367064774E+02  0.39999955765E+02 0.  0.
         12    1    3    3    0    0  0.15059090761E+02  0.16128967736E+02  0.29476455963E+02  0.36820935226E+02  0.00000000000E+00 0. -1.
         11    1    4    4    0    0  0.41447624238E+01 -0.29846698201E+01  0.26840216399E+01  0.57698597825E+01  0.51100000000E-03 0. -1.
        -11    1    4    4    0    0 -0.12887148764E+02  0.74525677376E+01 -0.13438115922E+02  0.20054982647E+02  0.51100000000E-03 0.  1.
        -12    1    4    4    0    0 -0.63167044209E+01 -0.20596865653E+02 -0.18722361681E+02  0.28542222345E+02  0.00000000000E+00 0.  1.
</event>
<event>
 8    1  0.1229038E-006  0.9118800E+02  0.7816164E-02  0.1184000E+00
        -11   -1    0    0    0    0  0.00000000000E+00  0.00000000000E+00  0.45593999997E+02  0.45594000000E+02  0.51100000000E-03 0.  1.
         11   -1    0    0    0    0 -0.00000000000E+00 -0.00000000000E+00 -0.45593999997E+02  0.45594000000E+02  0.51100000000E-03 0. -1.
         23    2    1    2    0    0  0.00000000000E+00  0.88817841970E-15 -0.71054273576E-14  0.91188000000E+02  0.91188000000E+02 0.  0.
    9900012    2    3    3    0    0 -0.96793716109E+01 -0.72442134405E+01  0.34779464328E+02  0.54367082003E+02  0.39999995043E+02 0.  0.
         12    1    3    3    0    0  0.96793716109E+01  0.72442134405E+01 -0.34779464328E+02  0.36820917997E+02  0.00000000000E+00 0. -1.
         11    1    4    4    0    0  0.34765521980E+01 -0.70221377648E+01  0.20434874407E+01  0.80976956694E+01  0.51100000000E-03 0. -1.
        -11    1    4    4    0    0 -0.18407090760E+02 -0.24476495905E+01  0.68972221110E+01  0.19808676177E+02  0.51100000000E-03 0.  1.
         12    1    4    4    0    0  0.52511669512E+01  0.22255739149E+01  0.25838754777E+02  0.26460710157E+02  0.00000000000E+00 0. -1.
</event>
<event>
 8    1  0.1229038E-006  0.9118800E+02  0.7816164E-02  0.1184000E+00
        -11   -1    0    0    0    0  0.00000000000E+00  0.00000000000E+00  0.45593999997E+02  0.45594000000E+02  0.51100000000E-03 0. -1.
         11   -1    0    0    0    0 -0.00000000000E+00 -0.00000000000E+00 -0.45593999997E+02  0.45594000000E+02  0.51100000000E-03 0.  1.
         23    2    1    2    0    0 -0.17763568394E-14  0.00000000000E+00  0.35527136788E-14  0.91188000000E+02  0.91188000000E+02 0.  0.
    9900012    2    3    3    0    0  0.87359885483E+01 -0.20601258737E+02 -0.29241248651E+02  0.54367082302E+02  0.39999995724E+02 0.  0.
         12    1    3    3    0    0 -0.87359885483E+01  0.20601258737E+02  0.29241248651E+02  0.36820917698E+02  0.00000000000E+00 0. -1.
         11    1    4    4    0    0  0.69222151193E+01 -0.23105266455E+01 -0.18122012319E+02  0.19536195287E+02  0.51100000000E-03 0. -1.
        -11    1    4    4    0    0  0.14281426225E+02 -0.81379356948E+01 -0.26222255569E+01  0.16645155437E+02  0.51100000000E-03 0.  1.
        -12    1    4    4    0    0 -0.12467652796E+02 -0.10152796397E+02 -0.84970107742E+01  0.18185731578E+02  0.00000000000E+00 0.  1.
</event>
<event>
 8    1  0.1229038E-006  0.9118800E+02  0.7816164E-02  0.1184000E+00
        -11   -1    0    0    0    0  0.00000000000E+00  0.00000000000E+00  0.45593999997E+02  0.45594000000E+02  0.51100000000E-03 0. -1.
         11   -1    0    0    0    0 -0.00000000000E+00 -0.00000000000E+00 -0.45593999997E+02  0.45594000000E+02  0.51100000000E-03 0.  1.
         23    2    1    2    0    0  0.00000000000E+00  0.13877787808E-15 -0.71054273576E-14  0.91188000000E+02  0.91188000000E+02 0.  0.
    9900012    2    3    3    0    0 -0.17818434642E+02 -0.14308930017E+00  0.32222028658E+02  0.54367133382E+02  0.40000112172E+02 0.  0.
        -12    1    3    3    0    0  0.17818434642E+02  0.14308930017E+00 -0.32222028658E+02  0.36820866618E+02  0.00000000000E+00 0.  1.
         11    1    4    4    0    0 -0.22853952993E+02  0.46576253301E+01  0.33412246761E+01  0.23561842536E+02  0.51100000000E-03 0. -1.
        -11    1    4    4    0    0 -0.58171456619E+00 -0.48101748334E+01  0.10093401074E+02  0.11196111792E+02  0.51100000000E-03 0.  1.
         12    1    4    4    0    0  0.56172329168E+01  0.94602032094E-02  0.18787402908E+02  0.19609179054E+02  0.00000000000E+00 0. -1.
</event>
<event>
 8    1  0.1229038E-006  0.9118800E+02  0.7816164E-02  0.1184000E+00
        -11   -1    0    0    0    0  0.00000000000E+00  0.00000000000E+00  0.45593999997E+02  0.45594000000E+02  0.51100000000E-03 0.  1.
         11   -1    0    0    0    0 -0.00000000000E+00 -0.00000000000E+00 -0.45593999997E+02  0.45594000000E+02  0.51100000000E-03 0. -1.
         23    2    1    2    0    0  0.00000000000E+00  0.00000000000E+00 -0.88817841970E-15  0.91188000000E+02  0.91188000000E+02 0.  0.
    9900012    2    3    3    0    0 -0.35392881068E+02  0.89517489163E+01  0.47940003907E+01  0.54367186882E+02  0.40000234134E+02 0.  0.
        -12    1    3    3    0    0  0.35392881068E+02 -0.89517489163E+01 -0.47940003907E+01  0.36820813118E+02  0.00000000000E+00 0.  1.
         11    1    4    4    0    0  0.44067276591E+01  0.11477542482E+02 -0.28597322398E+00  0.12297764473E+02  0.51100000000E-03 0. -1.
        -11    1    4    4    0    0 -0.27604731758E+02 -0.62355961223E+01  0.70658238865E+01  0.29168985959E+02  0.51100000000E-03 0.  1.
        -12    1    4    4    0    0 -0.12194876968E+02  0.37098025564E+01 -0.19858502719E+01  0.12900436449E+02  0.00000000000E+00 0.  1.
</event>
<event>
 8    1  0.1229038E-006  0.9118800E+02  0.7816164E-02  0.1184000E+00
        -11   -1    0    0    0    0  0.00000000000E+00  0.00000000000E+00  0.45593999997E+02  0.45594000000E+02  0.51100000000E-03 0. -1.
         11   -1    0    0    0    0 -0.00000000000E+00 -0.00000000000E+00 -0.45593999997E+02  0.45594000000E+02  0.51100000000E-03 0.  1.
         23    2    1    2    0    0 -0.17763568394E-14  0.00000000000E+00  0.71054273576E-14  0.91188000000E+02  0.91188000000E+02 0.  0.
    9900012    2    3    3    0    0 -0.12796593856E+02  0.18649444291E+02  0.29055580658E+02  0.54367063645E+02  0.39999953191E+02 0.  0.
        -12    1    3    3    0    0  0.12796593856E+02 -0.18649444291E+02 -0.29055580658E+02  0.36820936355E+02  0.00000000000E+00 0.  1.
         11    1    4    4    0    0  0.27725700047E+01 -0.63450579889E+00  0.20645980945E+02  0.20840975781E+02  0.51100000000E-03 0. -1.
        -11    1    4    4    0    0 -0.12474929356E+02  0.61651434231E+01 -0.47352861089E+01  0.14698836371E+02  0.51100000000E-03 0.  1.
         12    1    4    4    0    0 -0.30942345050E+01  0.13118806667E+02  0.13144885822E+02  0.18827251494E+02  0.00000000000E+00 0. -1.
</event>
<event>
 8    1  0.1229038E-006  0.9118800E+02  0.7816164E-02  0.1184000E+00
        -11   -1    0    0    0    0  0.00000000000E+00  0.00000000000E+00  0.45593999997E+02  0.45594000000E+02  0.51100000000E-03 0.  1.
         11   -1    0    0    0    0 -0.00000000000E+00 -0.00000000000E+00 -0.45593999997E+02  0.45594000000E+02  0.51100000000E-03 0. -1.
         23    2    1    2    0    0  0.00000000000E+00 -0.44408920985E-15  0.00000000000E+00  0.91188000000E+02  0.91188000000E+02 0.  0.
    9900012    2    3    3    0    0  0.28408119059E+01  0.31500532692E+01 -0.36575775958E+02  0.54367076127E+02  0.39999981647E+02 0.  0.
        -12    1    3    3    0    0 -0.28408119059E+01 -0.31500532692E+01  0.36575775958E+02  0.36820923873E+02  0.00000000000E+00 0.  1.
         11    1    4    4    0    0 -0.53707399386E+00 -0.30882920366E+01 -0.27062778647E+02  0.27243714588E+02  0.51100000000E-03 0. -1.
        -11    1    4    4    0    0  0.11384813871E+02  0.97870412060E+01 -0.10484024088E+02  0.18311606259E+02  0.51100000000E-03 0.  1.
         12    1    4    4    0    0 -0.80069279710E+01 -0.35486959001E+01  0.97102677662E+00  0.88117552806E+01  0.00000000000E+00 0. -1.
</event>
<event>
 8    1  0.1229038E-006  0.9118800E+02  0.7816164E-02  0.1184000E+00
        -11   -1    0    0    0    0  0.00000000000E+00  0.00000000000E+00  0.45593999997E+02  0.45594000000E+02  0.51100000000E-03 0.  1.
         11   -1    0    0    0    0 -0.00000000000E+00 -0.00000000000E+00 -0.45593999997E+02  0.45594000000E+02  0.51100000000E-03 0. -1.
         23    2    1    2    0    0  0.00000000000E+00  0.00000000000E+00  0.00000000000E+00  0.91188000000E+02  0.91188000000E+02 0.  0.
    9900012    2    3    3    0    0  0.10489785691E+02 -0.34023990798E+02  0.93868176230E+01  0.54367083407E+02  0.39999998243E+02 0.  0.
         12    1    3    3    0    0 -0.10489785691E+02  0.34023990798E+02 -0.93868176230E+01  0.36820916593E+02  0.00000000000E+00 0. -1.
         11    1    4    4    0    0  0.84226269504E+01 -0.91162319079E+01  0.32024418958E+01  0.12818032739E+02  0.51100000000E-03 0.  1.
        -11    1    4    4    0    0  0.13580423386E+02 -0.16895122908E+02 -0.65075677545E+01  0.22632311321E+02  0.51100000000E-03 0. -1.
         12    1    4    4    0    0 -0.11513264645E+02 -0.80126359823E+01  0.12691943482E+02  0.18916739347E+02  0.00000000000E+00 0. -1.
</event>
<event>
 8    1  0.1229038E-006  0.9118800E+02  0.7816164E-02  0.1184000E+00
        -11   -1    0    0    0    0  0.00000000000E+00  0.00000000000E+00  0.45593999997E+02  0.45594000000E+02  0.51100000000E-03 0. -1.
         11   -1    0    0    0    0 -0.00000000000E+00 -0.00000000000E+00 -0.45593999997E+02  0.45594000000E+02  0.51100000000E-03 0.  1.
         23    2    1    2    0    0  0.88817841970E-15 -0.88817841970E-15  0.00000000000E+00  0.91188000000E+02  0.91188000000E+02 0.  0.
    9900012    2    3    3    0    0  0.49481863631E+01 -0.48074028170E+01 -0.36168842100E+02  0.54367071047E+02  0.39999970066E+02 0.  0.
         12    1    3    3    0    0 -0.49481863631E+01  0.48074028170E+01  0.36168842100E+02  0.36820928953E+02  0.00000000000E+00 0. -1.
         11    1    4    4    0    0  0.12703000709E+01 -0.15757575342E+02 -0.53811747496E+01  0.16699457622E+02  0.51100000000E-03 0. -1.
        -11    1    4    4    0    0 -0.10629992564E+00  0.15258782006E+02 -0.17641639418E+02  0.23325290343E+02  0.51100000000E-03 0.  1.
        -12    1    4    4    0    0  0.37841862179E+01 -0.43086094808E+01 -0.13146027932E+02  0.14342323082E+02  0.00000000000E+00 0.  1.
</event>
<event>
 8    1  0.1229038E-006  0.9118800E+02  0.7816164E-02  0.1184000E+00
        -11   -1    0    0    0    0  0.00000000000E+00  0.00000000000E+00  0.45593999997E+02  0.45594000000E+02  0.51100000000E-03 0.  1.
         11   -1    0    0    0    0 -0.00000000000E+00 -0.00000000000E+00 -0.45593999997E+02  0.45594000000E+02  0.51100000000E-03 0. -1.
         23    2    1    2    0    0 -0.35527136788E-14 -0.35527136788E-14  0.17763568394E-14  0.91188000000E+02  0.91188000000E+02 0.  0.
    9900012    2    3    3    0    0 -0.29413871470E+02  0.20416809479E+02  0.85882328025E+01  0.54367086285E+02  0.40000004804E+02 0.  0.
         12    1    3    3    0    0  0.29413871470E+02 -0.20416809479E+02 -0.85882328025E+01  0.36820913715E+02  0.00000000000E+00 0. -1.
         11    1    4    4    0    0  0.30371338667E+01  0.68550793661E+01 -0.61926883299E+01  0.97244888942E+01  0.51100000000E-03 0. -1.
        -11    1    4    4    0    0 -0.15285936728E+01  0.21728609586E+01 -0.53879425755E+01  0.60073162743E+01  0.51100000000E-03 0.  1.
        -12    1    4    4    0    0 -0.30922411663E+02  0.11388869154E+02  0.20168863708E+02  0.38635281117E+02  0.00000000000E+00 0.  1.
</event>
<event>
 8    1  0.1229038E-006  0.9118800E+02  0.7816164E-02  0.1184000E+00
        -11   -1    0    0    0    0  0.00000000000E+00  0.00000000000E+00  0.45593999997E+02  0.45594000000E+02  0.51100000000E-03 0. -1.
         11   -1    0    0    0    0 -0.00000000000E+00 -0.00000000000E+00 -0.45593999997E+02  0.45594000000E+02  0.51100000000E-03 0.  1.
         23    2    1    2    0    0  0.00000000000E+00  0.00000000000E+00  0.35527136788E-14  0.91188000000E+02  0.91188000000E+02 0.  0.
    9900012    2    3    3    0    0 -0.63703098237E+01  0.25195873985E+02  0.26083835771E+02  0.54367090157E+02  0.40000013632E+02 0.  0.
        -12    1    3    3    0    0  0.63703098237E+01 -0.25195873985E+02 -0.26083835771E+02  0.36820909843E+02  0.00000000000E+00 0.  1.
         11    1    4    4    0    0 -0.45314536008E+01 -0.44193803010E+01  0.76986215350E+01  0.99666327203E+01  0.51100000000E-03 0. -1.
        -11    1    4    4    0    0 -0.73517520041E+01  0.48339715811E+01  0.16799203631E+02  0.18963880976E+02  0.51100000000E-03 0.  1.
        -12    1    4    4    0    0  0.55128957811E+01  0.24781282705E+02  0.15860106043E+01  0.25436576461E+02  0.00000000000E+00 0.  1.
</event>
<event>
 8    1  0.1229038E-006  0.9118800E+02  0.7816164E-02  0.1184000E+00
        -11   -1    0    0    0    0  0.00000000000E+00  0.00000000000E+00  0.45593999997E+02  0.45594000000E+02  0.51100000000E-03 0.  1.
         11   -1    0    0    0    0 -0.00000000000E+00 -0.00000000000E+00 -0.45593999997E+02  0.45594000000E+02  0.51100000000E-03 0. -1.
         23    2    1    2    0    0  0.00000000000E+00 -0.35527136788E-14  0.00000000000E+00  0.91188000000E+02  0.91188000000E+02 0.  0.
    9900012    2    3    3    0    0 -0.17824509376E+02  0.26354883977E+02 -0.18533406377E+02  0.54367079372E+02  0.39999989045E+02 0.  0.
        -12    1    3    3    0    0  0.17824509376E+02 -0.26354883977E+02  0.18533406377E+02  0.36820920628E+02  0.00000000000E+00 0.  1.
         11    1    4    4    0    0  0.85579866220E+01  0.10019227196E+02 -0.30722924782E+01  0.13530078712E+02  0.51100000000E-03 0. -1.
        -11    1    4    4    0    0 -0.13555590954E+00  0.88465192709E+01 -0.93386349549E+01  0.12864267632E+02  0.51100000000E-03 0.  1.
        -12    1    4    4    0    0 -0.26246940089E+02  0.74891375103E+01 -0.61224789439E+01  0.27972733028E+02  0.00000000000E+00 0.  1.
</event>
<event>
 8    1  0.1229038E-006  0.9118800E+02  0.7816164E-02  0.1184000E+00
        -11   -1    0    0    0    0  0.00000000000E+00  0.00000000000E+00  0.45593999997E+02  0.45594000000E+02  0.51100000000E-03 0. -1.
         11   -1    0    0    0    0 -0.00000000000E+00 -0.00000000000E+00 -0.45593999997E+02  0.45594000000E+02  0.51100000000E-03 0.  1.
         23    2    1    2    0    0 -0.17763568394E-14  0.35527136788E-14 -0.35527136788E-14  0.91188000000E+02  0.91188000000E+02 0.  0.
    9900012    2    3    3    0    0 -0.10085109797E+02  0.28762244008E+02 -0.20659229501E+02  0.54367083613E+02  0.39999998713E+02 0.  0.
         12    1    3    3    0    0  0.10085109797E+02 -0.28762244008E+02  0.20659229501E+02  0.36820916387E+02  0.00000000000E+00 0. -1.
         11    1    4    4    0    0 -0.11837036612E+02 -0.44345318362E+01 -0.12521109677E+02  0.17792096452E+02  0.51100000000E-03 0. -1.
        -11    1    4    4    0    0  0.78545721204E+00  0.24198168279E+02 -0.11648886155E+02  0.26867542501E+02  0.51100000000E-03 0.  1.
         12    1    4    4    0    0  0.96646960304E+00  0.89986075651E+01  0.35107663307E+01  0.97074446603E+01  0.00000000000E+00 0. -1.
</event>
<event>
 8    1  0.1229038E-006  0.9118800E+02  0.7816164E-02  0.1184000E+00
        -11   -1    0    0    0    0  0.00000000000E+00  0.00000000000E+00  0.45593999997E+02  0.45594000000E+02  0.51100000000E-03 0.  1.
         11   -1    0    0    0    0 -0.00000000000E+00 -0.00000000000E+00 -0.45593999997E+02  0.45594000000E+02  0.51100000000E-03 0. -1.
         23    2    1    2    0    0 -0.33306690739E-15  0.17763568394E-14  0.00000000000E+00  0.91188000000E+02  0.91188000000E+02 0.  0.
    9900012    2    3    3    0    0  0.90834121068E+00 -0.14887223416E+02  0.33664902238E+02  0.54367080029E+02  0.39999990543E+02 0.  0.
         12    1    3    3    0    0 -0.90834121068E+00  0.14887223416E+02 -0.33664902238E+02  0.36820919971E+02  0.00000000000E+00 0. -1.
         11    1    4    4    0    0  0.24556494591E+01  0.11520424179E+02  0.16601828670E+02  0.20356107265E+02  0.51100000000E-03 0. -1.
        -11    1    4    4    0    0 -0.65216528437E+01 -0.21056990201E+02  0.11769258560E+02  0.24988882317E+02  0.51100000000E-03 0.  1.
         12    1    4    4    0    0  0.49743445953E+01 -0.53506573931E+01  0.52938150081E+01  0.90220904469E+01  0.00000000000E+00 0. -1.
</event>
<event>
 8    1  0.1229038E-006  0.9118800E+02  0.7816164E-02  0.1184000E+00
        -11   -1    0    0    0    0  0.00000000000E+00  0.00000000000E+00  0.45593999997E+02  0.45594000000E+02  0.51100000000E-03 0.  1.
         11   -1    0    0    0    0 -0.00000000000E+00 -0.00000000000E+00 -0.45593999997E+02  0.45594000000E+02  0.51100000000E-03 0. -1.
         23    2    1    2    0    0 -0.35527136788E-14  0.00000000000E+00 -0.17763568394E-14  0.91188000000E+02  0.91188000000E+02 0.  0.
    9900012    2    3    3    0    0  0.30893586742E+02 -0.12088852171E+02  0.15975878576E+02  0.54367044759E+02  0.39999910137E+02 0.  0.
        -12    1    3    3    0    0 -0.30893586742E+02  0.12088852171E+02 -0.15975878576E+02  0.36820955241E+02  0.00000000000E+00 0.  1.
         11    1    4    4    0    0  0.36416814893E+02 -0.11038359782E+02  0.18957943865E+02  0.42513920420E+02  0.51100000000E-03 0. -1.
        -11    1    4    4    0    0  0.25280659643E+00 -0.46442611832E+01 -0.15374308309E+01  0.48986495011E+01  0.51100000000E-03 0.  1.
        -12    1    4    4    0    0 -0.57760347475E+01  0.35937687945E+01 -0.14446344583E+01  0.69544748379E+01  0.00000000000E+00 0.  1.
</event>
<event>
 8    1  0.1229038E-006  0.9118800E+02  0.7816164E-02  0.1184000E+00
        -11   -1    0    0    0    0  0.00000000000E+00  0.00000000000E+00  0.45593999997E+02  0.45594000000E+02  0.51100000000E-03 0. -1.
         11   -1    0    0    0    0 -0.00000000000E+00 -0.00000000000E+00 -0.45593999997E+02  0.45594000000E+02  0.51100000000E-03 0.  1.
         23    2    1    2    0    0 -0.88817841970E-15  0.00000000000E+00  0.00000000000E+00  0.91188000000E+02  0.91188000000E+02 0.  0.
    9900012    2    3    3    0    0  0.34260234669E+01  0.26224829755E+02 -0.25618372924E+02  0.54367077092E+02  0.39999983847E+02 0.  0.
         12    1    3    3    0    0 -0.34260234669E+01 -0.26224829755E+02  0.25618372924E+02  0.36820922908E+02  0.00000000000E+00 0. -1.
         11    1    4    4    0    0 -0.12239894186E+01  0.21563853253E+02 -0.18463000626E+02  0.28414438400E+02  0.51100000000E-03 0. -1.
        -11    1    4    4    0    0  0.99975686828E+01  0.12095390472E+02 -0.56116892318E+01  0.16665560492E+02  0.51100000000E-03 0.  1.
         12    1    4    4    0    0 -0.53475557972E+01 -0.74344139697E+01 -0.15436830662E+01  0.92870781996E+01  0.00000000000E+00 0. -1.
</event>
<event>
 8    1  0.1229038E-006  0.9118800E+02  0.7816164E-02  0.1184000E+00
        -11   -1    0    0    0    0  0.00000000000E+00  0.00000000000E+00  0.45593999997E+02  0.45594000000E+02  0.51100000000E-03 0. -1.
         11   -1    0    0    0    0 -0.00000000000E+00 -0.00000000000E+00 -0.45593999997E+02  0.45594000000E+02  0.51100000000E-03 0.  1.
         23    2    1    2    0    0  0.00000000000E+00  0.88817841970E-15  0.71054273576E-14  0.91188000000E+02  0.91188000000E+02 0.  0.
    9900012    2    3    3    0    0  0.47054600599E+01 -0.46110827300E+01 -0.36226770816E+02  0.54367049957E+02  0.39999921987E+02 0.  0.
         12    1    3    3    0    0 -0.47054600599E+01  0.46110827300E+01  0.36226770816E+02  0.36820950043E+02  0.00000000000E+00 0. -1.
         11    1    4    4    0    0 -0.11486807764E+02 -0.33804599373E+01 -0.18049961619E+02  0.21660456521E+02  0.51100000000E-03 0.  1.
        -11    1    4    4    0    0  0.10479111117E+02  0.96677452688E+01 -0.62407590335E+01  0.15563551714E+02  0.51100000000E-03 0. -1.
         12    1    4    4    0    0  0.57131567069E+01 -0.10898368061E+02 -0.11936050163E+02  0.17143041721E+02  0.00000000000E+00 0. -1.
</event>
<event>
 8    1  0.1229038E-006  0.9118800E+02  0.7816164E-02  0.1184000E+00
        -11   -1    0    0    0    0  0.00000000000E+00  0.00000000000E+00  0.45593999997E+02  0.45594000000E+02  0.51100000000E-03 0.  1.
         11   -1    0    0    0    0 -0.00000000000E+00 -0.00000000000E+00 -0.45593999997E+02  0.45594000000E+02  0.51100000000E-03 0. -1.
         23    2    1    2    0    0 -0.53290705182E-14  0.35527136788E-14 -0.10658141036E-13  0.91188000000E+02  0.91188000000E+02 0.  0.
    9900012    2    3    3    0    0 -0.11380497850E+02  0.16057949241E+02 -0.31119222345E+02  0.54367089304E+02  0.40000011686E+02 0.  0.
        -12    1    3    3    0    0  0.11380497850E+02 -0.16057949241E+02  0.31119222345E+02  0.36820910696E+02  0.00000000000E+00 0.  1.
         11    1    4    4    0    0 -0.10477493124E+02  0.24820355646E+01 -0.20824154945E+02  0.23443203539E+02  0.51100000000E-03 0. -1.
        -11    1    4    4    0    0  0.88698388803E+01  0.10637444358E+02  0.29923686853E+01  0.14169810685E+02  0.51100000000E-03 0.  1.
        -12    1    4    4    0    0 -0.97728436059E+01  0.29384693188E+01 -0.13287436085E+02  0.16754075080E+02  0.00000000000E+00 0.  1.
</event>
<event>
 8    1  0.1229038E-006  0.9118800E+02  0.7816164E-02  0.1184000E+00
        -11   -1    0    0    0    0  0.00000000000E+00  0.00000000000E+00  0.45593999997E+02  0.45594000000E+02  0.51100000000E-03 0.  1.
         11   -1    0    0    0    0 -0.00000000000E+00 -0.00000000000E+00 -0.45593999997E+02  0.45594000000E+02  0.51100000000E-03 0. -1.
         23    2    1    2    0    0 -0.35527136788E-14  0.00000000000E+00 -0.44408920985E-15  0.91188000000E+02  0.91188000000E+02 0.  0.
    9900012    2    3    3    0    0 -0.27306776548E+02  0.24396709873E+02 -0.38627069702E+01  0.54367081988E+02  0.39999995008E+02 0.  0.
        -12    1    3    3    0    0  0.27306776548E+02 -0.24396709873E+02  0.38627069702E+01  0.36820918012E+02  0.00000000000E+00 0.  1.
         11    1    4    4    0    0 -0.52017949227E+01 -0.55986798835E+01 -0.92885956511E+01  0.12028378789E+02  0.51100000000E-03 0. -1.
        -11    1    4    4    0    0 -0.49067698362E+01  0.18900795761E+02  0.91027664308E+01  0.21544763345E+02  0.51100000000E-03 0.  1.
         12    1    4    4    0    0 -0.17198211789E+02  0.11094593995E+02 -0.36768777499E+01  0.20793939854E+02  0.00000000000E+00 0. -1.
</event>
<event>
 8    1  0.1229038E-006  0.9118800E+02  0.7816164E-02  0.1184000E+00
        -11   -1    0    0    0    0  0.00000000000E+00  0.00000000000E+00  0.45593999997E+02  0.45594000000E+02  0.51100000000E-03 0.  1.
         11   -1    0    0    0    0 -0.00000000000E+00 -0.00000000000E+00 -0.45593999997E+02  0.45594000000E+02  0.51100000000E-03 0. -1.
         23    2    1    2    0    0  0.00000000000E+00  0.00000000000E+00 -0.17763568394E-14  0.91188000000E+02  0.91188000000E+02 0.  0.
    9900012    2    3    3    0    0  0.83436418902E+01 -0.33872305965E+02  0.11782724930E+02  0.54367053812E+02  0.39999930776E+02 0.  0.
        -12    1    3    3    0    0 -0.83436418902E+01  0.33872305965E+02 -0.11782724930E+02  0.36820946188E+02  0.00000000000E+00 0.  1.
         11    1    4    4    0    0 -0.46927690104E+01 -0.89198551766E+01 -0.93763684041E+01  0.13765979154E+02  0.51100000000E-03 0. -1.
        -11    1    4    4    0    0 -0.36017759850E+01  0.87982140346E+00  0.96104403100E+00  0.38302065008E+01  0.51100000000E-03 0.  1.
         12    1    4    4    0    0  0.16638186886E+02 -0.25832272192E+02  0.20198049303E+02  0.36770868158E+02  0.00000000000E+00 0. -1.
</event>
<event>
 8    1  0.1229038E-006  0.9118800E+02  0.7816164E-02  0.1184000E+00
        -11   -1    0    0    0    0  0.00000000000E+00  0.00000000000E+00  0.45593999997E+02  0.45594000000E+02  0.51100000000E-03 0. -1.
         11   -1    0    0    0    0 -0.00000000000E+00 -0.00000000000E+00 -0.45593999997E+02  0.45594000000E+02  0.51100000000E-03 0.  1.
         23    2    1    2    0    0  0.00000000000E+00 -0.35527136788E-14 -0.35527136788E-14  0.91188000000E+02  0.91188000000E+02 0.  0.
    9900012    2    3    3    0    0 -0.22058149731E+02  0.20311058732E+02 -0.21370048375E+02  0.54367081436E+02  0.39999993749E+02 0.  0.
         12    1    3    3    0    0  0.22058149731E+02 -0.20311058732E+02  0.21370048375E+02  0.36820918564E+02  0.00000000000E+00 0. -1.
         11    1    4    4    0    0 -0.24817574274E+02  0.77949421198E+01 -0.59471946826E+01  0.26684119628E+02  0.51100000000E-03 0. -1.
        -11    1    4    4    0    0  0.10971979259E+02  0.63520804610E+01 -0.93519766056E+01  0.15754133481E+02  0.51100000000E-03 0.  1.
        -12    1    4    4    0    0 -0.82125547162E+01  0.61640361509E+01 -0.60708770871E+01  0.11928828327E+02  0.00000000000E+00 0.  1.
</event>
<event>
 8    1  0.1229038E-006  0.9118800E+02  0.7816164E-02  0.1184000E+00
        -11   -1    0    0    0    0  0.00000000000E+00  0.00000000000E+00  0.45593999997E+02  0.45594000000E+02  0.51100000000E-03 0. -1.
         11   -1    0    0    0    0 -0.00000000000E+00 -0.00000000000E+00 -0.45593999997E+02  0.45594000000E+02  0.51100000000E-03 0.  1.
         23    2    1    2    0    0 -0.17763568394E-14  0.00000000000E+00 -0.35527136788E-14  0.91188000000E+02  0.91188000000E+02 0.  0.
    9900012    2    3    3    0    0  0.11722087588E+02  0.25263264061E+02  0.24086088162E+02  0.54367088938E+02  0.40000010853E+02 0.  0.
        -12    1    3    3    0    0 -0.11722087588E+02 -0.25263264061E+02 -0.24086088162E+02  0.36820911062E+02  0.00000000000E+00 0.  1.
         11    1    4    4    0    0  0.14563548716E+02 -0.24615401139E+01  0.72460929932E+01  0.16451808255E+02  0.51100000000E-03 0. -1.
        -11    1    4    4    0    0 -0.11090920663E+02  0.17379846426E+02  0.11808943313E+02  0.23759602804E+02  0.51100000000E-03 0.  1.
         12    1    4    4    0    0  0.82494595364E+01  0.10344957749E+02  0.50310518559E+01  0.14155677880E+02  0.00000000000E+00 0. -1.
</event>
<event>
 8    1  0.1229038E-006  0.9118800E+02  0.7816164E-02  0.1184000E+00
        -11   -1    0    0    0    0  0.00000000000E+00  0.00000000000E+00  0.45593999997E+02  0.45594000000E+02  0.51100000000E-03 0.  1.
         11   -1    0    0    0    0 -0.00000000000E+00 -0.00000000000E+00 -0.45593999997E+02  0.45594000000E+02  0.51100000000E-03 0. -1.
         23    2    1    2    0    0  0.00000000000E+00  0.00000000000E+00  0.13322676296E-14  0.91188000000E+02  0.91188000000E+02 0.  0.
    9900012    2    3    3    0    0 -0.45894375325E+01  0.36377675118E+02 -0.33736082091E+01  0.54367089960E+02  0.40000013181E+02 0.  0.
         12    1    3    3    0    0  0.45894375325E+01 -0.36377675118E+02  0.33736082091E+01  0.36820910040E+02  0.00000000000E+00 0. -1.
         11    1    4    4    0    0  0.80333433553E+01  0.43837795409E+01  0.39135687204E+01  0.99532983939E+01  0.51100000000E-03 0. -1.
        -11    1    4    4    0    0 -0.83917798946E+01  0.28066426925E+02 -0.16440396291E+02  0.33592155641E+02  0.51100000000E-03 0.  1.
        -12    1    4    4    0    0 -0.42310009933E+01  0.39274686521E+01  0.91532193614E+01  0.10821635925E+02  0.00000000000E+00 0.  1.
</event>
<event>
 8    1  0.1229038E-006  0.9118800E+02  0.7816164E-02  0.1184000E+00
        -11   -1    0    0    0    0  0.00000000000E+00  0.00000000000E+00  0.45593999997E+02  0.45594000000E+02  0.51100000000E-03 0. -1.
         11   -1    0    0    0    0 -0.00000000000E+00 -0.00000000000E+00 -0.45593999997E+02  0.45594000000E+02  0.51100000000E-03 0.  1.
         23    2    1    2    0    0 -0.88817841970E-15  0.00000000000E+00  0.00000000000E+00  0.91188000000E+02  0.91188000000E+02 0.  0.
    9900012    2    3    3    0    0 -0.66572003169E+01  0.11492359099E+02 -0.34342192796E+02  0.54367097788E+02  0.40000031026E+02 0.  0.
         12    1    3    3    0    0  0.66572003169E+01 -0.11492359099E+02  0.34342192796E+02  0.36820902212E+02  0.00000000000E+00 0. -1.
         11    1    4    4    0    0 -0.14345169080E+02  0.15198104815E+02 -0.90205772240E+01  0.22762624621E+02  0.51100000000E-03 0. -1.
        -11    1    4    4    0    0 -0.48083016022E+01 -0.17945005275E+01 -0.12891186270E+02  0.13875254238E+02  0.51100000000E-03 0.  1.
         12    1    4    4    0    0  0.12496270365E+02 -0.19112451890E+01 -0.12430429301E+02  0.17729218929E+02  0.00000000000E+00 0. -1.
</event>
<event>
 8    1  0.1229038E-006  0.9118800E+02  0.7816164E-02  0.1184000E+00
        -11   -1    0    0    0    0  0.00000000000E+00  0.00000000000E+00  0.45593999997E+02  0.45594000000E+02  0.51100000000E-03 0.  1.
         11   -1    0    0    0    0 -0.00000000000E+00 -0.00000000000E+00 -0.45593999997E+02  0.45594000000E+02  0.51100000000E-03 0. -1.
         23    2    1    2    0    0  0.35527136788E-14  0.00000000000E+00  0.17763568394E-14  0.91188000000E+02  0.91188000000E+02 0.  0.
    9900012    2    3    3    0    0 -0.24683825081E+02  0.22216890934E+02  0.15902779087E+02  0.54367084123E+02  0.39999999874E+02 0.  0.
         12    1    3    3    0    0  0.24683825081E+02 -0.22216890934E+02 -0.15902779087E+02  0.36820915877E+02  0.00000000000E+00 0. -1.
         11    1    4    4    0    0 -0.82557698324E+01  0.45888387410E+01 -0.92403496569E+01  0.13213600515E+02  0.51100000000E-03 0. -1.
        -11    1    4    4    0    0  0.34653932643E+01  0.11025085133E+02  0.10165748688E+02  0.15391682797E+02  0.51100000000E-03 0.  1.
        -12    1    4    4    0    0 -0.19893448512E+02  0.66029670599E+01  0.14977380056E+02  0.25761800811E+02  0.00000000000E+00 0.  1.
</event>
<event>
 8    1  0.1229038E-006  0.9118800E+02  0.7816164E-02  0.1184000E+00
        -11   -1    0    0    0    0  0.00000000000E+00  0.00000000000E+00  0.45593999997E+02  0.45594000000E+02  0.51100000000E-03 0.  1.
         11   -1    0    0    0    0 -0.00000000000E+00 -0.00000000000E+00 -0.45593999997E+02  0.45594000000E+02  0.51100000000E-03 0. -1.
         23    2    1    2    0    0 -0.35527136788E-14 -0.35527136788E-14  0.35527136788E-14  0.91188000000E+02  0.91188000000E+02 0.  0.
    9900012    2    3    3    0    0  0.16519510732E+02  0.18431117648E+02 -0.27261319060E+02  0.54367084076E+02  0.39999999769E+02 0.  0.
        -12    1    3    3    0    0 -0.16519510732E+02 -0.18431117648E+02  0.27261319060E+02  0.36820915924E+02  0.00000000000E+00 0.  1.
         11    1    4    4    0    0  0.74480565934E+01  0.94219316800E+01 -0.12093198249E+02  0.17043819635E+02  0.51100000000E-03 0. -1.
        -11    1    4    4    0    0 -0.97941114818E+01 -0.26394635122E+01 -0.10626936617E+02  0.14690921328E+02  0.51100000000E-03 0.  1.
         12    1    4    4    0    0  0.18865565621E+02  0.11648649480E+02 -0.45411841938E+01  0.22632343113E+02  0.00000000000E+00 0. -1.
</event>
<event>
 8    1  0.1229038E-006  0.9118800E+02  0.7816164E-02  0.1184000E+00
        -11   -1    0    0    0    0  0.00000000000E+00  0.00000000000E+00  0.45593999997E+02  0.45594000000E+02  0.51100000000E-03 0.  1.
         11   -1    0    0    0    0 -0.00000000000E+00 -0.00000000000E+00 -0.45593999997E+02  0.45594000000E+02  0.51100000000E-03 0. -1.
         23    2    1    2    0    0  0.00000000000E+00 -0.17763568394E-14  0.35527136788E-14  0.91188000000E+02  0.91188000000E+02 0.  0.
    9900012    2    3    3    0    0  0.25590870532E+02 -0.10121451642E+02  0.24463101936E+02  0.54367084826E+02  0.40000001477E+02 0.  0.
         12    1    3    3    0    0 -0.25590870532E+02  0.10121451642E+02 -0.24463101936E+02  0.36820915174E+02  0.00000000000E+00 0. -1.
         11    1    4    4    0    0  0.10576692565E+02 -0.16597664540E+02  0.21998577932E+02  0.29517559606E+02  0.51100000000E-03 0. -1.
        -11    1    4    4    0    0  0.98964735565E+01  0.46537516819E+01  0.10492935656E+02  0.15155833613E+02  0.51100000000E-03 0.  1.
         12    1    4    4    0    0  0.51177044108E+01  0.18224612162E+01 -0.80284116514E+01  0.96936916067E+01  0.00000000000E+00 0. -1.
</event>
<event>
 8    1  0.1229038E-006  0.9118800E+02  0.7816164E-02  0.1184000E+00
        -11   -1    0    0    0    0  0.00000000000E+00  0.00000000000E+00  0.45593999997E+02  0.45594000000E+02  0.51100000000E-03 0. -1.
         11   -1    0    0    0    0 -0.00000000000E+00 -0.00000000000E+00 -0.45593999997E+02  0.45594000000E+02  0.51100000000E-03 0.  1.
         23    2    1    2    0    0  0.00000000000E+00  0.35527136788E-14  0.17763568394E-14  0.91188000000E+02  0.91188000000E+02 0.  0.
    9900012    2    3    3    0    0 -0.25894475445E+02 -0.22805024579E+02 -0.12852524168E+02  0.54367076843E+02  0.39999983279E+02 0.  0.
         12    1    3    3    0    0  0.25894475445E+02  0.22805024579E+02  0.12852524168E+02  0.36820923157E+02  0.00000000000E+00 0. -1.
         11    1    4    4    0    0 -0.15558509528E+02  0.46095002321E+00 -0.87575957830E+01  0.17859876198E+02  0.51100000000E-03 0. -1.
        -11    1    4    4    0    0 -0.25620374725E+01 -0.31474948260E+01  0.99658309957E+01  0.10760508696E+02  0.51100000000E-03 0.  1.
        -12    1    4    4    0    0 -0.77739284450E+01 -0.20118479776E+02 -0.14060759380E+02  0.25746691949E+02  0.00000000000E+00 0.  1.
</event>
<event>
 8    1  0.1229038E-006  0.9118800E+02  0.7816164E-02  0.1184000E+00
        -11   -1    0    0    0    0  0.00000000000E+00  0.00000000000E+00  0.45593999997E+02  0.45594000000E+02  0.51100000000E-03 0. -1.
         11   -1    0    0    0    0 -0.00000000000E+00 -0.00000000000E+00 -0.45593999997E+02  0.45594000000E+02  0.51100000000E-03 0.  1.
         23    2    1    2    0    0  0.00000000000E+00  0.00000000000E+00 -0.13322676296E-14  0.91188000000E+02  0.91188000000E+02 0.  0.
    9900012    2    3    3    0    0 -0.16101221973E+02 -0.33032025714E+02 -0.23272162715E+01  0.54367081932E+02  0.39999994881E+02 0.  0.
        -12    1    3    3    0    0  0.16101221973E+02  0.33032025714E+02  0.23272162715E+01  0.36820918068E+02  0.00000000000E+00 0.  1.
         11    1    4    4    0    0 -0.54691949565E+01 -0.50295191938E+01  0.93035344371E+01  0.11906465054E+02  0.51100000000E-03 0. -1.
        -11    1    4    4    0    0 -0.57458097996E+01 -0.24570107249E+02  0.41644854364E+01  0.25574351207E+02  0.51100000000E-03 0.  1.
        -12    1    4    4    0    0 -0.48862172166E+01 -0.34323992712E+01 -0.15795236145E+02  0.16886265671E+02  0.00000000000E+00 0.  1.
</event>
<event>
 8    1  0.1229038E-006  0.9118800E+02  0.7816164E-02  0.1184000E+00
        -11   -1    0    0    0    0  0.00000000000E+00  0.00000000000E+00  0.45593999997E+02  0.45594000000E+02  0.51100000000E-03 0. -1.
         11   -1    0    0    0    0 -0.00000000000E+00 -0.00000000000E+00 -0.45593999997E+02  0.45594000000E+02  0.51100000000E-03 0.  1.
         23    2    1    2    0    0  0.35527136788E-14  0.71054273576E-14  0.00000000000E+00  0.91188000000E+02  0.91188000000E+02 0.  0.
    9900012    2    3    3    0    0 -0.18551673820E+02 -0.24043489018E+02 -0.20821305130E+02  0.54367072350E+02  0.39999973037E+02 0.  0.
         12    1    3    3    0    0  0.18551673820E+02  0.24043489018E+02  0.20821305130E+02  0.36820927650E+02  0.00000000000E+00 0. -1.
         11    1    4    4    0    0  0.50937905507E+01 -0.69642394154E+01  0.16593007204E+01  0.87863878785E+01  0.51100000000E-03 0. -1.
        -11    1    4    4    0    0 -0.25341427007E+02 -0.21055256119E+02 -0.24250635773E+02  0.40909718511E+02  0.51100000000E-03 0.  1.
        -12    1    4    4    0    0  0.16959626366E+01  0.39760065164E+01  0.17700299225E+01  0.46709659611E+01  0.00000000000E+00 0.  1.
</event>
<event>
 8    1  0.1229038E-006  0.9118800E+02  0.7816164E-02  0.1184000E+00
        -11   -1    0    0    0    0  0.00000000000E+00  0.00000000000E+00  0.45593999997E+02  0.45594000000E+02  0.51100000000E-03 0. -1.
         11   -1    0    0    0    0 -0.00000000000E+00 -0.00000000000E+00 -0.45593999997E+02  0.45594000000E+02  0.51100000000E-03 0.  1.
         23    2    1    2    0    0  0.35527136788E-14  0.00000000000E+00  0.00000000000E+00  0.91188000000E+02  0.91188000000E+02 0.  0.
    9900012    2    3    3    0    0 -0.22268903373E+02 -0.19700263160E+02 -0.21720363846E+02  0.54367100613E+02  0.40000037468E+02 0.  0.
         12    1    3    3    0    0  0.22268903373E+02  0.19700263160E+02  0.21720363846E+02  0.36820899387E+02  0.00000000000E+00 0. -1.
         11    1    4    4    0    0 -0.17334201405E+02  0.99660511896E+00 -0.33625160951E+01  0.17685425493E+02  0.51100000000E-03 0. -1.
        -11    1    4    4    0    0 -0.60049375657E+01 -0.28499126690E+01  0.42265872540E+01  0.78768850104E+01  0.51100000000E-03 0.  1.
        -12    1    4    4    0    0  0.10702355976E+01 -0.17846955610E+02 -0.22584435005E+02  0.28804790110E+02  0.00000000000E+00 0.  1.
</event>
<event>
 8    1  0.1229038E-006  0.9118800E+02  0.7816164E-02  0.1184000E+00
        -11   -1    0    0    0    0  0.00000000000E+00  0.00000000000E+00  0.45593999997E+02  0.45594000000E+02  0.51100000000E-03 0.  1.
         11   -1    0    0    0    0 -0.00000000000E+00 -0.00000000000E+00 -0.45593999997E+02  0.45594000000E+02  0.51100000000E-03 0. -1.
         23    2    1    2    0    0  0.88817841970E-15  0.00000000000E+00  0.00000000000E+00  0.91188000000E+02  0.91188000000E+02 0.  0.
    9900012    2    3    3    0    0  0.54979651466E+01  0.13027538240E+02  0.33997579623E+02  0.54367084835E+02  0.40000001499E+02 0.  0.
        -12    1    3    3    0    0 -0.54979651466E+01 -0.13027538240E+02 -0.33997579623E+02  0.36820915165E+02  0.00000000000E+00 0.  1.
         11    1    4    4    0    0 -0.68303195863E+01  0.16723062060E+02  0.10793521068E+02  0.21043150135E+02  0.51100000000E-03 0. -1.
        -11    1    4    4    0    0  0.17836542193E+02 -0.43141337621E+01  0.18438347998E+02  0.26013970567E+02  0.51100000000E-03 0.  1.
        -12    1    4    4    0    0 -0.55082574599E+01  0.61860994156E+00  0.47657105578E+01  0.73099641330E+01  0.00000000000E+00 0.  1.
</event>
<event>
 8    1  0.1229038E-006  0.9118800E+02  0.7816164E-02  0.1184000E+00
        -11   -1    0    0    0    0  0.00000000000E+00  0.00000000000E+00  0.45593999997E+02  0.45594000000E+02  0.51100000000E-03 0.  1.
         11   -1    0    0    0    0 -0.00000000000E+00 -0.00000000000E+00 -0.45593999997E+02  0.45594000000E+02  0.51100000000E-03 0. -1.
         23    2    1    2    0    0  0.00000000000E+00  0.00000000000E+00  0.88817841970E-15  0.91188000000E+02  0.91188000000E+02 0.  0.
    9900012    2    3    3    0    0  0.30814830982E+02  0.19988616935E+02 -0.25848831688E+01  0.54367078822E+02  0.39999987790E+02 0.  0.
        -12    1    3    3    0    0 -0.30814830982E+02 -0.19988616935E+02  0.25848831688E+01  0.36820921178E+02  0.00000000000E+00 0.  1.
         11    1    4    4    0    0  0.54989526753E+01  0.10781918995E+02  0.16270282055E+02  0.20278321828E+02  0.51100000000E-03 0. -1.
        -11    1    4    4    0    0 -0.15044220590E+00 -0.29665105349E-01  0.67556540962E+00  0.69274942049E+00  0.51100000000E-03 0.  1.
        -12    1    4    4    0    0  0.25466320513E+02  0.92363630450E+01 -0.19530730634E+02  0.33396007573E+02  0.00000000000E+00 0.  1.
</event>
<event>
 8    1  0.1229038E-006  0.9118800E+02  0.7816164E-02  0.1184000E+00
        -11   -1    0    0    0    0  0.00000000000E+00  0.00000000000E+00  0.45593999997E+02  0.45594000000E+02  0.51100000000E-03 0.  1.
         11   -1    0    0    0    0 -0.00000000000E+00 -0.00000000000E+00 -0.45593999997E+02  0.45594000000E+02  0.51100000000E-03 0. -1.
         23    2    1    2    0    0 -0.35527136788E-14  0.71054273576E-14  0.00000000000E+00  0.91188000000E+02  0.91188000000E+02 0.  0.
    9900012    2    3    3    0    0 -0.20765685283E+02  0.29781684145E+02 -0.61335233338E+01  0.54367048026E+02  0.39999917584E+02 0.  0.
        -12    1    3    3    0    0  0.20765685283E+02 -0.29781684145E+02  0.61335233338E+01  0.36820951974E+02  0.00000000000E+00 0.  1.
         11    1    4    4    0    0 -0.36093240369E+01 -0.52333333370E+01 -0.65114632371E+01  0.91002281053E+01  0.51100000000E-03 0. -1.
        -11    1    4    4    0    0 -0.17522593820E+01  0.16187885471E+02  0.99989125266E+01  0.19107493319E+02  0.51100000000E-03 0.  1.
         12    1    4    4    0    0 -0.15404101864E+02  0.18827132011E+02 -0.96209726233E+01  0.26159326601E+02  0.00000000000E+00 0. -1.
</event>
<event>
 8    1  0.1229038E-006  0.9118800E+02  0.7816164E-02  0.1184000E+00
        -11   -1    0    0    0    0  0.00000000000E+00  0.00000000000E+00  0.45593999997E+02  0.45594000000E+02  0.51100000000E-03 0.  1.
         11   -1    0    0    0    0 -0.00000000000E+00 -0.00000000000E+00 -0.45593999997E+02  0.45594000000E+02  0.51100000000E-03 0. -1.
         23    2    1    2    0    0  0.00000000000E+00 -0.88817841970E-15  0.00000000000E+00  0.91188000000E+02  0.91188000000E+02 0.  0.
    9900012    2    3    3    0    0  0.56031877719E+01 -0.49592430230E+01 -0.36052606391E+02  0.54367078880E+02  0.39999987922E+02 0.  0.
        -12    1    3    3    0    0 -0.56031877719E+01  0.49592430230E+01  0.36052606391E+02  0.36820921120E+02  0.00000000000E+00 0.  1.
         11    1    4    4    0    0  0.50550187831E+01 -0.11291909384E+02 -0.28612710438E+02  0.31172866909E+02  0.51100000000E-03 0. -1.
        -11    1    4    4    0    0  0.44848348193E+01 -0.34352184792E+00  0.61083521006E+01  0.75857574613E+01  0.51100000000E-03 0.  1.
         12    1    4    4    0    0 -0.39366658305E+01  0.66761882087E+01 -0.13548248053E+02  0.15608454509E+02  0.00000000000E+00 0. -1.
</event>
<event>
 8    1  0.1229038E-006  0.9118800E+02  0.7816164E-02  0.1184000E+00
        -11   -1    0    0    0    0  0.00000000000E+00  0.00000000000E+00  0.45593999997E+02  0.45594000000E+02  0.51100000000E-03 0. -1.
         11   -1    0    0    0    0 -0.00000000000E+00 -0.00000000000E+00 -0.45593999997E+02  0.45594000000E+02  0.51100000000E-03 0.  1.
         23    2    1    2    0    0 -0.17763568394E-14  0.35527136788E-14  0.00000000000E+00  0.91188000000E+02  0.91188000000E+02 0.  0.
    9900012    2    3    3    0    0 -0.13618506630E+02 -0.31884726131E+02 -0.12396791724E+02  0.54367083006E+02  0.39999997328E+02 0.  0.
        -12    1    3    3    0    0  0.13618506630E+02  0.31884726131E+02  0.12396791724E+02  0.36820916994E+02  0.00000000000E+00 0.  1.
         11    1    4    4    0    0 -0.80222239900E+01 -0.25630969522E+02 -0.13209351410E+02  0.29929745093E+02  0.51100000000E-03 0. -1.
        -11    1    4    4    0    0 -0.81782599194E+01  0.12342105533E+01  0.95570024254E+01  0.12638967783E+02  0.51100000000E-03 0.  1.
        -12    1    4    4    0    0  0.25819772795E+01 -0.74879671616E+01 -0.87444427400E+01  0.11798370130E+02  0.00000000000E+00 0.  1.
</event>
<event>
 8    1  0.1229038E-006  0.9118800E+02  0.7816164E-02  0.1184000E+00
        -11   -1    0    0    0    0  0.00000000000E+00  0.00000000000E+00  0.45593999997E+02  0.45594000000E+02  0.51100000000E-03 0. -1.
         11   -1    0    0    0    0 -0.00000000000E+00 -0.00000000000E+00 -0.45593999997E+02  0.45594000000E+02  0.51100000000E-03 0.  1.
         23    2    1    2    0    0  0.35527136788E-14  0.00000000000E+00  0.00000000000E+00  0.91188000000E+02  0.91188000000E+02 0.  0.
    9900012    2    3    3    0    0  0.28630499943E+02 -0.12561764084E+02 -0.19449311266E+02  0.54367093539E+02  0.40000021342E+02 0.  0.
         12    1    3    3    0    0 -0.28630499943E+02  0.12561764084E+02  0.19449311266E+02  0.36820906461E+02  0.00000000000E+00 0. -1.
         11    1    4    4    0    0  0.10229501971E+02 -0.18977698327E+01 -0.55389484010E+01  0.11786610647E+02  0.51100000000E-03 0. -1.
        -11    1    4    4    0    0 -0.10123710646E+01 -0.16611547060E+02 -0.14779873961E+02  0.22257876482E+02  0.51100000000E-03 0.  1.
        -12    1    4    4    0    0  0.19413369037E+02  0.59475528090E+01  0.86951109597E+00  0.20322606410E+02  0.00000000000E+00 0.  1.
</event>
<event>
 8    1  0.1229038E-006  0.9118800E+02  0.7816164E-02  0.1184000E+00
        -11   -1    0    0    0    0  0.00000000000E+00  0.00000000000E+00  0.45593999997E+02  0.45594000000E+02  0.51100000000E-03 0.  1.
         11   -1    0    0    0    0 -0.00000000000E+00 -0.00000000000E+00 -0.45593999997E+02  0.45594000000E+02  0.51100000000E-03 0. -1.
         23    2    1    2    0    0  0.00000000000E+00  0.17763568394E-14 -0.17763568394E-14  0.91188000000E+02  0.91188000000E+02 0.  0.
    9900012    2    3    3    0    0  0.33426570555E+02 -0.10592626936E+02  0.11235846149E+02  0.54367033104E+02  0.39999883566E+02 0.  0.
         12    1    3    3    0    0 -0.33426570555E+02  0.10592626936E+02 -0.11235846149E+02  0.36820966896E+02  0.00000000000E+00 0. -1.
         11    1    4    4    0    0 -0.37880762451E+01  0.12263493580E+00 -0.18285044589E+01  0.42080862376E+01  0.51100000000E-03 0. -1.
        -11    1    4    4    0    0  0.37787775058E+02 -0.90887822937E-01  0.10192987380E+02  0.39138487405E+02  0.51100000000E-03 0.  1.
        -12    1    4    4    0    0 -0.57312825708E+00 -0.10624374049E+02  0.28713632279E+01  0.11020459460E+02  0.00000000000E+00 0.  1.
</event>
<event>
 8    1  0.1229038E-006  0.9118800E+02  0.7816164E-02  0.1184000E+00
        -11   -1    0    0    0    0  0.00000000000E+00  0.00000000000E+00  0.45593999997E+02  0.45594000000E+02  0.51100000000E-03 0. -1.
         11   -1    0    0    0    0 -0.00000000000E+00 -0.00000000000E+00 -0.45593999997E+02  0.45594000000E+02  0.51100000000E-03 0.  1.
         23    2    1    2    0    0  0.00000000000E+00  0.00000000000E+00  0.00000000000E+00  0.91188000000E+02  0.91188000000E+02 0.  0.
    9900012    2    3    3    0    0 -0.16959807012E+02 -0.22379372314E+02  0.23818230539E+02  0.54367089296E+02  0.40000011668E+02 0.  0.
        -12    1    3    3    0    0  0.16959807012E+02  0.22379372314E+02 -0.23818230539E+02  0.36820910704E+02  0.00000000000E+00 0.  1.
         11    1    4    4    0    0  0.38901713452E+00 -0.78741245328E+01  0.49940789956E+01  0.93324164483E+01  0.51100000000E-03 0. -1.
        -11    1    4    4    0    0 -0.65011774522E+01 -0.16639120564E+02  0.26224509553E+02  0.31730908322E+02  0.51100000000E-03 0.  1.
        -12    1    4    4    0    0 -0.10847646695E+02  0.21338727827E+01 -0.74003580096E+01  0.13303764525E+02  0.00000000000E+00 0.  1.
</event>
<event>
 8    1  0.1229038E-006  0.9118800E+02  0.7816164E-02  0.1184000E+00
        -11   -1    0    0    0    0  0.00000000000E+00  0.00000000000E+00  0.45593999997E+02  0.45594000000E+02  0.51100000000E-03 0.  1.
         11   -1    0    0    0    0 -0.00000000000E+00 -0.00000000000E+00 -0.45593999997E+02  0.45594000000E+02  0.51100000000E-03 0. -1.
         23    2    1    2    0    0  0.00000000000E+00  0.35527136788E-14 -0.88817841970E-15  0.91188000000E+02  0.91188000000E+02 0.  0.
    9900012    2    3    3    0    0 -0.30216521614E+02  0.20520076174E+02  0.46549026284E+01  0.54367084434E+02  0.40000000583E+02 0.  0.
        -12    1    3    3    0    0  0.30216521614E+02 -0.20520076174E+02 -0.46549026284E+01  0.36820915566E+02  0.00000000000E+00 0.  1.
         11    1    4    4    0    0 -0.17804181909E+02  0.14442819290E+02  0.33194457646E+01  0.23164685254E+02  0.51100000000E-03 0. -1.
        -11    1    4    4    0    0 -0.12259274334E+02 -0.93469470725E+01 -0.16059359899E+01  0.15499492167E+02  0.51100000000E-03 0.  1.
        -12    1    4    4    0    0 -0.15306537132E+00  0.15424203957E+02  0.29413928537E+01  0.15702907012E+02  0.00000000000E+00 0.  1.
</event>
<event>
 8    1  0.1229038E-006  0.9118800E+02  0.7816164E-02  0.1184000E+00
        -11   -1    0    0    0    0  0.00000000000E+00  0.00000000000E+00  0.45593999997E+02  0.45594000000E+02  0.51100000000E-03 0. -1.
         11   -1    0    0    0    0 -0.00000000000E+00 -0.00000000000E+00 -0.45593999997E+02  0.45594000000E+02  0.51100000000E-03 0.  1.
         23    2    1    2    0    0  0.00000000000E+00  0.00000000000E+00  0.00000000000E+00  0.91188000000E+02  0.91188000000E+02 0.  0.
    9900012    2    3    3    0    0  0.22412934585E+02  0.21112656713E+02 -0.20191717042E+02  0.54366955103E+02  0.39999705748E+02 0.  0.
         12    1    3    3    0    0 -0.22412934585E+02 -0.21112656713E+02  0.20191717042E+02  0.36821044897E+02  0.00000000000E+00 0. -1.
         11    1    4    4    0    0 -0.15335002664E+01  0.20476196734E+02 -0.52960384145E+01  0.21205524726E+02  0.51100000000E-03 0. -1.
        -11    1    4    4    0    0  0.14306130847E+02 -0.82287905466E+01 -0.90053879393E+01  0.18800941090E+02  0.51100000000E-03 0.  1.
        -12    1    4    4    0    0  0.96403040046E+01  0.88652505254E+01 -0.58902906886E+01  0.14360489287E+02  0.00000000000E+00 0.  1.
</event>
<event>
 8    1  0.1229038E-006  0.9118800E+02  0.7816164E-02  0.1184000E+00
        -11   -1    0    0    0    0  0.00000000000E+00  0.00000000000E+00  0.45593999997E+02  0.45594000000E+02  0.51100000000E-03 0.  1.
         11   -1    0    0    0    0 -0.00000000000E+00 -0.00000000000E+00 -0.45593999997E+02  0.45594000000E+02  0.51100000000E-03 0. -1.
         23    2    1    2    0    0  0.00000000000E+00 -0.17763568394E-14  0.00000000000E+00  0.91188000000E+02  0.91188000000E+02 0.  0.
    9900012    2    3    3    0    0 -0.47373595024E+01 -0.11429013239E+02 -0.34680190264E+02  0.54367075033E+02  0.39999979154E+02 0.  0.
        -12    1    3    3    0    0  0.47373595024E+01  0.11429013239E+02  0.34680190264E+02  0.36820924967E+02  0.00000000000E+00 0.  1.
         11    1    4    4    0    0  0.39508925391E+01 -0.58627794299E+00 -0.76064558186E+00  0.40659384703E+01  0.51100000000E-03 0. -1.
        -11    1    4    4    0    0 -0.13370231190E+02  0.88901937169E+01 -0.98923347252E+01  0.18858868285E+02  0.51100000000E-03 0.  1.
         12    1    4    4    0    0  0.46819791489E+01 -0.19732929013E+02 -0.24027209956E+02  0.31442268278E+02  0.00000000000E+00 0. -1.
</event>
<event>
 8    1  0.1229038E-006  0.9118800E+02  0.7816164E-02  0.1184000E+00
        -11   -1    0    0    0    0  0.00000000000E+00  0.00000000000E+00  0.45593999997E+02  0.45594000000E+02  0.51100000000E-03 0.  1.
         11   -1    0    0    0    0 -0.00000000000E+00 -0.00000000000E+00 -0.45593999997E+02  0.45594000000E+02  0.51100000000E-03 0. -1.
         23    2    1    2    0    0 -0.17763568394E-14  0.00000000000E+00  0.35527136788E-14  0.91188000000E+02  0.91188000000E+02 0.  0.
    9900012    2    3    3    0    0  0.12492350781E+02 -0.25145643694E+02 -0.23820493219E+02  0.54367107534E+02  0.40000053245E+02 0.  0.
        -12    1    3    3    0    0 -0.12492350781E+02  0.25145643694E+02  0.23820493219E+02  0.36820892466E+02  0.00000000000E+00 0.  1.
         11    1    4    4    0    0  0.61149958430E+01 -0.32701883519E+01 -0.16495735273E+02  0.17894037792E+02  0.51100000000E-03 0. -1.
        -11    1    4    4    0    0 -0.78715576057E+01 -0.21271430511E+01 -0.88994460215E+01  0.12070057848E+02  0.51100000000E-03 0.  1.
        -12    1    4    4    0    0  0.14248912543E+02 -0.19748312291E+02  0.15746880757E+01  0.24403011895E+02  0.00000000000E+00 0.  1.
</event>
<event>
 8    1  0.1229038E-006  0.9118800E+02  0.7816164E-02  0.1184000E+00
        -11   -1    0    0    0    0  0.00000000000E+00  0.00000000000E+00  0.45593999997E+02  0.45594000000E+02  0.51100000000E-03 0.  1.
         11   -1    0    0    0    0 -0.00000000000E+00 -0.00000000000E+00 -0.45593999997E+02  0.45594000000E+02  0.51100000000E-03 0. -1.
         23    2    1    2    0    0  0.00000000000E+00 -0.17763568394E-14  0.00000000000E+00  0.91188000000E+02  0.91188000000E+02 0.  0.
    9900012    2    3    3    0    0  0.16270071279E+02 -0.12906656485E+02  0.30405313275E+02  0.54367080995E+02  0.39999992743E+02 0.  0.
         12    1    3    3    0    0 -0.16270071279E+02  0.12906656485E+02 -0.30405313275E+02  0.36820919005E+02  0.00000000000E+00 0. -1.
         11    1    4    4    0    0 -0.65531107939E+01 -0.68394119170E+00  0.32689363983E+01  0.73550650621E+01  0.51100000000E-03 0. -1.
        -11    1    4    4    0    0  0.26963953468E+02 -0.14970029173E+02  0.15839598257E+02  0.34670584554E+02  0.51100000000E-03 0.  1.
        -12    1    4    4    0    0 -0.41407713952E+01  0.27473138799E+01  0.11296778619E+02  0.12341431379E+02  0.00000000000E+00 0.  1.
</event>
<event>
 8    1  0.1229038E-006  0.9118800E+02  0.7816164E-02  0.1184000E+00
        -11   -1    0    0    0    0  0.00000000000E+00  0.00000000000E+00  0.45593999997E+02  0.45594000000E+02  0.51100000000E-03 0. -1.
         11   -1    0    0    0    0 -0.00000000000E+00 -0.00000000000E+00 -0.45593999997E+02  0.45594000000E+02  0.51100000000E-03 0.  1.
         23    2    1    2    0    0  0.88817841970E-15  0.00000000000E+00  0.00000000000E+00  0.91188000000E+02  0.91188000000E+02 0.  0.
    9900012    2    3    3    0    0  0.12866585092E+01  0.83281504181E+01  0.35843665744E+02  0.54367055505E+02  0.39999934635E+02 0.  0.
        -12    1    3    3    0    0 -0.12866585092E+01 -0.83281504181E+01 -0.35843665744E+02  0.36820944495E+02  0.00000000000E+00 0.  1.
         11    1    4    4    0    0 -0.14392254470E+02  0.78260790304E+01  0.31394537600E+02  0.35411883501E+02  0.51100000000E-03 0. -1.
        -11    1    4    4    0    0  0.84997253802E+00 -0.19960936783E+01 -0.16518417945E+01  0.27267975471E+01  0.51100000000E-03 0.  1.
         12    1    4    4    0    0  0.14828940441E+02  0.24981650659E+01  0.61009699389E+01  0.16228374457E+02  0.00000000000E+00 0. -1.
</event>
<event>
 8    1  0.1229038E-006  0.9118800E+02  0.7816164E-02  0.1184000E+00
        -11   -1    0    0    0    0  0.00000000000E+00  0.00000000000E+00  0.45593999997E+02  0.45594000000E+02  0.51100000000E-03 0.  1.
         11   -1    0    0    0    0 -0.00000000000E+00 -0.00000000000E+00 -0.45593999997E+02  0.45594000000E+02  0.51100000000E-03 0. -1.
         23    2    1    2    0    0  0.00000000000E+00  0.00000000000E+00  0.00000000000E+00  0.91188000000E+02  0.91188000000E+02 0.  0.
    9900012    2    3    3    0    0  0.23107133984E+02  0.32010583888E+01  0.28488475952E+02  0.54367086407E+02  0.40000005081E+02 0.  0.
         12    1    3    3    0    0 -0.23107133984E+02 -0.32010583888E+01 -0.28488475952E+02  0.36820913593E+02  0.00000000000E+00 0. -1.
         11    1    4    4    0    0 -0.60320581303E+01 -0.64643660539E+01  0.24715736914E+01  0.91805463094E+01  0.51100000000E-03 0. -1.
        -11    1    4    4    0    0  0.17266819457E+01 -0.15249326464E+01  0.12372829727E+02  0.12585458507E+02  0.51100000000E-03 0.  1.
        -12    1    4    4    0    0  0.27412510169E+02  0.11190357089E+02  0.13644072534E+02  0.32601081590E+02  0.00000000000E+00 0.  1.
</event>
<event>
 8    1  0.1229038E-006  0.9118800E+02  0.7816164E-02  0.1184000E+00
        -11   -1    0    0    0    0  0.00000000000E+00  0.00000000000E+00  0.45593999997E+02  0.45594000000E+02  0.51100000000E-03 0. -1.
         11   -1    0    0    0    0 -0.00000000000E+00 -0.00000000000E+00 -0.45593999997E+02  0.45594000000E+02  0.51100000000E-03 0.  1.
         23    2    1    2    0    0  0.00000000000E+00  0.17763568394E-14  0.44408920985E-15  0.91188000000E+02  0.91188000000E+02 0.  0.
    9900012    2    3    3    0    0  0.34454343882E+02 -0.12947818757E+02 -0.10161539985E+01  0.54367076711E+02  0.39999982978E+02 0.  0.
        -12    1    3    3    0    0 -0.34454343882E+02  0.12947818757E+02  0.10161539985E+01  0.36820923289E+02  0.00000000000E+00 0.  1.
         11    1    4    4    0    0  0.26964182047E+02  0.37019634633E+01  0.57825958362E+01  0.27824630489E+02  0.51100000000E-03 0. -1.
        -11    1    4    4    0    0  0.93374752353E+01 -0.39045735672E+01 -0.89197193238E+01  0.13490571952E+02  0.51100000000E-03 0.  1.
         12    1    4    4    0    0 -0.18473134004E+01 -0.12745208653E+02  0.21209694891E+01  0.13051874271E+02  0.00000000000E+00 0. -1.
</event>
<event>
 8    1  0.1229038E-006  0.9118800E+02  0.7816164E-02  0.1184000E+00
        -11   -1    0    0    0    0  0.00000000000E+00  0.00000000000E+00  0.45593999997E+02  0.45594000000E+02  0.51100000000E-03 0.  1.
         11   -1    0    0    0    0 -0.00000000000E+00 -0.00000000000E+00 -0.45593999997E+02  0.45594000000E+02  0.51100000000E-03 0. -1.
         23    2    1    2    0    0  0.71054273576E-14  0.00000000000E+00 -0.88817841970E-15  0.91188000000E+02  0.91188000000E+02 0.  0.
    9900012    2    3    3    0    0 -0.36091927762E+02  0.45244006427E+01 -0.57167471814E+01  0.54367100377E+02  0.40000036929E+02 0.  0.
        -12    1    3    3    0    0  0.36091927762E+02 -0.45244006427E+01  0.57167471814E+01  0.36820899623E+02  0.00000000000E+00 0.  1.
         11    1    4    4    0    0  0.26288935161E+01  0.27902491832E-01 -0.10861527190E+01  0.28445716124E+01  0.51100000000E-03 0. -1.
        -11    1    4    4    0    0 -0.28541900056E+01  0.35734847931E+01  0.11356903231E+02  0.12243179547E+02  0.51100000000E-03 0.  1.
         12    1    4    4    0    0 -0.35866631272E+02  0.92301335775E+00 -0.15987497693E+02  0.39279349218E+02  0.00000000000E+00 0. -1.
</event>
<event>
 8    1  0.1229038E-006  0.9118800E+02  0.7816164E-02  0.1184000E+00
        -11   -1    0    0    0    0  0.00000000000E+00  0.00000000000E+00  0.45593999997E+02  0.45594000000E+02  0.51100000000E-03 0. -1.
         11   -1    0    0    0    0 -0.00000000000E+00 -0.00000000000E+00 -0.45593999997E+02  0.45594000000E+02  0.51100000000E-03 0.  1.
         23    2    1    2    0    0  0.00000000000E+00  0.53290705182E-14  0.00000000000E+00  0.91188000000E+02  0.91188000000E+02 0.  0.
    9900012    2    3    3    0    0 -0.11385856470E+02  0.13654213846E+02 -0.32244447681E+02  0.54367086247E+02  0.40000004718E+02 0.  0.
         12    1    3    3    0    0  0.11385856470E+02 -0.13654213846E+02  0.32244447681E+02  0.36820913753E+02  0.00000000000E+00 0. -1.
         11    1    4    4    0    0 -0.14173847415E+02 -0.25831165359E+01 -0.66001036823E+01  0.15847138873E+02  0.51100000000E-03 0. -1.
        -11    1    4    4    0    0 -0.39280440234E+01 -0.41329815226E+01 -0.11474693311E+02  0.12813260825E+02  0.51100000000E-03 0.  1.
        -12    1    4    4    0    0  0.67160349682E+01  0.20370311904E+02 -0.14169650688E+02  0.25706686550E+02  0.00000000000E+00 0.  1.
</event>
<event>
 8    1  0.1229038E-006  0.9118800E+02  0.7816164E-02  0.1184000E+00
        -11   -1    0    0    0    0  0.00000000000E+00  0.00000000000E+00  0.45593999997E+02  0.45594000000E+02  0.51100000000E-03 0. -1.
         11   -1    0    0    0    0 -0.00000000000E+00 -0.00000000000E+00 -0.45593999997E+02  0.45594000000E+02  0.51100000000E-03 0.  1.
         23    2    1    2    0    0 -0.17763568394E-14  0.71054273576E-14  0.44408920985E-15  0.91188000000E+02  0.91188000000E+02 0.  0.
    9900012    2    3    3    0    0  0.15305990460E+02 -0.33474861303E+02  0.96950132211E+00  0.54367087246E+02  0.40000006994E+02 0.  0.
        -12    1    3    3    0    0 -0.15305990460E+02  0.33474861303E+02 -0.96950132211E+00  0.36820912754E+02  0.00000000000E+00 0.  1.
         11    1    4    4    0    0  0.15152078069E+01  0.55146081743E+01 -0.53910729023E+01  0.78594163469E+01  0.51100000000E-03 0. -1.
        -11    1    4    4    0    0  0.54578678556E+01 -0.75814016447E+01 -0.66901432667E+01  0.11490169260E+02  0.51100000000E-03 0.  1.
         12    1    4    4    0    0  0.83329147971E+01 -0.31408067833E+02  0.13050717491E+02  0.35017501639E+02  0.00000000000E+00 0. -1.
</event>
<event>
 8    1  0.1229038E-006  0.9118800E+02  0.7816164E-02  0.1184000E+00
        -11   -1    0    0    0    0  0.00000000000E+00  0.00000000000E+00  0.45593999997E+02  0.45594000000E+02  0.51100000000E-03 0.  1.
         11   -1    0    0    0    0 -0.00000000000E+00 -0.00000000000E+00 -0.45593999997E+02  0.45594000000E+02  0.51100000000E-03 0. -1.
         23    2    1    2    0    0  0.35527136788E-14  0.00000000000E+00  0.00000000000E+00  0.91188000000E+02  0.91188000000E+02 0.  0.
    9900012    2    3    3    0    0  0.22865902302E+02  0.23233531736E+02  0.17121121078E+02  0.54367091918E+02  0.40000017646E+02 0.  0.
         12    1    3    3    0    0 -0.22865902302E+02 -0.23233531736E+02 -0.17121121078E+02  0.36820908082E+02  0.00000000000E+00 0. -1.
         11    1    4    4    0    0  0.13509290690E+00  0.58827988892E+01 -0.52239843034E+01  0.78686456984E+01  0.51100000000E-03 0. -1.
        -11    1    4    4    0    0  0.48769008060E+00  0.87320604309E+01  0.20835088709E+02  0.22596186465E+02  0.51100000000E-03 0.  1.
        -12    1    4    4    0    0  0.22243119315E+02  0.86186724160E+01  0.15100166724E+01  0.23902259755E+02  0.00000000000E+00 0.  1.
</event>
<event>
 8    1  0.1229038E-006  0.9118800E+02  0.7816164E-02  0.1184000E+00
        -11   -1    0    0    0    0  0.00000000000E+00  0.00000000000E+00  0.45593999997E+02  0.45594000000E+02  0.51100000000E-03 0. -1.
         11   -1    0    0    0    0 -0.00000000000E+00 -0.00000000000E+00 -0.45593999997E+02  0.45594000000E+02  0.51100000000E-03 0.  1.
         23    2    1    2    0    0  0.00000000000E+00  0.00000000000E+00  0.35527136788E-14  0.91188000000E+02  0.91188000000E+02 0.  0.
    9900012    2    3    3    0    0  0.24904467512E+02 -0.19912014239E+02  0.18413636465E+02  0.54367043725E+02  0.39999907780E+02 0.  0.
        -12    1    3    3    0    0 -0.24904467512E+02  0.19912014239E+02 -0.18413636465E+02  0.36820956275E+02  0.00000000000E+00 0.  1.
         11    1    4    4    0    0  0.14594670240E+02 -0.26588399412E+02  0.19332112099E+02  0.35967734724E+02  0.51100000000E-03 0. -1.
        -11    1    4    4    0    0 -0.20997065171E+01  0.55208676376E+01 -0.52425893241E+00  0.59298899331E+01  0.51100000000E-03 0.  1.
         12    1    4    4    0    0  0.12409503790E+02  0.11555175350E+01 -0.39421670209E+00  0.12469419068E+02  0.00000000000E+00 0. -1.
</event>
<event>
 8    1  0.1229038E-006  0.9118800E+02  0.7816164E-02  0.1184000E+00
        -11   -1    0    0    0    0  0.00000000000E+00  0.00000000000E+00  0.45593999997E+02  0.45594000000E+02  0.51100000000E-03 0. -1.
         11   -1    0    0    0    0 -0.00000000000E+00 -0.00000000000E+00 -0.45593999997E+02  0.45594000000E+02  0.51100000000E-03 0.  1.
         23    2    1    2    0    0 -0.13322676296E-14  0.18873791419E-14  0.71054273576E-14  0.91188000000E+02  0.91188000000E+02 0.  0.
    9900012    2    3    3    0    0  0.29851717293E+01  0.91988714570E+00 -0.36688117090E+02  0.54367144793E+02  0.40000138184E+02 0.  0.
         12    1    3    3    0    0 -0.29851717293E+01 -0.91988714570E+00  0.36688117090E+02  0.36820855207E+02  0.00000000000E+00 0. -1.
         11    1    4    4    0    0 -0.47628315413E+01  0.85042386116E+01 -0.13229980721E+02  0.16432864290E+02  0.51100000000E-03 0.  1.
        -11    1    4    4    0    0 -0.42729387557E+01 -0.70962410680E+01  0.30473630261E+01  0.88261579739E+01  0.51100000000E-03 0. -1.
         12    1    4    4    0    0  0.12020942026E+02 -0.48811039789E+00 -0.26505499395E+02  0.29108122529E+02  0.00000000000E+00 0. -1.
</event>
<event>
 8    1  0.1229038E-006  0.9118800E+02  0.7816164E-02  0.1184000E+00
        -11   -1    0    0    0    0  0.00000000000E+00  0.00000000000E+00  0.45593999997E+02  0.45594000000E+02  0.51100000000E-03 0.  1.
         11   -1    0    0    0    0 -0.00000000000E+00 -0.00000000000E+00 -0.45593999997E+02  0.45594000000E+02  0.51100000000E-03 0. -1.
         23    2    1    2    0    0  0.00000000000E+00 -0.35527136788E-14  0.00000000000E+00  0.91188000000E+02  0.91188000000E+02 0.  0.
    9900012    2    3    3    0    0 -0.21005842041E+02  0.29545236415E+02  0.64509213491E+01  0.54367071428E+02  0.39999970934E+02 0.  0.
         12    1    3    3    0    0  0.21005842041E+02 -0.29545236415E+02 -0.64509213491E+01  0.36820928572E+02  0.00000000000E+00 0. -1.
         11    1    4    4    0    0  0.20828936178E+01  0.67460617732E+01 -0.86380813131E+01  0.11156354436E+02  0.51100000000E-03 0. -1.
        -11    1    4    4    0    0 -0.10841433358E+02  0.22448484204E+02  0.15892936134E+01  0.24979931440E+02  0.51100000000E-03 0.  1.
        -12    1    4    4    0    0 -0.12247302301E+02  0.35069043823E+00  0.13499709049E+02  0.18230785552E+02  0.00000000000E+00 0.  1.
</event>
<event>
 8    1  0.1229038E-006  0.9118800E+02  0.7816164E-02  0.1184000E+00
        -11   -1    0    0    0    0  0.00000000000E+00  0.00000000000E+00  0.45593999997E+02  0.45594000000E+02  0.51100000000E-03 0.  1.
         11   -1    0    0    0    0 -0.00000000000E+00 -0.00000000000E+00 -0.45593999997E+02  0.45594000000E+02  0.51100000000E-03 0. -1.
         23    2    1    2    0    0 -0.17763568394E-14  0.71054273576E-14  0.00000000000E+00  0.91188000000E+02  0.91188000000E+02 0.  0.
    9900012    2    3    3    0    0 -0.15206624819E+02 -0.31947423373E+02  0.10193286997E+02  0.54367049464E+02  0.39999920863E+02 0.  0.
        -12    1    3    3    0    0  0.15206624819E+02  0.31947423373E+02 -0.10193286997E+02  0.36820950536E+02  0.00000000000E+00 0.  1.
         11    1    4    4    0    0 -0.92229704797E+01 -0.36734685869E+02 -0.18970369980E+01  0.37922276830E+02  0.51100000000E-03 0. -1.
        -11    1    4    4    0    0 -0.48242729781E+01  0.54602769090E+01  0.12945186952E+02  0.14854834202E+02  0.51100000000E-03 0.  1.
         12    1    4    4    0    0 -0.11593813614E+01 -0.67301441347E+00 -0.85486295662E+00  0.15899384317E+01  0.00000000000E+00 0. -1.
</event>
<event>
 8    1  0.1229038E-006  0.9118800E+02  0.7816164E-02  0.1184000E+00
        -11   -1    0    0    0    0  0.00000000000E+00  0.00000000000E+00  0.45593999997E+02  0.45594000000E+02  0.51100000000E-03 0.  1.
         11   -1    0    0    0    0 -0.00000000000E+00 -0.00000000000E+00 -0.45593999997E+02  0.45594000000E+02  0.51100000000E-03 0. -1.
         23    2    1    2    0    0  0.00000000000E+00  0.00000000000E+00 -0.17763568394E-14  0.91188000000E+02  0.91188000000E+02 0.  0.
    9900012    2    3    3    0    0 -0.29485775127E+02  0.16911912186E+02 -0.14154727680E+02  0.54367081702E+02  0.39999994355E+02 0.  0.
        -12    1    3    3    0    0  0.29485775127E+02 -0.16911912186E+02  0.14154727680E+02  0.36820918298E+02  0.00000000000E+00 0.  1.
         11    1    4    4    0    0 -0.17187278950E+02  0.10500684060E+02 -0.74713769091E+01  0.21482280992E+02  0.51100000000E-03 0. -1.
        -11    1    4    4    0    0  0.23296461878E+00  0.95658692207E+01  0.86035548325E+01  0.12867839076E+02  0.51100000000E-03 0.  1.
         12    1    4    4    0    0 -0.12531460796E+02 -0.31546410947E+01 -0.15286905604E+02  0.20016961634E+02  0.00000000000E+00 0. -1.
</event>
<event>
 8    1  0.1229038E-006  0.9118800E+02  0.7816164E-02  0.1184000E+00
        -11   -1    0    0    0    0  0.00000000000E+00  0.00000000000E+00  0.45593999997E+02  0.45594000000E+02  0.51100000000E-03 0.  1.
         11   -1    0    0    0    0 -0.00000000000E+00 -0.00000000000E+00 -0.45593999997E+02  0.45594000000E+02  0.51100000000E-03 0. -1.
         23    2    1    2    0    0  0.00000000000E+00  0.00000000000E+00  0.00000000000E+00  0.91188000000E+02  0.91188000000E+02 0.  0.
    9900012    2    3    3    0    0  0.17845263736E+02  0.27202034334E+02  0.17244576887E+02  0.54367088256E+02  0.40000009296E+02 0.  0.
         12    1    3    3    0    0 -0.17845263736E+02 -0.27202034334E+02 -0.17244576887E+02  0.36820911744E+02  0.00000000000E+00 0. -1.
         11    1    4    4    0    0  0.18086415032E+01  0.19202778036E+01 -0.89819979693E+00  0.27866492543E+01  0.51100000000E-03 0. -1.
        -11    1    4    4    0    0  0.73510907202E+01  0.27281481837E+02 -0.32157106433E+01  0.28436922850E+02  0.51100000000E-03 0.  1.
        -12    1    4    4    0    0  0.86855315121E+01 -0.19997253066E+01  0.21358487327E+02  0.23143516151E+02  0.00000000000E+00 0.  1.
</event>
<event>
 8    1  0.1229038E-006  0.9118800E+02  0.7816164E-02  0.1184000E+00
        -11   -1    0    0    0    0  0.00000000000E+00  0.00000000000E+00  0.45593999997E+02  0.45594000000E+02  0.51100000000E-03 0. -1.
         11   -1    0    0    0    0 -0.00000000000E+00 -0.00000000000E+00 -0.45593999997E+02  0.45594000000E+02  0.51100000000E-03 0.  1.
         23    2    1    2    0    0  0.35527136788E-14  0.00000000000E+00  0.00000000000E+00  0.91188000000E+02  0.91188000000E+02 0.  0.
    9900012    2    3    3    0    0  0.23155555840E+02  0.54430673293E+01  0.28106461269E+02  0.54367083209E+02  0.39999997793E+02 0.  0.
        -12    1    3    3    0    0 -0.23155555840E+02 -0.54430673293E+01 -0.28106461269E+02  0.36820916791E+02  0.00000000000E+00 0.  1.
         11    1    4    4    0    0  0.15088545586E+02  0.97255975980E+01 -0.69339233930E-01  0.17951497562E+02  0.51100000000E-03 0. -1.
        -11    1    4    4    0    0  0.25283408958E+01 -0.11751577673E+02  0.87147633451E+01  0.14847194547E+02  0.51100000000E-03 0.  1.
         12    1    4    4    0    0  0.55386693581E+01  0.74690474042E+01  0.19461037158E+02  0.21568391100E+02  0.00000000000E+00 0. -1.
</event>
<event>
 8    1  0.1229038E-006  0.9118800E+02  0.7816164E-02  0.1184000E+00
        -11   -1    0    0    0    0  0.00000000000E+00  0.00000000000E+00  0.45593999997E+02  0.45594000000E+02  0.51100000000E-03 0.  1.
         11   -1    0    0    0    0 -0.00000000000E+00 -0.00000000000E+00 -0.45593999997E+02  0.45594000000E+02  0.51100000000E-03 0. -1.
         23    2    1    2    0    0  0.00000000000E+00  0.00000000000E+00  0.00000000000E+00  0.91188000000E+02  0.91188000000E+02 0.  0.
    9900012    2    3    3    0    0  0.22131176622E+02  0.81868476984E+01  0.28265981168E+02  0.54367093638E+02  0.40000021567E+02 0.  0.
         12    1    3    3    0    0 -0.22131176622E+02 -0.81868476984E+01 -0.28265981168E+02  0.36820906362E+02  0.00000000000E+00 0. -1.
         11    1    4    4    0    0 -0.59039479945E+01 -0.47728962697E+01  0.40326075240E+01  0.85964565041E+01  0.51100000000E-03 0. -1.
        -11    1    4    4    0    0  0.17294982974E+02  0.19428858778E+02  0.13719645984E+02  0.29407918588E+02  0.51100000000E-03 0.  1.
        -12    1    4    4    0    0  0.10740141642E+02 -0.64691148095E+01  0.10513727660E+02  0.16362718546E+02  0.00000000000E+00 0.  1.
</event>
<event>
 8    1  0.1229038E-006  0.9118800E+02  0.7816164E-02  0.1184000E+00
        -11   -1    0    0    0    0  0.00000000000E+00  0.00000000000E+00  0.45593999997E+02  0.45594000000E+02  0.51100000000E-03 0.  1.
         11   -1    0    0    0    0 -0.00000000000E+00 -0.00000000000E+00 -0.45593999997E+02  0.45594000000E+02  0.51100000000E-03 0. -1.
         23    2    1    2    0    0 -0.71054273576E-14 -0.88817841970E-15  0.88817841970E-15  0.91188000000E+02  0.91188000000E+02 0.  0.
    9900012    2    3    3    0    0  0.36621207007E+02  0.10606883449E+01 -0.36798129216E+01  0.54367097165E+02  0.40000029608E+02 0.  0.
         12    1    3    3    0    0 -0.36621207007E+02 -0.10606883449E+01  0.36798129216E+01  0.36820902835E+02  0.00000000000E+00 0. -1.
         11    1    4    4    0    0  0.57009681641E+01 -0.10706137678E+02 -0.76743388869E+01  0.14353323643E+02  0.51100000000E-03 0. -1.
        -11    1    4    4    0    0  0.33159649102E+02  0.62385482616E+01  0.23325450824E+01  0.33821924543E+02  0.51100000000E-03 0.  1.
        -12    1    4    4    0    0 -0.22394102590E+01  0.55282777618E+01  0.16619808829E+01  0.61918489787E+01  0.00000000000E+00 0.  1.
</event>
<event>
 8    1  0.1229038E-006  0.9118800E+02  0.7816164E-02  0.1184000E+00
        -11   -1    0    0    0    0  0.00000000000E+00  0.00000000000E+00  0.45593999997E+02  0.45594000000E+02  0.51100000000E-03 0.  1.
         11   -1    0    0    0    0 -0.00000000000E+00 -0.00000000000E+00 -0.45593999997E+02  0.45594000000E+02  0.51100000000E-03 0. -1.
         23    2    1    2    0    0  0.00000000000E+00  0.17763568394E-14  0.88817841970E-15  0.91188000000E+02  0.91188000000E+02 0.  0.
    9900012    2    3    3    0    0  0.35047530539E+02 -0.85867511510E+01  0.73292643214E+01  0.54367084643E+02  0.40000001061E+02 0.  0.
        -12    1    3    3    0    0 -0.35047530539E+02  0.85867511510E+01 -0.73292643214E+01  0.36820915357E+02  0.00000000000E+00 0.  1.
         11    1    4    4    0    0  0.19747822510E+02 -0.10473398256E+02  0.17589288020E+01  0.22422363740E+02  0.51100000000E-03 0. -1.
        -11    1    4    4    0    0  0.72397020063E+01 -0.12292692113E+02 -0.11325633476E+01  0.14311053928E+02  0.51100000000E-03 0.  1.
        -12    1    4    4    0    0  0.80600060230E+01  0.14179339218E+02  0.67028988669E+01  0.17633666975E+02  0.00000000000E+00 0.  1.
</event>
<event>
 8    1  0.1229038E-006  0.9118800E+02  0.7816164E-02  0.1184000E+00
        -11   -1    0    0    0    0  0.00000000000E+00  0.00000000000E+00  0.45593999997E+02  0.45594000000E+02  0.51100000000E-03 0.  1.
         11   -1    0    0    0    0 -0.00000000000E+00 -0.00000000000E+00 -0.45593999997E+02  0.45594000000E+02  0.51100000000E-03 0. -1.
         23    2    1    2    0    0 -0.17763568394E-14  0.00000000000E+00  0.00000000000E+00  0.91188000000E+02  0.91188000000E+02 0.  0.
    9900012    2    3    3    0    0  0.10318508250E+02 -0.16132700062E+02  0.31449050323E+02  0.54367103894E+02  0.40000044948E+02 0.  0.
         12    1    3    3    0    0 -0.10318508250E+02  0.16132700062E+02 -0.31449050323E+02  0.36820896106E+02  0.00000000000E+00 0. -1.
         11    1    4    4    0    0  0.22984500608E+01 -0.23528704697E+02  0.12538762307E+02  0.26760107956E+02  0.51100000000E-03 0. -1.
        -11    1    4    4    0    0 -0.37685213281E+00 -0.33741820691E+01 -0.93057656068E+00  0.35203828146E+01  0.51100000000E-03 0.  1.
        -12    1    4    4    0    0  0.83969103216E+01  0.10770186704E+02  0.19840864577E+02  0.24086613123E+02  0.00000000000E+00 0.  1.
</event>
<event>
 8    1  0.1229038E-006  0.9118800E+02  0.7816164E-02  0.1184000E+00
        -11   -1    0    0    0    0  0.00000000000E+00  0.00000000000E+00  0.45593999997E+02  0.45594000000E+02  0.51100000000E-03 0.  1.
         11   -1    0    0    0    0 -0.00000000000E+00 -0.00000000000E+00 -0.45593999997E+02  0.45594000000E+02  0.51100000000E-03 0. -1.
         23    2    1    2    0    0  0.00000000000E+00  0.00000000000E+00 -0.88817841970E-15  0.91188000000E+02  0.91188000000E+02 0.  0.
    9900012    2    3    3    0    0  0.32324117691E+02 -0.17260827259E+02  0.36048633274E+01  0.54367084995E+02  0.40000001864E+02 0.  0.
         12    1    3    3    0    0 -0.32324117691E+02  0.17260827259E+02 -0.36048633274E+01  0.36820915005E+02  0.00000000000E+00 0. -1.
         11    1    4    4    0    0  0.89829176686E+01 -0.13557964685E+02  0.14511298154E+01  0.16328410646E+02  0.51100000000E-03 0. -1.
        -11    1    4    4    0    0  0.19233641264E+02 -0.11151445136E+02  0.11806361093E+02  0.25172958654E+02  0.51100000000E-03 0.  1.
         12    1    4    4    0    0  0.41075587582E+01  0.74485825615E+01 -0.96526275806E+01  0.12865715695E+02  0.00000000000E+00 0. -1.
</event>
<event>
 8    1  0.1229038E-006  0.9118800E+02  0.7816164E-02  0.1184000E+00
        -11   -1    0    0    0    0  0.00000000000E+00  0.00000000000E+00  0.45593999997E+02  0.45594000000E+02  0.51100000000E-03 0. -1.
         11   -1    0    0    0    0 -0.00000000000E+00 -0.00000000000E+00 -0.45593999997E+02  0.45594000000E+02  0.51100000000E-03 0.  1.
         23    2    1    2    0    0 -0.35527136788E-14  0.00000000000E+00  0.00000000000E+00  0.91188000000E+02  0.91188000000E+02 0.  0.
    9900012    2    3    3    0    0 -0.22140709105E+02 -0.14225383633E+02 -0.25752789115E+02  0.54367099870E+02  0.40000035774E+02 0.  0.
         12    1    3    3    0    0  0.22140709105E+02  0.14225383633E+02  0.25752789115E+02  0.36820900130E+02  0.00000000000E+00 0. -1.
         11    1    4    4    0    0  0.79003432928E+01 -0.70153188423E+01 -0.42965602460E+01  0.11405724563E+02  0.51100000000E-03 0. -1.
        -11    1    4    4    0    0 -0.17006396183E+02  0.92455662361E+00 -0.21711439852E+02  0.27594545418E+02  0.51100000000E-03 0.  1.
        -12    1    4    4    0    0 -0.13034656214E+02 -0.81346214147E+01  0.25521098353E+00  0.15366829889E+02  0.00000000000E+00 0.  1.
</event>
<event>
 8    1  0.1229038E-006  0.9118800E+02  0.7816164E-02  0.1184000E+00
        -11   -1    0    0    0    0  0.00000000000E+00  0.00000000000E+00  0.45593999997E+02  0.45594000000E+02  0.51100000000E-03 0.  1.
         11   -1    0    0    0    0 -0.00000000000E+00 -0.00000000000E+00 -0.45593999997E+02  0.45594000000E+02  0.51100000000E-03 0. -1.
         23    2    1    2    0    0  0.26645352591E-14  0.00000000000E+00  0.00000000000E+00  0.91188000000E+02  0.91188000000E+02 0.  0.
    9900012    2    3    3    0    0  0.51368429036E+01 -0.98308174688E+01 -0.35110523357E+02  0.54367068758E+02  0.39999964847E+02 0.  0.
        -12    1    3    3    0    0 -0.51368429036E+01  0.98308174688E+01  0.35110523357E+02  0.36820931242E+02  0.00000000000E+00 0.  1.
         11    1    4    4    0    0  0.41736553073E+01  0.86444716068E+00 -0.23790818211E+01  0.48812598876E+01  0.51100000000E-03 0. -1.
        -11    1    4    4    0    0 -0.17247034727E+02 -0.63215886923E+01 -0.16967283863E+02  0.25006227473E+02  0.51100000000E-03 0.  1.
        -12    1    4    4    0    0  0.18210222323E+02 -0.43736759372E+01 -0.15764157673E+02  0.24479581398E+02  0.00000000000E+00 0.  1.
</event>
<event>
 8    1  0.1229038E-006  0.9118800E+02  0.7816164E-02  0.1184000E+00
        -11   -1    0    0    0    0  0.00000000000E+00  0.00000000000E+00  0.45593999997E+02  0.45594000000E+02  0.51100000000E-03 0.  1.
         11   -1    0    0    0    0 -0.00000000000E+00 -0.00000000000E+00 -0.45593999997E+02  0.45594000000E+02  0.51100000000E-03 0. -1.
         23    2    1    2    0    0  0.00000000000E+00  0.00000000000E+00  0.71054273576E-14  0.91188000000E+02  0.91188000000E+02 0.  0.
    9900012    2    3    3    0    0  0.19212282235E+02  0.26892657794E+02 -0.16231218443E+02  0.54367091754E+02  0.40000017273E+02 0.  0.
         12    1    3    3    0    0 -0.19212282235E+02 -0.26892657794E+02  0.16231218443E+02  0.36820908246E+02  0.00000000000E+00 0. -1.
         11    1    4    4    0    0  0.40143736175E+01  0.20530617339E+02  0.67646143429E+01  0.21985937582E+02  0.51100000000E-03 0. -1.
        -11    1    4    4    0    0  0.91751197593E+00  0.52320926837E+01 -0.27760428101E-01  0.53120046102E+01  0.51100000000E-03 0.  1.
         12    1    4    4    0    0  0.14280396641E+02  0.11299477707E+01 -0.22968072358E+02  0.27069149563E+02  0.00000000000E+00 0. -1.
</event>
<event>
 8    1  0.1229038E-006  0.9118800E+02  0.7816164E-02  0.1184000E+00
        -11   -1    0    0    0    0  0.00000000000E+00  0.00000000000E+00  0.45593999997E+02  0.45594000000E+02  0.51100000000E-03 0.  1.
         11   -1    0    0    0    0 -0.00000000000E+00 -0.00000000000E+00 -0.45593999997E+02  0.45594000000E+02  0.51100000000E-03 0. -1.
         23    2    1    2    0    0  0.00000000000E+00 -0.17763568394E-14  0.00000000000E+00  0.91188000000E+02  0.91188000000E+02 0.  0.
    9900012    2    3    3    0    0 -0.53217473117E+01  0.99487162783E+01  0.35049678500E+02  0.54367110372E+02  0.40000059716E+02 0.  0.
         12    1    3    3    0    0  0.53217473117E+01 -0.99487162783E+01 -0.35049678500E+02  0.36820889628E+02  0.00000000000E+00 0. -1.
         11    1    4    4    0    0  0.39476839380E+00 -0.84309981689E+01 -0.46979730876E+01  0.96596337198E+01  0.51100000000E-03 0. -1.
        -11    1    4    4    0    0 -0.43010613028E+01  0.58130107826E+01  0.96315278197E+01  0.12043942506E+02  0.51100000000E-03 0.  1.
        -12    1    4    4    0    0 -0.14154544027E+01  0.12566703664E+02  0.30116123768E+02  0.32663534146E+02  0.00000000000E+00 0.  1.
</event>
<event>
 8    1  0.1229038E-006  0.9118800E+02  0.7816164E-02  0.1184000E+00
        -11   -1    0    0    0    0  0.00000000000E+00  0.00000000000E+00  0.45593999997E+02  0.45594000000E+02  0.51100000000E-03 0. -1.
         11   -1    0    0    0    0 -0.00000000000E+00 -0.00000000000E+00 -0.45593999997E+02  0.45594000000E+02  0.51100000000E-03 0.  1.
         23    2    1    2    0    0  0.00000000000E+00 -0.17763568394E-14  0.00000000000E+00  0.91188000000E+02  0.91188000000E+02 0.  0.
    9900012    2    3    3    0    0 -0.26577516883E+02  0.33851810030E+01  0.25257767752E+02  0.54367099876E+02  0.40000035788E+02 0.  0.
        -12    1    3    3    0    0  0.26577516883E+02 -0.33851810030E+01 -0.25257767752E+02  0.36820900124E+02  0.00000000000E+00 0.  1.
         11    1    4    4    0    0 -0.54407870910E+01  0.15619641645E+01  0.19816642038E+02  0.20609250305E+02  0.51100000000E-03 0. -1.
        -11    1    4    4    0    0 -0.15975198777E+02  0.13138846321E+02  0.16231883452E+01  0.20747795046E+02  0.51100000000E-03 0.  1.
        -12    1    4    4    0    0 -0.51615310147E+01 -0.11315629482E+02  0.38179373694E+01  0.13010054525E+02  0.00000000000E+00 0.  1.
</event>
<event>
 8    1  0.1229038E-006  0.9118800E+02  0.7816164E-02  0.1184000E+00
        -11   -1    0    0    0    0  0.00000000000E+00  0.00000000000E+00  0.45593999997E+02  0.45594000000E+02  0.51100000000E-03 0. -1.
         11   -1    0    0    0    0 -0.00000000000E+00 -0.00000000000E+00 -0.45593999997E+02  0.45594000000E+02  0.51100000000E-03 0.  1.
         23    2    1    2    0    0  0.35527136788E-14  0.35527136788E-14  0.17763568394E-14  0.91188000000E+02  0.91188000000E+02 0.  0.
    9900012    2    3    3    0    0 -0.30859803513E+02  0.14882300452E+02 -0.13489577554E+02  0.54367095038E+02  0.40000024759E+02 0.  0.
         12    1    3    3    0    0  0.30859803513E+02 -0.14882300452E+02  0.13489577554E+02  0.36820904962E+02  0.00000000000E+00 0. -1.
         11    1    4    4    0    0  0.30887181362E+01 -0.31449972009E+01 -0.11288166903E+02  0.12118329068E+02  0.51100000000E-03 0. -1.
        -11    1    4    4    0    0 -0.15503187230E+02 -0.11831064501E+01 -0.12767068655E+01  0.15600594086E+02  0.51100000000E-03 0.  1.
        -12    1    4    4    0    0 -0.18445334420E+02  0.19210404103E+02 -0.92470378546E+00  0.26648171884E+02  0.00000000000E+00 0.  1.
</event>
<event>
 8    1  0.1229038E-006  0.9118800E+02  0.7816164E-02  0.1184000E+00
        -11   -1    0    0    0    0  0.00000000000E+00  0.00000000000E+00  0.45593999997E+02  0.45594000000E+02  0.51100000000E-03 0.  1.
         11   -1    0    0    0    0 -0.00000000000E+00 -0.00000000000E+00 -0.45593999997E+02  0.45594000000E+02  0.51100000000E-03 0. -1.
         23    2    1    2    0    0  0.00000000000E+00 -0.35527136788E-14 -0.44408920985E-15  0.91188000000E+02  0.91188000000E+02 0.  0.
    9900012    2    3    3    0    0 -0.24571745220E+02 -0.27290431657E+02  0.26910759997E+01  0.54367079136E+02  0.39999988507E+02 0.  0.
         12    1    3    3    0    0  0.24571745220E+02  0.27290431657E+02 -0.26910759997E+01  0.36820920864E+02  0.00000000000E+00 0. -1.
         11    1    4    4    0    0  0.71172462545E+00 -0.77935729167E+01 -0.89069139694E+01  0.11856620407E+02  0.51100000000E-03 0. -1.
        -11    1    4    4    0    0 -0.26912937492E+02 -0.18892550090E+02  0.22027480826E+01  0.32955830329E+02  0.51100000000E-03 0.  1.
        -12    1    4    4    0    0  0.16294676460E+01 -0.60430865120E+00  0.93952418865E+01  0.95546284000E+01  0.00000000000E+00 0.  1.
</event>
<event>
 8    1  0.1229038E-006  0.9118800E+02  0.7816164E-02  0.1184000E+00
        -11   -1    0    0    0    0  0.00000000000E+00  0.00000000000E+00  0.45593999997E+02  0.45594000000E+02  0.51100000000E-03 0. -1.
         11   -1    0    0    0    0 -0.00000000000E+00 -0.00000000000E+00 -0.45593999997E+02  0.45594000000E+02  0.51100000000E-03 0.  1.
         23    2    1    2    0    0 -0.35527136788E-14  0.00000000000E+00  0.35527136788E-14  0.91188000000E+02  0.91188000000E+02 0.  0.
    9900012    2    3    3    0    0  0.81776186578E+01  0.16903673007E+02 -0.31672893370E+02  0.54367084986E+02  0.40000001842E+02 0.  0.
         12    1    3    3    0    0 -0.81776186578E+01 -0.16903673007E+02  0.31672893370E+02  0.36820915014E+02  0.00000000000E+00 0. -1.
         11    1    4    4    0    0  0.37914907516E+01  0.55838310989E+01 -0.32040980878E+01  0.74713329921E+01  0.51100000000E-03 0. -1.
        -11    1    4    4    0    0 -0.13326703900E+02 -0.34835902814E+01 -0.73708302747E+01  0.15622598289E+02  0.51100000000E-03 0.  1.
        -12    1    4    4    0    0  0.17712831806E+02  0.14803432190E+02 -0.21097965007E+02  0.31273153705E+02  0.00000000000E+00 0.  1.
</event>
<event>
 8    1  0.1229038E-006  0.9118800E+02  0.7816164E-02  0.1184000E+00
        -11   -1    0    0    0    0  0.00000000000E+00  0.00000000000E+00  0.45593999997E+02  0.45594000000E+02  0.51100000000E-03 0.  1.
         11   -1    0    0    0    0 -0.00000000000E+00 -0.00000000000E+00 -0.45593999997E+02  0.45594000000E+02  0.51100000000E-03 0. -1.
         23    2    1    2    0    0 -0.17763568394E-14 -0.71054273576E-14  0.00000000000E+00  0.91188000000E+02  0.91188000000E+02 0.  0.
    9900012    2    3    3    0    0  0.11122133648E+02  0.34974334724E+02 -0.29789137873E+01  0.54367083749E+02  0.39999999022E+02 0.  0.
         12    1    3    3    0    0 -0.11122133648E+02 -0.34974334724E+02  0.29789137873E+01  0.36820916251E+02  0.00000000000E+00 0. -1.
         11    1    4    4    0    0 -0.44816160113E+01  0.19254741520E+01  0.67549247291E+01  0.83319470198E+01  0.51100000000E-03 0. -1.
        -11    1    4    4    0    0  0.11699901150E+02  0.33554814664E+02 -0.15730311942E+02  0.38862012147E+02  0.51100000000E-03 0.  1.
        -12    1    4    4    0    0  0.39038485089E+01 -0.50595409265E+00  0.59964734254E+01  0.71731245817E+01  0.00000000000E+00 0.  1.
</event>
<event>
 8    1  0.1229038E-006  0.9118800E+02  0.7816164E-02  0.1184000E+00
        -11   -1    0    0    0    0  0.00000000000E+00  0.00000000000E+00  0.45593999997E+02  0.45594000000E+02  0.51100000000E-03 0.  1.
         11   -1    0    0    0    0 -0.00000000000E+00 -0.00000000000E+00 -0.45593999997E+02  0.45594000000E+02  0.51100000000E-03 0. -1.
         23    2    1    2    0    0  0.00000000000E+00 -0.35527136788E-14  0.88817841970E-15  0.91188000000E+02  0.91188000000E+02 0.  0.
    9900012    2    3    3    0    0 -0.22874467051E+02 -0.28552407503E+02  0.41574664941E+01  0.54367275608E+02  0.40000436401E+02 0.  0.
        -12    1    3    3    0    0  0.22874467051E+02  0.28552407503E+02 -0.41574664941E+01  0.36820724392E+02  0.00000000000E+00 0.  1.
         11    1    4    4    0    0 -0.99749496079E+01  0.14795937551E+01  0.72784073198E+01  0.12436399428E+02  0.51100000000E-03 0. -1.
        -11    1    4    4    0    0 -0.10441498933E+02 -0.11403120275E+02  0.10528908655E+02  0.18705987536E+02  0.51100000000E-03 0.  1.
         12    1    4    4    0    0 -0.24580185106E+01 -0.18628880983E+02 -0.13649849481E+02  0.23224888644E+02  0.00000000000E+00 0. -1.
</event>
<event>
 8    1  0.1229038E-006  0.9118800E+02  0.7816164E-02  0.1184000E+00
        -11   -1    0    0    0    0  0.00000000000E+00  0.00000000000E+00  0.45593999997E+02  0.45594000000E+02  0.51100000000E-03 0.  1.
         11   -1    0    0    0    0 -0.00000000000E+00 -0.00000000000E+00 -0.45593999997E+02  0.45594000000E+02  0.51100000000E-03 0. -1.
         23    2    1    2    0    0  0.00000000000E+00  0.17763568394E-14  0.44408920985E-14  0.91188000000E+02  0.91188000000E+02 0.  0.
    9900012    2    3    3    0    0 -0.34476922727E+02 -0.10883579991E+02  0.69762759979E+01  0.54367096413E+02  0.40000027893E+02 0.  0.
         12    1    3    3    0    0  0.34476922727E+02  0.10883579991E+02 -0.69762759979E+01  0.36820903587E+02  0.00000000000E+00 0. -1.
         11    1    4    4    0    0 -0.25506392005E+02 -0.14511097662E+02 -0.62339158919E+01  0.30000161601E+02  0.51100000000E-03 0.  1.
        -11    1    4    4    0    0 -0.72075081154E+01 -0.12079475857E+01 -0.25870269270E+01  0.77524202147E+01  0.51100000000E-03 0. -1.
         12    1    4    4    0    0 -0.17630226066E+01  0.48354652566E+01  0.15797218817E+02  0.16614514597E+02  0.00000000000E+00 0. -1.
</event>
<event>
 8    1  0.1229038E-006  0.9118800E+02  0.7816164E-02  0.1184000E+00
        -11   -1    0    0    0    0  0.00000000000E+00  0.00000000000E+00  0.45593999997E+02  0.45594000000E+02  0.51100000000E-03 0. -1.
         11   -1    0    0    0    0 -0.00000000000E+00 -0.00000000000E+00 -0.45593999997E+02  0.45594000000E+02  0.51100000000E-03 0.  1.
         23    2    1    2    0    0  0.35527136788E-14  0.00000000000E+00 -0.35527136788E-14  0.91188000000E+02  0.91188000000E+02 0.  0.
    9900012    2    3    3    0    0  0.25307180107E+02 -0.22672034325E+02 -0.14188143593E+02  0.54367110223E+02  0.40000059374E+02 0.  0.
         12    1    3    3    0    0 -0.25307180107E+02  0.22672034325E+02  0.14188143593E+02  0.36820889777E+02  0.00000000000E+00 0. -1.
         11    1    4    4    0    0 -0.15506272373E+01 -0.23535418236E+01  0.72293849725E+01  0.77593563706E+01  0.51100000000E-03 0. -1.
        -11    1    4    4    0    0  0.11972592670E+00  0.14052468359E+01  0.37086359765E+01  0.39677492404E+01  0.51100000000E-03 0.  1.
        -12    1    4    4    0    0  0.26738081417E+02 -0.21723739337E+02 -0.25126164542E+02  0.42640004612E+02  0.00000000000E+00 0.  1.
</event>
<event>
 8    1  0.1229038E-006  0.9118800E+02  0.7816164E-02  0.1184000E+00
        -11   -1    0    0    0    0  0.00000000000E+00  0.00000000000E+00  0.45593999997E+02  0.45594000000E+02  0.51100000000E-03 0.  1.
         11   -1    0    0    0    0 -0.00000000000E+00 -0.00000000000E+00 -0.45593999997E+02  0.45594000000E+02  0.51100000000E-03 0. -1.
         23    2    1    2    0    0  0.35527136788E-14  0.00000000000E+00  0.00000000000E+00  0.91188000000E+02  0.91188000000E+02 0.  0.
    9900012    2    3    3    0    0 -0.21442050443E+02  0.10143288165E+02 -0.28162596756E+02  0.54367086405E+02  0.40000005076E+02 0.  0.
        -12    1    3    3    0    0  0.21442050443E+02 -0.10143288165E+02  0.28162596756E+02  0.36820913595E+02  0.00000000000E+00 0.  1.
         11    1    4    4    0    0 -0.54912870516E+01  0.14890866518E+02 -0.22882940913E+01  0.16035224639E+02  0.51100000000E-03 0. -1.
        -11    1    4    4    0    0  0.16810151259E+01 -0.15997099185E+01  0.33384013099E+01  0.40656865649E+01  0.51100000000E-03 0.  1.
         12    1    4    4    0    0 -0.17631778517E+02 -0.31478684343E+01 -0.29212703974E+02  0.34266175200E+02  0.00000000000E+00 0. -1.
</event>
<event>
 8    1  0.1229038E-006  0.9118800E+02  0.7816164E-02  0.1184000E+00
        -11   -1    0    0    0    0  0.00000000000E+00  0.00000000000E+00  0.45593999997E+02  0.45594000000E+02  0.51100000000E-03 0.  1.
         11   -1    0    0    0    0 -0.00000000000E+00 -0.00000000000E+00 -0.45593999997E+02  0.45594000000E+02  0.51100000000E-03 0. -1.
         23    2    1    2    0    0  0.00000000000E+00  0.17763568394E-14  0.17763568394E-14  0.91188000000E+02  0.91188000000E+02 0.  0.
    9900012    2    3    3    0    0  0.32121438951E+02  0.91810281336E+01  0.15482288689E+02  0.54367090439E+02  0.40000014273E+02 0.  0.
        -12    1    3    3    0    0 -0.32121438951E+02 -0.91810281336E+01 -0.15482288689E+02  0.36820909561E+02  0.00000000000E+00 0.  1.
         11    1    4    4    0    0  0.33471338236E+02  0.90809840077E+00  0.15827217567E+01  0.33521040175E+02  0.51100000000E-03 0. -1.
        -11    1    4    4    0    0 -0.23814988220E+01 -0.16572929726E+01 -0.86074370657E+00  0.30263900320E+01  0.51100000000E-03 0.  1.
         12    1    4    4    0    0  0.10315995367E+01  0.99302227054E+01  0.14760310639E+02  0.17819660231E+02  0.00000000000E+00 0. -1.
</event>
<event>
 8    1  0.1229038E-006  0.9118800E+02  0.7816164E-02  0.1184000E+00
        -11   -1    0    0    0    0  0.00000000000E+00  0.00000000000E+00  0.45593999997E+02  0.45594000000E+02  0.51100000000E-03 0.  1.
         11   -1    0    0    0    0 -0.00000000000E+00 -0.00000000000E+00 -0.45593999997E+02  0.45594000000E+02  0.51100000000E-03 0. -1.
         23    2    1    2    0    0  0.00000000000E+00  0.00000000000E+00  0.00000000000E+00  0.91188000000E+02  0.91188000000E+02 0.  0.
    9900012    2    3    3    0    0 -0.23966646832E+01  0.33950832213E+02 -0.14049088083E+02  0.54367083586E+02  0.39999998652E+02 0.  0.
        -12    1    3    3    0    0  0.23966646832E+01 -0.33950832213E+02  0.14049088083E+02  0.36820916414E+02  0.00000000000E+00 0.  1.
         11    1    4    4    0    0  0.40996989663E+01 -0.72522128088E+01 -0.20562002046E+01  0.85807972696E+01  0.51100000000E-03 0. -1.
        -11    1    4    4    0    0 -0.18266239432E+01  0.27991499798E+02 -0.11606715426E+01  0.28075038284E+02  0.51100000000E-03 0.  1.
         12    1    4    4    0    0 -0.46697397063E+01  0.13211545224E+02 -0.10832216336E+02  0.17711248032E+02  0.00000000000E+00 0. -1.
</event>
<event>
 8    1  0.1229038E-006  0.9118800E+02  0.7816164E-02  0.1184000E+00
        -11   -1    0    0    0    0  0.00000000000E+00  0.00000000000E+00  0.45593999997E+02  0.45594000000E+02  0.51100000000E-03 0. -1.
         11   -1    0    0    0    0 -0.00000000000E+00 -0.00000000000E+00 -0.45593999997E+02  0.45594000000E+02  0.51100000000E-03 0.  1.
         23    2    1    2    0    0  0.00000000000E+00 -0.17763568394E-14  0.00000000000E+00  0.91188000000E+02  0.91188000000E+02 0.  0.
    9900012    2    3    3    0    0 -0.23528904544E+02 -0.83478714545E+01 -0.27064436065E+02  0.54367081946E+02  0.39999994912E+02 0.  0.
         12    1    3    3    0    0  0.23528904544E+02  0.83478714545E+01  0.27064436065E+02  0.36820918054E+02  0.00000000000E+00 0. -1.
         11    1    4    4    0    0 -0.17165613793E+02 -0.10678384575E+02 -0.24216791438E+01  0.20360518759E+02  0.51100000000E-03 0.  1.
        -11    1    4    4    0    0 -0.12402180213E+02  0.80108892605E+01 -0.12740894405E+02  0.19501764312E+02  0.51100000000E-03 0. -1.
         12    1    4    4    0    0  0.60388894623E+01 -0.56803761403E+01 -0.11901862516E+02  0.14504798874E+02  0.00000000000E+00 0. -1.
</event>
<event>
 8    1  0.1229038E-006  0.9118800E+02  0.7816164E-02  0.1184000E+00
        -11   -1    0    0    0    0  0.00000000000E+00  0.00000000000E+00  0.45593999997E+02  0.45594000000E+02  0.51100000000E-03 0. -1.
         11   -1    0    0    0    0 -0.00000000000E+00 -0.00000000000E+00 -0.45593999997E+02  0.45594000000E+02  0.51100000000E-03 0.  1.
         23    2    1    2    0    0  0.00000000000E+00  0.00000000000E+00  0.35527136788E-14  0.91188000000E+02  0.91188000000E+02 0.  0.
    9900012    2    3    3    0    0  0.11136457937E+02 -0.19140637904E+02  0.29417798427E+02  0.54366924798E+02  0.39999636661E+02 0.  0.
        -12    1    3    3    0    0 -0.11136457937E+02  0.19140637904E+02 -0.29417798427E+02  0.36821075202E+02  0.00000000000E+00 0.  1.
         11    1    4    4    0    0 -0.37067727398E+01 -0.14144012667E+02  0.23890150480E+02  0.28009508184E+02  0.51100000000E-03 0. -1.
        -11    1    4    4    0    0  0.11975409167E+02  0.52762846399E+01  0.80942935960E+01  0.15387241253E+02  0.51100000000E-03 0.  1.
        -12    1    4    4    0    0  0.28678215106E+01 -0.10272909877E+02 -0.25666456498E+01  0.10970175361E+02  0.00000000000E+00 0.  1.
</event>
<event>
 8    1  0.1229038E-006  0.9118800E+02  0.7816164E-02  0.1184000E+00
        -11   -1    0    0    0    0  0.00000000000E+00  0.00000000000E+00  0.45593999997E+02  0.45594000000E+02  0.51100000000E-03 0. -1.
         11   -1    0    0    0    0 -0.00000000000E+00 -0.00000000000E+00 -0.45593999997E+02  0.45594000000E+02  0.51100000000E-03 0.  1.
         23    2    1    2    0    0  0.00000000000E+00  0.00000000000E+00  0.00000000000E+00  0.91188000000E+02  0.91188000000E+02 0.  0.
    9900012    2    3    3    0    0 -0.21256341285E+02 -0.28424155525E+02 -0.97986440956E+01  0.54367107992E+02  0.40000054290E+02 0.  0.
         12    1    3    3    0    0  0.21256341285E+02  0.28424155525E+02  0.97986440956E+01  0.36820892008E+02  0.00000000000E+00 0. -1.
         11    1    4    4    0    0 -0.18446946260E+02 -0.13498206300E+02 -0.15424264174E+02  0.27575339076E+02  0.51100000000E-03 0. -1.
        -11    1    4    4    0    0  0.38576246250E+00 -0.89761663916E+01 -0.77129113824E+01  0.11841004097E+02  0.51100000000E-03 0.  1.
         12    1    4    4    0    0 -0.31951574883E+01 -0.59497828335E+01  0.13338531461E+02  0.14950764819E+02  0.00000000000E+00 0. -1.
</event>
<event>
 8    1  0.1229038E-006  0.9118800E+02  0.7816164E-02  0.1184000E+00
        -11   -1    0    0    0    0  0.00000000000E+00  0.00000000000E+00  0.45593999997E+02  0.45594000000E+02  0.51100000000E-03 0.  1.
         11   -1    0    0    0    0 -0.00000000000E+00 -0.00000000000E+00 -0.45593999997E+02  0.45594000000E+02  0.51100000000E-03 0. -1.
         23    2    1    2    0    0 -0.35527136788E-14  0.00000000000E+00  0.35527136788E-14  0.91188000000E+02  0.91188000000E+02 0.  0.
    9900012    2    3    3    0    0 -0.17189549514E+02  0.10196662470E+02  0.30924538832E+02  0.54367086921E+02  0.40000006253E+02 0.  0.
         12    1    3    3    0    0  0.17189549514E+02 -0.10196662470E+02 -0.30924538832E+02  0.36820913079E+02  0.00000000000E+00 0. -1.
         11    1    4    4    0    0 -0.36428618924E+01  0.78886838104E+01  0.13390401481E+02  0.15962600888E+02  0.51100000000E-03 0. -1.
        -11    1    4    4    0    0 -0.69979453817E+01  0.10913502198E+02  0.22913189416E+02  0.26326602881E+02  0.51100000000E-03 0.  1.
         12    1    4    4    0    0 -0.65487422398E+01 -0.86055235386E+01 -0.53790520649E+01  0.12077883151E+02  0.00000000000E+00 0. -1.
</event>
<event>
 8    1  0.1229038E-006  0.9118800E+02  0.7816164E-02  0.1184000E+00
        -11   -1    0    0    0    0  0.00000000000E+00  0.00000000000E+00  0.45593999997E+02  0.45594000000E+02  0.51100000000E-03 0.  1.
         11   -1    0    0    0    0 -0.00000000000E+00 -0.00000000000E+00 -0.45593999997E+02  0.45594000000E+02  0.51100000000E-03 0. -1.
         23    2    1    2    0    0  0.00000000000E+00 -0.35527136788E-14  0.00000000000E+00  0.91188000000E+02  0.91188000000E+02 0.  0.
    9900012    2    3    3    0    0  0.13857694683E+02  0.31489417668E+02 -0.13121641997E+02  0.54366856404E+02  0.39999480741E+02 0.  0.
        -12    1    3    3    0    0 -0.13857694683E+02 -0.31489417668E+02  0.13121641997E+02  0.36821143596E+02  0.00000000000E+00 0.  1.
         11    1    4    4    0    0  0.73297776275E+00  0.17381397049E+01 -0.33984560298E+01  0.38868868882E+01  0.51100000000E-03 0. -1.
        -11    1    4    4    0    0 -0.65724910714E+01 -0.58179044646E+01 -0.29547599746E+01  0.92615472796E+01  0.51100000000E-03 0.  1.
         12    1    4    4    0    0  0.19697207992E+02  0.35569182427E+02 -0.67684259928E+01  0.41218422236E+02  0.00000000000E+00 0. -1.
</event>
<event>
 8    1  0.1229038E-006  0.9118800E+02  0.7816164E-02  0.1184000E+00
        -11   -1    0    0    0    0  0.00000000000E+00  0.00000000000E+00  0.45593999997E+02  0.45594000000E+02  0.51100000000E-03 0. -1.
         11   -1    0    0    0    0 -0.00000000000E+00 -0.00000000000E+00 -0.45593999997E+02  0.45594000000E+02  0.51100000000E-03 0.  1.
         23    2    1    2    0    0  0.88817841970E-15  0.00000000000E+00  0.00000000000E+00  0.91188000000E+02  0.91188000000E+02 0.  0.
    9900012    2    3    3    0    0  0.47650727654E+01 -0.16014122866E+02 -0.32811945226E+02  0.54367057601E+02  0.39999939413E+02 0.  0.
         12    1    3    3    0    0 -0.47650727654E+01  0.16014122866E+02  0.32811945226E+02  0.36820942399E+02  0.00000000000E+00 0. -1.
         11    1    4    4    0    0  0.67482858768E+01 -0.15607864780E+02 -0.20475868694E+02  0.26615897586E+02  0.51100000000E-03 0. -1.
        -11    1    4    4    0    0 -0.71095156403E+01 -0.69419300191E+01 -0.15870220403E+02  0.18724302415E+02  0.51100000000E-03 0.  1.
         12    1    4    4    0    0  0.51263025288E+01  0.65356719332E+01  0.35341438706E+01  0.90268576002E+01  0.00000000000E+00 0. -1.
</event>
<event>
 8    1  0.1229038E-006  0.9118800E+02  0.7816164E-02  0.1184000E+00
        -11   -1    0    0    0    0  0.00000000000E+00  0.00000000000E+00  0.45593999997E+02  0.45594000000E+02  0.51100000000E-03 0.  1.
         11   -1    0    0    0    0 -0.00000000000E+00 -0.00000000000E+00 -0.45593999997E+02  0.45594000000E+02  0.51100000000E-03 0. -1.
         23    2    1    2    0    0  0.22204460493E-15 -0.35527136788E-14  0.00000000000E+00  0.91188000000E+02  0.91188000000E+02 0.  0.
    9900012    2    3    3    0    0  0.11693996054E+01 -0.21196194884E+02 -0.30085436200E+02  0.54367086861E+02  0.40000006118E+02 0.  0.
        -12    1    3    3    0    0 -0.11693996054E+01  0.21196194884E+02  0.30085436200E+02  0.36820913139E+02  0.00000000000E+00 0.  1.
         11    1    4    4    0    0 -0.17788972139E+01  0.58944971139E-01  0.57726430962E+00  0.18711451444E+01  0.51100000000E-03 0. -1.
        -11    1    4    4    0    0 -0.45395387452E+01 -0.29845042640E+02 -0.16790758851E+02  0.34543647249E+02  0.51100000000E-03 0.  1.
        -12    1    4    4    0    0  0.74878355645E+01  0.85899027846E+01 -0.13871941659E+02  0.17952294468E+02  0.00000000000E+00 0.  1.
</event>
<event>
 8    1  0.1229038E-006  0.9118800E+02  0.7816164E-02  0.1184000E+00
        -11   -1    0    0    0    0  0.00000000000E+00  0.00000000000E+00  0.45593999997E+02  0.45594000000E+02  0.51100000000E-03 0.  1.
         11   -1    0    0    0    0 -0.00000000000E+00 -0.00000000000E+00 -0.45593999997E+02  0.45594000000E+02  0.51100000000E-03 0. -1.
         23    2    1    2    0    0  0.00000000000E+00 -0.71054273576E-14  0.26090241079E-14  0.91188000000E+02  0.91188000000E+02 0.  0.
    9900012    2    3    3    0    0  0.85836809030E+01  0.35805260170E+02  0.29098333378E+00  0.54367069743E+02  0.39999967093E+02 0.  0.
        -12    1    3    3    0    0 -0.85836809030E+01 -0.35805260170E+02 -0.29098333378E+00  0.36820930257E+02  0.00000000000E+00 0.  1.
         11    1    4    4    0    0  0.23277866029E+01 -0.19452629204E+01 -0.99808143523E+01  0.10431648657E+02  0.51100000000E-03 0. -1.
        -11    1    4    4    0    0  0.11755251195E+02  0.33501277500E+02  0.10362186979E+02  0.36985084075E+02  0.51100000000E-03 0.  1.
        -12    1    4    4    0    0 -0.54993568948E+01  0.42492455904E+01 -0.90389292533E-01  0.69503370111E+01  0.00000000000E+00 0.  1.
</event>
<event>
 8    1  0.1229038E-006  0.9118800E+02  0.7816164E-02  0.1184000E+00
        -11   -1    0    0    0    0  0.00000000000E+00  0.00000000000E+00  0.45593999997E+02  0.45594000000E+02  0.51100000000E-03 0.  1.
         11   -1    0    0    0    0 -0.00000000000E+00 -0.00000000000E+00 -0.45593999997E+02  0.45594000000E+02  0.51100000000E-03 0. -1.
         23    2    1    2    0    0  0.00000000000E+00  0.00000000000E+00  0.35527136788E-14  0.91188000000E+02  0.91188000000E+02 0.  0.
    9900012    2    3    3    0    0  0.46982305603E+01 -0.23862939665E+02 -0.27645389290E+02  0.54367071048E+02  0.39999970068E+02 0.  0.
        -12    1    3    3    0    0 -0.46982305603E+01  0.23862939665E+02  0.27645389290E+02  0.36820928952E+02  0.00000000000E+00 0.  1.
         11    1    4    4    0    0  0.57336732379E+01 -0.60260768037E+01  0.22622099090E+01  0.86201046615E+01  0.51100000000E-03 0. -1.
        -11    1    4    4    0    0  0.97741928274E+01 -0.22239523030E+01  0.34300689886E+00  0.10029878527E+02  0.51100000000E-03 0.  1.
         12    1    4    4    0    0 -0.10809635505E+02 -0.15612910559E+02 -0.30250606098E+02  0.35717087860E+02  0.00000000000E+00 0. -1.
</event>
<event>
 8    1  0.1229038E-006  0.9118800E+02  0.7816164E-02  0.1184000E+00
        -11   -1    0    0    0    0  0.00000000000E+00  0.00000000000E+00  0.45593999997E+02  0.45594000000E+02  0.51100000000E-03 0.  1.
         11   -1    0    0    0    0 -0.00000000000E+00 -0.00000000000E+00 -0.45593999997E+02  0.45594000000E+02  0.51100000000E-03 0. -1.
         23    2    1    2    0    0 -0.71054273576E-14 -0.11102230246E-15  0.00000000000E+00  0.91188000000E+02  0.91188000000E+02 0.  0.
    9900012    2    3    3    0    0 -0.34785890581E+02  0.78846176017E+00  0.12045764779E+02  0.54367077896E+02  0.39999985680E+02 0.  0.
         12    1    3    3    0    0  0.34785890581E+02 -0.78846176017E+00 -0.12045764779E+02  0.36820922104E+02  0.00000000000E+00 0. -1.
         11    1    4    4    0    0 -0.13391930037E+02 -0.39517279040E+01 -0.25106483141E+01  0.14186729672E+02  0.51100000000E-03 0. -1.
        -11    1    4    4    0    0  0.78270117271E+01  0.21392126931E+01  0.32237133947E+01  0.87310178006E+01  0.51100000000E-03 0.  1.
        -12    1    4    4    0    0 -0.29220972271E+02  0.26009769711E+01  0.11332699699E+02  0.31449330424E+02  0.00000000000E+00 0.  1.
</event>
<event>
 8    1  0.1229038E-006  0.9118800E+02  0.7816164E-02  0.1184000E+00
        -11   -1    0    0    0    0  0.00000000000E+00  0.00000000000E+00  0.45593999997E+02  0.45594000000E+02  0.51100000000E-03 0.  1.
         11   -1    0    0    0    0 -0.00000000000E+00 -0.00000000000E+00 -0.45593999997E+02  0.45594000000E+02  0.51100000000E-03 0. -1.
         23    2    1    2    0    0  0.00000000000E+00  0.00000000000E+00  0.00000000000E+00  0.91188000000E+02  0.91188000000E+02 0.  0.
    9900012    2    3    3    0    0 -0.11912379096E+02 -0.18162897507E+02 -0.29731873043E+02  0.54367083441E+02  0.39999998322E+02 0.  0.
        -12    1    3    3    0    0  0.11912379096E+02  0.18162897507E+02  0.29731873043E+02  0.36820916559E+02  0.00000000000E+00 0.  1.
         11    1    4    4    0    0  0.55991508294E+01 -0.15793269973E+01 -0.93575449779E+01  0.11018548546E+02  0.51100000000E-03 0. -1.
        -11    1    4    4    0    0  0.82388625947E+01 -0.16304766374E+01 -0.57142062182E+01  0.10158221492E+02  0.51100000000E-03 0.  1.
         12    1    4    4    0    0 -0.25750392520E+02 -0.14953093872E+02 -0.14660121847E+02  0.33190313404E+02  0.00000000000E+00 0. -1.
</event>
<event>
 8    1  0.1229038E-006  0.9118800E+02  0.7816164E-02  0.1184000E+00
        -11   -1    0    0    0    0  0.00000000000E+00  0.00000000000E+00  0.45593999997E+02  0.45594000000E+02  0.51100000000E-03 0.  1.
         11   -1    0    0    0    0 -0.00000000000E+00 -0.00000000000E+00 -0.45593999997E+02  0.45594000000E+02  0.51100000000E-03 0. -1.
         23    2    1    2    0    0  0.00000000000E+00  0.00000000000E+00 -0.17763568394E-14  0.91188000000E+02  0.91188000000E+02 0.  0.
    9900012    2    3    3    0    0 -0.26269395557E+02  0.22765040194E+02 -0.12142957384E+02  0.54367087301E+02  0.40000007119E+02 0.  0.
         12    1    3    3    0    0  0.26269395557E+02 -0.22765040194E+02  0.12142957384E+02  0.36820912699E+02  0.00000000000E+00 0. -1.
         11    1    4    4    0    0 -0.11242913393E+02  0.65914609439E+01 -0.15274397530E+02  0.20078786793E+02  0.51100000000E-03 0. -1.
        -11    1    4    4    0    0 -0.13820183106E+02 -0.49163965277E+00  0.90898710953E+01  0.16548864837E+02  0.51100000000E-03 0.  1.
        -12    1    4    4    0    0 -0.12062990591E+01  0.16665218903E+02 -0.59584309498E+01  0.17739435670E+02  0.00000000000E+00 0.  1.
</event>
<event>
 8    1  0.1229038E-006  0.9118800E+02  0.7816164E-02  0.1184000E+00
        -11   -1    0    0    0    0  0.00000000000E+00  0.00000000000E+00  0.45593999997E+02  0.45594000000E+02  0.51100000000E-03 0. -1.
         11   -1    0    0    0    0 -0.00000000000E+00 -0.00000000000E+00 -0.45593999997E+02  0.45594000000E+02  0.51100000000E-03 0.  1.
         23    2    1    2    0    0  0.00000000000E+00  0.00000000000E+00  0.00000000000E+00  0.91188000000E+02  0.91188000000E+02 0.  0.
    9900012    2    3    3    0    0 -0.18924241694E+02 -0.29207680069E+02  0.12023017385E+02  0.54367238930E+02  0.40000352788E+02 0.  0.
        -12    1    3    3    0    0  0.18924241694E+02  0.29207680069E+02 -0.12023017385E+02  0.36820761070E+02  0.00000000000E+00 0.  1.
         11    1    4    4    0    0 -0.10177161822E+01 -0.47404326299E+01  0.11247297026E+02  0.12247821782E+02  0.51100000000E-03 0. -1.
        -11    1    4    4    0    0 -0.16991170983E+02 -0.30143244408E+02  0.50317718302E+01  0.34966180844E+02  0.51100000000E-03 0.  1.
        -12    1    4    4    0    0 -0.91535452851E+00  0.56759969691E+01 -0.42560514708E+01  0.71532363045E+01  0.00000000000E+00 0.  1.
</event>
<event>
 8    1  0.1229038E-006  0.9118800E+02  0.7816164E-02  0.1184000E+00
        -11   -1    0    0    0    0  0.00000000000E+00  0.00000000000E+00  0.45593999997E+02  0.45594000000E+02  0.51100000000E-03 0. -1.
         11   -1    0    0    0    0 -0.00000000000E+00 -0.00000000000E+00 -0.45593999997E+02  0.45594000000E+02  0.51100000000E-03 0.  1.
         23    2    1    2    0    0  0.00000000000E+00 -0.44408920985E-15 -0.35527136788E-14  0.91188000000E+02  0.91188000000E+02 0.  0.
    9900012    2    3    3    0    0  0.25136222358E+02 -0.10494922843E+01  0.26885834576E+02  0.54367092769E+02  0.40000019585E+02 0.  0.
        -12    1    3    3    0    0 -0.25136222358E+02  0.10494922843E+01 -0.26885834576E+02  0.36820907231E+02  0.00000000000E+00 0.  1.
         11    1    4    4    0    0  0.13811953003E+02  0.98832979332E+01  0.63148932949E+01  0.18119809640E+02  0.51100000000E-03 0. -1.
        -11    1    4    4    0    0  0.10838637838E+02  0.23594550360E+01  0.20076401963E+02  0.22936979189E+02  0.51100000000E-03 0.  1.
        -12    1    4    4    0    0  0.48563151678E+00 -0.13292245254E+02  0.49453931738E+00  0.13310303940E+02  0.00000000000E+00 0.  1.
</event>
<event>
 8    1  0.1229038E-006  0.9118800E+02  0.7816164E-02  0.1184000E+00
        -11   -1    0    0    0    0  0.00000000000E+00  0.00000000000E+00  0.45593999997E+02  0.45594000000E+02  0.51100000000E-03 0.  1.
         11   -1    0    0    0    0 -0.00000000000E+00 -0.00000000000E+00 -0.45593999997E+02  0.45594000000E+02  0.51100000000E-03 0. -1.
         23    2    1    2    0    0  0.00000000000E+00  0.17763568394E-14 -0.35527136788E-14  0.91188000000E+02  0.91188000000E+02 0.  0.
    9900012    2    3    3    0    0  0.17732337041E+02  0.15129829119E+02 -0.28503203843E+02  0.54367080193E+02  0.39999990917E+02 0.  0.
         12    1    3    3    0    0 -0.17732337041E+02 -0.15129829119E+02  0.28503203843E+02  0.36820919807E+02  0.00000000000E+00 0. -1.
         11    1    4    4    0    0  0.13095472950E+02  0.51517461333E+01 -0.10671165671E+02  0.17660851538E+02  0.51100000000E-03 0. -1.
        -11    1    4    4    0    0  0.19904091408E+01  0.12792036137E+02  0.47547431015E+01  0.13791500980E+02  0.51100000000E-03 0.  1.
         12    1    4    4    0    0  0.26464549505E+01 -0.28139531509E+01 -0.22586781273E+02  0.22914727675E+02  0.00000000000E+00 0. -1.
</event>
<event>
 8    1  0.1229038E-006  0.9118800E+02  0.7816164E-02  0.1184000E+00
        -11   -1    0    0    0    0  0.00000000000E+00  0.00000000000E+00  0.45593999997E+02  0.45594000000E+02  0.51100000000E-03 0.  1.
         11   -1    0    0    0    0 -0.00000000000E+00 -0.00000000000E+00 -0.45593999997E+02  0.45594000000E+02  0.51100000000E-03 0. -1.
         23    2    1    2    0    0  0.00000000000E+00  0.35527136788E-14 -0.35527136788E-14  0.91188000000E+02  0.91188000000E+02 0.  0.
    9900012    2    3    3    0    0 -0.39535388110E+01 -0.20423492265E+02 -0.30381463135E+02  0.54367043906E+02  0.39999908192E+02 0.  0.
        -12    1    3    3    0    0  0.39535388110E+01  0.20423492265E+02  0.30381463135E+02  0.36820956094E+02  0.00000000000E+00 0.  1.
         11    1    4    4    0    0 -0.83929095840E+01 -0.22338762590E+02 -0.34513904023E+02  0.41960348145E+02  0.51100000000E-03 0. -1.
        -11    1    4    4    0    0 -0.32143036937E+01  0.11256684591E+01 -0.47454117718E+00  0.34386141548E+01  0.51100000000E-03 0.  1.
         12    1    4    4    0    0  0.76536744667E+01  0.78960186537E+00  0.46069820646E+01  0.89680816060E+01  0.00000000000E+00 0. -1.
</event>
<event>
 8    1  0.1229038E-006  0.9118800E+02  0.7816164E-02  0.1184000E+00
        -11   -1    0    0    0    0  0.00000000000E+00  0.00000000000E+00  0.45593999997E+02  0.45594000000E+02  0.51100000000E-03 0. -1.
         11   -1    0    0    0    0 -0.00000000000E+00 -0.00000000000E+00 -0.45593999997E+02  0.45594000000E+02  0.51100000000E-03 0.  1.
         23    2    1    2    0    0  0.35527136788E-14 -0.35527136788E-14 -0.35527136788E-14  0.91188000000E+02  0.91188000000E+02 0.  0.
    9900012    2    3    3    0    0  0.20527998268E+02 -0.21559989827E+02 -0.21669075867E+02  0.54367072212E+02  0.39999972722E+02 0.  0.
         12    1    3    3    0    0 -0.20527998268E+02  0.21559989827E+02  0.21669075867E+02  0.36820927788E+02  0.00000000000E+00 0. -1.
         11    1    4    4    0    0  0.16729524945E+00 -0.25135491880E+01 -0.46036733396E+00  0.25608310301E+01  0.51100000000E-03 0. -1.
        -11    1    4    4    0    0 -0.19725681894E+01 -0.96485423035E+01  0.88204640114E+01  0.13220664865E+02  0.51100000000E-03 0.  1.
        -12    1    4    4    0    0  0.22333271208E+02 -0.93978983357E+01 -0.30029172544E+02  0.38585576317E+02  0.00000000000E+00 0.  1.
</event>
<event>
 8    1  0.1229038E-006  0.9118800E+02  0.7816164E-02  0.1184000E+00
        -11   -1    0    0    0    0  0.00000000000E+00  0.00000000000E+00  0.45593999997E+02  0.45594000000E+02  0.51100000000E-03 0. -1.
         11   -1    0    0    0    0 -0.00000000000E+00 -0.00000000000E+00 -0.45593999997E+02  0.45594000000E+02  0.51100000000E-03 0.  1.
         23    2    1    2    0    0 -0.17763568394E-14  0.00000000000E+00  0.00000000000E+00  0.91188000000E+02  0.91188000000E+02 0.  0.
    9900012    2    3    3    0    0  0.92677360730E+01  0.18983954503E+02 -0.30157911115E+02  0.54367067593E+02  0.39999962193E+02 0.  0.
         12    1    3    3    0    0 -0.92677360730E+01 -0.18983954503E+02  0.30157911115E+02  0.36820932407E+02  0.00000000000E+00 0. -1.
         11    1    4    4    0    0 -0.27796261797E+01  0.23539022746E+01  0.55159426630E+00  0.36839427402E+01  0.51100000000E-03 0. -1.
        -11    1    4    4    0    0  0.98770865731E+01  0.23552780529E+02 -0.34157888174E+02  0.42650341553E+02  0.51100000000E-03 0.  1.
        -12    1    4    4    0    0  0.21702756795E+01 -0.69227283013E+01  0.34483827929E+01  0.80327833000E+01  0.00000000000E+00 0.  1.
</event>
<event>
 8    1  0.1229038E-006  0.9118800E+02  0.7816164E-02  0.1184000E+00
        -11   -1    0    0    0    0  0.00000000000E+00  0.00000000000E+00  0.45593999997E+02  0.45594000000E+02  0.51100000000E-03 0.  1.
         11   -1    0    0    0    0 -0.00000000000E+00 -0.00000000000E+00 -0.45593999997E+02  0.45594000000E+02  0.51100000000E-03 0. -1.
         23    2    1    2    0    0  0.00000000000E+00  0.17763568394E-14  0.00000000000E+00  0.91188000000E+02  0.91188000000E+02 0.  0.
    9900012    2    3    3    0    0 -0.16739762278E+02 -0.53082433848E+01  0.32363296126E+02  0.54367081691E+02  0.39999994331E+02 0.  0.
         12    1    3    3    0    0  0.16739762278E+02  0.53082433848E+01 -0.32363296126E+02  0.36820918309E+02  0.00000000000E+00 0. -1.
         11    1    4    4    0    0 -0.11286383067E+02  0.12918196577E+02  0.19099892671E+02  0.25672322564E+02  0.51100000000E-03 0. -1.
        -11    1    4    4    0    0 -0.80577094091E+01 -0.20255466748E+02  0.13003524020E+02  0.25383109567E+02  0.51100000000E-03 0.  1.
         12    1    4    4    0    0  0.26043301982E+01  0.20290267866E+01  0.25987943544E+00  0.33116495592E+01  0.00000000000E+00 0. -1.
</event>
<event>
 8    1  0.1229038E-006  0.9118800E+02  0.7816164E-02  0.1184000E+00
        -11   -1    0    0    0    0  0.00000000000E+00  0.00000000000E+00  0.45593999997E+02  0.45594000000E+02  0.51100000000E-03 0.  1.
         11   -1    0    0    0    0 -0.00000000000E+00 -0.00000000000E+00 -0.45593999997E+02  0.45594000000E+02  0.51100000000E-03 0. -1.
         23    2    1    2    0    0  0.00000000000E+00  0.88817841970E-15  0.00000000000E+00  0.91188000000E+02  0.91188000000E+02 0.  0.
    9900012    2    3    3    0    0 -0.16422842024E+02 -0.42018505501E+01 -0.32686607249E+02  0.54367087713E+02  0.40000008059E+02 0.  0.
        -12    1    3    3    0    0  0.16422842024E+02  0.42018505501E+01  0.32686607249E+02  0.36820912287E+02  0.00000000000E+00 0.  1.
         11    1    4    4    0    0 -0.11359117406E+02 -0.13510017595E+02 -0.30041204971E+02  0.34842848908E+02  0.51100000000E-03 0. -1.
        -11    1    4    4    0    0 -0.75590897506E+01  0.12856114588E+02 -0.12424716510E+01  0.14965401973E+02  0.51100000000E-03 0.  1.
         12    1    4    4    0    0  0.24953651325E+01 -0.35479475429E+01 -0.14029306277E+01  0.45588368317E+01  0.00000000000E+00 0. -1.
</event>
<event>
 8    1  0.1229038E-006  0.9118800E+02  0.7816164E-02  0.1184000E+00
        -11   -1    0    0    0    0  0.00000000000E+00  0.00000000000E+00  0.45593999997E+02  0.45594000000E+02  0.51100000000E-03 0. -1.
         11   -1    0    0    0    0 -0.00000000000E+00 -0.00000000000E+00 -0.45593999997E+02  0.45594000000E+02  0.51100000000E-03 0.  1.
         23    2    1    2    0    0  0.35527136788E-14 -0.35527136788E-14  0.00000000000E+00  0.91188000000E+02  0.91188000000E+02 0.  0.
    9900012    2    3    3    0    0  0.24265412126E+02 -0.26308854575E+02 -0.86494626221E+01  0.54367092103E+02  0.40000018068E+02 0.  0.
         12    1    3    3    0    0 -0.24265412126E+02  0.26308854575E+02  0.86494626221E+01  0.36820907897E+02  0.00000000000E+00 0. -1.
         11    1    4    4    0    0  0.15766775327E+02  0.13472996530E+00 -0.41173526430E+01  0.16296071595E+02  0.51100000000E-03 0. -1.
        -11    1    4    4    0    0  0.10894326065E+02 -0.29726206285E+02 -0.80820939050E+01  0.32674973950E+02  0.51100000000E-03 0.  1.
         12    1    4    4    0    0 -0.23956892655E+01  0.32826217454E+01  0.35499839258E+01  0.53960465578E+01  0.00000000000E+00 0. -1.
</event>
<event>
 8    1  0.1229038E-006  0.9118800E+02  0.7816164E-02  0.1184000E+00
        -11   -1    0    0    0    0  0.00000000000E+00  0.00000000000E+00  0.45593999997E+02  0.45594000000E+02  0.51100000000E-03 0. -1.
         11   -1    0    0    0    0 -0.00000000000E+00 -0.00000000000E+00 -0.45593999997E+02  0.45594000000E+02  0.51100000000E-03 0.  1.
         23    2    1    2    0    0  0.00000000000E+00  0.00000000000E+00  0.00000000000E+00  0.91188000000E+02  0.91188000000E+02 0.  0.
    9900012    2    3    3    0    0 -0.16164562196E+02 -0.12975126027E+02 -0.30432439748E+02  0.54367077206E+02  0.39999984106E+02 0.  0.
         12    1    3    3    0    0  0.16164562196E+02  0.12975126027E+02  0.30432439748E+02  0.36820922794E+02  0.00000000000E+00 0. -1.
         11    1    4    4    0    0 -0.18605948007E+02  0.22856708578E+01 -0.23347002488E+02  0.29941411422E+02  0.51100000000E-03 0. -1.
        -11    1    4    4    0    0 -0.12463529067E+01  0.77815159491E+00 -0.78151337872E+01  0.79520583401E+01  0.51100000000E-03 0.  1.
         12    1    4    4    0    0  0.36877387181E+01 -0.16038948480E+02  0.72969652685E+00  0.16473607444E+02  0.00000000000E+00 0. -1.
</event>
<event>
 8    1  0.1229038E-006  0.9118800E+02  0.7816164E-02  0.1184000E+00
        -11   -1    0    0    0    0  0.00000000000E+00  0.00000000000E+00  0.45593999997E+02  0.45594000000E+02  0.51100000000E-03 0. -1.
         11   -1    0    0    0    0 -0.00000000000E+00 -0.00000000000E+00 -0.45593999997E+02  0.45594000000E+02  0.51100000000E-03 0.  1.
         23    2    1    2    0    0  0.35527136788E-14  0.17763568394E-14  0.00000000000E+00  0.91188000000E+02  0.91188000000E+02 0.  0.
    9900012    2    3    3    0    0  0.19286876159E+02  0.12505316807E+02 -0.28764781859E+02  0.54367092680E+02  0.40000019383E+02 0.  0.
         12    1    3    3    0    0 -0.19286876159E+02 -0.12505316807E+02  0.28764781859E+02  0.36820907320E+02  0.00000000000E+00 0. -1.
         11    1    4    4    0    0  0.26766323447E+01  0.62799376683E+00  0.20591793898E+00  0.27570163834E+01  0.51100000000E-03 0. -1.
        -11    1    4    4    0    0 -0.86157468134E+01  0.11551050503E+02 -0.20378810857E+02  0.24959042311E+02  0.51100000000E-03 0.  1.
        -12    1    4    4    0    0  0.25225990628E+02  0.32627253733E+00 -0.85918889418E+01  0.26651033986E+02  0.00000000000E+00 0.  1.
</event>
<event>
 8    1  0.1229038E-006  0.9118800E+02  0.7816164E-02  0.1184000E+00
        -11   -1    0    0    0    0  0.00000000000E+00  0.00000000000E+00  0.45593999997E+02  0.45594000000E+02  0.51100000000E-03 0.  1.
         11   -1    0    0    0    0 -0.00000000000E+00 -0.00000000000E+00 -0.45593999997E+02  0.45594000000E+02  0.51100000000E-03 0. -1.
         23    2    1    2    0    0  0.00000000000E+00  0.00000000000E+00  0.13322676296E-14  0.91188000000E+02  0.91188000000E+02 0.  0.
    9900012    2    3    3    0    0  0.36201512089E+02 -0.59099481400E+01 -0.32098034708E+01  0.54367084709E+02  0.40000001212E+02 0.  0.
        -12    1    3    3    0    0 -0.36201512089E+02  0.59099481400E+01  0.32098034708E+01  0.36820915291E+02  0.00000000000E+00 0.  1.
         11    1    4    4    0    0  0.30339272659E+02 -0.79692973898E+01  0.13556557303E+02  0.34172524235E+02  0.51100000000E-03 0.  1.
        -11    1    4    4    0    0  0.38192074340E+01  0.47527831006E+01 -0.48000426531E+01  0.77598777283E+01  0.51100000000E-03 0. -1.
        -12    1    4    4    0    0  0.20430319952E+01 -0.26934338508E+01 -0.11966318121E+02  0.12434682746E+02  0.00000000000E+00 0.  1.
</event>
<event>
 8    1  0.1229038E-006  0.9118800E+02  0.7816164E-02  0.1184000E+00
        -11   -1    0    0    0    0  0.00000000000E+00  0.00000000000E+00  0.45593999997E+02  0.45594000000E+02  0.51100000000E-03 0.  1.
         11   -1    0    0    0    0 -0.00000000000E+00 -0.00000000000E+00 -0.45593999997E+02  0.45594000000E+02  0.51100000000E-03 0. -1.
         23    2    1    2    0    0  0.35527136788E-14  0.00000000000E+00  0.00000000000E+00  0.91188000000E+02  0.91188000000E+02 0.  0.
    9900012    2    3    3    0    0 -0.22074370101E+02  0.22482337254E+02 -0.19053784445E+02  0.54367081958E+02  0.39999994940E+02 0.  0.
        -12    1    3    3    0    0  0.22074370101E+02 -0.22482337254E+02  0.19053784445E+02  0.36820918042E+02  0.00000000000E+00 0.  1.
         11    1    4    4    0    0 -0.15351464924E+02  0.53907331537E+01 -0.11716531096E+02  0.20050051881E+02  0.51100000000E-03 0. -1.
        -11    1    4    4    0    0  0.26198849225E+01  0.18411774429E+02 -0.13558555544E+02  0.23015031248E+02  0.51100000000E-03 0.  1.
        -12    1    4    4    0    0 -0.93427900990E+01 -0.13201703285E+01  0.62213021950E+01  0.11301998829E+02  0.00000000000E+00 0.  1.
</event>
<event>
 8    1  0.1229038E-006  0.9118800E+02  0.7816164E-02  0.1184000E+00
        -11   -1    0    0    0    0  0.00000000000E+00  0.00000000000E+00  0.45593999997E+02  0.45594000000E+02  0.51100000000E-03 0.  1.
         11   -1    0    0    0    0 -0.00000000000E+00 -0.00000000000E+00 -0.45593999997E+02  0.45594000000E+02  0.51100000000E-03 0. -1.
         23    2    1    2    0    0  0.00000000000E+00  0.00000000000E+00  0.35527136788E-14  0.91188000000E+02  0.91188000000E+02 0.  0.
    9900012    2    3    3    0    0 -0.39207524569E+01  0.32185046166E+02 -0.17450772807E+02  0.54367096045E+02  0.40000027053E+02 0.  0.
        -12    1    3    3    0    0  0.39207524569E+01 -0.32185046166E+02  0.17450772807E+02  0.36820903955E+02  0.00000000000E+00 0.  1.
         11    1    4    4    0    0 -0.90135149153E+01  0.43396542918E+01 -0.20721912082E+01  0.10216164993E+02  0.51100000000E-03 0. -1.
        -11    1    4    4    0    0  0.13321836141E+01  0.75182346396E+01 -0.21316690419E+02  0.22642876495E+02  0.51100000000E-03 0.  1.
         12    1    4    4    0    0  0.37605788443E+01  0.20327157234E+02  0.59381088195E+01  0.21508054557E+02  0.00000000000E+00 0. -1.
</event>
<event>
 8    1  0.1229038E-006  0.9118800E+02  0.7816164E-02  0.1184000E+00
        -11   -1    0    0    0    0  0.00000000000E+00  0.00000000000E+00  0.45593999997E+02  0.45594000000E+02  0.51100000000E-03 0.  1.
         11   -1    0    0    0    0 -0.00000000000E+00 -0.00000000000E+00 -0.45593999997E+02  0.45594000000E+02  0.51100000000E-03 0. -1.
         23    2    1    2    0    0  0.00000000000E+00  0.00000000000E+00  0.35527136788E-14  0.91188000000E+02  0.91188000000E+02 0.  0.
    9900012    2    3    3    0    0  0.20429462307E+02  0.31016997135E+01 -0.30476069820E+02  0.54367159394E+02  0.40000171471E+02 0.  0.
        -12    1    3    3    0    0 -0.20429462307E+02 -0.31016997135E+01  0.30476069820E+02  0.36820840606E+02  0.00000000000E+00 0.  1.
         11    1    4    4    0    0  0.19045554080E+02  0.11534581326E+02 -0.22536461065E+02  0.31680779254E+02  0.51100000000E-03 0. -1.
        -11    1    4    4    0    0  0.52179138864E+01 -0.57783095610E+01  0.47820663125E+01  0.91369385019E+01  0.51100000000E-03 0.  1.
         12    1    4    4    0    0 -0.38340056599E+01 -0.26545720516E+01 -0.12721675068E+02  0.13549441638E+02  0.00000000000E+00 0. -1.
</event>
<event>
 8    1  0.1229038E-006  0.9118800E+02  0.7816164E-02  0.1184000E+00
        -11   -1    0    0    0    0  0.00000000000E+00  0.00000000000E+00  0.45593999997E+02  0.45594000000E+02  0.51100000000E-03 0.  1.
         11   -1    0    0    0    0 -0.00000000000E+00 -0.00000000000E+00 -0.45593999997E+02  0.45594000000E+02  0.51100000000E-03 0. -1.
         23    2    1    2    0    0  0.00000000000E+00 -0.44408920985E-15  0.00000000000E+00  0.91188000000E+02  0.91188000000E+02 0.  0.
    9900012    2    3    3    0    0 -0.31074953524E+02  0.25155722902E+01 -0.19590822130E+02  0.54367066386E+02  0.39999959441E+02 0.  0.
         12    1    3    3    0    0  0.31074953524E+02 -0.25155722902E+01  0.19590822130E+02  0.36820933614E+02  0.00000000000E+00 0. -1.
         11    1    4    4    0    0 -0.24283519593E+02 -0.25801908257E+01 -0.74249393641E+01  0.25524036384E+02  0.51100000000E-03 0. -1.
        -11    1    4    4    0    0  0.40336114585E+00  0.69555129229E+01  0.60134713642E+01  0.92034612155E+01  0.51100000000E-03 0.  1.
         12    1    4    4    0    0 -0.71947950766E+01 -0.18597498070E+01 -0.18179354130E+02  0.19639568787E+02  0.00000000000E+00 0. -1.
</event>
<event>
 8    1  0.1229038E-006  0.9118800E+02  0.7816164E-02  0.1184000E+00
        -11   -1    0    0    0    0  0.00000000000E+00  0.00000000000E+00  0.45593999997E+02  0.45594000000E+02  0.51100000000E-03 0.  1.
         11   -1    0    0    0    0 -0.00000000000E+00 -0.00000000000E+00 -0.45593999997E+02  0.45594000000E+02  0.51100000000E-03 0. -1.
         23    2    1    2    0    0  0.00000000000E+00  0.00000000000E+00  0.00000000000E+00  0.91188000000E+02  0.91188000000E+02 0.  0.
    9900012    2    3    3    0    0 -0.74293384994E+01 -0.48942116493E+01  0.35729972447E+02  0.54367091412E+02  0.40000016491E+02 0.  0.
         12    1    3    3    0    0  0.74293384994E+01  0.48942116493E+01 -0.35729972447E+02  0.36820908588E+02  0.00000000000E+00 0. -1.
         11    1    4    4    0    0 -0.39196676273E+01 -0.69794822394E+01  0.29019485199E+02  0.30103280355E+02  0.51100000000E-03 0.  1.
        -11    1    4    4    0    0 -0.88030310858E+01  0.42666913420E+01  0.12665173553E+02  0.16003269438E+02  0.51100000000E-03 0. -1.
         12    1    4    4    0    0  0.52933602137E+01 -0.21814207519E+01 -0.59546863052E+01  0.82605416192E+01  0.00000000000E+00 0. -1.
</event>
<event>
 8    1  0.1229038E-006  0.9118800E+02  0.7816164E-02  0.1184000E+00
        -11   -1    0    0    0    0  0.00000000000E+00  0.00000000000E+00  0.45593999997E+02  0.45594000000E+02  0.51100000000E-03 0.  1.
         11   -1    0    0    0    0 -0.00000000000E+00 -0.00000000000E+00 -0.45593999997E+02  0.45594000000E+02  0.51100000000E-03 0. -1.
         23    2    1    2    0    0  0.00000000000E+00 -0.35527136788E-14  0.00000000000E+00  0.91188000000E+02  0.91188000000E+02 0.  0.
    9900012    2    3    3    0    0 -0.74963442543E+01  0.30550782130E+02  0.19137136737E+02  0.54367143568E+02  0.40000135391E+02 0.  0.
         12    1    3    3    0    0  0.74963442543E+01 -0.30550782130E+02 -0.19137136737E+02  0.36820856432E+02  0.00000000000E+00 0. -1.
         11    1    4    4    0    0 -0.10851722034E+02  0.11858132057E+02  0.11693152054E+02  0.19877247602E+02  0.51100000000E-03 0. -1.
        -11    1    4    4    0    0 -0.14904742189E+01  0.22462075591E+02  0.13181650436E+02  0.26086821610E+02  0.51100000000E-03 0.  1.
         12    1    4    4    0    0  0.48458519990E+01 -0.37694255179E+01 -0.57376657536E+01  0.84030743559E+01  0.00000000000E+00 0. -1.
</event>
<event>
 8    1  0.1229038E-006  0.9118800E+02  0.7816164E-02  0.1184000E+00
        -11   -1    0    0    0    0  0.00000000000E+00  0.00000000000E+00  0.45593999997E+02  0.45594000000E+02  0.51100000000E-03 0.  1.
         11   -1    0    0    0    0 -0.00000000000E+00 -0.00000000000E+00 -0.45593999997E+02  0.45594000000E+02  0.51100000000E-03 0. -1.
         23    2    1    2    0    0  0.00000000000E+00 -0.17763568394E-14  0.00000000000E+00  0.91188000000E+02  0.91188000000E+02 0.  0.
    9900012    2    3    3    0    0  0.27214370356E+02  0.15074773972E+02  0.19695412549E+02  0.54367081494E+02  0.39999993881E+02 0.  0.
         12    1    3    3    0    0 -0.27214370356E+02 -0.15074773972E+02 -0.19695412549E+02  0.36820918506E+02  0.00000000000E+00 0. -1.
         11    1    4    4    0    0  0.75838967842E+01  0.14717191514E+01 -0.80211177996E+01  0.11136416781E+02  0.51100000000E-03 0. -1.
        -11    1    4    4    0    0  0.11727184281E+02 -0.51616566049E+01  0.10444660653E+02  0.16530592442E+02  0.51100000000E-03 0.  1.
         12    1    4    4    0    0  0.79032892912E+01  0.18764711425E+02  0.17271869696E+02  0.26700072271E+02  0.00000000000E+00 0. -1.
</event>
<event>
 8    1  0.1229038E-006  0.9118800E+02  0.7816164E-02  0.1184000E+00
        -11   -1    0    0    0    0  0.00000000000E+00  0.00000000000E+00  0.45593999997E+02  0.45594000000E+02  0.51100000000E-03 0. -1.
         11   -1    0    0    0    0 -0.00000000000E+00 -0.00000000000E+00 -0.45593999997E+02  0.45594000000E+02  0.51100000000E-03 0.  1.
         23    2    1    2    0    0  0.00000000000E+00 -0.35527136788E-14  0.00000000000E+00  0.91188000000E+02  0.91188000000E+02 0.  0.
    9900012    2    3    3    0    0  0.29297645649E+02 -0.21281212702E+02  0.66727626155E+01  0.54367247488E+02  0.40000372296E+02 0.  0.
         12    1    3    3    0    0 -0.29297645649E+02  0.21281212702E+02 -0.66727626155E+01  0.36820752512E+02  0.00000000000E+00 0. -1.
         11    1    4    4    0    0  0.40395087169E+01 -0.22693655940E+01  0.12597982278E+02  0.13422995516E+02  0.51100000000E-03 0. -1.
        -11    1    4    4    0    0  0.29445838900E+02 -0.18830495757E+02 -0.17011511237E+01  0.34993412442E+02  0.51100000000E-03 0.  1.
         12    1    4    4    0    0 -0.41877019676E+01 -0.18135135102E+00 -0.42240685392E+01  0.59508395295E+01  0.00000000000E+00 0. -1.
</event>
<event>
 8    1  0.1229038E-006  0.9118800E+02  0.7816164E-02  0.1184000E+00
        -11   -1    0    0    0    0  0.00000000000E+00  0.00000000000E+00  0.45593999997E+02  0.45594000000E+02  0.51100000000E-03 0.  1.
         11   -1    0    0    0    0 -0.00000000000E+00 -0.00000000000E+00 -0.45593999997E+02  0.45594000000E+02  0.51100000000E-03 0. -1.
         23    2    1    2    0    0 -0.35527136788E-14  0.00000000000E+00  0.11102230246E-14  0.91188000000E+02  0.91188000000E+02 0.  0.
    9900012    2    3    3    0    0  0.31794216221E+02  0.18546993569E+02  0.95509423557E+00  0.54367145032E+02  0.40000138730E+02 0.  0.
         12    1    3    3    0    0 -0.31794216221E+02 -0.18546993569E+02 -0.95509423557E+00  0.36820854968E+02  0.00000000000E+00 0. -1.
         11    1    4    4    0    0  0.61432905594E+01 -0.27012958820E+01  0.93209488063E+01  0.11485517196E+02  0.51100000000E-03 0. -1.
        -11    1    4    4    0    0  0.34962992426E+01  0.47673012556E+01  0.86277261429E+01  0.10458916211E+02  0.51100000000E-03 0.  1.
        -12    1    4    4    0    0  0.22154626419E+02  0.16480988195E+02 -0.16993580714E+02  0.32422711625E+02  0.00000000000E+00 0.  1.
</event>
<event>
 8    1  0.1229038E-006  0.9118800E+02  0.7816164E-02  0.1184000E+00
        -11   -1    0    0    0    0  0.00000000000E+00  0.00000000000E+00  0.45593999997E+02  0.45594000000E+02  0.51100000000E-03 0.  1.
         11   -1    0    0    0    0 -0.00000000000E+00 -0.00000000000E+00 -0.45593999997E+02  0.45594000000E+02  0.51100000000E-03 0. -1.
         23    2    1    2    0    0 -0.44408920985E-15  0.00000000000E+00 -0.35527136788E-14  0.91188000000E+02  0.91188000000E+02 0.  0.
    9900012    2    3    3    0    0  0.33614716015E+01  0.32358665976E+02  0.17245364585E+02  0.54367009318E+02  0.39999829343E+02 0.  0.
        -12    1    3    3    0    0 -0.33614716015E+01 -0.32358665976E+02 -0.17245364585E+02  0.36820990682E+02  0.00000000000E+00 0.  1.
         11    1    4    4    0    0 -0.54190114421E+01  0.31356160027E+01 -0.52686386865E+01  0.81826845592E+01  0.51100000000E-03 0. -1.
        -11    1    4    4    0    0  0.13380727174E+01 -0.10909800598E+01  0.13618193088E+02  0.13727194153E+02  0.51100000000E-03 0.  1.
         12    1    4    4    0    0  0.74424103262E+01  0.30314030033E+02  0.88958101843E+01  0.32457130606E+02  0.00000000000E+00 0. -1.
</event>
<event>
 8    1  0.1229038E-006  0.9118800E+02  0.7816164E-02  0.1184000E+00
        -11   -1    0    0    0    0  0.00000000000E+00  0.00000000000E+00  0.45593999997E+02  0.45594000000E+02  0.51100000000E-03 0.  1.
         11   -1    0    0    0    0 -0.00000000000E+00 -0.00000000000E+00 -0.45593999997E+02  0.45594000000E+02  0.51100000000E-03 0. -1.
         23    2    1    2    0    0  0.88817841970E-15  0.35527136788E-14  0.35527136788E-14  0.91188000000E+02  0.91188000000E+02 0.  0.
    9900012    2    3    3    0    0  0.78453516947E+01  0.23312725618E+02  0.27399762193E+02  0.54367086280E+02  0.40000004792E+02 0.  0.
         12    1    3    3    0    0 -0.78453516947E+01 -0.23312725618E+02 -0.27399762193E+02  0.36820913720E+02  0.00000000000E+00 0. -1.
         11    1    4    4    0    0  0.32916019812E+01 -0.23328847207E+01 -0.78503901657E+01  0.88264160755E+01  0.51100000000E-03 0. -1.
        -11    1    4    4    0    0 -0.19269075222E+01  0.78515634548E+01  0.40480751559E+01  0.90414011089E+01  0.51100000000E-03 0.  1.
         12    1    4    4    0    0  0.64806572357E+01  0.17794046884E+02  0.31202077203E+02  0.36499269095E+02  0.00000000000E+00 0. -1.
</event>
<event>
 8    1  0.1229038E-006  0.9118800E+02  0.7816164E-02  0.1184000E+00
        -11   -1    0    0    0    0  0.00000000000E+00  0.00000000000E+00  0.45593999997E+02  0.45594000000E+02  0.51100000000E-03 0. -1.
         11   -1    0    0    0    0 -0.00000000000E+00 -0.00000000000E+00 -0.45593999997E+02  0.45594000000E+02  0.51100000000E-03 0.  1.
         23    2    1    2    0    0  0.00000000000E+00  0.35527136788E-14  0.00000000000E+00  0.91188000000E+02  0.91188000000E+02 0.  0.
    9900012    2    3    3    0    0 -0.89085226589E+01  0.26286512847E+02 -0.24195849283E+02  0.54367059543E+02  0.39999943841E+02 0.  0.
         12    1    3    3    0    0  0.89085226589E+01 -0.26286512847E+02  0.24195849283E+02  0.36820940457E+02  0.00000000000E+00 0. -1.
         11    1    4    4    0    0 -0.15928878064E+02  0.14755542096E+02 -0.96664578641E+01  0.23767532199E+02  0.51100000000E-03 0.  1.
        -11    1    4    4    0    0  0.60779575916E+01  0.14852371920E+02 -0.39833595778E+00  0.16052825045E+02  0.51100000000E-03 0. -1.
        -12    1    4    4    0    0  0.94239781370E+00 -0.33214011686E+01 -0.14131055461E+02  0.14546702300E+02  0.00000000000E+00 0.  1.
</event>
<event>
 8    1  0.1229038E-006  0.9118800E+02  0.7816164E-02  0.1184000E+00
        -11   -1    0    0    0    0  0.00000000000E+00  0.00000000000E+00  0.45593999997E+02  0.45594000000E+02  0.51100000000E-03 0.  1.
         11   -1    0    0    0    0 -0.00000000000E+00 -0.00000000000E+00 -0.45593999997E+02  0.45594000000E+02  0.51100000000E-03 0. -1.
         23    2    1    2    0    0  0.35527136788E-14  0.00000000000E+00  0.00000000000E+00  0.91188000000E+02  0.91188000000E+02 0.  0.
    9900012    2    3    3    0    0  0.24864290812E+02 -0.15935694115E+02  0.21990993808E+02  0.54367039758E+02  0.39999898735E+02 0.  0.
         12    1    3    3    0    0 -0.24864290812E+02  0.15935694115E+02 -0.21990993808E+02  0.36820960242E+02  0.00000000000E+00 0. -1.
         11    1    4    4    0    0  0.12479895922E+02 -0.34368622075E+01 -0.48652983596E+01  0.13828628003E+02  0.51100000000E-03 0. -1.
        -11    1    4    4    0    0  0.16885544262E+02 -0.22088686360E+00  0.18352422443E+02  0.24939563064E+02  0.51100000000E-03 0.  1.
        -12    1    4    4    0    0 -0.45011493723E+01 -0.12277945044E+02  0.85038697250E+01  0.15598848691E+02  0.00000000000E+00 0.  1.
</event>
<event>
 8    1  0.1229038E-006  0.9118800E+02  0.7816164E-02  0.1184000E+00
        -11   -1    0    0    0    0  0.00000000000E+00  0.00000000000E+00  0.45593999997E+02  0.45594000000E+02  0.51100000000E-03 0.  1.
         11   -1    0    0    0    0 -0.00000000000E+00 -0.00000000000E+00 -0.45593999997E+02  0.45594000000E+02  0.51100000000E-03 0. -1.
         23    2    1    2    0    0  0.00000000000E+00  0.35527136788E-14  0.35527136788E-14  0.91188000000E+02  0.91188000000E+02 0.  0.
    9900012    2    3    3    0    0 -0.48071540525E+01 -0.27150847448E+02 -0.24402914335E+02  0.54367089158E+02  0.40000011352E+02 0.  0.
        -12    1    3    3    0    0  0.48071540525E+01  0.27150847448E+02  0.24402914335E+02  0.36820910842E+02  0.00000000000E+00 0.  1.
         11    1    4    4    0    0 -0.10345130362E+02 -0.21212295697E+02  0.13647909965E+01  0.23639921016E+02  0.51100000000E-03 0. -1.
        -11    1    4    4    0    0  0.22699132423E+01 -0.70232524151E+01 -0.34536663639E+01  0.81490117332E+01  0.51100000000E-03 0.  1.
        -12    1    4    4    0    0  0.32680630673E+01  0.10847006638E+01 -0.22314038967E+02  0.22578156408E+02  0.00000000000E+00 0.  1.
</event>
<event>
 8    1  0.1229038E-006  0.9118800E+02  0.7816164E-02  0.1184000E+00
        -11   -1    0    0    0    0  0.00000000000E+00  0.00000000000E+00  0.45593999997E+02  0.45594000000E+02  0.51100000000E-03 0. -1.
         11   -1    0    0    0    0 -0.00000000000E+00 -0.00000000000E+00 -0.45593999997E+02  0.45594000000E+02  0.51100000000E-03 0.  1.
         23    2    1    2    0    0  0.35527136788E-14  0.00000000000E+00 -0.88817841970E-15  0.91188000000E+02  0.91188000000E+02 0.  0.
    9900012    2    3    3    0    0 -0.30947075537E+02 -0.19731221897E+02  0.29557929848E+01  0.54367091348E+02  0.40000016345E+02 0.  0.
         12    1    3    3    0    0  0.30947075537E+02  0.19731221897E+02 -0.29557929848E+01  0.36820908652E+02  0.00000000000E+00 0. -1.
         11    1    4    4    0    0 -0.86996201875E+01 -0.13276657883E+02  0.16985523671E+01  0.15963649845E+02  0.51100000000E-03 0. -1.
        -11    1    4    4    0    0 -0.29096550349E+02 -0.48471829099E+01  0.57545643307E+01  0.30053609355E+02  0.51100000000E-03 0.  1.
         12    1    4    4    0    0  0.68490949994E+01 -0.16073811035E+01 -0.44973237129E+01  0.83498321481E+01  0.00000000000E+00 0. -1.
</event>
<event>
 8    1  0.1229038E-006  0.9118800E+02  0.7816164E-02  0.1184000E+00
        -11   -1    0    0    0    0  0.00000000000E+00  0.00000000000E+00  0.45593999997E+02  0.45594000000E+02  0.51100000000E-03 0. -1.
         11   -1    0    0    0    0 -0.00000000000E+00 -0.00000000000E+00 -0.45593999997E+02  0.45594000000E+02  0.51100000000E-03 0.  1.
         23    2    1    2    0    0  0.00000000000E+00  0.10338951917E-14  0.00000000000E+00  0.91188000000E+02  0.91188000000E+02 0.  0.
    9900012    2    3    3    0    0 -0.35710967412E+02  0.44323860107E-01 -0.89724982201E+01  0.54367070050E+02  0.39999967793E+02 0.  0.
        -12    1    3    3    0    0  0.35710967412E+02 -0.44323860107E-01  0.89724982201E+01  0.36820929950E+02  0.00000000000E+00 0.  1.
         11    1    4    4    0    0 -0.18527898331E+02 -0.81982768843E+01 -0.11809863062E+02  0.23451388578E+02  0.51100000000E-03 0. -1.
        -11    1    4    4    0    0 -0.13787771076E+01  0.10990641040E+02  0.84380522889E+01  0.13924652365E+02  0.51100000000E-03 0.  1.
        -12    1    4    4    0    0 -0.15804291973E+02 -0.27480402958E+01 -0.56006874468E+01  0.16991029107E+02  0.00000000000E+00 0.  1.
</event>
<event>
 8    1  0.1229038E-006  0.9118800E+02  0.7816164E-02  0.1184000E+00
        -11   -1    0    0    0    0  0.00000000000E+00  0.00000000000E+00  0.45593999997E+02  0.45594000000E+02  0.51100000000E-03 0.  1.
         11   -1    0    0    0    0 -0.00000000000E+00 -0.00000000000E+00 -0.45593999997E+02  0.45594000000E+02  0.51100000000E-03 0. -1.
         23    2    1    2    0    0  0.00000000000E+00  0.00000000000E+00  0.17763568394E-14  0.91188000000E+02  0.91188000000E+02 0.  0.
    9900012    2    3    3    0    0 -0.34342169097E+02 -0.90421199756E+01 -0.97280915733E+01  0.54367078263E+02  0.39999986516E+02 0.  0.
        -12    1    3    3    0    0  0.34342169097E+02  0.90421199756E+01  0.97280915733E+01  0.36820921737E+02  0.00000000000E+00 0.  1.
         11    1    4    4    0    0 -0.23209118056E+01 -0.90039220295E+01 -0.42610791741E+01  0.10228100484E+02  0.51100000000E-03 0. -1.
        -11    1    4    4    0    0 -0.14639891633E+02 -0.40782976468E+01 -0.17069105495E+02  0.22854174704E+02  0.51100000000E-03 0.  1.
        -12    1    4    4    0    0 -0.17381365658E+02  0.40400997007E+01  0.11602093096E+02  0.21284803075E+02  0.00000000000E+00 0.  1.
</event>
<event>
 8    1  0.1229038E-006  0.9118800E+02  0.7816164E-02  0.1184000E+00
        -11   -1    0    0    0    0  0.00000000000E+00  0.00000000000E+00  0.45593999997E+02  0.45594000000E+02  0.51100000000E-03 0.  1.
         11   -1    0    0    0    0 -0.00000000000E+00 -0.00000000000E+00 -0.45593999997E+02  0.45594000000E+02  0.51100000000E-03 0. -1.
         23    2    1    2    0    0 -0.22204460493E-15  0.00000000000E+00  0.00000000000E+00  0.91188000000E+02  0.91188000000E+02 0.  0.
    9900012    2    3    3    0    0  0.15195632393E+01  0.11247034188E+02 -0.35028194562E+02  0.54367092016E+02  0.40000017869E+02 0.  0.
        -12    1    3    3    0    0 -0.15195632393E+01 -0.11247034188E+02  0.35028194562E+02  0.36820907984E+02  0.00000000000E+00 0.  1.
         11    1    4    4    0    0  0.21441642460E+00  0.19550702479E+02 -0.15006795014E+02  0.24647106092E+02  0.51100000000E-03 0. -1.
        -11    1    4    4    0    0 -0.66353929836E+01  0.21471181280E+01 -0.13197376888E+02  0.14926798494E+02  0.51100000000E-03 0.  1.
        -12    1    4    4    0    0  0.79405397983E+01 -0.10450786420E+02 -0.68240226597E+01  0.14793187430E+02  0.00000000000E+00 0.  1.
</event>
<event>
 8    1  0.1229038E-006  0.9118800E+02  0.7816164E-02  0.1184000E+00
        -11   -1    0    0    0    0  0.00000000000E+00  0.00000000000E+00  0.45593999997E+02  0.45594000000E+02  0.51100000000E-03 0. -1.
         11   -1    0    0    0    0 -0.00000000000E+00 -0.00000000000E+00 -0.45593999997E+02  0.45594000000E+02  0.51100000000E-03 0.  1.
         23    2    1    2    0    0  0.17763568394E-14  0.00000000000E+00  0.00000000000E+00  0.91188000000E+02  0.91188000000E+02 0.  0.
    9900012    2    3    3    0    0 -0.78956322656E+01 -0.19322050066E+02 -0.30333101687E+02  0.54367086301E+02  0.40000004841E+02 0.  0.
         12    1    3    3    0    0  0.78956322656E+01  0.19322050066E+02  0.30333101687E+02  0.36820913699E+02  0.00000000000E+00 0. -1.
         11    1    4    4    0    0  0.12401188555E+02  0.44530764471E+01 -0.96048065837E+01  0.16305571967E+02  0.51100000000E-03 0. -1.
        -11    1    4    4    0    0 -0.50631040134E+01 -0.64362239015E+01 -0.90146609581E+01  0.12178838730E+02  0.51100000000E-03 0.  1.
         12    1    4    4    0    0 -0.15233716807E+02 -0.17338902612E+02 -0.11713634145E+02  0.25882675604E+02  0.00000000000E+00 0. -1.
</event>
<event>
 8    1  0.1229038E-006  0.9118800E+02  0.7816164E-02  0.1184000E+00
        -11   -1    0    0    0    0  0.00000000000E+00  0.00000000000E+00  0.45593999997E+02  0.45594000000E+02  0.51100000000E-03 0.  1.
         11   -1    0    0    0    0 -0.00000000000E+00 -0.00000000000E+00 -0.45593999997E+02  0.45594000000E+02  0.51100000000E-03 0. -1.
         23    2    1    2    0    0 -0.17763568394E-14 -0.71054273576E-14  0.00000000000E+00  0.91188000000E+02  0.91188000000E+02 0.  0.
    9900012    2    3    3    0    0  0.13342191495E+02  0.31539444686E+02 -0.13528831131E+02  0.54367083162E+02  0.39999997685E+02 0.  0.
        -12    1    3    3    0    0 -0.13342191495E+02 -0.31539444686E+02  0.13528831131E+02  0.36820916838E+02  0.00000000000E+00 0.  1.
         11    1    4    4    0    0  0.57283851704E+01 -0.63823837051E+01 -0.58951059555E+01  0.10406800320E+02  0.51100000000E-03 0. -1.
        -11    1    4    4    0    0  0.13581770556E+02  0.18630285719E+02 -0.30867990472E+01  0.23261134237E+02  0.51100000000E-03 0.  1.
        -12    1    4    4    0    0 -0.59679642305E+01  0.19291542673E+02 -0.45469261287E+01  0.20699148605E+02  0.00000000000E+00 0.  1.
</event>
<event>
 8    1  0.1229038E-006  0.9118800E+02  0.7816164E-02  0.1184000E+00
        -11   -1    0    0    0    0  0.00000000000E+00  0.00000000000E+00  0.45593999997E+02  0.45594000000E+02  0.51100000000E-03 0. -1.
         11   -1    0    0    0    0 -0.00000000000E+00 -0.00000000000E+00 -0.45593999997E+02  0.45594000000E+02  0.51100000000E-03 0.  1.
         23    2    1    2    0    0  0.00000000000E+00  0.00000000000E+00  0.35527136788E-14  0.91188000000E+02  0.91188000000E+02 0.  0.
    9900012    2    3    3    0    0  0.14670032880E+02  0.23868101444E+02 -0.23893161384E+02  0.54367091644E+02  0.40000017021E+02 0.  0.
         12    1    3    3    0    0 -0.14670032880E+02 -0.23868101444E+02  0.23893161384E+02  0.36820908356E+02  0.00000000000E+00 0. -1.
         11    1    4    4    0    0 -0.96610931163E+01  0.13833809765E+02 -0.26353680434E+01  0.17077944191E+02  0.51100000000E-03 0. -1.
        -11    1    4    4    0    0  0.10518299075E+02  0.40164461283E+01 -0.31525438479E-01  0.11259105162E+02  0.51100000000E-03 0.  1.
        -12    1    4    4    0    0  0.13812826921E+02  0.60178455507E+01 -0.21226267902E+02  0.26030042291E+02  0.00000000000E+00 0.  1.
</event>
<event>
 8    1  0.1229038E-006  0.9118800E+02  0.7816164E-02  0.1184000E+00
        -11   -1    0    0    0    0  0.00000000000E+00  0.00000000000E+00  0.45593999997E+02  0.45594000000E+02  0.51100000000E-03 0. -1.
         11   -1    0    0    0    0 -0.00000000000E+00 -0.00000000000E+00 -0.45593999997E+02  0.45594000000E+02  0.51100000000E-03 0.  1.
         23    2    1    2    0    0  0.00000000000E+00  0.00000000000E+00  0.17763568394E-14  0.91188000000E+02  0.91188000000E+02 0.  0.
    9900012    2    3    3    0    0 -0.15582085696E+02  0.33247795738E+02 -0.27498712840E+01  0.54367094143E+02  0.40000022717E+02 0.  0.
         12    1    3    3    0    0  0.15582085696E+02 -0.33247795738E+02  0.27498712840E+01  0.36820905857E+02  0.00000000000E+00 0. -1.
         11    1    4    4    0    0 -0.83530943252E+01  0.33480562105E+01  0.10373989022E+02  0.13733292164E+02  0.51100000000E-03 0. -1.
        -11    1    4    4    0    0 -0.62766380878E+01  0.32412415015E+02 -0.67234690456E+01  0.33692222679E+02  0.51100000000E-03 0.  1.
         12    1    4    4    0    0 -0.95235328291E+00 -0.25126754879E+01 -0.64003912600E+01  0.69415792990E+01  0.00000000000E+00 0. -1.
</event>
<event>
 8    1  0.1229038E-006  0.9118800E+02  0.7816164E-02  0.1184000E+00
        -11   -1    0    0    0    0  0.00000000000E+00  0.00000000000E+00  0.45593999997E+02  0.45594000000E+02  0.51100000000E-03 0.  1.
         11   -1    0    0    0    0 -0.00000000000E+00 -0.00000000000E+00 -0.45593999997E+02  0.45594000000E+02  0.51100000000E-03 0. -1.
         23    2    1    2    0    0  0.00000000000E+00  0.00000000000E+00  0.00000000000E+00  0.91188000000E+02  0.91188000000E+02 0.  0.
    9900012    2    3    3    0    0 -0.17790651899E+02 -0.23561599014E+02 -0.22002809448E+02  0.54367083842E+02  0.39999999235E+02 0.  0.
        -12    1    3    3    0    0  0.17790651899E+02  0.23561599014E+02  0.22002809448E+02  0.36820916158E+02  0.00000000000E+00 0.  1.
         11    1    4    4    0    0 -0.21211669739E+02 -0.18783714023E+01 -0.16769584567E+02  0.27105021289E+02  0.51100000000E-03 0. -1.
        -11    1    4    4    0    0 -0.14778835347E+01 -0.18820187783E+02  0.90907494459E+00  0.18900000673E+02  0.51100000000E-03 0.  1.
         12    1    4    4    0    0  0.48989013749E+01 -0.28630398291E+01 -0.61422998255E+01  0.83620618803E+01  0.00000000000E+00 0. -1.
</event>
<event>
 8    1  0.1229038E-006  0.9118800E+02  0.7816164E-02  0.1184000E+00
        -11   -1    0    0    0    0  0.00000000000E+00  0.00000000000E+00  0.45593999997E+02  0.45594000000E+02  0.51100000000E-03 0. -1.
         11   -1    0    0    0    0 -0.00000000000E+00 -0.00000000000E+00 -0.45593999997E+02  0.45594000000E+02  0.51100000000E-03 0.  1.
         23    2    1    2    0    0 -0.22204460493E-15  0.00000000000E+00  0.17763568394E-14  0.91188000000E+02  0.91188000000E+02 0.  0.
    9900012    2    3    3    0    0 -0.80439474971E+00  0.34076522025E+02  0.13925648513E+02  0.54367080800E+02  0.39999992300E+02 0.  0.
        -12    1    3    3    0    0  0.80439474971E+00 -0.34076522025E+02 -0.13925648513E+02  0.36820919200E+02  0.00000000000E+00 0.  1.
         11    1    4    4    0    0  0.81668572537E+00  0.28747058754E+02 -0.53640821504E+01  0.29254636216E+02  0.51100000000E-03 0. -1.
        -11    1    4    4    0    0  0.18254152085E+01 -0.40720667112E+01  0.15175257235E+01  0.47134650276E+01  0.51100000000E-03 0.  1.
        -12    1    4    4    0    0 -0.34464956836E+01  0.94015299820E+01  0.17772204940E+02  0.20398979556E+02  0.00000000000E+00 0.  1.
</event>
<event>
 8    1  0.1229038E-006  0.9118800E+02  0.7816164E-02  0.1184000E+00
        -11   -1    0    0    0    0  0.00000000000E+00  0.00000000000E+00  0.45593999997E+02  0.45594000000E+02  0.51100000000E-03 0.  1.
         11   -1    0    0    0    0 -0.00000000000E+00 -0.00000000000E+00 -0.45593999997E+02  0.45594000000E+02  0.51100000000E-03 0. -1.
         23    2    1    2    0    0  0.17763568394E-14  0.00000000000E+00  0.00000000000E+00  0.91188000000E+02  0.91188000000E+02 0.  0.
    9900012    2    3    3    0    0  0.11438029538E+02 -0.12949810770E+02  0.32515464572E+02  0.54367060917E+02  0.39999946971E+02 0.  0.
         12    1    3    3    0    0 -0.11438029538E+02  0.12949810770E+02 -0.32515464572E+02  0.36820939083E+02  0.00000000000E+00 0. -1.
         11    1    4    4    0    0 -0.19985153184E+01  0.84410392802E+01  0.91067937279E+01  0.12576919331E+02  0.51100000000E-03 0. -1.
        -11    1    4    4    0    0  0.84742535899E+00  0.44264975713E+01 -0.34123726876E+00  0.45197846877E+01  0.51100000000E-03 0.  1.
        -12    1    4    4    0    0  0.12589119497E+02 -0.25817347621E+02  0.23749908113E+02  0.37270356897E+02  0.00000000000E+00 0.  1.
</event>
<event>
 8    1  0.1229038E-006  0.9118800E+02  0.7816164E-02  0.1184000E+00
        -11   -1    0    0    0    0  0.00000000000E+00  0.00000000000E+00  0.45593999997E+02  0.45594000000E+02  0.51100000000E-03 0. -1.
         11   -1    0    0    0    0 -0.00000000000E+00 -0.00000000000E+00 -0.45593999997E+02  0.45594000000E+02  0.51100000000E-03 0.  1.
         23    2    1    2    0    0  0.17763568394E-14  0.00000000000E+00 -0.35527136788E-14  0.91188000000E+02  0.91188000000E+02 0.  0.
    9900012    2    3    3    0    0  0.13219092382E+02  0.19637815593E+02 -0.28202741859E+02  0.54367043290E+02  0.39999906788E+02 0.  0.
         12    1    3    3    0    0 -0.13219092382E+02 -0.19637815593E+02  0.28202741859E+02  0.36820956710E+02  0.00000000000E+00 0. -1.
         11    1    4    4    0    0  0.15803601590E+01 -0.64557430955E+00 -0.40018755034E+01  0.43507829441E+01  0.51100000000E-03 0. -1.
        -11    1    4    4    0    0 -0.40726657641E+01  0.24747527458E+02 -0.22321980397E+02  0.33575251761E+02  0.51100000000E-03 0.  1.
        -12    1    4    4    0    0  0.15711397987E+02 -0.44641375552E+01 -0.18788859584E+01  0.16441008584E+02  0.00000000000E+00 0.  1.
</event>
<event>
 8    1  0.1229038E-006  0.9118800E+02  0.7816164E-02  0.1184000E+00
        -11   -1    0    0    0    0  0.00000000000E+00  0.00000000000E+00  0.45593999997E+02  0.45594000000E+02  0.51100000000E-03 0. -1.
         11   -1    0    0    0    0 -0.00000000000E+00 -0.00000000000E+00 -0.45593999997E+02  0.45594000000E+02  0.51100000000E-03 0.  1.
         23    2    1    2    0    0  0.00000000000E+00  0.17763568394E-14 -0.35527136788E-14  0.91188000000E+02  0.91188000000E+02 0.  0.
    9900012    2    3    3    0    0 -0.26555832636E+02  0.13218667843E+02 -0.21813672362E+02  0.54367058561E+02  0.39999941602E+02 0.  0.
         12    1    3    3    0    0  0.26555832636E+02 -0.13218667843E+02  0.21813672362E+02  0.36820941439E+02  0.00000000000E+00 0. -1.
         11    1    4    4    0    0 -0.15523627702E+02  0.86240621908E+00 -0.12473992266E+02  0.19933069128E+02  0.51100000000E-03 0. -1.
        -11    1    4    4    0    0 -0.14533229080E+02  0.63522840130E+00  0.51857556671E+01  0.15443779483E+02  0.51100000000E-03 0.  1.
         12    1    4    4    0    0  0.35010241464E+01  0.11721033222E+02 -0.14525435763E+02  0.18990209951E+02  0.00000000000E+00 0. -1.
</event>
<event>
 8    1  0.1229038E-006  0.9118800E+02  0.7816164E-02  0.1184000E+00
        -11   -1    0    0    0    0  0.00000000000E+00  0.00000000000E+00  0.45593999997E+02  0.45594000000E+02  0.51100000000E-03 0. -1.
         11   -1    0    0    0    0 -0.00000000000E+00 -0.00000000000E+00 -0.45593999997E+02  0.45594000000E+02  0.51100000000E-03 0.  1.
         23    2    1    2    0    0  0.26645352591E-14  0.00000000000E+00  0.00000000000E+00  0.91188000000E+02  0.91188000000E+02 0.  0.
    9900012    2    3    3    0    0 -0.49315361476E+01 -0.49337591529E+01  0.36154080086E+02  0.54367088346E+02  0.40000009503E+02 0.  0.
        -12    1    3    3    0    0  0.49315361476E+01  0.49337591529E+01 -0.36154080086E+02  0.36820911654E+02  0.00000000000E+00 0.  1.
         11    1    4    4    0    0 -0.49611338828E+01  0.86910036276E+01  0.18508241727E+02  0.21040470659E+02  0.51100000000E-03 0. -1.
        -11    1    4    4    0    0  0.12338010743E+02 -0.74130108847E+01  0.10346499781E+02  0.17726513968E+02  0.51100000000E-03 0.  1.
        -12    1    4    4    0    0 -0.12308413008E+02 -0.62117518958E+01  0.72993385776E+01  0.15600103719E+02  0.00000000000E+00 0.  1.
</event>
<event>
 8    1  0.1229038E-006  0.9118800E+02  0.7816164E-02  0.1184000E+00
        -11   -1    0    0    0    0  0.00000000000E+00  0.00000000000E+00  0.45593999997E+02  0.45594000000E+02  0.51100000000E-03 0. -1.
         11   -1    0    0    0    0 -0.00000000000E+00 -0.00000000000E+00 -0.45593999997E+02  0.45594000000E+02  0.51100000000E-03 0.  1.
         23    2    1    2    0    0  0.00000000000E+00 -0.17763568394E-14 -0.35527136788E-14  0.91188000000E+02  0.91188000000E+02 0.  0.
    9900012    2    3    3    0    0  0.20429340433E+02  0.98053675965E+01  0.29021763629E+02  0.54367272843E+02  0.40000430098E+02 0.  0.
        -12    1    3    3    0    0 -0.20429340433E+02 -0.98053675965E+01 -0.29021763629E+02  0.36820727157E+02  0.00000000000E+00 0.  1.
         11    1    4    4    0    0  0.77301685774E+00  0.40663280190E+01  0.32918403558E+01  0.52885529032E+01  0.51100000000E-03 0. -1.
        -11    1    4    4    0    0 -0.55270613283E+01 -0.97797162798E+01  0.26053018478E+01  0.11531645824E+02  0.51100000000E-03 0.  1.
         12    1    4    4    0    0  0.25183384904E+02  0.15518755857E+02  0.23124621425E+02  0.37547074115E+02  0.00000000000E+00 0. -1.
</event>
<event>
 8    1  0.1229038E-006  0.9118800E+02  0.7816164E-02  0.1184000E+00
        -11   -1    0    0    0    0  0.00000000000E+00  0.00000000000E+00  0.45593999997E+02  0.45594000000E+02  0.51100000000E-03 0.  1.
         11   -1    0    0    0    0 -0.00000000000E+00 -0.00000000000E+00 -0.45593999997E+02  0.45594000000E+02  0.51100000000E-03 0. -1.
         23    2    1    2    0    0  0.00000000000E+00  0.00000000000E+00  0.00000000000E+00  0.91188000000E+02  0.91188000000E+02 0.  0.
    9900012    2    3    3    0    0 -0.11989830377E+02 -0.52212061265E+01 -0.34420397840E+02  0.54367070987E+02  0.39999969930E+02 0.  0.
        -12    1    3    3    0    0  0.11989830377E+02  0.52212061265E+01  0.34420397840E+02  0.36820929013E+02  0.00000000000E+00 0.  1.
         11    1    4    4    0    0 -0.17323157206E+02 -0.69762161776E+00 -0.18006915019E+02  0.24996548567E+02  0.51100000000E-03 0. -1.
        -11    1    4    4    0    0  0.74347452602E+01  0.47295025098E+01 -0.17722268278E+02  0.19791978786E+02  0.51100000000E-03 0.  1.
        -12    1    4    4    0    0 -0.21014184313E+01 -0.92530870186E+01  0.13087854567E+01  0.95785436351E+01  0.00000000000E+00 0.  1.
</event>
<event>
 8    1  0.1229038E-006  0.9118800E+02  0.7816164E-02  0.1184000E+00
        -11   -1    0    0    0    0  0.00000000000E+00  0.00000000000E+00  0.45593999997E+02  0.45594000000E+02  0.51100000000E-03 0.  1.
         11   -1    0    0    0    0 -0.00000000000E+00 -0.00000000000E+00 -0.45593999997E+02  0.45594000000E+02  0.51100000000E-03 0. -1.
         23    2    1    2    0    0  0.00000000000E+00  0.88817841970E-15  0.00000000000E+00  0.91188000000E+02  0.91188000000E+02 0.  0.
    9900012    2    3    3    0    0 -0.24067032227E+02  0.74392803816E+01 -0.26855438190E+02  0.54367088914E+02  0.40000010797E+02 0.  0.
        -12    1    3    3    0    0  0.24067032227E+02 -0.74392803816E+01  0.26855438190E+02  0.36820911086E+02  0.00000000000E+00 0.  1.
         11    1    4    4    0    0 -0.29179554268E+02  0.41124876540E+01 -0.32597828544E+02  0.43942887571E+02  0.51100000000E-03 0. -1.
        -11    1    4    4    0    0  0.14757831207E+00  0.59776581667E+00  0.46045569491E+01  0.46455406884E+01  0.51100000000E-03 0.  1.
         12    1    4    4    0    0  0.49649437284E+01  0.27290269109E+01  0.11378334056E+01  0.57786606550E+01  0.00000000000E+00 0. -1.
</event>
<event>
 8    1  0.1229038E-006  0.9118800E+02  0.7816164E-02  0.1184000E+00
        -11   -1    0    0    0    0  0.00000000000E+00  0.00000000000E+00  0.45593999997E+02  0.45594000000E+02  0.51100000000E-03 0.  1.
         11   -1    0    0    0    0 -0.00000000000E+00 -0.00000000000E+00 -0.45593999997E+02  0.45594000000E+02  0.51100000000E-03 0. -1.
         23    2    1    2    0    0 -0.71054273576E-14  0.00000000000E+00  0.00000000000E+00  0.91188000000E+02  0.91188000000E+02 0.  0.
    9900012    2    3    3    0    0 -0.32413174463E+02 -0.24297355371E+01 -0.17299122039E+02  0.54367121183E+02  0.40000084361E+02 0.  0.
        -12    1    3    3    0    0  0.32413174463E+02  0.24297355371E+01  0.17299122039E+02  0.36820878817E+02  0.00000000000E+00 0.  1.
         11    1    4    4    0    0 -0.19041571791E+02  0.63729460553E+01 -0.83203860540E+01  0.21735333493E+02  0.51100000000E-03 0. -1.
        -11    1    4    4    0    0 -0.76879329217E+01  0.54494032613E+01  0.60143182856E+01  0.11179102523E+02  0.51100000000E-03 0.  1.
        -12    1    4    4    0    0 -0.56836697497E+01 -0.14252084854E+02 -0.14993054271E+02  0.21452685167E+02  0.00000000000E+00 0.  1.
</event>
<event>
 8    1  0.1229038E-006  0.9118800E+02  0.7816164E-02  0.1184000E+00
        -11   -1    0    0    0    0  0.00000000000E+00  0.00000000000E+00  0.45593999997E+02  0.45594000000E+02  0.51100000000E-03 0.  1.
         11   -1    0    0    0    0 -0.00000000000E+00 -0.00000000000E+00 -0.45593999997E+02  0.45594000000E+02  0.51100000000E-03 0. -1.
         23    2    1    2    0    0  0.35527136788E-14  0.17763568394E-14  0.00000000000E+00  0.91188000000E+02  0.91188000000E+02 0.  0.
    9900012    2    3    3    0    0 -0.30935026966E+02 -0.53688241021E+01 -0.19234884267E+02  0.54367069289E+02  0.39999966059E+02 0.  0.
        -12    1    3    3    0    0  0.30935026966E+02  0.53688241021E+01  0.19234884267E+02  0.36820930711E+02  0.00000000000E+00 0.  1.
         11    1    4    4    0    0 -0.10262187616E+02  0.60172033764E+01 -0.56700113276E+01  0.13178325381E+02  0.51100000000E-03 0. -1.
        -11    1    4    4    0    0 -0.19849533653E+02 -0.11249222559E+02  0.43735236556E+01  0.23230942810E+02  0.51100000000E-03 0.  1.
         12    1    4    4    0    0 -0.82330569707E+00 -0.13680491978E+00 -0.17938396595E+02  0.17957801098E+02  0.00000000000E+00 0. -1.
</event>
<event>
 8    1  0.1229038E-006  0.9118800E+02  0.7816164E-02  0.1184000E+00
        -11   -1    0    0    0    0  0.00000000000E+00  0.00000000000E+00  0.45593999997E+02  0.45594000000E+02  0.51100000000E-03 0. -1.
         11   -1    0    0    0    0 -0.00000000000E+00 -0.00000000000E+00 -0.45593999997E+02  0.45594000000E+02  0.51100000000E-03 0.  1.
         23    2    1    2    0    0  0.00000000000E+00 -0.35527136788E-14  0.35527136788E-14  0.91188000000E+02  0.91188000000E+02 0.  0.
    9900012    2    3    3    0    0 -0.10630606057E+02 -0.24783764748E+02  0.25070595856E+02  0.54367088050E+02  0.40000008829E+02 0.  0.
        -12    1    3    3    0    0  0.10630606057E+02  0.24783764748E+02 -0.25070595856E+02  0.36820911950E+02  0.00000000000E+00 0.  1.
         11    1    4    4    0    0  0.33211003815E+01 -0.20029008164E+02  0.26214121673E+02  0.33156764787E+02  0.51100000000E-03 0. -1.
        -11    1    4    4    0    0  0.11102826301E+01  0.19977777222E+01  0.33938240896E+01  0.40916849290E+01  0.51100000000E-03 0.  1.
        -12    1    4    4    0    0 -0.15061989068E+02 -0.67525343060E+01 -0.45373499066E+01  0.17118638334E+02  0.00000000000E+00 0.  1.
</event>
<event>
 8    1  0.1229038E-006  0.9118800E+02  0.7816164E-02  0.1184000E+00
        -11   -1    0    0    0    0  0.00000000000E+00  0.00000000000E+00  0.45593999997E+02  0.45594000000E+02  0.51100000000E-03 0.  1.
         11   -1    0    0    0    0 -0.00000000000E+00 -0.00000000000E+00 -0.45593999997E+02  0.45594000000E+02  0.51100000000E-03 0. -1.
         23    2    1    2    0    0  0.00000000000E+00  0.00000000000E+00  0.00000000000E+00  0.91188000000E+02  0.91188000000E+02 0.  0.
    9900012    2    3    3    0    0  0.32973876175E+02  0.69228125897E+01  0.14851854601E+02  0.54367089782E+02  0.40000012776E+02 0.  0.
         12    1    3    3    0    0 -0.32973876175E+02 -0.69228125897E+01 -0.14851854601E+02  0.36820910218E+02  0.00000000000E+00 0. -1.
         11    1    4    4    0    0 -0.11445277377E+01  0.60586503536E+01  0.18420929231E+02  0.19425442642E+02  0.51100000000E-03 0. -1.
        -11    1    4    4    0    0  0.31339932678E+02 -0.74954124202E+00 -0.21304735557E+01  0.31421204785E+02  0.51100000000E-03 0.  1.
         12    1    4    4    0    0  0.27784712351E+01  0.16137034781E+01 -0.14386010740E+01  0.35204423542E+01  0.00000000000E+00 0. -1.
</event>
<event>
 8    1  0.1229038E-006  0.9118800E+02  0.7816164E-02  0.1184000E+00
        -11   -1    0    0    0    0  0.00000000000E+00  0.00000000000E+00  0.45593999997E+02  0.45594000000E+02  0.51100000000E-03 0. -1.
         11   -1    0    0    0    0 -0.00000000000E+00 -0.00000000000E+00 -0.45593999997E+02  0.45594000000E+02  0.51100000000E-03 0.  1.
         23    2    1    2    0    0  0.35527136788E-14 -0.71054273576E-14  0.17763568394E-14  0.91188000000E+02  0.91188000000E+02 0.  0.
    9900012    2    3    3    0    0  0.20192686528E+02 -0.29799909867E+02  0.77460321343E+01  0.54367078894E+02  0.39999987954E+02 0.  0.
        -12    1    3    3    0    0 -0.20192686528E+02  0.29799909867E+02 -0.77460321343E+01  0.36820921106E+02  0.00000000000E+00 0.  1.
         11    1    4    4    0    0  0.43591125521E+01  0.66209139671E-01  0.15941685286E+01  0.46419413451E+01  0.51100000000E-03 0. -1.
        -11    1    4    4    0    0  0.86885128818E+01 -0.27599045699E+01  0.17302095260E+02  0.19556835888E+02  0.51100000000E-03 0.  1.
         12    1    4    4    0    0  0.71450610946E+01 -0.27106214436E+02 -0.11150231654E+02  0.30168301660E+02  0.00000000000E+00 0. -1.
</event>
<event>
 8    1  0.1229038E-006  0.9118800E+02  0.7816164E-02  0.1184000E+00
        -11   -1    0    0    0    0  0.00000000000E+00  0.00000000000E+00  0.45593999997E+02  0.45594000000E+02  0.51100000000E-03 0. -1.
         11   -1    0    0    0    0 -0.00000000000E+00 -0.00000000000E+00 -0.45593999997E+02  0.45594000000E+02  0.51100000000E-03 0.  1.
         23    2    1    2    0    0 -0.35527136788E-14 -0.22204460493E-15  0.35527136788E-14  0.91188000000E+02  0.91188000000E+02 0.  0.
    9900012    2    3    3    0    0  0.27509692362E+02  0.10875439251E+01 -0.24450213158E+02  0.54367097660E+02  0.40000030736E+02 0.  0.
         12    1    3    3    0    0 -0.27509692362E+02 -0.10875439251E+01  0.24450213158E+02  0.36820902340E+02  0.00000000000E+00 0. -1.
         11    1    4    4    0    0  0.10735075736E+01  0.50255785057E+01 -0.17597092277E+02  0.18332117027E+02  0.51100000000E-03 0. -1.
        -11    1    4    4    0    0  0.76327866212E+01  0.21131462972E+01  0.80482781575E+01  0.11291572098E+02  0.51100000000E-03 0.  1.
        -12    1    4    4    0    0  0.18803398167E+02 -0.60511808778E+01 -0.14901399038E+02  0.24743408535E+02  0.00000000000E+00 0.  1.
</event>
<event>
 8    1  0.1229038E-006  0.9118800E+02  0.7816164E-02  0.1184000E+00
        -11   -1    0    0    0    0  0.00000000000E+00  0.00000000000E+00  0.45593999997E+02  0.45594000000E+02  0.51100000000E-03 0. -1.
         11   -1    0    0    0    0 -0.00000000000E+00 -0.00000000000E+00 -0.45593999997E+02  0.45594000000E+02  0.51100000000E-03 0.  1.
         23    2    1    2    0    0  0.88817841970E-15  0.25535129566E-14  0.71054273576E-14  0.91188000000E+02  0.91188000000E+02 0.  0.
    9900012    2    3    3    0    0  0.77475416274E+01 -0.69373006576E+00  0.35989936573E+02  0.54367065775E+02  0.39999958046E+02 0.  0.
        -12    1    3    3    0    0 -0.77475416274E+01  0.69373006576E+00 -0.35989936573E+02  0.36820934225E+02  0.00000000000E+00 0.  1.
         11    1    4    4    0    0 -0.88836375394E+00  0.10089864746E+02  0.10191932829E+02  0.14369065933E+02  0.51100000000E-03 0. -1.
        -11    1    4    4    0    0 -0.39188273857E+01 -0.14679770055E+02  0.62232768525E+01  0.16418953438E+02  0.51100000000E-03 0.  1.
         12    1    4    4    0    0  0.12554732767E+02  0.38961752436E+01  0.19574726892E+02  0.23579046403E+02  0.00000000000E+00 0. -1.
</event>
<event>
 8    1  0.1229038E-006  0.9118800E+02  0.7816164E-02  0.1184000E+00
        -11   -1    0    0    0    0  0.00000000000E+00  0.00000000000E+00  0.45593999997E+02  0.45594000000E+02  0.51100000000E-03 0. -1.
         11   -1    0    0    0    0 -0.00000000000E+00 -0.00000000000E+00 -0.45593999997E+02  0.45594000000E+02  0.51100000000E-03 0.  1.
         23    2    1    2    0    0  0.00000000000E+00 -0.55511151231E-16  0.00000000000E+00  0.91188000000E+02  0.91188000000E+02 0.  0.
    9900012    2    3    3    0    0 -0.29214747300E+02 -0.39730983269E+00  0.22408044138E+02  0.54367085332E+02  0.40000002631E+02 0.  0.
        -12    1    3    3    0    0  0.29214747300E+02  0.39730983269E+00 -0.22408044138E+02  0.36820914668E+02  0.00000000000E+00 0.  1.
         11    1    4    4    0    0 -0.27978433524E+02  0.99705201211E+00  0.81139992890E+01  0.29148307668E+02  0.51100000000E-03 0. -1.
        -11    1    4    4    0    0 -0.77124035371E+01  0.65973141045E+01  0.93763755348E+01  0.13817457803E+02  0.51100000000E-03 0.  1.
         12    1    4    4    0    0  0.64760897612E+01 -0.79916759493E+01  0.49176693142E+01  0.11401319860E+02  0.00000000000E+00 0. -1.
</event>
<event>
 8    1  0.1229038E-006  0.9118800E+02  0.7816164E-02  0.1184000E+00
        -11   -1    0    0    0    0  0.00000000000E+00  0.00000000000E+00  0.45593999997E+02  0.45594000000E+02  0.51100000000E-03 0. -1.
         11   -1    0    0    0    0 -0.00000000000E+00 -0.00000000000E+00 -0.45593999997E+02  0.45594000000E+02  0.51100000000E-03 0.  1.
         23    2    1    2    0    0  0.00000000000E+00  0.00000000000E+00  0.00000000000E+00  0.91188000000E+02  0.91188000000E+02 0.  0.
    9900012    2    3    3    0    0  0.44857513700E+01  0.29441182428E+02 -0.21653551976E+02  0.54367061645E+02  0.39999948633E+02 0.  0.
         12    1    3    3    0    0 -0.44857513700E+01 -0.29441182428E+02  0.21653551976E+02  0.36820938355E+02  0.00000000000E+00 0. -1.
         11    1    4    4    0    0  0.67008308490E+01  0.58305240286E+01 -0.15777769181E+02  0.18106190795E+02  0.51100000000E-03 0. -1.
        -11    1    4    4    0    0  0.61739713086E+01  0.25828779654E+02 -0.16456650601E+01  0.26607367286E+02  0.51100000000E-03 0.  1.
         12    1    4    4    0    0 -0.83890507875E+01 -0.22181212544E+01 -0.42301177353E+01  0.96535035645E+01  0.00000000000E+00 0. -1.
</event>
<event>
 8    1  0.1229038E-006  0.9118800E+02  0.7816164E-02  0.1184000E+00
        -11   -1    0    0    0    0  0.00000000000E+00  0.00000000000E+00  0.45593999997E+02  0.45594000000E+02  0.51100000000E-03 0.  1.
         11   -1    0    0    0    0 -0.00000000000E+00 -0.00000000000E+00 -0.45593999997E+02  0.45594000000E+02  0.51100000000E-03 0. -1.
         23    2    1    2    0    0  0.00000000000E+00  0.35527136788E-14  0.35527136788E-14  0.91188000000E+02  0.91188000000E+02 0.  0.
    9900012    2    3    3    0    0  0.62301842718E+01  0.19841310913E+02  0.30385609520E+02  0.54367108095E+02  0.40000054523E+02 0.  0.
         12    1    3    3    0    0 -0.62301842718E+01 -0.19841310913E+02 -0.30385609520E+02  0.36820891905E+02  0.00000000000E+00 0. -1.
         11    1    4    4    0    0  0.75982620069E+01  0.63676892791E+01 -0.70682379160E+01  0.12175427704E+02  0.51100000000E-03 0. -1.
        -11    1    4    4    0    0 -0.57079398018E+01  0.14925285284E+01  0.68478129771E+01  0.90388473280E+01  0.51100000000E-03 0.  1.
         12    1    4    4    0    0  0.43398620668E+01  0.11981093105E+02  0.30606034459E+02  0.33152833062E+02  0.00000000000E+00 0. -1.
</event>
<event>
 8    1  0.1229038E-006  0.9118800E+02  0.7816164E-02  0.1184000E+00
        -11   -1    0    0    0    0  0.00000000000E+00  0.00000000000E+00  0.45593999997E+02  0.45594000000E+02  0.51100000000E-03 0.  1.
         11   -1    0    0    0    0 -0.00000000000E+00 -0.00000000000E+00 -0.45593999997E+02  0.45594000000E+02  0.51100000000E-03 0. -1.
         23    2    1    2    0    0  0.00000000000E+00  0.17763568394E-14 -0.17763568394E-14  0.91188000000E+02  0.91188000000E+02 0.  0.
    9900012    2    3    3    0    0  0.32380311092E+02  0.11609192304E+02  0.13134746288E+02  0.54367089468E+02  0.40000012059E+02 0.  0.
         12    1    3    3    0    0 -0.32380311092E+02 -0.11609192304E+02 -0.13134746288E+02  0.36820910532E+02  0.00000000000E+00 0. -1.
         11    1    4    4    0    0  0.10170471005E+02  0.17010164455E+02  0.88456235452E+00  0.19838513706E+02  0.51100000000E-03 0. -1.
        -11    1    4    4    0    0  0.18964427064E+01  0.73255175635E+01  0.62598085595E+01  0.98206367398E+01  0.51100000000E-03 0.  1.
         12    1    4    4    0    0  0.20313397381E+02 -0.12726489714E+02  0.59903753740E+01  0.24707939022E+02  0.00000000000E+00 0. -1.
</event>
<event>
 8    1  0.1229038E-006  0.9118800E+02  0.7816164E-02  0.1184000E+00
        -11   -1    0    0    0    0  0.00000000000E+00  0.00000000000E+00  0.45593999997E+02  0.45594000000E+02  0.51100000000E-03 0.  1.
         11   -1    0    0    0    0 -0.00000000000E+00 -0.00000000000E+00 -0.45593999997E+02  0.45594000000E+02  0.51100000000E-03 0. -1.
         23    2    1    2    0    0  0.00000000000E+00  0.00000000000E+00  0.00000000000E+00  0.91188000000E+02  0.91188000000E+02 0.  0.
    9900012    2    3    3    0    0  0.97877953484E+01  0.35380598715E+02 -0.28627381684E+01  0.54367041660E+02  0.39999903073E+02 0.  0.
        -12    1    3    3    0    0 -0.97877953484E+01 -0.35380598715E+02  0.28627381684E+01  0.36820958340E+02  0.00000000000E+00 0.  1.
         11    1    4    4    0    0 -0.99066071328E+01  0.37655082945E+01  0.66872421820E+01  0.12531525281E+02  0.51100000000E-03 0. -1.
        -11    1    4    4    0    0  0.15362428807E+01  0.58898018179E+01 -0.83387628534E+01  0.10323990209E+02  0.51100000000E-03 0.  1.
         12    1    4    4    0    0  0.18158159601E+02  0.25725288603E+02 -0.12112174970E+01  0.31511526171E+02  0.00000000000E+00 0. -1.
</event>
<event>
 8    1  0.1229038E-006  0.9118800E+02  0.7816164E-02  0.1184000E+00
        -11   -1    0    0    0    0  0.00000000000E+00  0.00000000000E+00  0.45593999997E+02  0.45594000000E+02  0.51100000000E-03 0. -1.
         11   -1    0    0    0    0 -0.00000000000E+00 -0.00000000000E+00 -0.45593999997E+02  0.45594000000E+02  0.51100000000E-03 0.  1.
         23    2    1    2    0    0  0.00000000000E+00  0.00000000000E+00 -0.35527136788E-14  0.91188000000E+02  0.91188000000E+02 0.  0.
    9900012    2    3    3    0    0  0.19074694604E+02 -0.84326904014E+01  0.30345112111E+02  0.54367081072E+02  0.39999992920E+02 0.  0.
        -12    1    3    3    0    0 -0.19074694604E+02  0.84326904014E+01 -0.30345112111E+02  0.36820918928E+02  0.00000000000E+00 0.  1.
         11    1    4    4    0    0  0.11646248072E+02 -0.16310915246E+02  0.14610681078E+01  0.20095167841E+02  0.51100000000E-03 0. -1.
        -11    1    4    4    0    0  0.98427290141E+01  0.63293802169E+00  0.21474563411E+02  0.23631267400E+02  0.51100000000E-03 0.  1.
        -12    1    4    4    0    0 -0.24142824814E+01  0.72452868227E+01  0.74094805921E+01  0.10640645830E+02  0.00000000000E+00 0.  1.
</event>
<event>
 8    1  0.1229038E-006  0.9118800E+02  0.7816164E-02  0.1184000E+00
        -11   -1    0    0    0    0  0.00000000000E+00  0.00000000000E+00  0.45593999997E+02  0.45594000000E+02  0.51100000000E-03 0.  1.
         11   -1    0    0    0    0 -0.00000000000E+00 -0.00000000000E+00 -0.45593999997E+02  0.45594000000E+02  0.51100000000E-03 0. -1.
         23    2    1    2    0    0  0.99920072216E-15  0.00000000000E+00 -0.44408920985E-15  0.91188000000E+02  0.91188000000E+02 0.  0.
    9900012    2    3    3    0    0 -0.68584575539E+00 -0.36680637956E+02 -0.31370018021E+01  0.54367077068E+02  0.39999983792E+02 0.  0.
        -12    1    3    3    0    0  0.68584575539E+00  0.36680637956E+02  0.31370018021E+01  0.36820922932E+02  0.00000000000E+00 0.  1.
         11    1    4    4    0    0 -0.13269967852E+02 -0.12635042215E+02 -0.28818511090E+01  0.18548353152E+02  0.51100000000E-03 0. -1.
        -11    1    4    4    0    0  0.83079333129E+01  0.23068024273E+01 -0.26346771808E+01  0.90157982164E+01  0.51100000000E-03 0.  1.
        -12    1    4    4    0    0  0.42761887841E+01 -0.26352398169E+02  0.23795264877E+01  0.26802925700E+02  0.00000000000E+00 0.  1.
</event>
<event>
 8    1  0.1229038E-006  0.9118800E+02  0.7816164E-02  0.1184000E+00
        -11   -1    0    0    0    0  0.00000000000E+00  0.00000000000E+00  0.45593999997E+02  0.45594000000E+02  0.51100000000E-03 0.  1.
         11   -1    0    0    0    0 -0.00000000000E+00 -0.00000000000E+00 -0.45593999997E+02  0.45594000000E+02  0.51100000000E-03 0. -1.
         23    2    1    2    0    0  0.35527136788E-14  0.00000000000E+00  0.00000000000E+00  0.91188000000E+02  0.91188000000E+02 0.  0.
    9900012    2    3    3    0    0 -0.26484203090E+02 -0.12401420555E+02  0.22373444423E+02  0.54367092075E+02  0.40000018002E+02 0.  0.
         12    1    3    3    0    0  0.26484203090E+02  0.12401420555E+02 -0.22373444423E+02  0.36820907925E+02  0.00000000000E+00 0. -1.
         11    1    4    4    0    0 -0.25110627298E+02 -0.66034997835E+01  0.13558861151E+02  0.29291509498E+02  0.51100000000E-03 0. -1.
        -11    1    4    4    0    0 -0.37126931263E+01 -0.13899764507E+02  0.26481348021E+01  0.14628744368E+02  0.51100000000E-03 0.  1.
        -12    1    4    4    0    0  0.23391173344E+01  0.81018437357E+01  0.61664484700E+01  0.10446838209E+02  0.00000000000E+00 0.  1.
</event>
<event>
 8    1  0.1229038E-006  0.9118800E+02  0.7816164E-02  0.1184000E+00
        -11   -1    0    0    0    0  0.00000000000E+00  0.00000000000E+00  0.45593999997E+02  0.45594000000E+02  0.51100000000E-03 0. -1.
         11   -1    0    0    0    0 -0.00000000000E+00 -0.00000000000E+00 -0.45593999997E+02  0.45594000000E+02  0.51100000000E-03 0.  1.
         23    2    1    2    0    0  0.00000000000E+00 -0.44408920985E-14 -0.71054273576E-14  0.91188000000E+02  0.91188000000E+02 0.  0.
    9900012    2    3    3    0    0  0.11137149149E+02  0.69668830556E+00  0.35089291134E+02  0.54367084503E+02  0.40000000741E+02 0.  0.
        -12    1    3    3    0    0 -0.11137149149E+02 -0.69668830556E+00 -0.35089291134E+02  0.36820915497E+02  0.00000000000E+00 0.  1.
         11    1    4    4    0    0 -0.32524535908E+01  0.17174977874E+02  0.18553526358E+02  0.25491011355E+02  0.51100000000E-03 0. -1.
        -11    1    4    4    0    0  0.12100978017E+02 -0.71790769289E+01  0.10496039661E+02  0.17553907352E+02  0.51100000000E-03 0.  1.
         12    1    4    4    0    0  0.22886247231E+01 -0.92992126391E+01  0.60397251160E+01  0.11322165796E+02  0.00000000000E+00 0. -1.
</event>
<event>
 8    1  0.1229038E-006  0.9118800E+02  0.7816164E-02  0.1184000E+00
        -11   -1    0    0    0    0  0.00000000000E+00  0.00000000000E+00  0.45593999997E+02  0.45594000000E+02  0.51100000000E-03 0. -1.
         11   -1    0    0    0    0 -0.00000000000E+00 -0.00000000000E+00 -0.45593999997E+02  0.45594000000E+02  0.51100000000E-03 0.  1.
         23    2    1    2    0    0  0.00000000000E+00  0.00000000000E+00  0.00000000000E+00  0.91188000000E+02  0.91188000000E+02 0.  0.
    9900012    2    3    3    0    0 -0.98661153133E+01 -0.46247245311E+01 -0.35171745661E+02  0.54367082016E+02  0.39999995072E+02 0.  0.
         12    1    3    3    0    0  0.98661153133E+01  0.46247245311E+01  0.35171745661E+02  0.36820917984E+02  0.00000000000E+00 0. -1.
         11    1    4    4    0    0  0.15776627906E+01  0.82380432174E+00 -0.24491277202E+02  0.24555861473E+02  0.51100000000E-03 0. -1.
        -11    1    4    4    0    0 -0.44248407665E+01 -0.50957373301E+01  0.76371264467E+01  0.10191734660E+02  0.51100000000E-03 0.  1.
        -12    1    4    4    0    0 -0.70189373373E+01 -0.35279152266E+00 -0.18317594906E+02  0.19619485884E+02  0.00000000000E+00 0.  1.
</event>
<event>
 8    1  0.1229038E-006  0.9118800E+02  0.7816164E-02  0.1184000E+00
        -11   -1    0    0    0    0  0.00000000000E+00  0.00000000000E+00  0.45593999997E+02  0.45594000000E+02  0.51100000000E-03 0. -1.
         11   -1    0    0    0    0 -0.00000000000E+00 -0.00000000000E+00 -0.45593999997E+02  0.45594000000E+02  0.51100000000E-03 0.  1.
         23    2    1    2    0    0 -0.44408920985E-15 -0.35527136788E-14  0.00000000000E+00  0.91188000000E+02  0.91188000000E+02 0.  0.
    9900012    2    3    3    0    0 -0.31644161267E+01  0.16228847514E+02 -0.32899711849E+02  0.54367081207E+02  0.39999993228E+02 0.  0.
         12    1    3    3    0    0  0.31644161267E+01 -0.16228847514E+02  0.32899711849E+02  0.36820918793E+02  0.00000000000E+00 0. -1.
         11    1    4    4    0    0 -0.37704617022E+00  0.75565573106E+01  0.20488831972E+01  0.78384720973E+01  0.51100000000E-03 0. -1.
        -11    1    4    4    0    0 -0.13631731246E+01  0.17216580692E+02 -0.96401074000E+01  0.19778790727E+02  0.51100000000E-03 0.  1.
        -12    1    4    4    0    0 -0.14241968319E+01 -0.85442904889E+01 -0.25308487646E+02  0.26749818382E+02  0.00000000000E+00 0.  1.
</event>
<event>
 8    1  0.1229038E-006  0.9118800E+02  0.7816164E-02  0.1184000E+00
        -11   -1    0    0    0    0  0.00000000000E+00  0.00000000000E+00  0.45593999997E+02  0.45594000000E+02  0.51100000000E-03 0.  1.
         11   -1    0    0    0    0 -0.00000000000E+00 -0.00000000000E+00 -0.45593999997E+02  0.45594000000E+02  0.51100000000E-03 0. -1.
         23    2    1    2    0    0  0.00000000000E+00  0.44408920985E-15  0.00000000000E+00  0.91188000000E+02  0.91188000000E+02 0.  0.
    9900012    2    3    3    0    0 -0.31051448734E+02 -0.30227414691E+01  0.19556337658E+02  0.54367085060E+02  0.40000002010E+02 0.  0.
         12    1    3    3    0    0  0.31051448734E+02  0.30227414691E+01 -0.19556337658E+02  0.36820914940E+02  0.00000000000E+00 0. -1.
         11    1    4    4    0    0 -0.14261661795E+02 -0.78843843173E+01 -0.36967076365E+01  0.16710001820E+02  0.51100000000E-03 0. -1.
        -11    1    4    4    0    0 -0.11274483797E+02  0.72686146494E+01  0.27291401205E+02  0.30409987237E+02  0.51100000000E-03 0.  1.
        -12    1    4    4    0    0 -0.55153031420E+01 -0.24069718012E+01 -0.40383559106E+01  0.72470960019E+01  0.00000000000E+00 0.  1.
</event>
<event>
 8    1  0.1229038E-006  0.9118800E+02  0.7816164E-02  0.1184000E+00
        -11   -1    0    0    0    0  0.00000000000E+00  0.00000000000E+00  0.45593999997E+02  0.45594000000E+02  0.51100000000E-03 0.  1.
         11   -1    0    0    0    0 -0.00000000000E+00 -0.00000000000E+00 -0.45593999997E+02  0.45594000000E+02  0.51100000000E-03 0. -1.
         23    2    1    2    0    0  0.00000000000E+00  0.00000000000E+00  0.35527136788E-14  0.91188000000E+02  0.91188000000E+02 0.  0.
    9900012    2    3    3    0    0  0.64702448522E+01  0.25164196736E+02  0.26089808610E+02  0.54367095894E+02  0.40000026711E+02 0.  0.
         12    1    3    3    0    0 -0.64702448522E+01 -0.25164196736E+02 -0.26089808610E+02  0.36820904106E+02  0.00000000000E+00 0. -1.
         11    1    4    4    0    0  0.61330872302E+01  0.22396339054E+02  0.45263033327E+01  0.23657941248E+02  0.51100000000E-03 0. -1.
        -11    1    4    4    0    0  0.32373452583E+01 -0.54270584530E+01  0.21075495074E+02  0.22002496691E+02  0.51100000000E-03 0.  1.
         12    1    4    4    0    0 -0.29001876363E+01  0.81949161356E+01  0.48801020406E+00  0.87066579556E+01  0.00000000000E+00 0. -1.
</event>
<event>
 8    1  0.1229038E-006  0.9118800E+02  0.7816164E-02  0.1184000E+00
        -11   -1    0    0    0    0  0.00000000000E+00  0.00000000000E+00  0.45593999997E+02  0.45594000000E+02  0.51100000000E-03 0. -1.
         11   -1    0    0    0    0 -0.00000000000E+00 -0.00000000000E+00 -0.45593999997E+02  0.45594000000E+02  0.51100000000E-03 0.  1.
         23    2    1    2    0    0  0.00000000000E+00  0.00000000000E+00  0.35527136788E-14  0.91188000000E+02  0.91188000000E+02 0.  0.
    9900012    2    3    3    0    0 -0.27402609566E+02 -0.11831029297E+02  0.21561611444E+02  0.54367090814E+02  0.40000015128E+02 0.  0.
        -12    1    3    3    0    0  0.27402609566E+02  0.11831029297E+02 -0.21561611444E+02  0.36820909186E+02  0.00000000000E+00 0.  1.
         11    1    4    4    0    0 -0.27360505879E+02 -0.29653120806E+01  0.79344584135E+01  0.28641682707E+02  0.51100000000E-03 0. -1.
        -11    1    4    4    0    0  0.45789571252E+01  0.53135587424E+00 -0.34054658761E+01  0.57311766256E+01  0.51100000000E-03 0.  1.
         12    1    4    4    0    0 -0.46210608120E+01 -0.93970730906E+01  0.17032618907E+02  0.19994231481E+02  0.00000000000E+00 0. -1.
</event>
<event>
 8    1  0.1229038E-006  0.9118800E+02  0.7816164E-02  0.1184000E+00
        -11   -1    0    0    0    0  0.00000000000E+00  0.00000000000E+00  0.45593999997E+02  0.45594000000E+02  0.51100000000E-03 0. -1.
         11   -1    0    0    0    0 -0.00000000000E+00 -0.00000000000E+00 -0.45593999997E+02  0.45594000000E+02  0.51100000000E-03 0.  1.
         23    2    1    2    0    0  0.00000000000E+00  0.00000000000E+00  0.00000000000E+00  0.91188000000E+02  0.91188000000E+02 0.  0.
    9900012    2    3    3    0    0  0.22235537256E+02  0.92295463769E+01 -0.27859951542E+02  0.54367074654E+02  0.39999978289E+02 0.  0.
         12    1    3    3    0    0 -0.22235537256E+02 -0.92295463769E+01  0.27859951542E+02  0.36820925346E+02  0.00000000000E+00 0. -1.
         11    1    4    4    0    0 -0.40840097052E+01  0.32893502414E+01  0.12482176477E+01  0.53904552535E+01  0.51100000000E-03 0. -1.
        -11    1    4    4    0    0  0.81214641567E+01 -0.11045135405E+02 -0.15169427636E+02  0.20446631293E+02  0.51100000000E-03 0.  1.
        -12    1    4    4    0    0  0.18198082805E+02  0.16985331541E+02 -0.13938741554E+02  0.28529988108E+02  0.00000000000E+00 0.  1.
</event>
<event>
 8    1  0.1229038E-006  0.9118800E+02  0.7816164E-02  0.1184000E+00
        -11   -1    0    0    0    0  0.00000000000E+00  0.00000000000E+00  0.45593999997E+02  0.45594000000E+02  0.51100000000E-03 0. -1.
         11   -1    0    0    0    0 -0.00000000000E+00 -0.00000000000E+00 -0.45593999997E+02  0.45594000000E+02  0.51100000000E-03 0.  1.
         23    2    1    2    0    0 -0.22204460493E-15 -0.71054273576E-14  0.35527136788E-14  0.91188000000E+02  0.91188000000E+02 0.  0.
    9900012    2    3    3    0    0 -0.15756257809E+01 -0.23528816330E+02 -0.28278804071E+02  0.54367101665E+02  0.40000039865E+02 0.  0.
         12    1    3    3    0    0  0.15756257809E+01  0.23528816330E+02  0.28278804071E+02  0.36820898335E+02  0.00000000000E+00 0. -1.
         11    1    4    4    0    0 -0.21145739985E+01 -0.52935736762E+00  0.29626405226E+01  0.36781627948E+01  0.51100000000E-03 0. -1.
        -11    1    4    4    0    0 -0.50537970206E+00  0.68515944192E+01  0.76192425436E+00  0.69123283747E+01  0.51100000000E-03 0.  1.
        -12    1    4    4    0    0  0.10443279197E+01 -0.29851053382E+02 -0.32003368848E+02  0.43776610495E+02  0.00000000000E+00 0.  1.
</event>
<event>
 8    1  0.1229038E-006  0.9118800E+02  0.7816164E-02  0.1184000E+00
        -11   -1    0    0    0    0  0.00000000000E+00  0.00000000000E+00  0.45593999997E+02  0.45594000000E+02  0.51100000000E-03 0.  1.
         11   -1    0    0    0    0 -0.00000000000E+00 -0.00000000000E+00 -0.45593999997E+02  0.45594000000E+02  0.51100000000E-03 0. -1.
         23    2    1    2    0    0  0.00000000000E+00 -0.17763568394E-14  0.00000000000E+00  0.91188000000E+02  0.91188000000E+02 0.  0.
    9900012    2    3    3    0    0 -0.30294617226E+02  0.87217717832E+01 -0.19024683994E+02  0.54367194238E+02  0.40000250904E+02 0.  0.
        -12    1    3    3    0    0  0.30294617226E+02 -0.87217717832E+01  0.19024683994E+02  0.36820805762E+02  0.00000000000E+00 0.  1.
         11    1    4    4    0    0 -0.37828116636E+02  0.10446661419E+02 -0.13098816149E+02  0.41372431978E+02  0.51100000000E-03 0. -1.
        -11    1    4    4    0    0  0.51121961694E+01 -0.48574335091E+01 -0.18031182962E+01  0.72787667789E+01  0.51100000000E-03 0.  1.
         12    1    4    4    0    0  0.24213032404E+01  0.31325438731E+01 -0.41227495486E+01  0.57159954811E+01  0.00000000000E+00 0. -1.
</event>
<event>
 8    1  0.1229038E-006  0.9118800E+02  0.7816164E-02  0.1184000E+00
        -11   -1    0    0    0    0  0.00000000000E+00  0.00000000000E+00  0.45593999997E+02  0.45594000000E+02  0.51100000000E-03 0. -1.
         11   -1    0    0    0    0 -0.00000000000E+00 -0.00000000000E+00 -0.45593999997E+02  0.45594000000E+02  0.51100000000E-03 0.  1.
         23    2    1    2    0    0 -0.35527136788E-14  0.00000000000E+00  0.00000000000E+00  0.91188000000E+02  0.91188000000E+02 0.  0.
    9900012    2    3    3    0    0  0.18507827073E+02  0.22617684698E+02 -0.22398232412E+02  0.54367080142E+02  0.39999990799E+02 0.  0.
         12    1    3    3    0    0 -0.18507827073E+02 -0.22617684698E+02  0.22398232412E+02  0.36820919858E+02  0.00000000000E+00 0. -1.
         11    1    4    4    0    0  0.20138145099E+02  0.13970551973E+02 -0.11656757070E+02  0.27140397862E+02  0.51100000000E-03 0. -1.
        -11    1    4    4    0    0  0.10154740202E+02  0.82303619965E+01 -0.41345969737E+01  0.13709576929E+02  0.51100000000E-03 0.  1.
         12    1    4    4    0    0 -0.11785058229E+02  0.41677072833E+00 -0.66068783679E+01  0.13517105351E+02  0.00000000000E+00 0. -1.
</event>
<event>
 8    1  0.1229038E-006  0.9118800E+02  0.7816164E-02  0.1184000E+00
        -11   -1    0    0    0    0  0.00000000000E+00  0.00000000000E+00  0.45593999997E+02  0.45594000000E+02  0.51100000000E-03 0.  1.
         11   -1    0    0    0    0 -0.00000000000E+00 -0.00000000000E+00 -0.45593999997E+02  0.45594000000E+02  0.51100000000E-03 0. -1.
         23    2    1    2    0    0 -0.17763568394E-14  0.00000000000E+00  0.00000000000E+00  0.91188000000E+02  0.91188000000E+02 0.  0.
    9900012    2    3    3    0    0 -0.11257775838E+02 -0.10163136585E+02 -0.33552228938E+02  0.54367096578E+02  0.40000028269E+02 0.  0.
        -12    1    3    3    0    0  0.11257775838E+02  0.10163136585E+02  0.33552228938E+02  0.36820903422E+02  0.00000000000E+00 0.  1.
         11    1    4    4    0    0 -0.54776602084E+01 -0.65583154947E+01 -0.18823483756E+01  0.87498285215E+01  0.51100000000E-03 0. -1.
        -11    1    4    4    0    0 -0.37946862122E+01 -0.46477929099E+01  0.56431408102E+01  0.82369084520E+01  0.51100000000E-03 0.  1.
         12    1    4    4    0    0 -0.19854294176E+01  0.10429718200E+01 -0.37313021373E+02  0.37380359605E+02  0.00000000000E+00 0. -1.
</event>
<event>
 8    1  0.1229038E-006  0.9118800E+02  0.7816164E-02  0.1184000E+00
        -11   -1    0    0    0    0  0.00000000000E+00  0.00000000000E+00  0.45593999997E+02  0.45594000000E+02  0.51100000000E-03 0. -1.
         11   -1    0    0    0    0 -0.00000000000E+00 -0.00000000000E+00 -0.45593999997E+02  0.45594000000E+02  0.51100000000E-03 0.  1.
         23    2    1    2    0    0 -0.44408920985E-15  0.35527136788E-14  0.00000000000E+00  0.91188000000E+02  0.91188000000E+02 0.  0.
    9900012    2    3    3    0    0 -0.23557442004E+01  0.28611521318E+02 -0.23056719009E+02  0.54367068802E+02  0.39999964948E+02 0.  0.
         12    1    3    3    0    0  0.23557442004E+01 -0.28611521318E+02  0.23056719009E+02  0.36820931198E+02  0.00000000000E+00 0. -1.
         11    1    4    4    0    0  0.11941520141E+02  0.44725935819E+01 -0.31778574738E+01  0.13141642782E+02  0.51100000000E-03 0. -1.
        -11    1    4    4    0    0 -0.88712194942E-01 -0.33025844296E+01  0.15211332138E+01  0.36371390245E+01  0.51100000000E-03 0.  1.
        -12    1    4    4    0    0 -0.14208552146E+02  0.27441512165E+02 -0.21399994749E+02  0.37588286995E+02  0.00000000000E+00 0.  1.
</event>
<event>
 8    1  0.1229038E-006  0.9118800E+02  0.7816164E-02  0.1184000E+00
        -11   -1    0    0    0    0  0.00000000000E+00  0.00000000000E+00  0.45593999997E+02  0.45594000000E+02  0.51100000000E-03 0.  1.
         11   -1    0    0    0    0 -0.00000000000E+00 -0.00000000000E+00 -0.45593999997E+02  0.45594000000E+02  0.51100000000E-03 0. -1.
         23    2    1    2    0    0  0.00000000000E+00 -0.35527136788E-14  0.00000000000E+00  0.91188000000E+02  0.91188000000E+02 0.  0.
    9900012    2    3    3    0    0 -0.25694970953E+02  0.25833024565E+02  0.53106741280E+01  0.54367082709E+02  0.39999996652E+02 0.  0.
         12    1    3    3    0    0  0.25694970953E+02 -0.25833024565E+02 -0.53106741280E+01  0.36820917291E+02  0.00000000000E+00 0. -1.
         11    1    4    4    0    0 -0.18751499041E+02  0.11184661526E+02 -0.20289756338E+00  0.21834755263E+02  0.51100000000E-03 0. -1.
        -11    1    4    4    0    0 -0.20192505749E+01  0.17511641583E+02 -0.68561733448E+01  0.18914070874E+02  0.51100000000E-03 0.  1.
         12    1    4    4    0    0 -0.49242213371E+01 -0.28632785446E+01  0.12369745036E+02  0.13618256572E+02  0.00000000000E+00 0. -1.
</event>
<event>
 8    1  0.1229038E-006  0.9118800E+02  0.7816164E-02  0.1184000E+00
        -11   -1    0    0    0    0  0.00000000000E+00  0.00000000000E+00  0.45593999997E+02  0.45594000000E+02  0.51100000000E-03 0.  1.
         11   -1    0    0    0    0 -0.00000000000E+00 -0.00000000000E+00 -0.45593999997E+02  0.45594000000E+02  0.51100000000E-03 0. -1.
         23    2    1    2    0    0  0.00000000000E+00  0.00000000000E+00  0.00000000000E+00  0.91188000000E+02  0.91188000000E+02 0.  0.
    9900012    2    3    3    0    0  0.22929697692E+02 -0.22169763939E+02 -0.18398639487E+02  0.54367090121E+02  0.40000013549E+02 0.  0.
         12    1    3    3    0    0 -0.22929697692E+02  0.22169763939E+02  0.18398639487E+02  0.36820909879E+02  0.00000000000E+00 0. -1.
         11    1    4    4    0    0  0.22383011327E+01  0.85377061884E+01 -0.34664201246E+01  0.94825359299E+01  0.51100000000E-03 0. -1.
        -11    1    4    4    0    0  0.12990552245E+02 -0.22024243515E+02 -0.19759079814E+02  0.32314748729E+02  0.51100000000E-03 0.  1.
        -12    1    4    4    0    0  0.77008443140E+01 -0.86832266122E+01  0.48268604513E+01  0.12569805462E+02  0.00000000000E+00 0.  1.
</event>
<event>
 8    1  0.1229038E-006  0.9118800E+02  0.7816164E-02  0.1184000E+00
        -11   -1    0    0    0    0  0.00000000000E+00  0.00000000000E+00  0.45593999997E+02  0.45594000000E+02  0.51100000000E-03 0.  1.
         11   -1    0    0    0    0 -0.00000000000E+00 -0.00000000000E+00 -0.45593999997E+02  0.45594000000E+02  0.51100000000E-03 0. -1.
         23    2    1    2    0    0  0.00000000000E+00  0.00000000000E+00  0.00000000000E+00  0.91188000000E+02  0.91188000000E+02 0.  0.
    9900012    2    3    3    0    0 -0.24328228234E+02 -0.23282683499E+02 -0.14894073392E+02  0.54367089336E+02  0.40000011759E+02 0.  0.
        -12    1    3    3    0    0  0.24328228234E+02  0.23282683499E+02  0.14894073392E+02  0.36820910664E+02  0.00000000000E+00 0.  1.
         11    1    4    4    0    0 -0.44053832347E+01 -0.11632039837E+02 -0.83612512415E+01  0.14987403871E+02  0.51100000000E-03 0. -1.
        -11    1    4    4    0    0 -0.11199864323E+02 -0.16134739194E+02  0.85233907745E+01  0.21410627274E+02  0.51100000000E-03 0.  1.
        -12    1    4    4    0    0 -0.87229806763E+01  0.44840955319E+01 -0.15056212925E+02  0.17969058191E+02  0.00000000000E+00 0.  1.
</event>
<event>
 8    1  0.1229038E-006  0.9118800E+02  0.7816164E-02  0.1184000E+00
        -11   -1    0    0    0    0  0.00000000000E+00  0.00000000000E+00  0.45593999997E+02  0.45594000000E+02  0.51100000000E-03 0. -1.
         11   -1    0    0    0    0 -0.00000000000E+00 -0.00000000000E+00 -0.45593999997E+02  0.45594000000E+02  0.51100000000E-03 0.  1.
         23    2    1    2    0    0  0.35527136788E-14  0.26645352591E-14  0.00000000000E+00  0.91188000000E+02  0.91188000000E+02 0.  0.
    9900012    2    3    3    0    0 -0.20524187630E+02  0.78180917666E+01  0.29553604211E+02  0.54367077162E+02  0.39999984007E+02 0.  0.
        -12    1    3    3    0    0  0.20524187630E+02 -0.78180917666E+01 -0.29553604211E+02  0.36820922838E+02  0.00000000000E+00 0.  1.
         11    1    4    4    0    0  0.43454181308E+01 -0.66971636789E+01  0.10902555953E+02  0.13512971052E+02  0.51100000000E-03 0. -1.
        -11    1    4    4    0    0 -0.20357217512E+01 -0.51919833460E+01  0.38055421025E+00  0.55897831695E+01  0.51100000000E-03 0.  1.
         12    1    4    4    0    0 -0.22833884010E+02  0.19707238791E+02  0.18270494048E+02  0.35264322941E+02  0.00000000000E+00 0. -1.
</event>
<event>
 8    1  0.1229038E-006  0.9118800E+02  0.7816164E-02  0.1184000E+00
        -11   -1    0    0    0    0  0.00000000000E+00  0.00000000000E+00  0.45593999997E+02  0.45594000000E+02  0.51100000000E-03 0.  1.
         11   -1    0    0    0    0 -0.00000000000E+00 -0.00000000000E+00 -0.45593999997E+02  0.45594000000E+02  0.51100000000E-03 0. -1.
         23    2    1    2    0    0  0.00000000000E+00  0.00000000000E+00  0.00000000000E+00  0.91188000000E+02  0.91188000000E+02 0.  0.
    9900012    2    3    3    0    0 -0.25238526450E+02  0.13451433322E+02 -0.23191719753E+02  0.54367080119E+02  0.39999990748E+02 0.  0.
        -12    1    3    3    0    0  0.25238526450E+02 -0.13451433322E+02  0.23191719753E+02  0.36820919881E+02  0.00000000000E+00 0.  1.
         11    1    4    4    0    0  0.36535293795E+01 -0.26060313717E+01 -0.50928102099E+01  0.67879593791E+01  0.51100000000E-03 0. -1.
        -11    1    4    4    0    0 -0.22371839514E+02 -0.35182802049E+01 -0.13745444880E+02  0.26491786539E+02  0.51100000000E-03 0.  1.
         12    1    4    4    0    0 -0.65202163155E+01  0.19575744899E+02 -0.43534646625E+01  0.21087334201E+02  0.00000000000E+00 0. -1.
</event>
<event>
 8    1  0.1229038E-006  0.9118800E+02  0.7816164E-02  0.1184000E+00
        -11   -1    0    0    0    0  0.00000000000E+00  0.00000000000E+00  0.45593999997E+02  0.45594000000E+02  0.51100000000E-03 0.  1.
         11   -1    0    0    0    0 -0.00000000000E+00 -0.00000000000E+00 -0.45593999997E+02  0.45594000000E+02  0.51100000000E-03 0. -1.
         23    2    1    2    0    0  0.00000000000E+00  0.11102230246E-15  0.00000000000E+00  0.91188000000E+02  0.91188000000E+02 0.  0.
    9900012    2    3    3    0    0 -0.36496279632E+02  0.85387188857E+00 -0.48034735215E+01  0.54367070054E+02  0.39999967802E+02 0.  0.
        -12    1    3    3    0    0  0.36496279632E+02 -0.85387188857E+00  0.48034735215E+01  0.36820929946E+02  0.00000000000E+00 0.  1.
         11    1    4    4    0    0 -0.43954549561E+02 -0.32968403271E+01 -0.68625280342E+01  0.44609033553E+02  0.51100000000E-03 0. -1.
        -11    1    4    4    0    0  0.27236701785E+01  0.34944673392E+01 -0.27435128644E+00  0.44390258071E+01  0.51100000000E-03 0.  1.
        -12    1    4    4    0    0  0.47345997504E+01  0.65624487638E+00  0.23334057992E+01  0.53190106935E+01  0.00000000000E+00 0.  1.
</event>
<event>
 8    1  0.1229038E-006  0.9118800E+02  0.7816164E-02  0.1184000E+00
        -11   -1    0    0    0    0  0.00000000000E+00  0.00000000000E+00  0.45593999997E+02  0.45594000000E+02  0.51100000000E-03 0.  1.
         11   -1    0    0    0    0 -0.00000000000E+00 -0.00000000000E+00 -0.45593999997E+02  0.45594000000E+02  0.51100000000E-03 0. -1.
         23    2    1    2    0    0  0.11102230246E-15  0.71054273576E-14  0.00000000000E+00  0.91188000000E+02  0.91188000000E+02 0.  0.
    9900012    2    3    3    0    0  0.29061646231E+00  0.35865847681E+02  0.83268503048E+01  0.54367083067E+02  0.39999997467E+02 0.  0.
         12    1    3    3    0    0 -0.29061646231E+00 -0.35865847681E+02 -0.83268503048E+01  0.36820916933E+02  0.00000000000E+00 0. -1.
         11    1    4    4    0    0 -0.32547800635E+01 -0.19444335919E+01 -0.90725543639E+00  0.38984006904E+01  0.51100000000E-03 0. -1.
        -11    1    4    4    0    0 -0.10584496438E+02  0.17736611485E+01  0.26492121419E+00  0.10735344532E+02  0.51100000000E-03 0.  1.
        -12    1    4    4    0    0  0.14129892964E+02  0.36036620124E+02  0.89691845270E+01  0.39733337844E+02  0.00000000000E+00 0.  1.
</event>
<event>
 8    1  0.1229038E-006  0.9118800E+02  0.7816164E-02  0.1184000E+00
        -11   -1    0    0    0    0  0.00000000000E+00  0.00000000000E+00  0.45593999997E+02  0.45594000000E+02  0.51100000000E-03 0. -1.
         11   -1    0    0    0    0 -0.00000000000E+00 -0.00000000000E+00 -0.45593999997E+02  0.45594000000E+02  0.51100000000E-03 0.  1.
         23    2    1    2    0    0 -0.35527136788E-14  0.00000000000E+00  0.00000000000E+00  0.91188000000E+02  0.91188000000E+02 0.  0.
    9900012    2    3    3    0    0  0.13721230515E+02 -0.11329242966E+02 -0.32235901150E+02  0.54367119565E+02  0.40000080672E+02 0.  0.
         12    1    3    3    0    0 -0.13721230515E+02  0.11329242966E+02  0.32235901150E+02  0.36820880435E+02  0.00000000000E+00 0. -1.
         11    1    4    4    0    0  0.12339760996E+02 -0.77769570598E+01 -0.15987208962E+02  0.21641201751E+02  0.51100000000E-03 0. -1.
        -11    1    4    4    0    0 -0.97739231875E+01 -0.93557681875E+01 -0.14824978148E+02  0.20070873180E+02  0.51100000000E-03 0.  1.
        -12    1    4    4    0    0  0.11155392707E+02  0.58034822810E+01 -0.14237140397E+01  0.12655044634E+02  0.00000000000E+00 0.  1.
</event>
<event>
 8    1  0.1229038E-006  0.9118800E+02  0.7816164E-02  0.1184000E+00
        -11   -1    0    0    0    0  0.00000000000E+00  0.00000000000E+00  0.45593999997E+02  0.45594000000E+02  0.51100000000E-03 0. -1.
         11   -1    0    0    0    0 -0.00000000000E+00 -0.00000000000E+00 -0.45593999997E+02  0.45594000000E+02  0.51100000000E-03 0.  1.
         23    2    1    2    0    0  0.00000000000E+00  0.00000000000E+00  0.00000000000E+00  0.91188000000E+02  0.91188000000E+02 0.  0.
    9900012    2    3    3    0    0  0.24717045684E+01  0.32076263271E+02 -0.17910441746E+02  0.54367083221E+02  0.39999997819E+02 0.  0.
         12    1    3    3    0    0 -0.24717045684E+01 -0.32076263271E+02  0.17910441746E+02  0.36820916779E+02  0.00000000000E+00 0. -1.
         11    1    4    4    0    0  0.42887644346E+01  0.26111102855E+02 -0.24409321358E+01  0.26573320128E+02  0.51100000000E-03 0. -1.
        -11    1    4    4    0    0  0.19182936617E+01  0.13991749078E+02 -0.81422509435E+01  0.16301691431E+02  0.51100000000E-03 0.  1.
        -12    1    4    4    0    0 -0.37353535279E+01 -0.80265886614E+01 -0.73272586664E+01  0.11492071662E+02  0.00000000000E+00 0.  1.
</event>
<event>
 8    1  0.1229038E-006  0.9118800E+02  0.7816164E-02  0.1184000E+00
        -11   -1    0    0    0    0  0.00000000000E+00  0.00000000000E+00  0.45593999997E+02  0.45594000000E+02  0.51100000000E-03 0.  1.
         11   -1    0    0    0    0 -0.00000000000E+00 -0.00000000000E+00 -0.45593999997E+02  0.45594000000E+02  0.51100000000E-03 0. -1.
         23    2    1    2    0    0 -0.11102230246E-15  0.00000000000E+00  0.00000000000E+00  0.91188000000E+02  0.91188000000E+02 0.  0.
    9900012    2    3    3    0    0  0.33331983012E+00 -0.80288813628E+01  0.35933364157E+02  0.54367072558E+02  0.39999973511E+02 0.  0.
         12    1    3    3    0    0 -0.33331983012E+00  0.80288813628E+01 -0.35933364157E+02  0.36820927442E+02  0.00000000000E+00 0. -1.
         11    1    4    4    0    0  0.10456863311E+02 -0.88652329868E+01 -0.24437758730E+01  0.13925170986E+02  0.51100000000E-03 0. -1.
        -11    1    4    4    0    0 -0.81628732315E+01  0.39194190044E+01  0.28874633044E+02  0.30261176091E+02  0.51100000000E-03 0.  1.
         12    1    4    4    0    0 -0.19606702495E+01 -0.30830673804E+01  0.95025069854E+01  0.10180725480E+02  0.00000000000E+00 0. -1.
</event>
<event>
 8    1  0.1229038E-006  0.9118800E+02  0.7816164E-02  0.1184000E+00
        -11   -1    0    0    0    0  0.00000000000E+00  0.00000000000E+00  0.45593999997E+02  0.45594000000E+02  0.51100000000E-03 0.  1.
         11   -1    0    0    0    0 -0.00000000000E+00 -0.00000000000E+00 -0.45593999997E+02  0.45594000000E+02  0.51100000000E-03 0. -1.
         23    2    1    2    0    0 -0.35527136788E-14 -0.35527136788E-14  0.35527136788E-14  0.91188000000E+02  0.91188000000E+02 0.  0.
    9900012    2    3    3    0    0  0.17124729356E+02  0.22088473976E+02 -0.23971302774E+02  0.54367076671E+02  0.39999982887E+02 0.  0.
        -12    1    3    3    0    0 -0.17124729356E+02 -0.22088473976E+02  0.23971302774E+02  0.36820923329E+02  0.00000000000E+00 0.  1.
         11    1    4    4    0    0  0.36236024049E+01  0.22898039010E+02 -0.20127639587E+02  0.30701344605E+02  0.51100000000E-03 0. -1.
        -11    1    4    4    0    0  0.55514492260E+01  0.27822181111E+01 -0.10833768234E+02  0.12487187856E+02  0.51100000000E-03 0.  1.
        -12    1    4    4    0    0  0.79496777252E+01 -0.35917831451E+01  0.69901050478E+01  0.11178544211E+02  0.00000000000E+00 0.  1.
</event>
<event>
 8    1  0.1229038E-006  0.9118800E+02  0.7816164E-02  0.1184000E+00
        -11   -1    0    0    0    0  0.00000000000E+00  0.00000000000E+00  0.45593999997E+02  0.45594000000E+02  0.51100000000E-03 0. -1.
         11   -1    0    0    0    0 -0.00000000000E+00 -0.00000000000E+00 -0.45593999997E+02  0.45594000000E+02  0.51100000000E-03 0.  1.
         23    2    1    2    0    0  0.35527136788E-14 -0.17763568394E-14  0.00000000000E+00  0.91188000000E+02  0.91188000000E+02 0.  0.
    9900012    2    3    3    0    0 -0.29597597509E+02  0.12158976581E+02 -0.18218684977E+02  0.54367095990E+02  0.40000026929E+02 0.  0.
         12    1    3    3    0    0  0.29597597509E+02 -0.12158976581E+02  0.18218684977E+02  0.36820904010E+02  0.00000000000E+00 0. -1.
         11    1    4    4    0    0 -0.12964055998E+02 -0.11719250218E+02 -0.13185720300E+02  0.21892254194E+02  0.51100000000E-03 0. -1.
        -11    1    4    4    0    0 -0.32352378126E+01  0.49617554817E+01 -0.70481718132E+01  0.92066555998E+01  0.51100000000E-03 0.  1.
        -12    1    4    4    0    0 -0.13398303698E+02  0.18916471317E+02  0.20152071363E+01  0.23268186196E+02  0.00000000000E+00 0.  1.
</event>
<event>
 8    1  0.1229038E-006  0.9118800E+02  0.7816164E-02  0.1184000E+00
        -11   -1    0    0    0    0  0.00000000000E+00  0.00000000000E+00  0.45593999997E+02  0.45594000000E+02  0.51100000000E-03 0.  1.
         11   -1    0    0    0    0 -0.00000000000E+00 -0.00000000000E+00 -0.45593999997E+02  0.45594000000E+02  0.51100000000E-03 0. -1.
         23    2    1    2    0    0 -0.71054273576E-14  0.00000000000E+00 -0.88817841970E-15  0.91188000000E+02  0.91188000000E+02 0.  0.
    9900012    2    3    3    0    0 -0.36347892176E+02 -0.56062223265E+01 -0.17832312090E+01  0.54367096861E+02  0.40000028914E+02 0.  0.
        -12    1    3    3    0    0  0.36347892176E+02  0.56062223265E+01  0.17832312090E+01  0.36820903139E+02  0.00000000000E+00 0.  1.
         11    1    4    4    0    0 -0.15915480158E+02  0.25256097462E+01  0.37079934758E+01  0.16535731890E+02  0.51100000000E-03 0. -1.
        -11    1    4    4    0    0 -0.92463377952E+01 -0.75426105523E+01  0.12088734688E+02  0.16985971953E+02  0.51100000000E-03 0.  1.
        -12    1    4    4    0    0 -0.11186074223E+02 -0.58922152043E+00 -0.17579959373E+02  0.20845393018E+02  0.00000000000E+00 0.  1.
</event>
<event>
 8    1  0.1229038E-006  0.9118800E+02  0.7816164E-02  0.1184000E+00
        -11   -1    0    0    0    0  0.00000000000E+00  0.00000000000E+00  0.45593999997E+02  0.45594000000E+02  0.51100000000E-03 0. -1.
         11   -1    0    0    0    0 -0.00000000000E+00 -0.00000000000E+00 -0.45593999997E+02  0.45594000000E+02  0.51100000000E-03 0.  1.
         23    2    1    2    0    0  0.90205620751E-16  0.35527136788E-14  0.00000000000E+00  0.91188000000E+02  0.91188000000E+02 0.  0.
    9900012    2    3    3    0    0  0.52953854568E-01  0.28600868229E+02  0.23189830034E+02  0.54367072736E+02  0.39999973916E+02 0.  0.
        -12    1    3    3    0    0 -0.52953854568E-01 -0.28600868229E+02 -0.23189830034E+02  0.36820927264E+02  0.00000000000E+00 0.  1.
         11    1    4    4    0    0 -0.17903795055E+01  0.69952050241E+01 -0.86882543778E+01  0.11297084425E+02  0.51100000000E-03 0.  1.
        -11    1    4    4    0    0  0.15062946529E+01  0.65528497398E+01  0.26084609424E+02  0.26937253244E+02  0.51100000000E-03 0. -1.
         12    1    4    4    0    0  0.33703870716E+00  0.15052813465E+02  0.57934749877E+01  0.16132735067E+02  0.00000000000E+00 0. -1.
</event>
<event>
 8    1  0.1229038E-006  0.9118800E+02  0.7816164E-02  0.1184000E+00
        -11   -1    0    0    0    0  0.00000000000E+00  0.00000000000E+00  0.45593999997E+02  0.45594000000E+02  0.51100000000E-03 0. -1.
         11   -1    0    0    0    0 -0.00000000000E+00 -0.00000000000E+00 -0.45593999997E+02  0.45594000000E+02  0.51100000000E-03 0.  1.
         23    2    1    2    0    0  0.35527136788E-14  0.17763568394E-14  0.00000000000E+00  0.91188000000E+02  0.91188000000E+02 0.  0.
    9900012    2    3    3    0    0 -0.23156885038E+02 -0.14172010295E+02 -0.24873390485E+02  0.54367180418E+02  0.40000219398E+02 0.  0.
         12    1    3    3    0    0  0.23156885038E+02  0.14172010295E+02  0.24873390485E+02  0.36820819582E+02  0.00000000000E+00 0. -1.
         11    1    4    4    0    0 -0.59940206393E+01  0.85283142568E+01 -0.95636773211E+01  0.14146531435E+02  0.51100000000E-03 0. -1.
        -11    1    4    4    0    0 -0.13420410515E+02 -0.22019784458E+02 -0.14274182738E+01  0.25826649979E+02  0.51100000000E-03 0.  1.
        -12    1    4    4    0    0 -0.37424538842E+01 -0.68054009392E+00 -0.13882294890E+02  0.14393999004E+02  0.00000000000E+00 0.  1.
</event>
<event>
 8    1  0.1229038E-006  0.9118800E+02  0.7816164E-02  0.1184000E+00
        -11   -1    0    0    0    0  0.00000000000E+00  0.00000000000E+00  0.45593999997E+02  0.45594000000E+02  0.51100000000E-03 0.  1.
         11   -1    0    0    0    0 -0.00000000000E+00 -0.00000000000E+00 -0.45593999997E+02  0.45594000000E+02  0.51100000000E-03 0. -1.
         23    2    1    2    0    0  0.13322676296E-14  0.17763568394E-14  0.71054273576E-14  0.91188000000E+02  0.91188000000E+02 0.  0.
    9900012    2    3    3    0    0 -0.10014933288E+01  0.15664839454E+02  0.33307515401E+02  0.54367071628E+02  0.39999971390E+02 0.  0.
         12    1    3    3    0    0  0.10014933288E+01 -0.15664839454E+02 -0.33307515401E+02  0.36820928372E+02  0.00000000000E+00 0. -1.
         11    1    4    4    0    0 -0.78327445419E+01  0.15712634237E+02  0.21605054773E+01  0.17689164647E+02  0.51100000000E-03 0. -1.
        -11    1    4    4    0    0  0.22884718433E+01  0.85946135688E+01  0.19817165320E+02  0.21721522215E+02  0.51100000000E-03 0.  1.
         12    1    4    4    0    0  0.45427793698E+01 -0.86424083513E+01  0.11329844604E+02  0.14956384766E+02  0.00000000000E+00 0. -1.
</event>
<event>
 8    1  0.1229038E-006  0.9118800E+02  0.7816164E-02  0.1184000E+00
        -11   -1    0    0    0    0  0.00000000000E+00  0.00000000000E+00  0.45593999997E+02  0.45594000000E+02  0.51100000000E-03 0. -1.
         11   -1    0    0    0    0 -0.00000000000E+00 -0.00000000000E+00 -0.45593999997E+02  0.45594000000E+02  0.51100000000E-03 0.  1.
         23    2    1    2    0    0  0.00000000000E+00  0.88817841970E-15  0.00000000000E+00  0.91188000000E+02  0.91188000000E+02 0.  0.
    9900012    2    3    3    0    0  0.51146343361E+01 -0.57885487310E+01 -0.36001527289E+02  0.54367126192E+02  0.40000095780E+02 0.  0.
         12    1    3    3    0    0 -0.51146343361E+01  0.57885487310E+01  0.36001527289E+02  0.36820873808E+02  0.00000000000E+00 0. -1.
         11    1    4    4    0    0  0.47896256574E+01 -0.34800296455E+01 -0.11472409924E+00  0.59215101243E+01  0.51100000000E-03 0. -1.
        -11    1    4    4    0    0 -0.66065345214E+00  0.10414800321E+02 -0.33975207071E+02  0.35541795460E+02  0.51100000000E-03 0.  1.
        -12    1    4    4    0    0  0.98566213078E+00 -0.12723319407E+02 -0.19115961190E+01  0.12903820608E+02  0.00000000000E+00 0.  1.
</event>
<event>
 8    1  0.1229038E-006  0.9118800E+02  0.7816164E-02  0.1184000E+00
        -11   -1    0    0    0    0  0.00000000000E+00  0.00000000000E+00  0.45593999997E+02  0.45594000000E+02  0.51100000000E-03 0. -1.
         11   -1    0    0    0    0 -0.00000000000E+00 -0.00000000000E+00 -0.45593999997E+02  0.45594000000E+02  0.51100000000E-03 0.  1.
         23    2    1    2    0    0  0.00000000000E+00 -0.17763568394E-14  0.88817841970E-15  0.91188000000E+02  0.91188000000E+02 0.  0.
    9900012    2    3    3    0    0 -0.34551593918E+02 -0.10731560838E+02  0.68417752773E+01  0.54366960781E+02  0.39999718691E+02 0.  0.
         12    1    3    3    0    0  0.34551593918E+02  0.10731560838E+02 -0.68417752773E+01  0.36821039219E+02  0.00000000000E+00 0. -1.
         11    1    4    4    0    0  0.29991711377E+01 -0.14769977873E+00 -0.55102248995E+01  0.62753024981E+01  0.51100000000E-03 0. -1.
        -11    1    4    4    0    0 -0.91409141037E+01 -0.70253940961E+01 -0.70423641499E+01  0.13509528709E+02  0.51100000000E-03 0.  1.
         12    1    4    4    0    0 -0.28409850951E+02 -0.35584669627E+01  0.19394364327E+02  0.34582129574E+02  0.00000000000E+00 0. -1.
</event>
<event>
 8    1  0.1229038E-006  0.9118800E+02  0.7816164E-02  0.1184000E+00
        -11   -1    0    0    0    0  0.00000000000E+00  0.00000000000E+00  0.45593999997E+02  0.45594000000E+02  0.51100000000E-03 0. -1.
         11   -1    0    0    0    0 -0.00000000000E+00 -0.00000000000E+00 -0.45593999997E+02  0.45594000000E+02  0.51100000000E-03 0.  1.
         23    2    1    2    0    0  0.35527136788E-14 -0.35527136788E-14  0.17763568394E-14  0.91188000000E+02  0.91188000000E+02 0.  0.
    9900012    2    3    3    0    0 -0.25397340676E+02  0.23575371238E+02 -0.12448162186E+02  0.54367084962E+02  0.40000001788E+02 0.  0.
         12    1    3    3    0    0  0.25397340676E+02 -0.23575371238E+02  0.12448162186E+02  0.36820915038E+02  0.00000000000E+00 0. -1.
         11    1    4    4    0    0 -0.16662793806E+02  0.37597015279E+01 -0.32333493657E+01  0.17385010825E+02  0.51100000000E-03 0. -1.
        -11    1    4    4    0    0  0.19175355949E+01 -0.41768503350E+01 -0.96924004503E+01  0.10726865723E+02  0.51100000000E-03 0.  1.
         12    1    4    4    0    0 -0.10652082465E+02  0.23992520045E+02  0.47758763006E+00  0.26255208415E+02  0.00000000000E+00 0. -1.
</event>
<event>
 8    1  0.1229038E-006  0.9118800E+02  0.7816164E-02  0.1184000E+00
        -11   -1    0    0    0    0  0.00000000000E+00  0.00000000000E+00  0.45593999997E+02  0.45594000000E+02  0.51100000000E-03 0. -1.
         11   -1    0    0    0    0 -0.00000000000E+00 -0.00000000000E+00 -0.45593999997E+02  0.45594000000E+02  0.51100000000E-03 0.  1.
         23    2    1    2    0    0  0.35527136788E-14  0.00000000000E+00  0.00000000000E+00  0.91188000000E+02  0.91188000000E+02 0.  0.
    9900012    2    3    3    0    0 -0.16230251923E+02  0.14946744893E+01 -0.33017055312E+02  0.54367067491E+02  0.39999961960E+02 0.  0.
         12    1    3    3    0    0  0.16230251923E+02 -0.14946744893E+01  0.33017055312E+02  0.36820932509E+02  0.00000000000E+00 0. -1.
         11    1    4    4    0    0  0.39668770179E+01  0.95430124723E+01 -0.80416382202E+01  0.13094775517E+02  0.51100000000E-03 0. -1.
        -11    1    4    4    0    0 -0.84733008070E+01  0.11963713970E+01 -0.24913198325E+02  0.26341897846E+02  0.51100000000E-03 0.  1.
        -12    1    4    4    0    0 -0.11723828134E+02 -0.92447093800E+01 -0.62218766408E-01  0.14930394128E+02  0.00000000000E+00 0.  1.
</event>
<event>
 8    1  0.1229038E-006  0.9118800E+02  0.7816164E-02  0.1184000E+00
        -11   -1    0    0    0    0  0.00000000000E+00  0.00000000000E+00  0.45593999997E+02  0.45594000000E+02  0.51100000000E-03 0.  1.
         11   -1    0    0    0    0 -0.00000000000E+00 -0.00000000000E+00 -0.45593999997E+02  0.45594000000E+02  0.51100000000E-03 0. -1.
         23    2    1    2    0    0  0.00000000000E+00 -0.35527136788E-14  0.00000000000E+00  0.91188000000E+02  0.91188000000E+02 0.  0.
    9900012    2    3    3    0    0  0.20373996392E+02  0.24772494401E+02  0.18083224080E+02  0.54367092883E+02  0.40000019845E+02 0.  0.
         12    1    3    3    0    0 -0.20373996392E+02 -0.24772494401E+02 -0.18083224080E+02  0.36820907117E+02  0.00000000000E+00 0. -1.
         11    1    4    4    0    0  0.32534702323E+01  0.26225308470E+02  0.10351887590E+02  0.28381568840E+02  0.51100000000E-03 0. -1.
        -11    1    4    4    0    0  0.45992213991E+01  0.56388730511E+01  0.89605507021E+01  0.11543015027E+02  0.51100000000E-03 0.  1.
         12    1    4    4    0    0  0.12521304760E+02 -0.70916871199E+01 -0.12292142119E+01  0.14442509016E+02  0.00000000000E+00 0. -1.
</event>
<event>
 8    1  0.1229038E-006  0.9118800E+02  0.7816164E-02  0.1184000E+00
        -11   -1    0    0    0    0  0.00000000000E+00  0.00000000000E+00  0.45593999997E+02  0.45594000000E+02  0.51100000000E-03 0.  1.
         11   -1    0    0    0    0 -0.00000000000E+00 -0.00000000000E+00 -0.45593999997E+02  0.45594000000E+02  0.51100000000E-03 0. -1.
         23    2    1    2    0    0 -0.11657341759E-14 -0.35527136788E-14 -0.35527136788E-14  0.91188000000E+02  0.91188000000E+02 0.  0.
    9900012    2    3    3    0    0 -0.14211274701E+00  0.21788048243E+02  0.29682348852E+02  0.54367067426E+02  0.39999961811E+02 0.  0.
         12    1    3    3    0    0  0.14211274701E+00 -0.21788048243E+02 -0.29682348852E+02  0.36820932574E+02  0.00000000000E+00 0. -1.
         11    1    4    4    0    0 -0.10104544829E+02  0.35434786843E+01 -0.34136648068E+01  0.11238824452E+02  0.51100000000E-03 0. -1.
        -11    1    4    4    0    0  0.12930588651E+02  0.50665869411E+01  0.19707634235E+02  0.24109360703E+02  0.51100000000E-03 0.  1.
        -12    1    4    4    0    0 -0.29681565696E+01  0.13177982617E+02  0.13388379424E+02  0.19018882272E+02  0.00000000000E+00 0.  1.
</event>
<event>
 8    1  0.1229038E-006  0.9118800E+02  0.7816164E-02  0.1184000E+00
        -11   -1    0    0    0    0  0.00000000000E+00  0.00000000000E+00  0.45593999997E+02  0.45594000000E+02  0.51100000000E-03 0. -1.
         11   -1    0    0    0    0 -0.00000000000E+00 -0.00000000000E+00 -0.45593999997E+02  0.45594000000E+02  0.51100000000E-03 0.  1.
         23    2    1    2    0    0  0.35527136788E-14  0.00000000000E+00  0.00000000000E+00  0.91188000000E+02  0.91188000000E+02 0.  0.
    9900012    2    3    3    0    0  0.24156538081E+02 -0.93923615049E+01 -0.26153868937E+02  0.54367086825E+02  0.40000006034E+02 0.  0.
         12    1    3    3    0    0 -0.24156538081E+02  0.93923615049E+01  0.26153868937E+02  0.36820913175E+02  0.00000000000E+00 0. -1.
         11    1    4    4    0    0  0.10664040765E+02 -0.22077476045E+02 -0.18161501729E+02  0.30511913399E+02  0.51100000000E-03 0. -1.
        -11    1    4    4    0    0  0.12200296720E+02  0.12037389577E+02 -0.11105739589E+02  0.20422620791E+02  0.51100000000E-03 0.  1.
         12    1    4    4    0    0  0.12922005955E+01  0.64772496223E+00  0.31133723812E+01  0.34325526346E+01  0.00000000000E+00 0. -1.
</event>
<event>
 8    1  0.1229038E-006  0.9118800E+02  0.7816164E-02  0.1184000E+00
        -11   -1    0    0    0    0  0.00000000000E+00  0.00000000000E+00  0.45593999997E+02  0.45594000000E+02  0.51100000000E-03 0. -1.
         11   -1    0    0    0    0 -0.00000000000E+00 -0.00000000000E+00 -0.45593999997E+02  0.45594000000E+02  0.51100000000E-03 0.  1.
         23    2    1    2    0    0 -0.88817841970E-15  0.71054273576E-14 -0.88817841970E-15  0.91188000000E+02  0.91188000000E+02 0.  0.
    9900012    2    3    3    0    0  0.59857385413E+01 -0.35769524520E+02  0.63634328689E+01  0.54367065355E+02  0.39999957089E+02 0.  0.
         12    1    3    3    0    0 -0.59857385413E+01  0.35769524520E+02 -0.63634328689E+01  0.36820934645E+02  0.00000000000E+00 0. -1.
         11    1    4    4    0    0  0.27995915452E+01 -0.51648271251E+01  0.11313088152E+01  0.59827261302E+01  0.51100000000E-03 0. -1.
        -11    1    4    4    0    0 -0.13484258678E+02 -0.15552746591E+02 -0.82638720787E+01  0.22181179874E+02  0.51100000000E-03 0.  1.
         12    1    4    4    0    0  0.16670405674E+02 -0.15051950804E+02  0.13495996132E+02  0.26203159351E+02  0.00000000000E+00 0. -1.
</event>
<event>
 8    1  0.1229038E-006  0.9118800E+02  0.7816164E-02  0.1184000E+00
        -11   -1    0    0    0    0  0.00000000000E+00  0.00000000000E+00  0.45593999997E+02  0.45594000000E+02  0.51100000000E-03 0. -1.
         11   -1    0    0    0    0 -0.00000000000E+00 -0.00000000000E+00 -0.45593999997E+02  0.45594000000E+02  0.51100000000E-03 0.  1.
         23    2    1    2    0    0  0.00000000000E+00  0.35527136788E-14  0.26645352591E-14  0.91188000000E+02  0.91188000000E+02 0.  0.
    9900012    2    3    3    0    0  0.23052762520E+02 -0.28346345371E+02 -0.45645295742E+01  0.54367080865E+02  0.39999992448E+02 0.  0.
         12    1    3    3    0    0 -0.23052762520E+02  0.28346345371E+02  0.45645295742E+01  0.36820919135E+02  0.00000000000E+00 0. -1.
         11    1    4    4    0    0  0.26412629201E+02 -0.22239539704E+02 -0.27798527981E+01  0.34640318840E+02  0.51100000000E-03 0. -1.
        -11    1    4    4    0    0  0.13595572614E+01  0.10729394700E+01  0.71348848946E+01  0.73420826592E+01  0.51100000000E-03 0.  1.
        -12    1    4    4    0    0 -0.47194239419E+01 -0.71797451376E+01 -0.89195616707E+01  0.12384679365E+02  0.00000000000E+00 0.  1.
</event>
<event>
 8    1  0.1229038E-006  0.9118800E+02  0.7816164E-02  0.1184000E+00
        -11   -1    0    0    0    0  0.00000000000E+00  0.00000000000E+00  0.45593999997E+02  0.45594000000E+02  0.51100000000E-03 0.  1.
         11   -1    0    0    0    0 -0.00000000000E+00 -0.00000000000E+00 -0.45593999997E+02  0.45594000000E+02  0.51100000000E-03 0. -1.
         23    2    1    2    0    0  0.00000000000E+00  0.00000000000E+00  0.17763568394E-14  0.91188000000E+02  0.91188000000E+02 0.  0.
    9900012    2    3    3    0    0 -0.17443288123E+02  0.28849290926E+02  0.14806482915E+02  0.54367057266E+02  0.39999938650E+02 0.  0.
         12    1    3    3    0    0  0.17443288123E+02 -0.28849290926E+02 -0.14806482915E+02  0.36820942734E+02  0.00000000000E+00 0. -1.
         11    1    4    4    0    0 -0.21015963170E+01  0.33377560489E+00 -0.30846820664E+01  0.37474493920E+01  0.51100000000E-03 0. -1.
        -11    1    4    4    0    0 -0.80016331054E+01  0.34516155162E+02  0.68870379845E+01  0.36094631069E+02  0.51100000000E-03 0.  1.
        -12    1    4    4    0    0 -0.73400587003E+01 -0.60006398409E+01  0.11004126997E+02  0.14524976805E+02  0.00000000000E+00 0.  1.
</event>
<event>
 8    1  0.1229038E-006  0.9118800E+02  0.7816164E-02  0.1184000E+00
        -11   -1    0    0    0    0  0.00000000000E+00  0.00000000000E+00  0.45593999997E+02  0.45594000000E+02  0.51100000000E-03 0.  1.
         11   -1    0    0    0    0 -0.00000000000E+00 -0.00000000000E+00 -0.45593999997E+02  0.45594000000E+02  0.51100000000E-03 0. -1.
         23    2    1    2    0    0 -0.88817841970E-15  0.35527136788E-14  0.35527136788E-14  0.91188000000E+02  0.91188000000E+02 0.  0.
    9900012    2    3    3    0    0  0.71422242769E+01  0.31072205715E+02  0.18419746172E+02  0.54367076808E+02  0.39999983200E+02 0.  0.
         12    1    3    3    0    0 -0.71422242769E+01 -0.31072205715E+02 -0.18419746172E+02  0.36820923192E+02  0.00000000000E+00 0. -1.
         11    1    4    4    0    0  0.17183255572E+01  0.24980873807E+00 -0.72798963542E+01  0.74841123933E+01  0.51100000000E-03 0. -1.
        -11    1    4    4    0    0 -0.12254343555E+01 -0.97514444798E+00  0.11199344543E+02  0.11308311744E+02  0.51100000000E-03 0.  1.
         12    1    4    4    0    0  0.66493330752E+01  0.31797541425E+02  0.14500297984E+02  0.35574652671E+02  0.00000000000E+00 0. -1.
</event>
<event>
 8    1  0.1229038E-006  0.9118800E+02  0.7816164E-02  0.1184000E+00
        -11   -1    0    0    0    0  0.00000000000E+00  0.00000000000E+00  0.45593999997E+02  0.45594000000E+02  0.51100000000E-03 0.  1.
         11   -1    0    0    0    0 -0.00000000000E+00 -0.00000000000E+00 -0.45593999997E+02  0.45594000000E+02  0.51100000000E-03 0. -1.
         23    2    1    2    0    0  0.00000000000E+00 -0.88817841970E-15  0.00000000000E+00  0.91188000000E+02  0.91188000000E+02 0.  0.
    9900012    2    3    3    0    0  0.28562616145E+02 -0.44606061240E+01  0.22804774652E+02  0.54367111975E+02  0.40000063369E+02 0.  0.
         12    1    3    3    0    0 -0.28562616145E+02  0.44606061240E+01 -0.22804774652E+02  0.36820888025E+02  0.00000000000E+00 0. -1.
         11    1    4    4    0    0  0.95368771186E+01 -0.51572729620E+01 -0.16441621339E+01  0.10965981897E+02  0.51100000000E-03 0. -1.
        -11    1    4    4    0    0  0.19996934236E+02  0.12770942056E+02  0.15509685051E+02  0.28346510729E+02  0.51100000000E-03 0.  1.
         12    1    4    4    0    0 -0.97119520965E+00 -0.12074275218E+02  0.89392517348E+01  0.15054619349E+02  0.00000000000E+00 0. -1.
</event>
<event>
 8    1  0.1229038E-006  0.9118800E+02  0.7816164E-02  0.1184000E+00
        -11   -1    0    0    0    0  0.00000000000E+00  0.00000000000E+00  0.45593999997E+02  0.45594000000E+02  0.51100000000E-03 0.  1.
         11   -1    0    0    0    0 -0.00000000000E+00 -0.00000000000E+00 -0.45593999997E+02  0.45594000000E+02  0.51100000000E-03 0. -1.
         23    2    1    2    0    0  0.22204460493E-15  0.00000000000E+00  0.71054273576E-14  0.91188000000E+02  0.91188000000E+02 0.  0.
    9900012    2    3    3    0    0  0.89130069249E+00  0.81318603968E+01  0.35900671785E+02  0.54367084679E+02  0.40000001143E+02 0.  0.
         12    1    3    3    0    0 -0.89130069249E+00 -0.81318603968E+01 -0.35900671785E+02  0.36820915321E+02  0.00000000000E+00 0. -1.
         11    1    4    4    0    0  0.63661109561E+01 -0.22188830469E+01 -0.18105169021E+01  0.69806004323E+01  0.51100000000E-03 0. -1.
        -11    1    4    4    0    0 -0.42473683107E+01  0.15496836444E+02  0.94643569844E+01  0.18648488698E+02  0.51100000000E-03 0.  1.
        -12    1    4    4    0    0 -0.12274419528E+01 -0.51460929999E+01  0.28246831703E+02  0.28737995549E+02  0.00000000000E+00 0.  1.
</event>
<event>
 8    1  0.1229038E-006  0.9118800E+02  0.7816164E-02  0.1184000E+00
        -11   -1    0    0    0    0  0.00000000000E+00  0.00000000000E+00  0.45593999997E+02  0.45594000000E+02  0.51100000000E-03 0. -1.
         11   -1    0    0    0    0 -0.00000000000E+00 -0.00000000000E+00 -0.45593999997E+02  0.45594000000E+02  0.51100000000E-03 0.  1.
         23    2    1    2    0    0  0.44408920985E-15  0.71054273576E-14  0.22204460493E-15  0.91188000000E+02  0.91188000000E+02 0.  0.
    9900012    2    3    3    0    0  0.33700426088E+01  0.36628179356E+02  0.16734450877E+01  0.54367066706E+02  0.39999960171E+02 0.  0.
         12    1    3    3    0    0 -0.33700426088E+01 -0.36628179356E+02 -0.16734450877E+01  0.36820933294E+02  0.00000000000E+00 0. -1.
         11    1    4    4    0    0  0.14350247713E+02  0.28575514700E+02 -0.49553493467E+01  0.32358076846E+02  0.51100000000E-03 0. -1.
        -11    1    4    4    0    0  0.16683693260E+00  0.96968270451E+01  0.25747735283E+01  0.10034228834E+02  0.51100000000E-03 0.  1.
         12    1    4    4    0    0 -0.11147042037E+02 -0.16441623884E+01  0.40540209062E+01  0.11974761026E+02  0.00000000000E+00 0. -1.
</event>
<event>
 8    1  0.1229038E-006  0.9118800E+02  0.7816164E-02  0.1184000E+00
        -11   -1    0    0    0    0  0.00000000000E+00  0.00000000000E+00  0.45593999997E+02  0.45594000000E+02  0.51100000000E-03 0. -1.
         11   -1    0    0    0    0 -0.00000000000E+00 -0.00000000000E+00 -0.45593999997E+02  0.45594000000E+02  0.51100000000E-03 0.  1.
         23    2    1    2    0    0  0.44408920985E-15  0.00000000000E+00  0.00000000000E+00  0.91188000000E+02  0.91188000000E+02 0.  0.
    9900012    2    3    3    0    0 -0.34987172684E+01 -0.22914394037E+02 -0.28608903115E+02  0.54367084557E+02  0.40000000865E+02 0.  0.
         12    1    3    3    0    0  0.34987172684E+01  0.22914394037E+02  0.28608903115E+02  0.36820915443E+02  0.00000000000E+00 0. -1.
         11    1    4    4    0    0 -0.49422266745E+01 -0.92074203610E+00 -0.99720051854E+01  0.11167553809E+02  0.51100000000E-03 0. -1.
        -11    1    4    4    0    0 -0.11309341748E+02 -0.12607123015E+02 -0.21225583547E+02  0.27154486898E+02  0.51100000000E-03 0.  1.
         12    1    4    4    0    0  0.12752851154E+02 -0.93865289851E+01  0.25886856176E+01  0.16045043850E+02  0.00000000000E+00 0. -1.
</event>
<event>
 8    1  0.1229038E-006  0.9118800E+02  0.7816164E-02  0.1184000E+00
        -11   -1    0    0    0    0  0.00000000000E+00  0.00000000000E+00  0.45593999997E+02  0.45594000000E+02  0.51100000000E-03 0. -1.
         11   -1    0    0    0    0 -0.00000000000E+00 -0.00000000000E+00 -0.45593999997E+02  0.45594000000E+02  0.51100000000E-03 0.  1.
         23    2    1    2    0    0 -0.35527136788E-14  0.88817841970E-15 -0.71054273576E-14  0.91188000000E+02  0.91188000000E+02 0.  0.
    9900012    2    3    3    0    0 -0.17091996805E+02 -0.57365669915E+01  0.32105050268E+02  0.54367098214E+02  0.40000031999E+02 0.  0.
        -12    1    3    3    0    0  0.17091996805E+02  0.57365669915E+01 -0.32105050268E+02  0.36820901786E+02  0.00000000000E+00 0.  1.
         11    1    4    4    0    0  0.12831597378E+01 -0.16896913954E+02  0.10588873798E+02  0.19981903029E+02  0.51100000000E-03 0. -1.
        -11    1    4    4    0    0 -0.68291813114E+00  0.84735525633E+01  0.99067495769E+01  0.13054162465E+02  0.51100000000E-03 0.  1.
        -12    1    4    4    0    0 -0.17692238412E+02  0.26867943990E+01  0.11609426893E+02  0.21331032721E+02  0.00000000000E+00 0.  1.
</event>
<event>
 8    1  0.1229038E-006  0.9118800E+02  0.7816164E-02  0.1184000E+00
        -11   -1    0    0    0    0  0.00000000000E+00  0.00000000000E+00  0.45593999997E+02  0.45594000000E+02  0.51100000000E-03 0. -1.
         11   -1    0    0    0    0 -0.00000000000E+00 -0.00000000000E+00 -0.45593999997E+02  0.45594000000E+02  0.51100000000E-03 0.  1.
         23    2    1    2    0    0  0.00000000000E+00  0.00000000000E+00  0.00000000000E+00  0.91188000000E+02  0.91188000000E+02 0.  0.
    9900012    2    3    3    0    0  0.33963586382E+02 -0.13849983137E+02  0.32300190317E+01  0.54367078559E+02  0.39999987192E+02 0.  0.
         12    1    3    3    0    0 -0.33963586382E+02  0.13849983137E+02 -0.32300190317E+01  0.36820921441E+02  0.00000000000E+00 0. -1.
         11    1    4    4    0    0  0.20129730013E+01  0.15116361619E+01  0.58122082301E+01  0.63339457655E+01  0.51100000000E-03 0. -1.
        -11    1    4    4    0    0  0.75573860258E+01 -0.21138504355E+02 -0.44871780519E+01  0.22892907571E+02  0.51100000000E-03 0.  1.
         12    1    4    4    0    0  0.24393227355E+02  0.57768850567E+01  0.19049888536E+01  0.25140225223E+02  0.00000000000E+00 0. -1.
</event>
<event>
 8    1  0.1229038E-006  0.9118800E+02  0.7816164E-02  0.1184000E+00
        -11   -1    0    0    0    0  0.00000000000E+00  0.00000000000E+00  0.45593999997E+02  0.45594000000E+02  0.51100000000E-03 0.  1.
         11   -1    0    0    0    0 -0.00000000000E+00 -0.00000000000E+00 -0.45593999997E+02  0.45594000000E+02  0.51100000000E-03 0. -1.
         23    2    1    2    0    0 -0.71054273576E-14  0.17763568394E-14  0.44408920985E-15  0.91188000000E+02  0.91188000000E+02 0.  0.
    9900012    2    3    3    0    0  0.36608304354E+02 -0.25968900061E+01 -0.29777249203E+01  0.54367100620E+02  0.40000037485E+02 0.  0.
        -12    1    3    3    0    0 -0.36608304354E+02  0.25968900061E+01  0.29777249203E+01  0.36820899380E+02  0.00000000000E+00 0.  1.
         11    1    4    4    0    0  0.69079366265E+01 -0.15548336665E+02 -0.12539042643E-01  0.17013833165E+02  0.51100000000E-03 0. -1.
        -11    1    4    4    0    0 -0.24578792897E+01  0.24827351617E+00 -0.11617583617E+01  0.27299254740E+01  0.51100000000E-03 0.  1.
        -12    1    4    4    0    0  0.32158247018E+02  0.12703173143E+02 -0.18034275159E+01  0.34623341981E+02  0.00000000000E+00 0.  1.
</event>
<event>
 8    1  0.1229038E-006  0.9118800E+02  0.7816164E-02  0.1184000E+00
        -11   -1    0    0    0    0  0.00000000000E+00  0.00000000000E+00  0.45593999997E+02  0.45594000000E+02  0.51100000000E-03 0.  1.
         11   -1    0    0    0    0 -0.00000000000E+00 -0.00000000000E+00 -0.45593999997E+02  0.45594000000E+02  0.51100000000E-03 0. -1.
         23    2    1    2    0    0 -0.44408920985E-15  0.00000000000E+00  0.00000000000E+00  0.91188000000E+02  0.91188000000E+02 0.  0.
    9900012    2    3    3    0    0 -0.24849693959E+01 -0.18700493064E+02 -0.31621147518E+02  0.54367075459E+02  0.39999980123E+02 0.  0.
        -12    1    3    3    0    0  0.24849693959E+01  0.18700493064E+02  0.31621147518E+02  0.36820924541E+02  0.00000000000E+00 0.  1.
         11    1    4    4    0    0 -0.67272175658E+01  0.42074548454E+01 -0.95160867204E+01  0.12390078256E+02  0.51100000000E-03 0. -1.
        -11    1    4    4    0    0  0.58151097012E+01  0.17100213898E+01  0.30151531519E+01  0.67698465847E+01  0.51100000000E-03 0.  1.
        -12    1    4    4    0    0 -0.15728615313E+01 -0.24617969299E+02 -0.25120213949E+02  0.35207150618E+02  0.00000000000E+00 0.  1.
</event>
<event>
 8    1  0.1229038E-006  0.9118800E+02  0.7816164E-02  0.1184000E+00
        -11   -1    0    0    0    0  0.00000000000E+00  0.00000000000E+00  0.45593999997E+02  0.45594000000E+02  0.51100000000E-03 0.  1.
         11   -1    0    0    0    0 -0.00000000000E+00 -0.00000000000E+00 -0.45593999997E+02  0.45594000000E+02  0.51100000000E-03 0. -1.
         23    2    1    2    0    0  0.00000000000E+00  0.17763568394E-14  0.00000000000E+00  0.91188000000E+02  0.91188000000E+02 0.  0.
    9900012    2    3    3    0    0  0.30318000565E+02  0.72489286137E+01  0.19597239313E+02  0.54367083213E+02  0.39999997801E+02 0.  0.
        -12    1    3    3    0    0 -0.30318000565E+02 -0.72489286137E+01 -0.19597239313E+02  0.36820916787E+02  0.00000000000E+00 0.  1.
         11    1    4    4    0    0  0.14701305118E+02  0.52581775426E+01  0.13020672017E+02  0.20330142727E+02  0.51100000000E-03 0. -1.
        -11    1    4    4    0    0 -0.83959909455E+01 -0.29119239574E+01  0.18578570327E+01  0.90787443023E+01  0.51100000000E-03 0.  1.
        -12    1    4    4    0    0  0.24012686392E+02  0.49026750285E+01  0.47187102633E+01  0.24958196184E+02  0.00000000000E+00 0.  1.
</event>
<event>
 8    1  0.1229038E-006  0.9118800E+02  0.7816164E-02  0.1184000E+00
        -11   -1    0    0    0    0  0.00000000000E+00  0.00000000000E+00  0.45593999997E+02  0.45594000000E+02  0.51100000000E-03 0.  1.
         11   -1    0    0    0    0 -0.00000000000E+00 -0.00000000000E+00 -0.45593999997E+02  0.45594000000E+02  0.51100000000E-03 0. -1.
         23    2    1    2    0    0  0.00000000000E+00  0.00000000000E+00 -0.35527136788E-14  0.91188000000E+02  0.91188000000E+02 0.  0.
    9900012    2    3    3    0    0  0.19808491015E+02 -0.26012439566E+02 -0.16933854789E+02  0.54367098782E+02  0.40000033294E+02 0.  0.
        -12    1    3    3    0    0 -0.19808491015E+02  0.26012439566E+02  0.16933854789E+02  0.36820901218E+02  0.00000000000E+00 0.  1.
         11    1    4    4    0    0 -0.68842998138E+01 -0.14333789278E+02  0.45362050348E+00  0.15907761339E+02  0.51100000000E-03 0. -1.
        -11    1    4    4    0    0 -0.20202606798E+01 -0.25510399918E+00  0.12333090891E+01  0.23806685690E+01  0.51100000000E-03 0.  1.
        -12    1    4    4    0    0  0.28713051508E+02 -0.11423546288E+02 -0.18620784382E+02  0.36078668874E+02  0.00000000000E+00 0.  1.
</event>
<event>
 8    1  0.1229038E-006  0.9118800E+02  0.7816164E-02  0.1184000E+00
        -11   -1    0    0    0    0  0.00000000000E+00  0.00000000000E+00  0.45593999997E+02  0.45594000000E+02  0.51100000000E-03 0. -1.
         11   -1    0    0    0    0 -0.00000000000E+00 -0.00000000000E+00 -0.45593999997E+02  0.45594000000E+02  0.51100000000E-03 0.  1.
         23    2    1    2    0    0 -0.17763568394E-14 -0.71054273576E-14 -0.35527136788E-14  0.91188000000E+02  0.91188000000E+02 0.  0.
    9900012    2    3    3    0    0  0.11340445176E+02  0.27631705000E+02  0.21532828110E+02  0.54367088762E+02  0.40000010451E+02 0.  0.
        -12    1    3    3    0    0 -0.11340445176E+02 -0.27631705000E+02 -0.21532828110E+02  0.36820911238E+02  0.00000000000E+00 0.  1.
         11    1    4    4    0    0  0.62386011463E+01  0.32743293421E+02  0.27437128619E+02  0.43172206747E+02  0.51100000000E-03 0. -1.
        -11    1    4    4    0    0 -0.18088044143E+00 -0.26242737879E+01  0.33242885331E+00  0.26514222318E+01  0.51100000000E-03 0.  1.
         12    1    4    4    0    0  0.52827244709E+01 -0.24873146333E+01 -0.62367293623E+01  0.85434597827E+01  0.00000000000E+00 0. -1.
</event>
<event>
 8    1  0.1229038E-006  0.9118800E+02  0.7816164E-02  0.1184000E+00
        -11   -1    0    0    0    0  0.00000000000E+00  0.00000000000E+00  0.45593999997E+02  0.45594000000E+02  0.51100000000E-03 0.  1.
         11   -1    0    0    0    0 -0.00000000000E+00 -0.00000000000E+00 -0.45593999997E+02  0.45594000000E+02  0.51100000000E-03 0. -1.
         23    2    1    2    0    0 -0.17763568394E-14  0.00000000000E+00  0.00000000000E+00  0.91188000000E+02  0.91188000000E+02 0.  0.
    9900012    2    3    3    0    0  0.13745367307E+02  0.11521451907E+02  0.32157431744E+02  0.54367090277E+02  0.40000013904E+02 0.  0.
         12    1    3    3    0    0 -0.13745367307E+02 -0.11521451907E+02 -0.32157431744E+02  0.36820909723E+02  0.00000000000E+00 0. -1.
         11    1    4    4    0    0  0.24664678471E+01 -0.31850918318E+01  0.53910749115E+01  0.67299303547E+01  0.51100000000E-03 0. -1.
        -11    1    4    4    0    0  0.65883666278E+01 -0.83289168934E+01 -0.16610605561E+01  0.10748793136E+02  0.51100000000E-03 0.  1.
        -12    1    4    4    0    0  0.46905328323E+01  0.23035460632E+02  0.28427417389E+02  0.36888366787E+02  0.00000000000E+00 0.  1.
</event>
<event>
 8    1  0.1229038E-006  0.9118800E+02  0.7816164E-02  0.1184000E+00
        -11   -1    0    0    0    0  0.00000000000E+00  0.00000000000E+00  0.45593999997E+02  0.45594000000E+02  0.51100000000E-03 0.  1.
         11   -1    0    0    0    0 -0.00000000000E+00 -0.00000000000E+00 -0.45593999997E+02  0.45594000000E+02  0.51100000000E-03 0. -1.
         23    2    1    2    0    0  0.17763568394E-14 -0.71054273576E-14  0.88817841970E-15  0.91188000000E+02  0.91188000000E+02 0.  0.
    9900012    2    3    3    0    0 -0.88060441770E+01  0.35222972256E+02 -0.61298270857E+01  0.54367096037E+02  0.40000027035E+02 0.  0.
        -12    1    3    3    0    0  0.88060441770E+01 -0.35222972256E+02  0.61298270857E+01  0.36820903963E+02  0.00000000000E+00 0.  1.
         11    1    4    4    0    0  0.26004502419E+01  0.52433238795E+01 -0.10730138450E+02  0.12222547124E+02  0.51100000000E-03 0. -1.
        -11    1    4    4    0    0 -0.33368717407E+01 -0.42806978434E+01 -0.29038857703E+01  0.61556185610E+01  0.51100000000E-03 0.  1.
         12    1    4    4    0    0 -0.80696226782E+01  0.34260346220E+02  0.75041971347E+01  0.35988930352E+02  0.00000000000E+00 0. -1.
</event>
<event>
 8    1  0.1229038E-006  0.9118800E+02  0.7816164E-02  0.1184000E+00
        -11   -1    0    0    0    0  0.00000000000E+00  0.00000000000E+00  0.45593999997E+02  0.45594000000E+02  0.51100000000E-03 0. -1.
         11   -1    0    0    0    0 -0.00000000000E+00 -0.00000000000E+00 -0.45593999997E+02  0.45594000000E+02  0.51100000000E-03 0.  1.
         23    2    1    2    0    0  0.00000000000E+00  0.00000000000E+00  0.00000000000E+00  0.91188000000E+02  0.91188000000E+02 0.  0.
    9900012    2    3    3    0    0  0.24342466768E+02  0.15807291216E+02  0.22657311664E+02  0.54367083176E+02  0.39999997716E+02 0.  0.
        -12    1    3    3    0    0 -0.24342466768E+02 -0.15807291216E+02 -0.22657311664E+02  0.36820916824E+02  0.00000000000E+00 0.  1.
         11    1    4    4    0    0  0.29179709680E+02  0.31065993340E+01  0.12722210350E+02  0.31983762332E+02  0.51100000000E-03 0. -1.
        -11    1    4    4    0    0 -0.65178731264E+01  0.38843505496E+01 -0.16135231474E+01  0.77572099683E+01  0.51100000000E-03 0.  1.
         12    1    4    4    0    0  0.16806302135E+01  0.88163413329E+01  0.11548624461E+02  0.14626110876E+02  0.00000000000E+00 0. -1.
</event>
<event>
 8    1  0.1229038E-006  0.9118800E+02  0.7816164E-02  0.1184000E+00
        -11   -1    0    0    0    0  0.00000000000E+00  0.00000000000E+00  0.45593999997E+02  0.45594000000E+02  0.51100000000E-03 0.  1.
         11   -1    0    0    0    0 -0.00000000000E+00 -0.00000000000E+00 -0.45593999997E+02  0.45594000000E+02  0.51100000000E-03 0. -1.
         23    2    1    2    0    0  0.35527136788E-14  0.00000000000E+00  0.00000000000E+00  0.91188000000E+02  0.91188000000E+02 0.  0.
    9900012    2    3    3    0    0 -0.29506817725E+02  0.17245616330E+02 -0.13700983501E+02  0.54367074920E+02  0.39999978895E+02 0.  0.
         12    1    3    3    0    0  0.29506817725E+02 -0.17245616330E+02  0.13700983501E+02  0.36820925080E+02  0.00000000000E+00 0. -1.
         11    1    4    4    0    0 -0.24602108575E+02  0.22963682921E+02 -0.69445537568E+01  0.34363080578E+02  0.51100000000E-03 0. -1.
        -11    1    4    4    0    0  0.40639060766E+01 -0.52642754514E+01 -0.85648320367E+01  0.10843628392E+02  0.51100000000E-03 0.  1.
        -12    1    4    4    0    0 -0.89686152265E+01 -0.45379113994E+00  0.18084022929E+01  0.91603659497E+01  0.00000000000E+00 0.  1.
</event>
<event>
 8    1  0.1229038E-006  0.9118800E+02  0.7816164E-02  0.1184000E+00
        -11   -1    0    0    0    0  0.00000000000E+00  0.00000000000E+00  0.45593999997E+02  0.45594000000E+02  0.51100000000E-03 0.  1.
         11   -1    0    0    0    0 -0.00000000000E+00 -0.00000000000E+00 -0.45593999997E+02  0.45594000000E+02  0.51100000000E-03 0. -1.
         23    2    1    2    0    0  0.00000000000E+00  0.00000000000E+00  0.00000000000E+00  0.91188000000E+02  0.91188000000E+02 0.  0.
    9900012    2    3    3    0    0 -0.16020574212E+02 -0.21706810404E+02 -0.25058633737E+02  0.54367088268E+02  0.40000009324E+02 0.  0.
        -12    1    3    3    0    0  0.16020574212E+02  0.21706810404E+02  0.25058633737E+02  0.36820911732E+02  0.00000000000E+00 0.  1.
         11    1    4    4    0    0 -0.20295219758E+02 -0.12483469026E+02 -0.18344324746E+02  0.30070703261E+02  0.51100000000E-03 0.  1.
        -11    1    4    4    0    0  0.10545480988E+01  0.37302666899E+01 -0.98498476647E+01  0.10585200071E+02  0.51100000000E-03 0. -1.
         12    1    4    4    0    0  0.32200974475E+01 -0.12953608068E+02  0.31355386734E+01  0.13711184935E+02  0.00000000000E+00 0. -1.
</event>
<event>
 8    1  0.1229038E-006  0.9118800E+02  0.7816164E-02  0.1184000E+00
        -11   -1    0    0    0    0  0.00000000000E+00  0.00000000000E+00  0.45593999997E+02  0.45594000000E+02  0.51100000000E-03 0. -1.
         11   -1    0    0    0    0 -0.00000000000E+00 -0.00000000000E+00 -0.45593999997E+02  0.45594000000E+02  0.51100000000E-03 0.  1.
         23    2    1    2    0    0 -0.35527136788E-14  0.71054273576E-14 -0.66613381478E-15  0.91188000000E+02  0.91188000000E+02 0.  0.
    9900012    2    3    3    0    0  0.18980693439E+02 -0.31521866395E+02 -0.13740458533E+01  0.54367044194E+02  0.39999908849E+02 0.  0.
        -12    1    3    3    0    0 -0.18980693439E+02  0.31521866395E+02  0.13740458533E+01  0.36820955806E+02  0.00000000000E+00 0.  1.
         11    1    4    4    0    0  0.76789853160E+01 -0.48293560558E+01  0.82161474898E+00  0.91084876051E+01  0.51100000000E-03 0. -1.
        -11    1    4    4    0    0  0.13601090169E+02 -0.15627113088E+02 -0.16883761136E+02  0.26725600229E+02  0.51100000000E-03 0.  1.
         12    1    4    4    0    0 -0.22993820464E+01 -0.11065397252E+02  0.14688100534E+02  0.18532956360E+02  0.00000000000E+00 0. -1.
</event>
<event>
 8    1  0.1229038E-006  0.9118800E+02  0.7816164E-02  0.1184000E+00
        -11   -1    0    0    0    0  0.00000000000E+00  0.00000000000E+00  0.45593999997E+02  0.45594000000E+02  0.51100000000E-03 0. -1.
         11   -1    0    0    0    0 -0.00000000000E+00 -0.00000000000E+00 -0.45593999997E+02  0.45594000000E+02  0.51100000000E-03 0.  1.
         23    2    1    2    0    0  0.00000000000E+00  0.00000000000E+00 -0.44408920985E-15  0.91188000000E+02  0.91188000000E+02 0.  0.
    9900012    2    3    3    0    0  0.19620780490E+02 -0.30910920228E+02 -0.39140129891E+01  0.54367088631E+02  0.40000010152E+02 0.  0.
        -12    1    3    3    0    0 -0.19620780490E+02  0.30910920228E+02  0.39140129891E+01  0.36820911369E+02  0.00000000000E+00 0.  1.
         11    1    4    4    0    0  0.21557964631E+02 -0.11097325970E+02  0.50149284785E+01  0.24759765561E+02  0.51100000000E-03 0.  1.
        -11    1    4    4    0    0  0.22290943131E+01 -0.22844806204E+02 -0.61950043098E+01  0.23774610630E+02  0.51100000000E-03 0. -1.
        -12    1    4    4    0    0 -0.41662784545E+01  0.30312119464E+01 -0.27339371578E+01  0.58327124400E+01  0.00000000000E+00 0.  1.
</event>
<event>
 8    1  0.1229038E-006  0.9118800E+02  0.7816164E-02  0.1184000E+00
        -11   -1    0    0    0    0  0.00000000000E+00  0.00000000000E+00  0.45593999997E+02  0.45594000000E+02  0.51100000000E-03 0.  1.
         11   -1    0    0    0    0 -0.00000000000E+00 -0.00000000000E+00 -0.45593999997E+02  0.45594000000E+02  0.51100000000E-03 0. -1.
         23    2    1    2    0    0  0.00000000000E+00 -0.66613381478E-15 -0.17763568394E-14  0.91188000000E+02  0.91188000000E+02 0.  0.
    9900012    2    3    3    0    0  0.33761567550E+02  0.17428799269E+01 -0.14591063652E+02  0.54367079148E+02  0.39999988533E+02 0.  0.
        -12    1    3    3    0    0 -0.33761567550E+02 -0.17428799269E+01  0.14591063652E+02  0.36820920852E+02  0.00000000000E+00 0.  1.
         11    1    4    4    0    0  0.35720641814E+01 -0.39578460298E+01 -0.38799667004E+01  0.65938099433E+01  0.51100000000E-03 0. -1.
        -11    1    4    4    0    0  0.80539017509E+01  0.72901095583E+01  0.11884941888E+02  0.16101641989E+02  0.51100000000E-03 0.  1.
        -12    1    4    4    0    0  0.22135601618E+02 -0.15893836016E+01 -0.22596038840E+02  0.31671627216E+02  0.00000000000E+00 0.  1.
</event>
<event>
 8    1  0.1229038E-006  0.9118800E+02  0.7816164E-02  0.1184000E+00
        -11   -1    0    0    0    0  0.00000000000E+00  0.00000000000E+00  0.45593999997E+02  0.45594000000E+02  0.51100000000E-03 0.  1.
         11   -1    0    0    0    0 -0.00000000000E+00 -0.00000000000E+00 -0.45593999997E+02  0.45594000000E+02  0.51100000000E-03 0. -1.
         23    2    1    2    0    0  0.00000000000E+00  0.00000000000E+00  0.00000000000E+00  0.91188000000E+02  0.91188000000E+02 0.  0.
    9900012    2    3    3    0    0  0.26233310455E+02  0.14662731314E+02  0.21274373066E+02  0.54367065515E+02  0.39999957454E+02 0.  0.
         12    1    3    3    0    0 -0.26233310455E+02 -0.14662731314E+02 -0.21274373066E+02  0.36820934485E+02  0.00000000000E+00 0. -1.
         11    1    4    4    0    0  0.10127100095E+02  0.13704129536E+01 -0.15699379699E+01  0.10339288829E+02  0.51100000000E-03 0. -1.
        -11    1    4    4    0    0  0.16651853797E+02 -0.63596850081E+01  0.12847968561E+02  0.21972713184E+02  0.51100000000E-03 0.  1.
         12    1    4    4    0    0 -0.54564343734E+00  0.19652003369E+02  0.99963424758E+01  0.22055063501E+02  0.00000000000E+00 0. -1.
</event>
<event>
 8    1  0.1229038E-006  0.9118800E+02  0.7816164E-02  0.1184000E+00
        -11   -1    0    0    0    0  0.00000000000E+00  0.00000000000E+00  0.45593999997E+02  0.45594000000E+02  0.51100000000E-03 0.  1.
         11   -1    0    0    0    0 -0.00000000000E+00 -0.00000000000E+00 -0.45593999997E+02  0.45594000000E+02  0.51100000000E-03 0. -1.
         23    2    1    2    0    0  0.00000000000E+00  0.00000000000E+00  0.00000000000E+00  0.91188000000E+02  0.91188000000E+02 0.  0.
    9900012    2    3    3    0    0 -0.30053955851E+02  0.14787077222E+02  0.15293155897E+02  0.54367101962E+02  0.40000040542E+02 0.  0.
         12    1    3    3    0    0  0.30053955851E+02 -0.14787077222E+02 -0.15293155897E+02  0.36820898038E+02  0.00000000000E+00 0. -1.
         11    1    4    4    0    0  0.27750338071E+01  0.46206959316E+01  0.62214387637E+00  0.54257448140E+01  0.51100000000E-03 0. -1.
        -11    1    4    4    0    0 -0.27117094235E+02  0.18933782493E+02  0.29123743424E+01  0.33201006669E+02  0.51100000000E-03 0.  1.
        -12    1    4    4    0    0 -0.57118954233E+01 -0.87674012027E+01  0.11758637678E+02  0.15740350479E+02  0.00000000000E+00 0.  1.
</event>
<event>
 8    1  0.1229038E-006  0.9118800E+02  0.7816164E-02  0.1184000E+00
        -11   -1    0    0    0    0  0.00000000000E+00  0.00000000000E+00  0.45593999997E+02  0.45594000000E+02  0.51100000000E-03 0. -1.
         11   -1    0    0    0    0 -0.00000000000E+00 -0.00000000000E+00 -0.45593999997E+02  0.45594000000E+02  0.51100000000E-03 0.  1.
         23    2    1    2    0    0  0.00000000000E+00  0.00000000000E+00 -0.71054273576E-14  0.91188000000E+02  0.91188000000E+02 0.  0.
    9900012    2    3    3    0    0 -0.18990183246E+02  0.17913300253E+02  0.25966642128E+02  0.54367083538E+02  0.39999998542E+02 0.  0.
        -12    1    3    3    0    0  0.18990183246E+02 -0.17913300253E+02 -0.25966642128E+02  0.36820916462E+02  0.00000000000E+00 0.  1.
         11    1    4    4    0    0  0.20343706806E+00  0.38794411140E+01  0.89354844492E+01  0.97434250960E+01  0.51100000000E-03 0. -1.
        -11    1    4    4    0    0  0.47619227843E+01  0.98080180241E+01 -0.48239613793E+01  0.11922404532E+02  0.51100000000E-03 0.  1.
         12    1    4    4    0    0 -0.23955543098E+02  0.42258411148E+01  0.21855119058E+02  0.32701253911E+02  0.00000000000E+00 0. -1.
</event>
<event>
 8    1  0.1229038E-006  0.9118800E+02  0.7816164E-02  0.1184000E+00
        -11   -1    0    0    0    0  0.00000000000E+00  0.00000000000E+00  0.45593999997E+02  0.45594000000E+02  0.51100000000E-03 0. -1.
         11   -1    0    0    0    0 -0.00000000000E+00 -0.00000000000E+00 -0.45593999997E+02  0.45594000000E+02  0.51100000000E-03 0.  1.
         23    2    1    2    0    0 -0.24980018054E-15  0.00000000000E+00  0.00000000000E+00  0.91188000000E+02  0.91188000000E+02 0.  0.
    9900012    2    3    3    0    0 -0.23545270102E+00 -0.16047406013E+02 -0.33139160056E+02  0.54367100949E+02  0.40000038233E+02 0.  0.
         12    1    3    3    0    0  0.23545270102E+00  0.16047406013E+02  0.33139160056E+02  0.36820899051E+02  0.00000000000E+00 0. -1.
         11    1    4    4    0    0 -0.12274388305E+02  0.24386465494E+01  0.20023474177E+01  0.12673476267E+02  0.51100000000E-03 0. -1.
        -11    1    4    4    0    0  0.78214096040E+01 -0.15186969263E+02 -0.26787496203E+02  0.31770874030E+02  0.51100000000E-03 0.  1.
         12    1    4    4    0    0  0.42175259999E+01 -0.32990832996E+01 -0.83540112707E+01  0.99227506514E+01  0.00000000000E+00 0. -1.
</event>
<event>
 8    1  0.1229038E-006  0.9118800E+02  0.7816164E-02  0.1184000E+00
        -11   -1    0    0    0    0  0.00000000000E+00  0.00000000000E+00  0.45593999997E+02  0.45594000000E+02  0.51100000000E-03 0. -1.
         11   -1    0    0    0    0 -0.00000000000E+00 -0.00000000000E+00 -0.45593999997E+02  0.45594000000E+02  0.51100000000E-03 0.  1.
         23    2    1    2    0    0  0.00000000000E+00 -0.44408920985E-15  0.00000000000E+00  0.91188000000E+02  0.91188000000E+02 0.  0.
    9900012    2    3    3    0    0 -0.35291837474E+02  0.17714100341E+01 -0.10350246774E+02  0.54367091618E+02  0.40000016960E+02 0.  0.
        -12    1    3    3    0    0  0.35291837474E+02 -0.17714100341E+01  0.10350246774E+02  0.36820908382E+02  0.00000000000E+00 0.  1.
         11    1    4    4    0    0  0.49498521867E-01  0.70197059008E+01  0.68592630504E+01  0.98146936220E+01  0.51100000000E-03 0. -1.
        -11    1    4    4    0    0 -0.28077497876E+02  0.44304368270E+01 -0.15363332461E+02  0.32311091625E+02  0.51100000000E-03 0.  1.
        -12    1    4    4    0    0 -0.72638381203E+01 -0.96787326938E+01 -0.18461773644E+01  0.12241306370E+02  0.00000000000E+00 0.  1.
</event>
<event>
 8    1  0.1229038E-006  0.9118800E+02  0.7816164E-02  0.1184000E+00
        -11   -1    0    0    0    0  0.00000000000E+00  0.00000000000E+00  0.45593999997E+02  0.45594000000E+02  0.51100000000E-03 0.  1.
         11   -1    0    0    0    0 -0.00000000000E+00 -0.00000000000E+00 -0.45593999997E+02  0.45594000000E+02  0.51100000000E-03 0. -1.
         23    2    1    2    0    0  0.00000000000E+00  0.00000000000E+00  0.00000000000E+00  0.91188000000E+02  0.91188000000E+02 0.  0.
    9900012    2    3    3    0    0 -0.21468209868E+02 -0.28479020471E+02  0.91565173307E+01  0.54367075901E+02  0.39999981131E+02 0.  0.
         12    1    3    3    0    0  0.21468209868E+02  0.28479020471E+02 -0.91565173307E+01  0.36820924099E+02  0.00000000000E+00 0. -1.
         11    1    4    4    0    0 -0.33281573444E+01 -0.24121372149E+02 -0.24853054024E+01  0.24476396157E+02  0.51100000000E-03 0. -1.
        -11    1    4    4    0    0  0.56540980273E+00 -0.80228765121E+01  0.59285455201E+01  0.99916909489E+01  0.51100000000E-03 0.  1.
         12    1    4    4    0    0 -0.18705462326E+02  0.36652281901E+01  0.57132772130E+01  0.19898988794E+02  0.00000000000E+00 0. -1.
</event>
<event>
 8    1  0.1229038E-006  0.9118800E+02  0.7816164E-02  0.1184000E+00
        -11   -1    0    0    0    0  0.00000000000E+00  0.00000000000E+00  0.45593999997E+02  0.45594000000E+02  0.51100000000E-03 0. -1.
         11   -1    0    0    0    0 -0.00000000000E+00 -0.00000000000E+00 -0.45593999997E+02  0.45594000000E+02  0.51100000000E-03 0.  1.
         23    2    1    2    0    0  0.00000000000E+00 -0.44408920985E-15 -0.17763568394E-14  0.91188000000E+02  0.91188000000E+02 0.  0.
    9900012    2    3    3    0    0  0.34617944937E+02 -0.38175032315E+01 -0.11950080339E+02  0.54367083897E+02  0.39999999360E+02 0.  0.
         12    1    3    3    0    0 -0.34617944937E+02  0.38175032315E+01  0.11950080339E+02  0.36820916103E+02  0.00000000000E+00 0. -1.
         11    1    4    4    0    0  0.33267473261E+01 -0.10095094200E+02 -0.16273010413E+02  0.19436796105E+02  0.51100000000E-03 0. -1.
        -11    1    4    4    0    0  0.20491629233E+02 -0.28171778170E+00  0.76322373765E+01  0.21868636930E+02  0.51100000000E-03 0.  1.
        -12    1    4    4    0    0  0.10799568377E+02  0.65593087499E+01 -0.33093073026E+01  0.13061650862E+02  0.00000000000E+00 0.  1.
</event>
<event>
 8    1  0.1229038E-006  0.9118800E+02  0.7816164E-02  0.1184000E+00
        -11   -1    0    0    0    0  0.00000000000E+00  0.00000000000E+00  0.45593999997E+02  0.45594000000E+02  0.51100000000E-03 0.  1.
         11   -1    0    0    0    0 -0.00000000000E+00 -0.00000000000E+00 -0.45593999997E+02  0.45594000000E+02  0.51100000000E-03 0. -1.
         23    2    1    2    0    0 -0.35527136788E-14 -0.17763568394E-14 -0.17763568394E-14  0.91188000000E+02  0.91188000000E+02 0.  0.
    9900012    2    3    3    0    0  0.31387922690E+02  0.12270946514E+02  0.14832543636E+02  0.54367052567E+02  0.39999927937E+02 0.  0.
         12    1    3    3    0    0 -0.31387922690E+02 -0.12270946514E+02 -0.14832543636E+02  0.36820947433E+02  0.00000000000E+00 0. -1.
         11    1    4    4    0    0  0.56789765895E+01  0.33049881786E+01 -0.78324734311E+01  0.10223568960E+02  0.51100000000E-03 0. -1.
        -11    1    4    4    0    0  0.26542980010E+02 -0.22277115319E+01  0.15291229673E+02  0.30713420384E+02  0.51100000000E-03 0.  1.
        -12    1    4    4    0    0 -0.83403390966E+00  0.11193669867E+02  0.73737873940E+01  0.13430063224E+02  0.00000000000E+00 0.  1.
</event>
<event>
 8    1  0.1229038E-006  0.9118800E+02  0.7816164E-02  0.1184000E+00
        -11   -1    0    0    0    0  0.00000000000E+00  0.00000000000E+00  0.45593999997E+02  0.45594000000E+02  0.51100000000E-03 0.  1.
         11   -1    0    0    0    0 -0.00000000000E+00 -0.00000000000E+00 -0.45593999997E+02  0.45594000000E+02  0.51100000000E-03 0. -1.
         23    2    1    2    0    0  0.35527136788E-14  0.17763568394E-14  0.00000000000E+00  0.91188000000E+02  0.91188000000E+02 0.  0.
    9900012    2    3    3    0    0 -0.27766836581E+02  0.11548554095E+02 -0.21246465374E+02  0.54367100957E+02  0.40000038253E+02 0.  0.
         12    1    3    3    0    0  0.27766836581E+02 -0.11548554095E+02  0.21246465374E+02  0.36820899043E+02  0.00000000000E+00 0. -1.
         11    1    4    4    0    0 -0.26286150119E+01 -0.59083907028E+01 -0.12956365404E+02  0.14480542197E+02  0.51100000000E-03 0. -1.
        -11    1    4    4    0    0  0.16600276373E+01  0.30248313138E+01 -0.87922722355E+01  0.94450700133E+01  0.51100000000E-03 0.  1.
        -12    1    4    4    0    0 -0.26798249207E+02  0.14432113484E+02  0.50217226535E+00  0.30441488747E+02  0.00000000000E+00 0.  1.
</event>
<event>
 8    1  0.1229038E-006  0.9118800E+02  0.7816164E-02  0.1184000E+00
        -11   -1    0    0    0    0  0.00000000000E+00  0.00000000000E+00  0.45593999997E+02  0.45594000000E+02  0.51100000000E-03 0.  1.
         11   -1    0    0    0    0 -0.00000000000E+00 -0.00000000000E+00 -0.45593999997E+02  0.45594000000E+02  0.51100000000E-03 0. -1.
         23    2    1    2    0    0  0.00000000000E+00  0.00000000000E+00  0.17763568394E-14  0.91188000000E+02  0.91188000000E+02 0.  0.
    9900012    2    3    3    0    0 -0.35322263811E+02 -0.54552043171E+01  0.88520457300E+01  0.54367078114E+02  0.39999986177E+02 0.  0.
        -12    1    3    3    0    0  0.35322263811E+02  0.54552043171E+01 -0.88520457300E+01  0.36820921886E+02  0.00000000000E+00 0.  1.
         11    1    4    4    0    0 -0.24716888246E+02  0.33642943357E+01 -0.28367400123E+01  0.25105579761E+02  0.51100000000E-03 0. -1.
        -11    1    4    4    0    0 -0.17750125757E+02 -0.55355900873E+01  0.59336794458E+01  0.19517127709E+02  0.51100000000E-03 0.  1.
        -12    1    4    4    0    0  0.71447501919E+01 -0.32839085656E+01  0.57551062965E+01  0.97443706444E+01  0.00000000000E+00 0.  1.
</event>
<event>
 8    1  0.1229038E-006  0.9118800E+02  0.7816164E-02  0.1184000E+00
        -11   -1    0    0    0    0  0.00000000000E+00  0.00000000000E+00  0.45593999997E+02  0.45594000000E+02  0.51100000000E-03 0.  1.
         11   -1    0    0    0    0 -0.00000000000E+00 -0.00000000000E+00 -0.45593999997E+02  0.45594000000E+02  0.51100000000E-03 0. -1.
         23    2    1    2    0    0  0.00000000000E+00  0.00000000000E+00 -0.17763568394E-14  0.91188000000E+02  0.91188000000E+02 0.  0.
    9900012    2    3    3    0    0 -0.19487703202E+02  0.27735621268E+02 -0.14378626561E+02  0.54367079791E+02  0.39999990000E+02 0.  0.
        -12    1    3    3    0    0  0.19487703202E+02 -0.27735621268E+02  0.14378626561E+02  0.36820920209E+02  0.00000000000E+00 0.  1.
         11    1    4    4    0    0 -0.15480871140E+02  0.14508678983E+02 -0.16373579447E+02  0.26800247037E+02  0.51100000000E-03 0. -1.
        -11    1    4    4    0    0 -0.58085287222E+01  0.15516588716E+02  0.97904669112E+01  0.19244655723E+02  0.51100000000E-03 0.  1.
        -12    1    4    4    0    0  0.18016966599E+01 -0.22896464299E+01 -0.77955140251E+01  0.83221770315E+01  0.00000000000E+00 0.  1.
</event>
<event>
 8    1  0.1229038E-006  0.9118800E+02  0.7816164E-02  0.1184000E+00
        -11   -1    0    0    0    0  0.00000000000E+00  0.00000000000E+00  0.45593999997E+02  0.45594000000E+02  0.51100000000E-03 0. -1.
         11   -1    0    0    0    0 -0.00000000000E+00 -0.00000000000E+00 -0.45593999997E+02  0.45594000000E+02  0.51100000000E-03 0.  1.
         23    2    1    2    0    0  0.00000000000E+00 -0.35527136788E-14  0.17763568394E-14  0.91188000000E+02  0.91188000000E+02 0.  0.
    9900012    2    3    3    0    0 -0.17730283673E+02  0.31055128734E+02 -0.87747181406E+01  0.54367086672E+02  0.40000005687E+02 0.  0.
        -12    1    3    3    0    0  0.17730283673E+02 -0.31055128734E+02  0.87747181406E+01  0.36820913328E+02  0.00000000000E+00 0.  1.
         11    1    4    4    0    0 -0.16507927746E+02 -0.16641762403E+01  0.10895641906E+01  0.16627336269E+02  0.51100000000E-03 0. -1.
        -11    1    4    4    0    0 -0.26242307447E+01  0.96810698367E+01 -0.10670574558E+02  0.14644823722E+02  0.51100000000E-03 0.  1.
        -12    1    4    4    0    0  0.14018748173E+01  0.23038235138E+02  0.80629222677E+00  0.23094926681E+02  0.00000000000E+00 0.  1.
</event>
<event>
 8    1  0.1229038E-006  0.9118800E+02  0.7816164E-02  0.1184000E+00
        -11   -1    0    0    0    0  0.00000000000E+00  0.00000000000E+00  0.45593999997E+02  0.45594000000E+02  0.51100000000E-03 0.  1.
         11   -1    0    0    0    0 -0.00000000000E+00 -0.00000000000E+00 -0.45593999997E+02  0.45594000000E+02  0.51100000000E-03 0. -1.
         23    2    1    2    0    0  0.00000000000E+00 -0.35527136788E-14 -0.35527136788E-14  0.91188000000E+02  0.91188000000E+02 0.  0.
    9900012    2    3    3    0    0  0.15171499468E+02 -0.17479176115E+02  0.28637157369E+02  0.54367044337E+02  0.39999909174E+02 0.  0.
         12    1    3    3    0    0 -0.15171499468E+02  0.17479176115E+02 -0.28637157369E+02  0.36820955663E+02  0.00000000000E+00 0. -1.
         11    1    4    4    0    0 -0.60514865462E+01 -0.21231944695E+02  0.16472532814E+02  0.27545604051E+02  0.51100000000E-03 0. -1.
        -11    1    4    4    0    0  0.36174645488E+01 -0.31474314785E+01  0.39172088955E+01  0.61916799389E+01  0.51100000000E-03 0.  1.
         12    1    4    4    0    0  0.17605521465E+02  0.69002000580E+01  0.82474156594E+01  0.20629760347E+02  0.00000000000E+00 0. -1.
</event>
<event>
 8    1  0.1229038E-006  0.9118800E+02  0.7816164E-02  0.1184000E+00
        -11   -1    0    0    0    0  0.00000000000E+00  0.00000000000E+00  0.45593999997E+02  0.45594000000E+02  0.51100000000E-03 0.  1.
         11   -1    0    0    0    0 -0.00000000000E+00 -0.00000000000E+00 -0.45593999997E+02  0.45594000000E+02  0.51100000000E-03 0. -1.
         23    2    1    2    0    0  0.00000000000E+00  0.00000000000E+00  0.00000000000E+00  0.91188000000E+02  0.91188000000E+02 0.  0.
    9900012    2    3    3    0    0 -0.17478275108E+02 -0.17859553029E+02  0.27043077052E+02  0.54367058247E+02  0.39999940885E+02 0.  0.
         12    1    3    3    0    0  0.17478275108E+02  0.17859553029E+02 -0.27043077052E+02  0.36820941753E+02  0.00000000000E+00 0. -1.
         11    1    4    4    0    0 -0.76399947701E+01  0.23432525200E+01 -0.37364147833E+00  0.79999975422E+01  0.51100000000E-03 0. -1.
        -11    1    4    4    0    0 -0.11665273969E+02  0.66431641575E+00 -0.22346419286E+00  0.11686311205E+02  0.51100000000E-03 0.  1.
        -12    1    4    4    0    0  0.18269936314E+01 -0.20867121965E+02  0.27640182723E+02  0.34680749499E+02  0.00000000000E+00 0.  1.
</event>
<event>
 8    1  0.1229038E-006  0.9118800E+02  0.7816164E-02  0.1184000E+00
        -11   -1    0    0    0    0  0.00000000000E+00  0.00000000000E+00  0.45593999997E+02  0.45594000000E+02  0.51100000000E-03 0.  1.
         11   -1    0    0    0    0 -0.00000000000E+00 -0.00000000000E+00 -0.45593999997E+02  0.45594000000E+02  0.51100000000E-03 0. -1.
         23    2    1    2    0    0 -0.11102230246E-14  0.35527136788E-14  0.00000000000E+00  0.91188000000E+02  0.91188000000E+02 0.  0.
    9900012    2    3    3    0    0 -0.27860168432E+00 -0.30726785075E+02 -0.20287104147E+02  0.54367088351E+02  0.40000009515E+02 0.  0.
         12    1    3    3    0    0  0.27860168432E+00  0.30726785075E+02  0.20287104147E+02  0.36820911649E+02  0.00000000000E+00 0. -1.
         11    1    4    4    0    0 -0.11899550706E+02 -0.56928859853E-01 -0.40334965929E+00  0.11906520865E+02  0.51100000000E-03 0. -1.
        -11    1    4    4    0    0  0.28714774220E+01 -0.24246238605E+02 -0.65725034006E+01  0.25284842699E+02  0.51100000000E-03 0.  1.
         12    1    4    4    0    0  0.87494715998E+01 -0.64236176100E+01 -0.13311251087E+02  0.17175724788E+02  0.00000000000E+00 0. -1.
</event>
<event>
 8    1  0.1229038E-006  0.9118800E+02  0.7816164E-02  0.1184000E+00
        -11   -1    0    0    0    0  0.00000000000E+00  0.00000000000E+00  0.45593999997E+02  0.45594000000E+02  0.51100000000E-03 0. -1.
         11   -1    0    0    0    0 -0.00000000000E+00 -0.00000000000E+00 -0.45593999997E+02  0.45594000000E+02  0.51100000000E-03 0.  1.
         23    2    1    2    0    0 -0.55511151231E-16  0.17763568394E-14  0.00000000000E+00  0.91188000000E+02  0.91188000000E+02 0.  0.
    9900012    2    3    3    0    0  0.16203506718E+00 -0.87193472866E+01  0.35773246405E+02  0.54367103340E+02  0.40000043684E+02 0.  0.
        -12    1    3    3    0    0 -0.16203506718E+00  0.87193472866E+01 -0.35773246405E+02  0.36820896660E+02  0.00000000000E+00 0.  1.
         11    1    4    4    0    0 -0.44481972157E+01 -0.15163619585E+02  0.18707013930E+02  0.24488245912E+02  0.51100000000E-03 0. -1.
        -11    1    4    4    0    0  0.35797963921E+01  0.32755421333E+00 -0.54472645713E+01  0.65264788012E+01  0.51100000000E-03 0.  1.
         12    1    4    4    0    0  0.10304358908E+01  0.61167180855E+01  0.22513497047E+02  0.23352378627E+02  0.00000000000E+00 0. -1.
</event>
<event>
 8    1  0.1229038E-006  0.9118800E+02  0.7816164E-02  0.1184000E+00
        -11   -1    0    0    0    0  0.00000000000E+00  0.00000000000E+00  0.45593999997E+02  0.45594000000E+02  0.51100000000E-03 0. -1.
         11   -1    0    0    0    0 -0.00000000000E+00 -0.00000000000E+00 -0.45593999997E+02  0.45594000000E+02  0.51100000000E-03 0.  1.
         23    2    1    2    0    0  0.00000000000E+00  0.00000000000E+00  0.00000000000E+00  0.91188000000E+02  0.91188000000E+02 0.  0.
    9900012    2    3    3    0    0  0.30562559615E+02 -0.71853746290E+01  0.19237475119E+02  0.54367080569E+02  0.39999991774E+02 0.  0.
        -12    1    3    3    0    0 -0.30562559615E+02  0.71853746290E+01 -0.19237475119E+02  0.36820919431E+02  0.00000000000E+00 0.  1.
         11    1    4    4    0    0  0.28711103684E+02 -0.15679339008E+02  0.21492100259E+02  0.39141787393E+02  0.51100000000E-03 0. -1.
        -11    1    4    4    0    0  0.52400491336E+01  0.91772825522E+01  0.81906332022E+00  0.10599598811E+02  0.51100000000E-03 0.  1.
         12    1    4    4    0    0 -0.33885932028E+01 -0.68331817306E+00 -0.30736884598E+01  0.46256943660E+01  0.00000000000E+00 0. -1.
</event>
<event>
 8    1  0.1229038E-006  0.9118800E+02  0.7816164E-02  0.1184000E+00
        -11   -1    0    0    0    0  0.00000000000E+00  0.00000000000E+00  0.45593999997E+02  0.45594000000E+02  0.51100000000E-03 0. -1.
         11   -1    0    0    0    0 -0.00000000000E+00 -0.00000000000E+00 -0.45593999997E+02  0.45594000000E+02  0.51100000000E-03 0.  1.
         23    2    1    2    0    0 -0.35527136788E-14  0.00000000000E+00 -0.35527136788E-14  0.91188000000E+02  0.91188000000E+02 0.  0.
    9900012    2    3    3    0    0  0.18149218773E+02  0.21735854774E+02  0.23535898672E+02  0.54367081338E+02  0.39999993526E+02 0.  0.
        -12    1    3    3    0    0 -0.18149218773E+02 -0.21735854774E+02 -0.23535898672E+02  0.36820918662E+02  0.00000000000E+00 0.  1.
         11    1    4    4    0    0  0.19114506461E+02  0.10271146084E+02 -0.22708163768E+01  0.21817823136E+02  0.51100000000E-03 0. -1.
        -11    1    4    4    0    0 -0.28040385160E+00 -0.41631899608E+01  0.60531130074E+01  0.73519354126E+01  0.51100000000E-03 0.  1.
        -12    1    4    4    0    0 -0.68488383651E+00  0.15627898651E+02  0.19753602041E+02  0.25197322789E+02  0.00000000000E+00 0.  1.
</event>
<event>
 8    1  0.1229038E-006  0.9118800E+02  0.7816164E-02  0.1184000E+00
        -11   -1    0    0    0    0  0.00000000000E+00  0.00000000000E+00  0.45593999997E+02  0.45594000000E+02  0.51100000000E-03 0.  1.
         11   -1    0    0    0    0 -0.00000000000E+00 -0.00000000000E+00 -0.45593999997E+02  0.45594000000E+02  0.51100000000E-03 0. -1.
         23    2    1    2    0    0  0.71054273576E-14  0.00000000000E+00 -0.17763568394E-14  0.91188000000E+02  0.91188000000E+02 0.  0.
    9900012    2    3    3    0    0  0.33542370502E+02 -0.12255080853E+02 -0.89722487786E+01  0.54367097326E+02  0.40000029973E+02 0.  0.
         12    1    3    3    0    0 -0.33542370502E+02  0.12255080853E+02  0.89722487786E+01  0.36820902674E+02  0.00000000000E+00 0. -1.
         11    1    4    4    0    0  0.49136528582E+01 -0.12974731782E+02 -0.17142196507E+02  0.22053175521E+02  0.51100000000E-03 0. -1.
        -11    1    4    4    0    0  0.21789103271E+02  0.23023538249E+01  0.49992400223E+00  0.21916107747E+02  0.51100000000E-03 0.  1.
         12    1    4    4    0    0  0.68396143726E+01 -0.15827028965E+01  0.76700237262E+01  0.10397814058E+02  0.00000000000E+00 0. -1.
</event>
<event>
 8    1  0.1229038E-006  0.9118800E+02  0.7816164E-02  0.1184000E+00
        -11   -1    0    0    0    0  0.00000000000E+00  0.00000000000E+00  0.45593999997E+02  0.45594000000E+02  0.51100000000E-03 0. -1.
         11   -1    0    0    0    0 -0.00000000000E+00 -0.00000000000E+00 -0.45593999997E+02  0.45594000000E+02  0.51100000000E-03 0.  1.
         23    2    1    2    0    0  0.00000000000E+00 -0.88817841970E-15  0.00000000000E+00  0.91188000000E+02  0.91188000000E+02 0.  0.
    9900012    2    3    3    0    0 -0.17476023373E+02 -0.50899865151E+01 -0.32007192411E+02  0.54367085811E+02  0.40000003723E+02 0.  0.
         12    1    3    3    0    0  0.17476023373E+02  0.50899865151E+01  0.32007192411E+02  0.36820914189E+02  0.00000000000E+00 0. -1.
         11    1    4    4    0    0  0.48834502925E+01 -0.12932067660E+02 -0.76618280164E+01  0.15804748322E+02  0.51100000000E-03 0. -1.
        -11    1    4    4    0    0  0.88466740113E-01  0.45696626802E+01 -0.11766610903E+02  0.12623104839E+02  0.51100000000E-03 0.  1.
        -12    1    4    4    0    0 -0.22447940406E+02  0.32724184642E+01 -0.12578753492E+02  0.25939232650E+02  0.00000000000E+00 0.  1.
</event>
<event>
 8    1  0.1229038E-006  0.9118800E+02  0.7816164E-02  0.1184000E+00
        -11   -1    0    0    0    0  0.00000000000E+00  0.00000000000E+00  0.45593999997E+02  0.45594000000E+02  0.51100000000E-03 0.  1.
         11   -1    0    0    0    0 -0.00000000000E+00 -0.00000000000E+00 -0.45593999997E+02  0.45594000000E+02  0.51100000000E-03 0. -1.
         23    2    1    2    0    0  0.49960036108E-15  0.00000000000E+00  0.00000000000E+00  0.91188000000E+02  0.91188000000E+02 0.  0.
    9900012    2    3    3    0    0  0.19349743111E+00 -0.20991250792E+02  0.30250779179E+02  0.54367086214E+02  0.40000004642E+02 0.  0.
         12    1    3    3    0    0 -0.19349743111E+00  0.20991250792E+02 -0.30250779179E+02  0.36820913786E+02  0.00000000000E+00 0. -1.
         11    1    4    4    0    0 -0.11323548458E+02 -0.15304217426E+02 -0.24523065520E+01  0.19195198055E+02  0.51100000000E-03 0. -1.
        -11    1    4    4    0    0  0.21414879733E+01 -0.15812386094E+01  0.55973183866E+01  0.61980851609E+01  0.51100000000E-03 0.  1.
         12    1    4    4    0    0  0.93755579160E+01 -0.41057947572E+01  0.27105767345E+02  0.28973802998E+02  0.00000000000E+00 0. -1.
</event>
<event>
 8    1  0.1229038E-006  0.9118800E+02  0.7816164E-02  0.1184000E+00
        -11   -1    0    0    0    0  0.00000000000E+00  0.00000000000E+00  0.45593999997E+02  0.45594000000E+02  0.51100000000E-03 0. -1.
         11   -1    0    0    0    0 -0.00000000000E+00 -0.00000000000E+00 -0.45593999997E+02  0.45594000000E+02  0.51100000000E-03 0.  1.
         23    2    1    2    0    0 -0.44408920985E-15  0.00000000000E+00  0.00000000000E+00  0.91188000000E+02  0.91188000000E+02 0.  0.
    9900012    2    3    3    0    0 -0.29350535129E+01  0.35925644953E+02 -0.75174882321E+01  0.54367093795E+02  0.40000021925E+02 0.  0.
         12    1    3    3    0    0  0.29350535129E+01 -0.35925644953E+02  0.75174882321E+01  0.36820906205E+02  0.00000000000E+00 0. -1.
         11    1    4    4    0    0  0.25684939063E-02  0.32909793171E+02 -0.16462500141E+01  0.32950942817E+02  0.51100000000E-03 0. -1.
        -11    1    4    4    0    0  0.44361131708E+00  0.10087413474E+02 -0.84479648921E+01  0.13165136258E+02  0.51100000000E-03 0.  1.
         12    1    4    4    0    0 -0.33812333239E+01 -0.70715616925E+01  0.25767266742E+01  0.82510147204E+01  0.00000000000E+00 0. -1.
</event>
<event>
 8    1  0.1229038E-006  0.9118800E+02  0.7816164E-02  0.1184000E+00
        -11   -1    0    0    0    0  0.00000000000E+00  0.00000000000E+00  0.45593999997E+02  0.45594000000E+02  0.51100000000E-03 0. -1.
         11   -1    0    0    0    0 -0.00000000000E+00 -0.00000000000E+00 -0.45593999997E+02  0.45594000000E+02  0.51100000000E-03 0.  1.
         23    2    1    2    0    0 -0.88817841970E-15  0.71054273576E-14 -0.88817841970E-15  0.91188000000E+02  0.91188000000E+02 0.  0.
    9900012    2    3    3    0    0 -0.32918341132E+01 -0.36427774818E+02  0.42379741290E+01  0.54367090523E+02  0.40000014465E+02 0.  0.
        -12    1    3    3    0    0  0.32918341132E+01  0.36427774818E+02 -0.42379741290E+01  0.36820909477E+02  0.00000000000E+00 0.  1.
         11    1    4    4    0    0 -0.81690722688E+00 -0.79899378981E+00  0.25530625774E+01  0.27971158858E+01  0.51100000000E-03 0. -1.
        -11    1    4    4    0    0  0.15501130393E+02 -0.16867715556E+02  0.89429378674E+01  0.24592295735E+02  0.51100000000E-03 0.  1.
         12    1    4    4    0    0 -0.17976057280E+02 -0.18761065472E+02 -0.72580263157E+01  0.26977678903E+02  0.00000000000E+00 0. -1.
</event>
<event>
 8    1  0.1229038E-006  0.9118800E+02  0.7816164E-02  0.1184000E+00
        -11   -1    0    0    0    0  0.00000000000E+00  0.00000000000E+00  0.45593999997E+02  0.45594000000E+02  0.51100000000E-03 0.  1.
         11   -1    0    0    0    0 -0.00000000000E+00 -0.00000000000E+00 -0.45593999997E+02  0.45594000000E+02  0.51100000000E-03 0. -1.
         23    2    1    2    0    0 -0.35527136788E-14  0.00000000000E+00  0.49960036108E-15  0.91188000000E+02  0.91188000000E+02 0.  0.
    9900012    2    3    3    0    0  0.28560149060E+02 -0.23237438115E+02  0.34798889492E+00  0.54367058394E+02  0.39999941222E+02 0.  0.
        -12    1    3    3    0    0 -0.28560149060E+02  0.23237438115E+02 -0.34798889492E+00  0.36820941606E+02  0.00000000000E+00 0.  1.
         11    1    4    4    0    0  0.17923393812E+02 -0.24284713074E+02 -0.93945380680E+01  0.31610958236E+02  0.51100000000E-03 0. -1.
        -11    1    4    4    0    0  0.34310433922E+01 -0.58655478400E+01 -0.22430628959E+01  0.71559794325E+01  0.51100000000E-03 0.  1.
        -12    1    4    4    0    0  0.72057118558E+01  0.69128227991E+01  0.11985589859E+02  0.15600120726E+02  0.00000000000E+00 0.  1.
</event>
<event>
 8    1  0.1229038E-006  0.9118800E+02  0.7816164E-02  0.1184000E+00
        -11   -1    0    0    0    0  0.00000000000E+00  0.00000000000E+00  0.45593999997E+02  0.45594000000E+02  0.51100000000E-03 0.  1.
         11   -1    0    0    0    0 -0.00000000000E+00 -0.00000000000E+00 -0.45593999997E+02  0.45594000000E+02  0.51100000000E-03 0. -1.
         23    2    1    2    0    0  0.00000000000E+00 -0.35527136788E-14  0.00000000000E+00  0.91188000000E+02  0.91188000000E+02 0.  0.
    9900012    2    3    3    0    0  0.23468989326E+02 -0.28101430816E+02  0.39110572577E+01  0.54367078735E+02  0.39999987593E+02 0.  0.
        -12    1    3    3    0    0 -0.23468989326E+02  0.28101430816E+02 -0.39110572577E+01  0.36820921265E+02  0.00000000000E+00 0.  1.
         11    1    4    4    0    0  0.20330502085E+02 -0.93943052533E+01  0.10127967261E+02  0.24579625858E+02  0.51100000000E-03 0. -1.
        -11    1    4    4    0    0 -0.68047004165E+01 -0.67199601449E+01  0.48096573136E+01  0.10704887475E+02  0.51100000000E-03 0.  1.
        -12    1    4    4    0    0  0.99431876575E+01 -0.11987165418E+02 -0.11026567317E+02  0.19082565402E+02  0.00000000000E+00 0.  1.
</event>
<event>
 8    1  0.1229038E-006  0.9118800E+02  0.7816164E-02  0.1184000E+00
        -11   -1    0    0    0    0  0.00000000000E+00  0.00000000000E+00  0.45593999997E+02  0.45594000000E+02  0.51100000000E-03 0.  1.
         11   -1    0    0    0    0 -0.00000000000E+00 -0.00000000000E+00 -0.45593999997E+02  0.45594000000E+02  0.51100000000E-03 0. -1.
         23    2    1    2    0    0  0.00000000000E+00  0.00000000000E+00 -0.71054273576E-14  0.91188000000E+02  0.91188000000E+02 0.  0.
    9900012    2    3    3    0    0  0.80550893256E+01 -0.87100793903E+01 -0.34857274717E+02  0.54367088173E+02  0.40000009109E+02 0.  0.
        -12    1    3    3    0    0 -0.80550893256E+01  0.87100793903E+01  0.34857274717E+02  0.36820911827E+02  0.00000000000E+00 0.  1.
         11    1    4    4    0    0  0.48374933482E+01 -0.44071979996E+01 -0.53379520545E+01  0.84450262580E+01  0.51100000000E-03 0. -1.
        -11    1    4    4    0    0  0.63254161947E+01 -0.79762417966E+01  0.48086377636E+01  0.11258522134E+02  0.51100000000E-03 0.  1.
         12    1    4    4    0    0 -0.31078202172E+01  0.36733604058E+01 -0.34327960426E+02  0.34663539782E+02  0.00000000000E+00 0. -1.
</event>
<event>
 8    1  0.1229038E-006  0.9118800E+02  0.7816164E-02  0.1184000E+00
        -11   -1    0    0    0    0  0.00000000000E+00  0.00000000000E+00  0.45593999997E+02  0.45594000000E+02  0.51100000000E-03 0. -1.
         11   -1    0    0    0    0 -0.00000000000E+00 -0.00000000000E+00 -0.45593999997E+02  0.45594000000E+02  0.51100000000E-03 0.  1.
         23    2    1    2    0    0  0.35527136788E-14 -0.35527136788E-14  0.44408920985E-15  0.91188000000E+02  0.91188000000E+02 0.  0.
    9900012    2    3    3    0    0 -0.23629968204E+02 -0.28139087194E+02 -0.23655818435E+01  0.54367087424E+02  0.40000007401E+02 0.  0.
        -12    1    3    3    0    0  0.23629968204E+02  0.28139087194E+02  0.23655818435E+01  0.36820912576E+02  0.00000000000E+00 0.  1.
         11    1    4    4    0    0 -0.10473991780E+02 -0.19360352141E+02  0.11205222388E+02  0.24699893681E+02  0.51100000000E-03 0. -1.
        -11    1    4    4    0    0  0.47276898556E+01 -0.39325410496E+01  0.82342738042E+00  0.62043503600E+01  0.51100000000E-03 0.  1.
        -12    1    4    4    0    0 -0.17883666280E+02 -0.48461940036E+01 -0.14394231612E+02  0.23462843383E+02  0.00000000000E+00 0.  1.
</event>
<event>
 8    1  0.1229038E-006  0.9118800E+02  0.7816164E-02  0.1184000E+00
        -11   -1    0    0    0    0  0.00000000000E+00  0.00000000000E+00  0.45593999997E+02  0.45594000000E+02  0.51100000000E-03 0.  1.
         11   -1    0    0    0    0 -0.00000000000E+00 -0.00000000000E+00 -0.45593999997E+02  0.45594000000E+02  0.51100000000E-03 0. -1.
         23    2    1    2    0    0 -0.17763568394E-14  0.35527136788E-14 -0.35527136788E-14  0.91188000000E+02  0.91188000000E+02 0.  0.
    9900012    2    3    3    0    0 -0.12800999909E+02 -0.26632873510E+02  0.21968190006E+02  0.54367123826E+02  0.40000090387E+02 0.  0.
         12    1    3    3    0    0  0.12800999909E+02  0.26632873510E+02 -0.21968190006E+02  0.36820876174E+02  0.00000000000E+00 0. -1.
         11    1    4    4    0    0  0.93628972819E+01  0.24280093195E+00 -0.15891012427E+01  0.94998968850E+01  0.51100000000E-03 0. -1.
        -11    1    4    4    0    0 -0.52280045529E+01 -0.80307332343E+01 -0.93450751728E+00  0.96279807045E+01  0.51100000000E-03 0.  1.
        -12    1    4    4    0    0 -0.16935892638E+02 -0.18844941207E+02  0.24491798766E+02  0.35239246237E+02  0.00000000000E+00 0.  1.
</event>
<event>
 8    1  0.1229038E-006  0.9118800E+02  0.7816164E-02  0.1184000E+00
        -11   -1    0    0    0    0  0.00000000000E+00  0.00000000000E+00  0.45593999997E+02  0.45594000000E+02  0.51100000000E-03 0.  1.
         11   -1    0    0    0    0 -0.00000000000E+00 -0.00000000000E+00 -0.45593999997E+02  0.45594000000E+02  0.51100000000E-03 0. -1.
         23    2    1    2    0    0 -0.35527136788E-14 -0.35527136788E-14 -0.17763568394E-14  0.91188000000E+02  0.91188000000E+02 0.  0.
    9900012    2    3    3    0    0  0.15288025221E+02  0.29612627725E+02 -0.15657223011E+02  0.54367081104E+02  0.39999992992E+02 0.  0.
        -12    1    3    3    0    0 -0.15288025221E+02 -0.29612627725E+02  0.15657223011E+02  0.36820918896E+02  0.00000000000E+00 0.  1.
         11    1    4    4    0    0 -0.12517401142E+01  0.10983063172E+01 -0.15638513279E+02  0.15726926843E+02  0.51100000000E-03 0. -1.
        -11    1    4    4    0    0  0.17328011379E+02  0.23748944391E+02  0.69046087546E+01  0.30198443012E+02  0.51100000000E-03 0.  1.
        -12    1    4    4    0    0 -0.78824604380E+00  0.47653770163E+01 -0.69233184869E+01  0.84417112485E+01  0.00000000000E+00 0.  1.
</event>
<event>
 8    1  0.1229038E-006  0.9118800E+02  0.7816164E-02  0.1184000E+00
        -11   -1    0    0    0    0  0.00000000000E+00  0.00000000000E+00  0.45593999997E+02  0.45594000000E+02  0.51100000000E-03 0.  1.
         11   -1    0    0    0    0 -0.00000000000E+00 -0.00000000000E+00 -0.45593999997E+02  0.45594000000E+02  0.51100000000E-03 0. -1.
         23    2    1    2    0    0  0.00000000000E+00 -0.11102230246E-14  0.00000000000E+00  0.91188000000E+02  0.91188000000E+02 0.  0.
    9900012    2    3    3    0    0  0.88468430076E+01  0.10055262852E+01  0.35728166982E+02  0.54367087054E+02  0.40000006556E+02 0.  0.
         12    1    3    3    0    0 -0.88468430076E+01 -0.10055262852E+01 -0.35728166982E+02  0.36820912946E+02  0.00000000000E+00 0. -1.
         11    1    4    4    0    0  0.31871312673E+01  0.56155698771E+01 -0.52740732931E+01  0.83371625942E+01  0.51100000000E-03 0. -1.
        -11    1    4    4    0    0 -0.13145642229E+01  0.64993225278E+01  0.21715435026E+02  0.22705272318E+02  0.51100000000E-03 0.  1.
         12    1    4    4    0    0  0.69742759632E+01 -0.11109366120E+02  0.19286805249E+02  0.23324652141E+02  0.00000000000E+00 0. -1.
</event>
<event>
 8    1  0.1229038E-006  0.9118800E+02  0.7816164E-02  0.1184000E+00
        -11   -1    0    0    0    0  0.00000000000E+00  0.00000000000E+00  0.45593999997E+02  0.45594000000E+02  0.51100000000E-03 0.  1.
         11   -1    0    0    0    0 -0.00000000000E+00 -0.00000000000E+00 -0.45593999997E+02  0.45594000000E+02  0.51100000000E-03 0. -1.
         23    2    1    2    0    0  0.88817841970E-15  0.00000000000E+00  0.00000000000E+00  0.91188000000E+02  0.91188000000E+02 0.  0.
    9900012    2    3    3    0    0 -0.47242423714E+01 -0.94224203733E+01  0.35280018466E+02  0.54367079661E+02  0.39999989703E+02 0.  0.
         12    1    3    3    0    0  0.47242423714E+01  0.94224203733E+01 -0.35280018466E+02  0.36820920339E+02  0.00000000000E+00 0. -1.
         11    1    4    4    0    0  0.18019194953E+01 -0.28433085003E+00  0.70661384026E+01  0.72978126919E+01  0.51100000000E-03 0. -1.
        -11    1    4    4    0    0  0.57303509179E+01  0.69042007269E+01  0.25082896841E+02  0.26639381065E+02  0.51100000000E-03 0.  1.
         12    1    4    4    0    0 -0.12256512785E+02 -0.16042290250E+02  0.31309832217E+01  0.20429885904E+02  0.00000000000E+00 0. -1.
</event>
<event>
 8    1  0.1229038E-006  0.9118800E+02  0.7816164E-02  0.1184000E+00
        -11   -1    0    0    0    0  0.00000000000E+00  0.00000000000E+00  0.45593999997E+02  0.45594000000E+02  0.51100000000E-03 0. -1.
         11   -1    0    0    0    0 -0.00000000000E+00 -0.00000000000E+00 -0.45593999997E+02  0.45594000000E+02  0.51100000000E-03 0.  1.
         23    2    1    2    0    0  0.35527136788E-14  0.00000000000E+00  0.00000000000E+00  0.91188000000E+02  0.91188000000E+02 0.  0.
    9900012    2    3    3    0    0  0.22670286184E+02 -0.25769161432E+02 -0.13333532485E+02  0.54367154747E+02  0.40000160877E+02 0.  0.
         12    1    3    3    0    0 -0.22670286184E+02  0.25769161432E+02  0.13333532485E+02  0.36820845253E+02  0.00000000000E+00 0. -1.
         11    1    4    4    0    0  0.48704241707E+01 -0.25291585571E+02 -0.12508767975E+02  0.28633103374E+02  0.51100000000E-03 0. -1.
        -11    1    4    4    0    0  0.11390231336E+02  0.52403310719E+01 -0.77159984391E+01  0.14721924868E+02  0.51100000000E-03 0.  1.
         12    1    4    4    0    0  0.64096306776E+01 -0.57179069329E+01  0.68912339291E+01  0.11012126506E+02  0.00000000000E+00 0. -1.
</event>
<event>
 8    1  0.1229038E-006  0.9118800E+02  0.7816164E-02  0.1184000E+00
        -11   -1    0    0    0    0  0.00000000000E+00  0.00000000000E+00  0.45593999997E+02  0.45594000000E+02  0.51100000000E-03 0.  1.
         11   -1    0    0    0    0 -0.00000000000E+00 -0.00000000000E+00 -0.45593999997E+02  0.45594000000E+02  0.51100000000E-03 0. -1.
         23    2    1    2    0    0  0.88817841970E-15  0.00000000000E+00  0.71054273576E-14  0.91188000000E+02  0.91188000000E+02 0.  0.
    9900012    2    3    3    0    0  0.70107526460E+01  0.22704593942E+02  0.28127046420E+02  0.54367082317E+02  0.39999995757E+02 0.  0.
         12    1    3    3    0    0 -0.70107526460E+01 -0.22704593942E+02 -0.28127046420E+02  0.36820917683E+02  0.00000000000E+00 0. -1.
         11    1    4    4    0    0 -0.22179840662E+01 -0.96422266789E+00 -0.62729628875E+01  0.67230381763E+01  0.51100000000E-03 0. -1.
        -11    1    4    4    0    0 -0.22343309735E+01 -0.23945361162E+01  0.86695465065E+01  0.92675279876E+01  0.51100000000E-03 0.  1.
        -12    1    4    4    0    0  0.11463067686E+02  0.26063352726E+02  0.25730462801E+02  0.38376516153E+02  0.00000000000E+00 0.  1.
</event>
<event>
 8    1  0.1229038E-006  0.9118800E+02  0.7816164E-02  0.1184000E+00
        -11   -1    0    0    0    0  0.00000000000E+00  0.00000000000E+00  0.45593999997E+02  0.45594000000E+02  0.51100000000E-03 0. -1.
         11   -1    0    0    0    0 -0.00000000000E+00 -0.00000000000E+00 -0.45593999997E+02  0.45594000000E+02  0.51100000000E-03 0.  1.
         23    2    1    2    0    0 -0.35527136788E-14  0.35527136788E-14  0.35527136788E-14  0.91188000000E+02  0.91188000000E+02 0.  0.
    9900012    2    3    3    0    0 -0.20214457157E+02  0.17920406108E+02  0.25020292806E+02  0.54367078158E+02  0.39999986276E+02 0.  0.
        -12    1    3    3    0    0  0.20214457157E+02 -0.17920406108E+02 -0.25020292806E+02  0.36820921842E+02  0.00000000000E+00 0.  1.
         11    1    4    4    0    0 -0.11092928742E+02  0.99488298278E+01  0.27431810163E+02  0.31217567043E+02  0.51100000000E-03 0. -1.
        -11    1    4    4    0    0 -0.91679771767E+01  0.13467099933E+02  0.15642425953E+01  0.16366473086E+02  0.51100000000E-03 0.  1.
         12    1    4    4    0    0  0.46448761039E-01 -0.54955236527E+01 -0.39757599523E+01  0.67830380291E+01  0.00000000000E+00 0. -1.
</event>
<event>
 8    1  0.1229038E-006  0.9118800E+02  0.7816164E-02  0.1184000E+00
        -11   -1    0    0    0    0  0.00000000000E+00  0.00000000000E+00  0.45593999997E+02  0.45594000000E+02  0.51100000000E-03 0.  1.
         11   -1    0    0    0    0 -0.00000000000E+00 -0.00000000000E+00 -0.45593999997E+02  0.45594000000E+02  0.51100000000E-03 0. -1.
         23    2    1    2    0    0  0.17763568394E-14  0.13322676296E-14  0.00000000000E+00  0.91188000000E+02  0.91188000000E+02 0.  0.
    9900012    2    3    3    0    0  0.90841388408E+01  0.22582023475E+01 -0.35611219908E+02  0.54367081494E+02  0.39999993882E+02 0.  0.
        -12    1    3    3    0    0 -0.90841388408E+01 -0.22582023475E+01  0.35611219908E+02  0.36820918506E+02  0.00000000000E+00 0.  1.
         11    1    4    4    0    0 -0.49491179922E+01 -0.17032288308E+01 -0.15392226806E+02  0.16257779789E+02  0.51100000000E-03 0. -1.
        -11    1    4    4    0    0  0.30819395148E+01 -0.12197678724E+02 -0.58736221360E+01  0.13884565340E+02  0.51100000000E-03 0.  1.
         12    1    4    4    0    0  0.10951317318E+02  0.16159109902E+02 -0.14345370965E+02  0.24224736365E+02  0.00000000000E+00 0. -1.
</event>
<event>
 8    1  0.1229038E-006  0.9118800E+02  0.7816164E-02  0.1184000E+00
        -11   -1    0    0    0    0  0.00000000000E+00  0.00000000000E+00  0.45593999997E+02  0.45594000000E+02  0.51100000000E-03 0. -1.
         11   -1    0    0    0    0 -0.00000000000E+00 -0.00000000000E+00 -0.45593999997E+02  0.45594000000E+02  0.51100000000E-03 0.  1.
         23    2    1    2    0    0  0.33306690739E-15  0.00000000000E+00  0.35527136788E-14  0.91188000000E+02  0.91188000000E+02 0.  0.
    9900012    2    3    3    0    0  0.55562594224E+00 -0.23766779781E+02 -0.28117825964E+02  0.54367072821E+02  0.39999974111E+02 0.  0.
         12    1    3    3    0    0 -0.55562594224E+00  0.23766779781E+02  0.28117825964E+02  0.36820927179E+02  0.00000000000E+00 0. -1.
         11    1    4    4    0    0 -0.42186401762E+01 -0.94095194439E+01  0.76130646285E+01  0.12817750754E+02  0.51100000000E-03 0. -1.
        -11    1    4    4    0    0 -0.27121886583E+01  0.11571011749E+00 -0.14679368886E+02  0.14928269401E+02  0.51100000000E-03 0.  1.
         12    1    4    4    0    0  0.74864547767E+01 -0.14472970455E+02 -0.21051521706E+02  0.26621052666E+02  0.00000000000E+00 0. -1.
</event>
<event>
 8    1  0.1229038E-006  0.9118800E+02  0.7816164E-02  0.1184000E+00
        -11   -1    0    0    0    0  0.00000000000E+00  0.00000000000E+00  0.45593999997E+02  0.45594000000E+02  0.51100000000E-03 0.  1.
         11   -1    0    0    0    0 -0.00000000000E+00 -0.00000000000E+00 -0.45593999997E+02  0.45594000000E+02  0.51100000000E-03 0. -1.
         23    2    1    2    0    0 -0.17763568394E-14 -0.17763568394E-14  0.00000000000E+00  0.91188000000E+02  0.91188000000E+02 0.  0.
    9900012    2    3    3    0    0  0.48497971274E+01  0.11656565754E+02  0.34588791032E+02  0.54367074938E+02  0.39999978936E+02 0.  0.
         12    1    3    3    0    0 -0.48497971274E+01 -0.11656565754E+02 -0.34588791032E+02  0.36820925062E+02  0.00000000000E+00 0. -1.
         11    1    4    4    0    0 -0.11799725254E+02  0.73428547832E+01  0.41234879851E+01  0.14496695688E+02  0.51100000000E-03 0. -1.
        -11    1    4    4    0    0 -0.25445006777E+00  0.83304446436E+01  0.10424200621E+02  0.13346348252E+02  0.51100000000E-03 0.  1.
        -12    1    4    4    0    0  0.16903972449E+02 -0.40167336730E+01  0.20041102426E+02  0.26524030999E+02  0.00000000000E+00 0.  1.
</event>
<event>
 8    1  0.1229038E-006  0.9118800E+02  0.7816164E-02  0.1184000E+00
        -11   -1    0    0    0    0  0.00000000000E+00  0.00000000000E+00  0.45593999997E+02  0.45594000000E+02  0.51100000000E-03 0.  1.
         11   -1    0    0    0    0 -0.00000000000E+00 -0.00000000000E+00 -0.45593999997E+02  0.45594000000E+02  0.51100000000E-03 0. -1.
         23    2    1    2    0    0  0.00000000000E+00  0.00000000000E+00  0.88817841970E-15  0.91188000000E+02  0.91188000000E+02 0.  0.
    9900012    2    3    3    0    0 -0.10105970697E+02  0.35191618133E+02 -0.38983820911E+01  0.54367109008E+02  0.40000056605E+02 0.  0.
         12    1    3    3    0    0  0.10105970697E+02 -0.35191618133E+02  0.38983820911E+01  0.36820890992E+02  0.00000000000E+00 0. -1.
         11    1    4    4    0    0 -0.71424522642E+01  0.95931986233E+01  0.12080071496E+01  0.12020955274E+02  0.51100000000E-03 0. -1.
        -11    1    4    4    0    0 -0.34829773354E+01  0.14109576329E+02  0.13913527002E+02  0.20119580245E+02  0.51100000000E-03 0.  1.
         12    1    4    4    0    0  0.51945890275E+00  0.11488843180E+02 -0.19019916243E+02  0.22226573489E+02  0.00000000000E+00 0. -1.
</event>
<event>
 8    1  0.1229038E-006  0.9118800E+02  0.7816164E-02  0.1184000E+00
        -11   -1    0    0    0    0  0.00000000000E+00  0.00000000000E+00  0.45593999997E+02  0.45594000000E+02  0.51100000000E-03 0.  1.
         11   -1    0    0    0    0 -0.00000000000E+00 -0.00000000000E+00 -0.45593999997E+02  0.45594000000E+02  0.51100000000E-03 0. -1.
         23    2    1    2    0    0  0.88817841970E-15  0.00000000000E+00  0.35527136788E-14  0.91188000000E+02  0.91188000000E+02 0.  0.
    9900012    2    3    3    0    0 -0.68568993039E+01  0.30282054386E+02 -0.19792892404E+02  0.54367102732E+02  0.40000042299E+02 0.  0.
        -12    1    3    3    0    0  0.68568993039E+01 -0.30282054386E+02  0.19792892404E+02  0.36820897268E+02  0.00000000000E+00 0.  1.
         11    1    4    4    0    0 -0.11859538801E+02  0.69222344529E+01 -0.24929815268E+02  0.28461582527E+02  0.51100000000E-03 0. -1.
        -11    1    4    4    0    0  0.62308689152E+01  0.96832388220E+01  0.96962623454E+00  0.11555475621E+02  0.51100000000E-03 0.  1.
         12    1    4    4    0    0 -0.12282294180E+01  0.13676581111E+02  0.41672966296E+01  0.14350044584E+02  0.00000000000E+00 0. -1.
</event>
<event>
 8    1  0.1229038E-006  0.9118800E+02  0.7816164E-02  0.1184000E+00
        -11   -1    0    0    0    0  0.00000000000E+00  0.00000000000E+00  0.45593999997E+02  0.45594000000E+02  0.51100000000E-03 0.  1.
         11   -1    0    0    0    0 -0.00000000000E+00 -0.00000000000E+00 -0.45593999997E+02  0.45594000000E+02  0.51100000000E-03 0. -1.
         23    2    1    2    0    0  0.00000000000E+00  0.35527136788E-14  0.35527136788E-14  0.91188000000E+02  0.91188000000E+02 0.  0.
    9900012    2    3    3    0    0 -0.11649249521E+02  0.16722574645E+02  0.30666432358E+02  0.54367087589E+02  0.40000007777E+02 0.  0.
         12    1    3    3    0    0  0.11649249521E+02 -0.16722574645E+02 -0.30666432358E+02  0.36820912411E+02  0.00000000000E+00 0. -1.
         11    1    4    4    0    0 -0.19458377361E+01  0.99901222667E+01  0.72967201402E+01  0.12523216538E+02  0.51100000000E-03 0. -1.
        -11    1    4    4    0    0 -0.19947536453E+02  0.11853392660E+02  0.16725827148E+02  0.28603503669E+02  0.51100000000E-03 0.  1.
        -12    1    4    4    0    0  0.10244124668E+02 -0.51209402811E+01  0.66438850704E+01  0.13240367382E+02  0.00000000000E+00 0.  1.
</event>
<event>
 8    1  0.1229038E-006  0.9118800E+02  0.7816164E-02  0.1184000E+00
        -11   -1    0    0    0    0  0.00000000000E+00  0.00000000000E+00  0.45593999997E+02  0.45594000000E+02  0.51100000000E-03 0. -1.
         11   -1    0    0    0    0 -0.00000000000E+00 -0.00000000000E+00 -0.45593999997E+02  0.45594000000E+02  0.51100000000E-03 0.  1.
         23    2    1    2    0    0 -0.35527136788E-14 -0.17763568394E-14 -0.71054273576E-14  0.91188000000E+02  0.91188000000E+02 0.  0.
    9900012    2    3    3    0    0  0.19465491377E+02  0.10884715371E+02  0.29298172017E+02  0.54367282098E+02  0.40000451197E+02 0.  0.
        -12    1    3    3    0    0 -0.19465491377E+02 -0.10884715371E+02 -0.29298172017E+02  0.36820717902E+02  0.00000000000E+00 0.  1.
         11    1    4    4    0    0  0.37600286016E+01 -0.94084852282E+01  0.19727473149E+02  0.22177254260E+02  0.51100000000E-03 0.  1.
        -11    1    4    4    0    0  0.17387125413E+02  0.10843908866E+02  0.95131503691E+01  0.22592089763E+02  0.51100000000E-03 0. -1.
        -12    1    4    4    0    0 -0.16816626376E+01  0.94492917331E+01  0.57548498577E-01  0.95979380761E+01  0.00000000000E+00 0.  1.
</event>
<event>
 8    1  0.1229038E-006  0.9118800E+02  0.7816164E-02  0.1184000E+00
        -11   -1    0    0    0    0  0.00000000000E+00  0.00000000000E+00  0.45593999997E+02  0.45594000000E+02  0.51100000000E-03 0. -1.
         11   -1    0    0    0    0 -0.00000000000E+00 -0.00000000000E+00 -0.45593999997E+02  0.45594000000E+02  0.51100000000E-03 0.  1.
         23    2    1    2    0    0 -0.44408920985E-15  0.00000000000E+00  0.35527136788E-14  0.91188000000E+02  0.91188000000E+02 0.  0.
    9900012    2    3    3    0    0 -0.56416336543E+00  0.34444249752E+02  0.13002155141E+02  0.54367073076E+02  0.39999974691E+02 0.  0.
        -12    1    3    3    0    0  0.56416336543E+00 -0.34444249752E+02 -0.13002155141E+02  0.36820926924E+02  0.00000000000E+00 0.  1.
         11    1    4    4    0    0  0.22411580182E+01 -0.12320122969E+01 -0.38973315096E+01  0.46615272947E+01  0.51100000000E-03 0. -1.
        -11    1    4    4    0    0  0.12493515704E+01  0.25001882438E+02 -0.45150005443E+01  0.25436985571E+02  0.51100000000E-03 0.  1.
         12    1    4    4    0    0 -0.40546729540E+01  0.10674379611E+02  0.21414487195E+02  0.24268560210E+02  0.00000000000E+00 0. -1.
</event>
<event>
 8    1  0.1229038E-006  0.9118800E+02  0.7816164E-02  0.1184000E+00
        -11   -1    0    0    0    0  0.00000000000E+00  0.00000000000E+00  0.45593999997E+02  0.45594000000E+02  0.51100000000E-03 0. -1.
         11   -1    0    0    0    0 -0.00000000000E+00 -0.00000000000E+00 -0.45593999997E+02  0.45594000000E+02  0.51100000000E-03 0.  1.
         23    2    1    2    0    0  0.00000000000E+00 -0.17763568394E-14  0.00000000000E+00  0.91188000000E+02  0.91188000000E+02 0.  0.
    9900012    2    3    3    0    0 -0.34075751303E+02  0.12867448877E+02  0.53902859233E+01  0.54367037903E+02  0.39999894506E+02 0.  0.
         12    1    3    3    0    0  0.34075751303E+02 -0.12867448877E+02 -0.53902859233E+01  0.36820962097E+02  0.00000000000E+00 0. -1.
         11    1    4    4    0    0 -0.16519523806E+02 -0.69152902694E+01  0.10828678511E+02  0.20927880563E+02  0.51100000000E-03 0. -1.
        -11    1    4    4    0    0 -0.16354780010E+02  0.46517856127E+01 -0.65465332632E+01  0.18220182123E+02  0.51100000000E-03 0.  1.
        -12    1    4    4    0    0 -0.12014474865E+01  0.15130953533E+02  0.11081406754E+01  0.15218975217E+02  0.00000000000E+00 0.  1.
</event>
<event>
 8    1  0.1229038E-006  0.9118800E+02  0.7816164E-02  0.1184000E+00
        -11   -1    0    0    0    0  0.00000000000E+00  0.00000000000E+00  0.45593999997E+02  0.45594000000E+02  0.51100000000E-03 0.  1.
         11   -1    0    0    0    0 -0.00000000000E+00 -0.00000000000E+00 -0.45593999997E+02  0.45594000000E+02  0.51100000000E-03 0. -1.
         23    2    1    2    0    0 -0.35527136788E-14  0.00000000000E+00  0.00000000000E+00  0.91188000000E+02  0.91188000000E+02 0.  0.
    9900012    2    3    3    0    0 -0.30913401690E+02 -0.18376043910E+02  0.79034513668E+01  0.54367055724E+02  0.39999935134E+02 0.  0.
         12    1    3    3    0    0  0.30913401690E+02  0.18376043910E+02 -0.79034513668E+01  0.36820944276E+02  0.00000000000E+00 0. -1.
         11    1    4    4    0    0 -0.50491638566E+01  0.95552836567E+01  0.58753384839E+01  0.12301101738E+02  0.51100000000E-03 0. -1.
        -11    1    4    4    0    0  0.81937441331E+00 -0.12755299835E+00  0.34052990315E+01  0.35048118283E+01  0.51100000000E-03 0.  1.
        -12    1    4    4    0    0 -0.26683612247E+02 -0.27803774569E+02 -0.13771861486E+01  0.38561142158E+02  0.00000000000E+00 0.  1.
</event>
<event>
 8    1  0.1229038E-006  0.9118800E+02  0.7816164E-02  0.1184000E+00
        -11   -1    0    0    0    0  0.00000000000E+00  0.00000000000E+00  0.45593999997E+02  0.45594000000E+02  0.51100000000E-03 0. -1.
         11   -1    0    0    0    0 -0.00000000000E+00 -0.00000000000E+00 -0.45593999997E+02  0.45594000000E+02  0.51100000000E-03 0.  1.
         23    2    1    2    0    0 -0.35527136788E-14  0.00000000000E+00  0.00000000000E+00  0.91188000000E+02  0.91188000000E+02 0.  0.
    9900012    2    3    3    0    0  0.26863870100E+02  0.99768972132E+01 -0.23120854912E+02  0.54367083029E+02  0.39999997381E+02 0.  0.
         12    1    3    3    0    0 -0.26863870100E+02 -0.99768972132E+01  0.23120854912E+02  0.36820916971E+02  0.00000000000E+00 0. -1.
         11    1    4    4    0    0  0.55463739485E+00  0.35136619779E+01  0.35660082793E+01  0.50368500518E+01  0.51100000000E-03 0. -1.
        -11    1    4    4    0    0  0.27554623194E+02  0.14571011815E+02 -0.13878083197E+02  0.34119977112E+02  0.51100000000E-03 0.  1.
        -12    1    4    4    0    0 -0.12453904883E+01 -0.81077765798E+01 -0.12808779994E+02  0.15210255865E+02  0.00000000000E+00 0.  1.
</event>
<event>
 8    1  0.1229038E-006  0.9118800E+02  0.7816164E-02  0.1184000E+00
        -11   -1    0    0    0    0  0.00000000000E+00  0.00000000000E+00  0.45593999997E+02  0.45594000000E+02  0.51100000000E-03 0. -1.
         11   -1    0    0    0    0 -0.00000000000E+00 -0.00000000000E+00 -0.45593999997E+02  0.45594000000E+02  0.51100000000E-03 0.  1.
         23    2    1    2    0    0  0.13322676296E-14  0.00000000000E+00  0.00000000000E+00  0.91188000000E+02  0.91188000000E+02 0.  0.
    9900012    2    3    3    0    0  0.39854203302E+01  0.34477343854E+01 -0.36441865281E+02  0.54367082131E+02  0.39999995333E+02 0.  0.
         12    1    3    3    0    0 -0.39854203302E+01 -0.34477343854E+01  0.36441865281E+02  0.36820917869E+02  0.00000000000E+00 0. -1.
         11    1    4    4    0    0  0.27444306161E+01  0.24172826056E+01  0.14642594327E+01  0.39394429237E+01  0.51100000000E-03 0. -1.
        -11    1    4    4    0    0  0.13604325068E+02  0.74167662216E+01 -0.79898975325E+01  0.17433431807E+02  0.51100000000E-03 0.  1.
         12    1    4    4    0    0 -0.12363335353E+02 -0.63863144418E+01 -0.29916227181E+02  0.32994207400E+02  0.00000000000E+00 0. -1.
</event>
<event>
 8    1  0.1229038E-006  0.9118800E+02  0.7816164E-02  0.1184000E+00
        -11   -1    0    0    0    0  0.00000000000E+00  0.00000000000E+00  0.45593999997E+02  0.45594000000E+02  0.51100000000E-03 0.  1.
         11   -1    0    0    0    0 -0.00000000000E+00 -0.00000000000E+00 -0.45593999997E+02  0.45594000000E+02  0.51100000000E-03 0. -1.
         23    2    1    2    0    0 -0.35527136788E-14  0.35527136788E-14  0.00000000000E+00  0.91188000000E+02  0.91188000000E+02 0.  0.
    9900012    2    3    3    0    0  0.21399135505E+02  0.20578047125E+02 -0.21780774043E+02  0.54367066528E+02  0.39999959763E+02 0.  0.
         12    1    3    3    0    0 -0.21399135505E+02 -0.20578047125E+02  0.21780774043E+02  0.36820933472E+02  0.00000000000E+00 0. -1.
         11    1    4    4    0    0  0.53210759812E+01  0.11433535455E+02 -0.23180540167E+02  0.26388956503E+02  0.51100000000E-03 0. -1.
        -11    1    4    4    0    0  0.17757122613E+01  0.87201989418E+01  0.82313218328E+01  0.12122280437E+02  0.51100000000E-03 0.  1.
        -12    1    4    4    0    0  0.14302347263E+02  0.42431272839E+00 -0.68315557084E+01  0.15855829588E+02  0.00000000000E+00 0.  1.
</event>
<event>
 8    1  0.1229038E-006  0.9118800E+02  0.7816164E-02  0.1184000E+00
        -11   -1    0    0    0    0  0.00000000000E+00  0.00000000000E+00  0.45593999997E+02  0.45594000000E+02  0.51100000000E-03 0.  1.
         11   -1    0    0    0    0 -0.00000000000E+00 -0.00000000000E+00 -0.45593999997E+02  0.45594000000E+02  0.51100000000E-03 0. -1.
         23    2    1    2    0    0  0.44408920985E-15  0.66613381478E-15 -0.71054273576E-14  0.91188000000E+02  0.91188000000E+02 0.  0.
    9900012    2    3    3    0    0 -0.35664393340E+01  0.14025601857E+01 -0.36620945467E+02  0.54367077802E+02  0.39999985465E+02 0.  0.
        -12    1    3    3    0    0  0.35664393340E+01 -0.14025601857E+01  0.36620945467E+02  0.36820922198E+02  0.00000000000E+00 0.  1.
         11    1    4    4    0    0  0.46476689305E+01 -0.35429287153E+01 -0.35299367366E+02  0.35779861753E+02  0.51100000000E-03 0. -1.
        -11    1    4    4    0    0 -0.47278934172E+00  0.66793713835E+01  0.50705597641E+01  0.83992921382E+01  0.51100000000E-03 0.  1.
         12    1    4    4    0    0 -0.77413189228E+01 -0.17338824824E+01 -0.63921378657E+01  0.10187923911E+02  0.00000000000E+00 0. -1.
</event>
<event>
 8    1  0.1229038E-006  0.9118800E+02  0.7816164E-02  0.1184000E+00
        -11   -1    0    0    0    0  0.00000000000E+00  0.00000000000E+00  0.45593999997E+02  0.45594000000E+02  0.51100000000E-03 0. -1.
         11   -1    0    0    0    0 -0.00000000000E+00 -0.00000000000E+00 -0.45593999997E+02  0.45594000000E+02  0.51100000000E-03 0.  1.
         23    2    1    2    0    0 -0.35527136788E-14  0.00000000000E+00  0.00000000000E+00  0.91188000000E+02  0.91188000000E+02 0.  0.
    9900012    2    3    3    0    0  0.28030497291E+02  0.16425293786E+02  0.17328643430E+02  0.54367069302E+02  0.39999966088E+02 0.  0.
        -12    1    3    3    0    0 -0.28030497291E+02 -0.16425293786E+02 -0.17328643430E+02  0.36820930698E+02  0.00000000000E+00 0.  1.
         11    1    4    4    0    0  0.16940782064E+02  0.18409249492E+02  0.11628884147E+02  0.27588430738E+02  0.51100000000E-03 0. -1.
        -11    1    4    4    0    0 -0.45512886088E+01  0.61548955122E+01 -0.13804497017E+01  0.77783422659E+01  0.51100000000E-03 0.  1.
         12    1    4    4    0    0  0.15641003835E+02 -0.81388512186E+01  0.70802089852E+01  0.19000296298E+02  0.00000000000E+00 0. -1.
</event>
<event>
 8    1  0.1229038E-006  0.9118800E+02  0.7816164E-02  0.1184000E+00
        -11   -1    0    0    0    0  0.00000000000E+00  0.00000000000E+00  0.45593999997E+02  0.45594000000E+02  0.51100000000E-03 0. -1.
         11   -1    0    0    0    0 -0.00000000000E+00 -0.00000000000E+00 -0.45593999997E+02  0.45594000000E+02  0.51100000000E-03 0.  1.
         23    2    1    2    0    0  0.00000000000E+00  0.00000000000E+00  0.00000000000E+00  0.91188000000E+02  0.91188000000E+02 0.  0.
    9900012    2    3    3    0    0  0.21325268543E+02  0.20022088784E+02  0.22363790423E+02  0.54366942984E+02  0.39999678118E+02 0.  0.
        -12    1    3    3    0    0 -0.21325268543E+02 -0.20022088784E+02 -0.22363790423E+02  0.36821057016E+02  0.00000000000E+00 0.  1.
         11    1    4    4    0    0  0.11225283444E+02  0.31568276252E+02  0.17106772060E+02  0.37619206591E+02  0.51100000000E-03 0. -1.
        -11    1    4    4    0    0  0.34008819288E+01 -0.37221772483E+01 -0.28753849310E+00  0.50500772279E+01  0.51100000000E-03 0.  1.
         12    1    4    4    0    0  0.66991031702E+01 -0.78240102199E+01  0.55445568564E+01  0.11697659165E+02  0.00000000000E+00 0. -1.
</event>
<event>
 8    1  0.1229038E-006  0.9118800E+02  0.7816164E-02  0.1184000E+00
        -11   -1    0    0    0    0  0.00000000000E+00  0.00000000000E+00  0.45593999997E+02  0.45594000000E+02  0.51100000000E-03 0.  1.
         11   -1    0    0    0    0 -0.00000000000E+00 -0.00000000000E+00 -0.45593999997E+02  0.45594000000E+02  0.51100000000E-03 0. -1.
         23    2    1    2    0    0  0.00000000000E+00  0.00000000000E+00  0.00000000000E+00  0.91188000000E+02  0.91188000000E+02 0.  0.
    9900012    2    3    3    0    0 -0.10581343399E+02  0.23311375703E+02  0.26464971111E+02  0.54367085275E+02  0.40000002501E+02 0.  0.
         12    1    3    3    0    0  0.10581343399E+02 -0.23311375703E+02 -0.26464971111E+02  0.36820914725E+02  0.00000000000E+00 0. -1.
         11    1    4    4    0    0 -0.14193812878E+02  0.62882226447E+01  0.90978705327E+01  0.17993813285E+02  0.51100000000E-03 0. -1.
        -11    1    4    4    0    0 -0.10547107982E+02  0.96972746727E+01  0.14095067340E+02  0.20098496124E+02  0.51100000000E-03 0.  1.
        -12    1    4    4    0    0  0.14159577460E+02  0.73258783855E+01  0.32720332379E+01  0.16274775866E+02  0.00000000000E+00 0.  1.
</event>
<event>
 8    1  0.1229038E-006  0.9118800E+02  0.7816164E-02  0.1184000E+00
        -11   -1    0    0    0    0  0.00000000000E+00  0.00000000000E+00  0.45593999997E+02  0.45594000000E+02  0.51100000000E-03 0.  1.
         11   -1    0    0    0    0 -0.00000000000E+00 -0.00000000000E+00 -0.45593999997E+02  0.45594000000E+02  0.51100000000E-03 0. -1.
         23    2    1    2    0    0  0.00000000000E+00 -0.88817841970E-15 -0.71054273576E-14  0.91188000000E+02  0.91188000000E+02 0.  0.
    9900012    2    3    3    0    0 -0.17018889605E+02  0.68342710725E+01  0.31928487036E+02  0.54367107169E+02  0.40000052413E+02 0.  0.
         12    1    3    3    0    0  0.17018889605E+02 -0.68342710725E+01 -0.31928487036E+02  0.36820892831E+02  0.00000000000E+00 0. -1.
         11    1    4    4    0    0 -0.14146342966E+02  0.36342521752E+01  0.23454584056E+02  0.27630496226E+02  0.51100000000E-03 0. -1.
        -11    1    4    4    0    0  0.17398394981E+01  0.43659533475E+01  0.16637136770E+02  0.17288230397E+02  0.51100000000E-03 0.  1.
         12    1    4    4    0    0 -0.46123861366E+01 -0.11659344502E+01 -0.81632337903E+01  0.94483805454E+01  0.00000000000E+00 0. -1.
</event>
<event>
 8    1  0.1229038E-006  0.9118800E+02  0.7816164E-02  0.1184000E+00
        -11   -1    0    0    0    0  0.00000000000E+00  0.00000000000E+00  0.45593999997E+02  0.45594000000E+02  0.51100000000E-03 0.  1.
         11   -1    0    0    0    0 -0.00000000000E+00 -0.00000000000E+00 -0.45593999997E+02  0.45594000000E+02  0.51100000000E-03 0. -1.
         23    2    1    2    0    0  0.00000000000E+00 -0.44408920985E-15  0.31086244690E-14  0.91188000000E+02  0.91188000000E+02 0.  0.
    9900012    2    3    3    0    0  0.36579529485E+02  0.30635700260E+01 -0.28866206814E+01  0.54367081793E+02  0.39999994563E+02 0.  0.
        -12    1    3    3    0    0 -0.36579529485E+02 -0.30635700260E+01  0.28866206814E+01  0.36820918207E+02  0.00000000000E+00 0.  1.
         11    1    4    4    0    0 -0.79275261557E+00 -0.17925152976E+01 -0.47497610092E+01  0.51382679676E+01  0.51100000000E-03 0. -1.
        -11    1    4    4    0    0  0.27647453198E+01  0.10569399518E+02  0.81031794364E+01  0.13602115280E+02  0.51100000000E-03 0.  1.
        -12    1    4    4    0    0  0.34607536781E+02 -0.57133141947E+01 -0.62400391086E+01  0.35626698545E+02  0.00000000000E+00 0.  1.
</event>
<event>
 8    1  0.1229038E-006  0.9118800E+02  0.7816164E-02  0.1184000E+00
        -11   -1    0    0    0    0  0.00000000000E+00  0.00000000000E+00  0.45593999997E+02  0.45594000000E+02  0.51100000000E-03 0.  1.
         11   -1    0    0    0    0 -0.00000000000E+00 -0.00000000000E+00 -0.45593999997E+02  0.45594000000E+02  0.51100000000E-03 0. -1.
         23    2    1    2    0    0  0.00000000000E+00 -0.88817841970E-15  0.00000000000E+00  0.91188000000E+02  0.91188000000E+02 0.  0.
    9900012    2    3    3    0    0 -0.34865897542E+02  0.74052704843E+01 -0.92364453435E+01  0.54367071645E+02  0.39999971429E+02 0.  0.
         12    1    3    3    0    0  0.34865897542E+02 -0.74052704843E+01  0.92364453435E+01  0.36820928355E+02  0.00000000000E+00 0. -1.
         11    1    4    4    0    0 -0.12238593025E+01  0.15939890149E+02  0.10106393921E+01  0.16018717858E+02  0.51100000000E-03 0. -1.
        -11    1    4    4    0    0 -0.22251839604E+02 -0.82564521708E+00 -0.10440446612E+02  0.24593271062E+02  0.51100000000E-03 0.  1.
         12    1    4    4    0    0 -0.11390198635E+02 -0.77089744477E+01  0.19336187655E+00  0.13755082726E+02  0.00000000000E+00 0. -1.
</event>
<event>
 8    1  0.1229038E-006  0.9118800E+02  0.7816164E-02  0.1184000E+00
        -11   -1    0    0    0    0  0.00000000000E+00  0.00000000000E+00  0.45593999997E+02  0.45594000000E+02  0.51100000000E-03 0. -1.
         11   -1    0    0    0    0 -0.00000000000E+00 -0.00000000000E+00 -0.45593999997E+02  0.45594000000E+02  0.51100000000E-03 0.  1.
         23    2    1    2    0    0 -0.35527136788E-14 -0.16028844918E-14  0.00000000000E+00  0.91188000000E+02  0.91188000000E+02 0.  0.
    9900012    2    3    3    0    0  0.15675140536E+02 -0.56009919215E-01 -0.33317658498E+02  0.54367088337E+02  0.40000009481E+02 0.  0.
         12    1    3    3    0    0 -0.15675140536E+02  0.56009919215E-01  0.33317658498E+02  0.36820911663E+02  0.00000000000E+00 0. -1.
         11    1    4    4    0    0 -0.41172841329E+00  0.62955038778E+01 -0.12335918313E+02  0.13855604290E+02  0.51100000000E-03 0. -1.
        -11    1    4    4    0    0  0.57519739787E+01 -0.12786240971E+02 -0.24156063238E+02  0.27930065418E+02  0.51100000000E-03 0.  1.
        -12    1    4    4    0    0  0.10334894970E+02  0.64347271742E+01  0.31743230532E+01  0.12581418628E+02  0.00000000000E+00 0.  1.
</event>
<event>
 8    1  0.1229038E-006  0.9118800E+02  0.7816164E-02  0.1184000E+00
        -11   -1    0    0    0    0  0.00000000000E+00  0.00000000000E+00  0.45593999997E+02  0.45594000000E+02  0.51100000000E-03 0.  1.
         11   -1    0    0    0    0 -0.00000000000E+00 -0.00000000000E+00 -0.45593999997E+02  0.45594000000E+02  0.51100000000E-03 0. -1.
         23    2    1    2    0    0 -0.13322676296E-14 -0.35527136788E-14 -0.71054273576E-14  0.91188000000E+02  0.91188000000E+02 0.  0.
    9900012    2    3    3    0    0  0.34156310442E+01 -0.27841859866E+02 -0.23852565698E+02  0.54367074066E+02  0.39999976948E+02 0.  0.
        -12    1    3    3    0    0 -0.34156310442E+01  0.27841859866E+02  0.23852565698E+02  0.36820925934E+02  0.00000000000E+00 0.  1.
         11    1    4    4    0    0  0.93239352417E+01  0.22535882129E+01 -0.36297474712E+01  0.10256193016E+02  0.51100000000E-03 0. -1.
        -11    1    4    4    0    0 -0.15905934754E+01 -0.81835991414E+01  0.55444813066E+01  0.10012120441E+02  0.51100000000E-03 0.  1.
         12    1    4    4    0    0 -0.43177107221E+01 -0.21911848938E+02 -0.25767299534E+02  0.34098760608E+02  0.00000000000E+00 0. -1.
</event>
<event>
 8    1  0.1229038E-006  0.9118800E+02  0.7816164E-02  0.1184000E+00
        -11   -1    0    0    0    0  0.00000000000E+00  0.00000000000E+00  0.45593999997E+02  0.45594000000E+02  0.51100000000E-03 0. -1.
         11   -1    0    0    0    0 -0.00000000000E+00 -0.00000000000E+00 -0.45593999997E+02  0.45594000000E+02  0.51100000000E-03 0.  1.
         23    2    1    2    0    0 -0.35527136788E-14  0.00000000000E+00  0.00000000000E+00  0.91188000000E+02  0.91188000000E+02 0.  0.
    9900012    2    3    3    0    0 -0.20027818977E+02  0.25947762657E+02  0.16774324539E+02  0.54367110771E+02  0.40000060625E+02 0.  0.
        -12    1    3    3    0    0  0.20027818977E+02 -0.25947762657E+02 -0.16774324539E+02  0.36820889229E+02  0.00000000000E+00 0.  1.
         11    1    4    4    0    0 -0.49426488460E+01 -0.71902113449E+01  0.10648983918E+02  0.13766981352E+02  0.51100000000E-03 0. -1.
        -11    1    4    4    0    0 -0.10864023955E+02  0.79168007494E+01  0.67041767768E+01  0.15021609006E+02  0.51100000000E-03 0.  1.
        -12    1    4    4    0    0 -0.42211461753E+01  0.25221173252E+02 -0.57883615529E+00  0.25578520414E+02  0.00000000000E+00 0.  1.
</event>
<event>
 8    1  0.1229038E-006  0.9118800E+02  0.7816164E-02  0.1184000E+00
        -11   -1    0    0    0    0  0.00000000000E+00  0.00000000000E+00  0.45593999997E+02  0.45594000000E+02  0.51100000000E-03 0.  1.
         11   -1    0    0    0    0 -0.00000000000E+00 -0.00000000000E+00 -0.45593999997E+02  0.45594000000E+02  0.51100000000E-03 0. -1.
         23    2    1    2    0    0  0.00000000000E+00  0.00000000000E+00 -0.22204460493E-15  0.91188000000E+02  0.91188000000E+02 0.  0.
    9900012    2    3    3    0    0 -0.16424252848E+02  0.32898617723E+02 -0.19252763060E+01  0.54367057338E+02  0.39999938813E+02 0.  0.
        -12    1    3    3    0    0  0.16424252848E+02 -0.32898617723E+02  0.19252763060E+01  0.36820942662E+02  0.00000000000E+00 0.  1.
         11    1    4    4    0    0  0.11897783530E+02  0.13797337220E+02  0.40101469843E+01  0.18654893363E+02  0.51100000000E-03 0.  1.
        -11    1    4    4    0    0 -0.22170789076E+02  0.13465343684E+02 -0.79483982594E+01  0.27129990857E+02  0.51100000000E-03 0. -1.
        -12    1    4    4    0    0 -0.61512473019E+01  0.56359368186E+01  0.20129749690E+01  0.85821731175E+01  0.00000000000E+00 0.  1.
</event>
<event>
 8    1  0.1229038E-006  0.9118800E+02  0.7816164E-02  0.1184000E+00
        -11   -1    0    0    0    0  0.00000000000E+00  0.00000000000E+00  0.45593999997E+02  0.45594000000E+02  0.51100000000E-03 0. -1.
         11   -1    0    0    0    0 -0.00000000000E+00 -0.00000000000E+00 -0.45593999997E+02  0.45594000000E+02  0.51100000000E-03 0.  1.
         23    2    1    2    0    0 -0.35527136788E-14  0.17763568394E-14 -0.35527136788E-14  0.91188000000E+02  0.91188000000E+02 0.  0.
    9900012    2    3    3    0    0 -0.18999515344E+02  0.14665219134E+02 -0.27923627833E+02  0.54367092530E+02  0.40000019041E+02 0.  0.
         12    1    3    3    0    0  0.18999515344E+02 -0.14665219134E+02  0.27923627833E+02  0.36820907470E+02  0.00000000000E+00 0. -1.
         11    1    4    4    0    0  0.70486644346E+01  0.57335870983E+01 -0.20265267485E+02  0.22208979216E+02  0.51100000000E-03 0. -1.
        -11    1    4    4    0    0 -0.11779470806E+02 -0.20039673679E+01  0.13949708851E+01  0.12029869563E+02  0.51100000000E-03 0.  1.
        -12    1    4    4    0    0 -0.14268708973E+02  0.10935599404E+02 -0.90533312328E+01  0.20128243751E+02  0.00000000000E+00 0.  1.
</event>
<event>
 8    1  0.1229038E-006  0.9118800E+02  0.7816164E-02  0.1184000E+00
        -11   -1    0    0    0    0  0.00000000000E+00  0.00000000000E+00  0.45593999997E+02  0.45594000000E+02  0.51100000000E-03 0.  1.
         11   -1    0    0    0    0 -0.00000000000E+00 -0.00000000000E+00 -0.45593999997E+02  0.45594000000E+02  0.51100000000E-03 0. -1.
         23    2    1    2    0    0  0.00000000000E+00  0.13877787808E-14  0.14210854715E-13  0.91188000000E+02  0.91188000000E+02 0.  0.
    9900012    2    3    3    0    0 -0.67278568310E+01 -0.14110135065E+00 -0.36200800585E+02  0.54367055823E+02  0.39999935359E+02 0.  0.
        -12    1    3    3    0    0  0.67278568310E+01  0.14110135065E+00  0.36200800585E+02  0.36820944177E+02  0.00000000000E+00 0.  1.
         11    1    4    4    0    0 -0.11928157155E+01 -0.78626554220E+01  0.12131249594E+01  0.80446150961E+01  0.51100000000E-03 0. -1.
        -11    1    4    4    0    0 -0.81998484530E+01  0.77191906044E+01 -0.27978400213E+01  0.11603935853E+02  0.51100000000E-03 0.  1.
        -12    1    4    4    0    0  0.26648073375E+01  0.23634669648E-02 -0.34616085523E+02  0.34718504874E+02  0.00000000000E+00 0.  1.
</event>
<event>
 8    1  0.1229038E-006  0.9118800E+02  0.7816164E-02  0.1184000E+00
        -11   -1    0    0    0    0  0.00000000000E+00  0.00000000000E+00  0.45593999997E+02  0.45594000000E+02  0.51100000000E-03 0. -1.
         11   -1    0    0    0    0 -0.00000000000E+00 -0.00000000000E+00 -0.45593999997E+02  0.45594000000E+02  0.51100000000E-03 0.  1.
         23    2    1    2    0    0  0.88817841970E-15  0.00000000000E+00  0.17763568394E-14  0.91188000000E+02  0.91188000000E+02 0.  0.
    9900012    2    3    3    0    0  0.74379800153E+01  0.35685387399E+02 -0.51971269400E+01  0.54367074578E+02  0.39999978115E+02 0.  0.
         12    1    3    3    0    0 -0.74379800153E+01 -0.35685387399E+02  0.51971269400E+01  0.36820925422E+02  0.00000000000E+00 0. -1.
         11    1    4    4    0    0  0.90195261893E+01  0.28372790034E+02  0.82340837019E+01  0.30889596981E+02  0.51100000000E-03 0. -1.
        -11    1    4    4    0    0  0.17965670253E+01  0.11783184807E+02 -0.13318095605E+02  0.17872961928E+02  0.51100000000E-03 0.  1.
         12    1    4    4    0    0 -0.33781131993E+01 -0.44705874420E+01 -0.11311503663E+00  0.56045156682E+01  0.00000000000E+00 0. -1.
</event>
<event>
 8    1  0.1229038E-006  0.9118800E+02  0.7816164E-02  0.1184000E+00
        -11   -1    0    0    0    0  0.00000000000E+00  0.00000000000E+00  0.45593999997E+02  0.45594000000E+02  0.51100000000E-03 0.  1.
         11   -1    0    0    0    0 -0.00000000000E+00 -0.00000000000E+00 -0.45593999997E+02  0.45594000000E+02  0.51100000000E-03 0. -1.
         23    2    1    2    0    0  0.17763568394E-14  0.71054273576E-14  0.88817841970E-15  0.91188000000E+02  0.91188000000E+02 0.  0.
    9900012    2    3    3    0    0  0.13662351657E+02  0.33476380248E+02  0.69608113728E+01  0.54367071409E+02  0.39999970892E+02 0.  0.
        -12    1    3    3    0    0 -0.13662351657E+02 -0.33476380248E+02 -0.69608113728E+01  0.36820928591E+02  0.00000000000E+00 0.  1.
         11    1    4    4    0    0  0.54887451202E+01  0.25653239374E+02  0.13598836060E+02  0.29548999236E+02  0.51100000000E-03 0. -1.
        -11    1    4    4    0    0  0.82688455508E+01  0.10721388910E+02  0.37366132940E+01  0.14045791757E+02  0.51100000000E-03 0.  1.
        -12    1    4    4    0    0 -0.95239013982E-01 -0.28982480363E+01 -0.10374637981E+02  0.10772280417E+02  0.00000000000E+00 0.  1.
</event>
<event>
 8    1  0.1229038E-006  0.9118800E+02  0.7816164E-02  0.1184000E+00
        -11   -1    0    0    0    0  0.00000000000E+00  0.00000000000E+00  0.45593999997E+02  0.45594000000E+02  0.51100000000E-03 0. -1.
         11   -1    0    0    0    0 -0.00000000000E+00 -0.00000000000E+00 -0.45593999997E+02  0.45594000000E+02  0.51100000000E-03 0.  1.
         23    2    1    2    0    0  0.26645352591E-14  0.35527136788E-14  0.00000000000E+00  0.91188000000E+02  0.91188000000E+02 0.  0.
    9900012    2    3    3    0    0 -0.75844762975E+01  0.31632216911E+02  0.17252809923E+02  0.54367070114E+02  0.39999967940E+02 0.  0.
        -12    1    3    3    0    0  0.75844762975E+01 -0.31632216911E+02 -0.17252809923E+02  0.36820929886E+02  0.00000000000E+00 0.  1.
         11    1    4    4    0    0 -0.11655336664E+02  0.62854123938E+01  0.15030184107E+02  0.20031468150E+02  0.51100000000E-03 0. -1.
        -11    1    4    4    0    0 -0.87031897073E+01  0.56740235779E+01  0.31639036747E+01  0.10860494527E+02  0.51100000000E-03 0.  1.
         12    1    4    4    0    0  0.12774050074E+02  0.19672780939E+02 -0.94127785927E+00  0.23475107437E+02  0.00000000000E+00 0. -1.
</event>
<event>
 8    1  0.1229038E-006  0.9118800E+02  0.7816164E-02  0.1184000E+00
        -11   -1    0    0    0    0  0.00000000000E+00  0.00000000000E+00  0.45593999997E+02  0.45594000000E+02  0.51100000000E-03 0.  1.
         11   -1    0    0    0    0 -0.00000000000E+00 -0.00000000000E+00 -0.45593999997E+02  0.45594000000E+02  0.51100000000E-03 0. -1.
         23    2    1    2    0    0 -0.44408920985E-15  0.17763568394E-14  0.71054273576E-14  0.91188000000E+02  0.91188000000E+02 0.  0.
    9900012    2    3    3    0    0  0.24503444516E+01  0.70783570265E+01 -0.36051006236E+02  0.54367049758E+02  0.39999921532E+02 0.  0.
        -12    1    3    3    0    0 -0.24503444516E+01 -0.70783570265E+01  0.36051006236E+02  0.36820950242E+02  0.00000000000E+00 0.  1.
         11    1    4    4    0    0  0.21814919907E+00 -0.16387058618E+02 -0.13043053848E+02  0.20945274721E+02  0.51100000000E-03 0.  1.
        -11    1    4    4    0    0  0.20633181057E+00  0.15212595565E+02 -0.11283428715E+02  0.18941525822E+02  0.51100000000E-03 0. -1.
        -12    1    4    4    0    0  0.20258634419E+01  0.82528200793E+01 -0.11724523673E+02  0.14480249214E+02  0.00000000000E+00 0.  1.
</event>
<event>
 8    1  0.1229038E-006  0.9118800E+02  0.7816164E-02  0.1184000E+00
        -11   -1    0    0    0    0  0.00000000000E+00  0.00000000000E+00  0.45593999997E+02  0.45594000000E+02  0.51100000000E-03 0.  1.
         11   -1    0    0    0    0 -0.00000000000E+00 -0.00000000000E+00 -0.45593999997E+02  0.45594000000E+02  0.51100000000E-03 0. -1.
         23    2    1    2    0    0  0.00000000000E+00  0.00000000000E+00  0.00000000000E+00  0.91188000000E+02  0.91188000000E+02 0.  0.
    9900012    2    3    3    0    0 -0.86739718683E+01 -0.11449529728E+02 -0.33903541841E+02  0.54367086536E+02  0.40000005376E+02 0.  0.
        -12    1    3    3    0    0  0.86739718683E+01  0.11449529728E+02  0.33903541841E+02  0.36820913464E+02  0.00000000000E+00 0.  1.
         11    1    4    4    0    0 -0.11665295375E+02 -0.14667036323E+02 -0.28141737042E+02  0.33810626062E+02  0.51100000000E-03 0. -1.
        -11    1    4    4    0    0 -0.35596352215E+01 -0.58972830747E+01 -0.62778351677E+01  0.93198801080E+01  0.51100000000E-03 0.  1.
        -12    1    4    4    0    0  0.65509587278E+01  0.91147896697E+01  0.51603036886E+00  0.11236580366E+02  0.00000000000E+00 0.  1.
</event>
<event>
 8    1  0.1229038E-006  0.9118800E+02  0.7816164E-02  0.1184000E+00
        -11   -1    0    0    0    0  0.00000000000E+00  0.00000000000E+00  0.45593999997E+02  0.45594000000E+02  0.51100000000E-03 0. -1.
         11   -1    0    0    0    0 -0.00000000000E+00 -0.00000000000E+00 -0.45593999997E+02  0.45594000000E+02  0.51100000000E-03 0.  1.
         23    2    1    2    0    0  0.00000000000E+00 -0.35527136788E-14  0.00000000000E+00  0.91188000000E+02  0.91188000000E+02 0.  0.
    9900012    2    3    3    0    0 -0.21518846879E+02  0.21761120222E+02 -0.20473715073E+02  0.54367080223E+02  0.39999990985E+02 0.  0.
         12    1    3    3    0    0  0.21518846879E+02 -0.21761120222E+02  0.20473715073E+02  0.36820919777E+02  0.00000000000E+00 0. -1.
         11    1    4    4    0    0  0.15761469020E+01  0.21212346350E+02 -0.12693147882E+02  0.24770221641E+02  0.51100000000E-03 0. -1.
        -11    1    4    4    0    0 -0.14595905939E+02  0.64973794783E+01 -0.10186030849E+02  0.18947602354E+02  0.51100000000E-03 0.  1.
         12    1    4    4    0    0 -0.84990878418E+01 -0.59486056064E+01  0.24054636574E+01  0.10649256228E+02  0.00000000000E+00 0. -1.
</event>
<event>
 8    1  0.1229038E-006  0.9118800E+02  0.7816164E-02  0.1184000E+00
        -11   -1    0    0    0    0  0.00000000000E+00  0.00000000000E+00  0.45593999997E+02  0.45594000000E+02  0.51100000000E-03 0. -1.
         11   -1    0    0    0    0 -0.00000000000E+00 -0.00000000000E+00 -0.45593999997E+02  0.45594000000E+02  0.51100000000E-03 0.  1.
         23    2    1    2    0    0  0.00000000000E+00  0.00000000000E+00  0.35527136788E-14  0.91188000000E+02  0.91188000000E+02 0.  0.
    9900012    2    3    3    0    0  0.19415833398E+02 -0.24376550951E+02 -0.19610911559E+02  0.54367100025E+02  0.40000036127E+02 0.  0.
         12    1    3    3    0    0 -0.19415833398E+02  0.24376550951E+02  0.19610911559E+02  0.36820899975E+02  0.00000000000E+00 0. -1.
         11    1    4    4    0    0  0.48628439238E+01  0.63785491204E+01  0.61269380296E+01  0.10093191259E+02  0.51100000000E-03 0. -1.
        -11    1    4    4    0    0 -0.19675881599E+01 -0.48466316411E+01 -0.47229505193E+01  0.70475175274E+01  0.51100000000E-03 0.  1.
        -12    1    4    4    0    0  0.16520577634E+02 -0.25908468430E+02 -0.21014899069E+02  0.37226391239E+02  0.00000000000E+00 0.  1.
</event>
<event>
 8    1  0.1229038E-006  0.9118800E+02  0.7816164E-02  0.1184000E+00
        -11   -1    0    0    0    0  0.00000000000E+00  0.00000000000E+00  0.45593999997E+02  0.45594000000E+02  0.51100000000E-03 0. -1.
         11   -1    0    0    0    0 -0.00000000000E+00 -0.00000000000E+00 -0.45593999997E+02  0.45594000000E+02  0.51100000000E-03 0.  1.
         23    2    1    2    0    0  0.00000000000E+00 -0.22204460493E-14  0.00000000000E+00  0.91188000000E+02  0.91188000000E+02 0.  0.
    9900012    2    3    3    0    0 -0.34897701346E+02 -0.39761801966E+01  0.11050822982E+02  0.54367078545E+02  0.39999987160E+02 0.  0.
        -12    1    3    3    0    0  0.34897701346E+02  0.39761801966E+01 -0.11050822982E+02  0.36820921455E+02  0.00000000000E+00 0.  1.
         11    1    4    4    0    0 -0.16040436284E+02  0.15180940312E+02  0.13369603130E+02  0.25816716155E+02  0.51100000000E-03 0. -1.
        -11    1    4    4    0    0 -0.49938953759E+01 -0.54989482701E+01 -0.49292229924E+01  0.89148562901E+01  0.51100000000E-03 0.  1.
         12    1    4    4    0    0 -0.13863369686E+02 -0.13658172238E+02  0.26104428447E+01  0.19635506100E+02  0.00000000000E+00 0. -1.
</event>
<event>
 8    1  0.1229038E-006  0.9118800E+02  0.7816164E-02  0.1184000E+00
        -11   -1    0    0    0    0  0.00000000000E+00  0.00000000000E+00  0.45593999997E+02  0.45594000000E+02  0.51100000000E-03 0.  1.
         11   -1    0    0    0    0 -0.00000000000E+00 -0.00000000000E+00 -0.45593999997E+02  0.45594000000E+02  0.51100000000E-03 0. -1.
         23    2    1    2    0    0  0.17763568394E-14  0.00000000000E+00  0.00000000000E+00  0.91188000000E+02  0.91188000000E+02 0.  0.
    9900012    2    3    3    0    0  0.15511998172E+02  0.11701022151E+02  0.31276858618E+02  0.54367110662E+02  0.40000060375E+02 0.  0.
         12    1    3    3    0    0 -0.15511998172E+02 -0.11701022151E+02 -0.31276858618E+02  0.36820889338E+02  0.00000000000E+00 0. -1.
         11    1    4    4    0    0 -0.45852991261E+01 -0.87117267143E+01  0.21183470749E+02  0.23359336114E+02  0.51100000000E-03 0. -1.
        -11    1    4    4    0    0  0.86327605216E+01  0.56284508251E+01  0.14787046967E+01  0.10411079711E+02  0.51100000000E-03 0.  1.
         12    1    4    4    0    0  0.11464536777E+02  0.14784298040E+02  0.86146831720E+01  0.20596694837E+02  0.00000000000E+00 0. -1.
</event>
<event>
 8    1  0.1229038E-006  0.9118800E+02  0.7816164E-02  0.1184000E+00
        -11   -1    0    0    0    0  0.00000000000E+00  0.00000000000E+00  0.45593999997E+02  0.45594000000E+02  0.51100000000E-03 0. -1.
         11   -1    0    0    0    0 -0.00000000000E+00 -0.00000000000E+00 -0.45593999997E+02  0.45594000000E+02  0.51100000000E-03 0.  1.
         23    2    1    2    0    0  0.00000000000E+00  0.35527136788E-14  0.00000000000E+00  0.91188000000E+02  0.91188000000E+02 0.  0.
    9900012    2    3    3    0    0  0.17851159035E+02 -0.27448862517E+02 -0.16842678821E+02  0.54367085261E+02  0.40000002470E+02 0.  0.
         12    1    3    3    0    0 -0.17851159035E+02  0.27448862517E+02  0.16842678821E+02  0.36820914739E+02  0.00000000000E+00 0. -1.
         11    1    4    4    0    0  0.88889661822E+01 -0.22172721928E+02 -0.93199528290E+01  0.25641857157E+02  0.51100000000E-03 0. -1.
        -11    1    4    4    0    0  0.12050944751E+02 -0.98914622896E+01 -0.13458875409E+02  0.20596301201E+02  0.51100000000E-03 0.  1.
         12    1    4    4    0    0 -0.30887518985E+01  0.46153217008E+01  0.59361494171E+01  0.81289269030E+01  0.00000000000E+00 0. -1.
</event>
<event>
 8    1  0.1229038E-006  0.9118800E+02  0.7816164E-02  0.1184000E+00
        -11   -1    0    0    0    0  0.00000000000E+00  0.00000000000E+00  0.45593999997E+02  0.45594000000E+02  0.51100000000E-03 0. -1.
         11   -1    0    0    0    0 -0.00000000000E+00 -0.00000000000E+00 -0.45593999997E+02  0.45594000000E+02  0.51100000000E-03 0.  1.
         23    2    1    2    0    0 -0.35527136788E-14 -0.44408920985E-15 -0.71054273576E-14  0.91188000000E+02  0.91188000000E+02 0.  0.
    9900012    2    3    3    0    0  0.17481921554E+02 -0.20861841592E+01  0.32338992331E+02  0.54367079716E+02  0.39999989829E+02 0.  0.
        -12    1    3    3    0    0 -0.17481921554E+02  0.20861841592E+01 -0.32338992331E+02  0.36820920284E+02  0.00000000000E+00 0.  1.
         11    1    4    4    0    0  0.29182678774E+01  0.38238643038E+01 -0.40964918187E+01  0.63181857443E+01  0.51100000000E-03 0. -1.
        -11    1    4    4    0    0  0.13275819430E+02  0.90705610182E+01  0.16052087611E+02  0.22719858619E+02  0.51100000000E-03 0.  1.
         12    1    4    4    0    0  0.12878342470E+01 -0.14980609481E+02  0.20383396538E+02  0.25329035353E+02  0.00000000000E+00 0. -1.
</event>
<event>
 8    1  0.1229038E-006  0.9118800E+02  0.7816164E-02  0.1184000E+00
        -11   -1    0    0    0    0  0.00000000000E+00  0.00000000000E+00  0.45593999997E+02  0.45594000000E+02  0.51100000000E-03 0. -1.
         11   -1    0    0    0    0 -0.00000000000E+00 -0.00000000000E+00 -0.45593999997E+02  0.45594000000E+02  0.51100000000E-03 0.  1.
         23    2    1    2    0    0  0.35527136788E-14  0.00000000000E+00  0.00000000000E+00  0.91188000000E+02  0.91188000000E+02 0.  0.
    9900012    2    3    3    0    0 -0.23472508597E+02  0.16936358227E+02  0.22759179371E+02  0.54367093772E+02  0.40000021871E+02 0.  0.
        -12    1    3    3    0    0  0.23472508597E+02 -0.16936358227E+02 -0.22759179371E+02  0.36820906228E+02  0.00000000000E+00 0.  1.
         11    1    4    4    0    0 -0.94802776087E+00  0.97414767277E+01  0.14060466654E+02  0.17131603786E+02  0.51100000000E-03 0. -1.
        -11    1    4    4    0    0 -0.16431184670E+02  0.27174571427E+01  0.18476738310E+02  0.24874851996E+02  0.51100000000E-03 0.  1.
        -12    1    4    4    0    0 -0.60932961658E+01  0.44774243565E+01 -0.97780255928E+01  0.12360637990E+02  0.00000000000E+00 0.  1.
</event>
<event>
 8    1  0.1229038E-006  0.9118800E+02  0.7816164E-02  0.1184000E+00
        -11   -1    0    0    0    0  0.00000000000E+00  0.00000000000E+00  0.45593999997E+02  0.45594000000E+02  0.51100000000E-03 0.  1.
         11   -1    0    0    0    0 -0.00000000000E+00 -0.00000000000E+00 -0.45593999997E+02  0.45594000000E+02  0.51100000000E-03 0. -1.
         23    2    1    2    0    0  0.00000000000E+00  0.00000000000E+00  0.88817841970E-15  0.91188000000E+02  0.91188000000E+02 0.  0.
    9900012    2    3    3    0    0 -0.56142914401E+01  0.35610064471E+02  0.74955255777E+01  0.54367083883E+02  0.39999999327E+02 0.  0.
         12    1    3    3    0    0  0.56142914401E+01 -0.35610064471E+02 -0.74955255777E+01  0.36820916117E+02  0.00000000000E+00 0. -1.
         11    1    4    4    0    0 -0.35547930012E+01 -0.27742390648E+01 -0.51184802307E+01  0.68214218315E+01  0.51100000000E-03 0. -1.
        -11    1    4    4    0    0 -0.10241250995E+02  0.53638899887E+01  0.54474917549E+01  0.12780051034E+02  0.51100000000E-03 0.  1.
         12    1    4    4    0    0  0.81817525558E+01  0.33020413547E+02  0.71665140534E+01  0.34765611017E+02  0.00000000000E+00 0. -1.
</event>
<event>
 8    1  0.1229038E-006  0.9118800E+02  0.7816164E-02  0.1184000E+00
        -11   -1    0    0    0    0  0.00000000000E+00  0.00000000000E+00  0.45593999997E+02  0.45594000000E+02  0.51100000000E-03 0.  1.
         11   -1    0    0    0    0 -0.00000000000E+00 -0.00000000000E+00 -0.45593999997E+02  0.45594000000E+02  0.51100000000E-03 0. -1.
         23    2    1    2    0    0  0.00000000000E+00  0.35527136788E-14 -0.35527136788E-14  0.91188000000E+02  0.91188000000E+02 0.  0.
    9900012    2    3    3    0    0 -0.22771455710E+02 -0.25138009294E+02  0.14329027967E+02  0.54367085442E+02  0.40000002881E+02 0.  0.
         12    1    3    3    0    0  0.22771455710E+02  0.25138009294E+02 -0.14329027967E+02  0.36820914558E+02  0.00000000000E+00 0. -1.
         11    1    4    4    0    0  0.66766343132E+01 -0.52874122801E+00  0.35305179487E+01  0.75711009955E+01  0.51100000000E-03 0. -1.
        -11    1    4    4    0    0 -0.29594508557E+02 -0.20582748792E+02  0.84541483142E+00  0.36058275209E+02  0.51100000000E-03 0.  1.
        -12    1    4    4    0    0  0.14641853326E+00 -0.40265192737E+01  0.99530951872E+01  0.10737709237E+02  0.00000000000E+00 0.  1.
</event>
<event>
 8    1  0.1229038E-006  0.9118800E+02  0.7816164E-02  0.1184000E+00
        -11   -1    0    0    0    0  0.00000000000E+00  0.00000000000E+00  0.45593999997E+02  0.45594000000E+02  0.51100000000E-03 0. -1.
         11   -1    0    0    0    0 -0.00000000000E+00 -0.00000000000E+00 -0.45593999997E+02  0.45594000000E+02  0.51100000000E-03 0.  1.
         23    2    1    2    0    0  0.00000000000E+00  0.00000000000E+00  0.22204460493E-15  0.91188000000E+02  0.91188000000E+02 0.  0.
    9900012    2    3    3    0    0 -0.25898161912E+02  0.26161390138E+02  0.80386762901E+00  0.54367091164E+02  0.40000015926E+02 0.  0.
         12    1    3    3    0    0  0.25898161912E+02 -0.26161390138E+02 -0.80386762901E+00  0.36820908836E+02  0.00000000000E+00 0. -1.
         11    1    4    4    0    0 -0.12866920139E+02 -0.62017388430E+01 -0.65721997299E+01  0.15723008876E+02  0.51100000000E-03 0. -1.
        -11    1    4    4    0    0 -0.12339518810E+02  0.25303061608E+02 -0.35209022543E+00  0.28153731883E+02  0.51100000000E-03 0.  1.
         12    1    4    4    0    0 -0.69172296257E+00  0.70600673732E+01  0.77281575843E+01  0.10490350405E+02  0.00000000000E+00 0. -1.
</event>
<event>
 8    1  0.1229038E-006  0.9118800E+02  0.7816164E-02  0.1184000E+00
        -11   -1    0    0    0    0  0.00000000000E+00  0.00000000000E+00  0.45593999997E+02  0.45594000000E+02  0.51100000000E-03 0.  1.
         11   -1    0    0    0    0 -0.00000000000E+00 -0.00000000000E+00 -0.45593999997E+02  0.45594000000E+02  0.51100000000E-03 0. -1.
         23    2    1    2    0    0  0.00000000000E+00  0.17763568394E-14  0.00000000000E+00  0.91188000000E+02  0.91188000000E+02 0.  0.
    9900012    2    3    3    0    0  0.14432738002E+02  0.11396540265E+02  0.31899758306E+02  0.54367086972E+02  0.40000006370E+02 0.  0.
         12    1    3    3    0    0 -0.14432738002E+02 -0.11396540265E+02 -0.31899758306E+02  0.36820913028E+02  0.00000000000E+00 0. -1.
         11    1    4    4    0    0  0.12172249819E+02  0.11444508122E+02  0.73513857393E+01  0.18253309408E+02  0.51100000000E-03 0. -1.
        -11    1    4    4    0    0  0.50845199124E+01 -0.12087936170E+02  0.76777851096E+01  0.15196016848E+02  0.51100000000E-03 0.  1.
         12    1    4    4    0    0 -0.28240317292E+01  0.12039968314E+02  0.16870587457E+02  0.20917760715E+02  0.00000000000E+00 0. -1.
</event>
<event>
 8    1  0.1229038E-006  0.9118800E+02  0.7816164E-02  0.1184000E+00
        -11   -1    0    0    0    0  0.00000000000E+00  0.00000000000E+00  0.45593999997E+02  0.45594000000E+02  0.51100000000E-03 0. -1.
         11   -1    0    0    0    0 -0.00000000000E+00 -0.00000000000E+00 -0.45593999997E+02  0.45594000000E+02  0.51100000000E-03 0.  1.
         23    2    1    2    0    0  0.00000000000E+00  0.17763568394E-14  0.00000000000E+00  0.91188000000E+02  0.91188000000E+02 0.  0.
    9900012    2    3    3    0    0 -0.33385291935E+02 -0.13172058682E+02 -0.82279446771E+01  0.54367083104E+02  0.39999997551E+02 0.  0.
         12    1    3    3    0    0  0.33385291935E+02  0.13172058682E+02  0.82279446771E+01  0.36820916896E+02  0.00000000000E+00 0. -1.
         11    1    4    4    0    0 -0.87613786674E+01 -0.45508905490E+00 -0.47731581125E+01  0.99875873378E+01  0.51100000000E-03 0.  1.
        -11    1    4    4    0    0  0.22564456699E+01 -0.37370822595E+01  0.11524594933E+02  0.12323701535E+02  0.51100000000E-03 0. -1.
         12    1    4    4    0    0 -0.26880358937E+02 -0.89798873679E+01 -0.14979381498E+02  0.32055794231E+02  0.00000000000E+00 0. -1.
</event>
<event>
 8    1  0.1229038E-006  0.9118800E+02  0.7816164E-02  0.1184000E+00
        -11   -1    0    0    0    0  0.00000000000E+00  0.00000000000E+00  0.45593999997E+02  0.45594000000E+02  0.51100000000E-03 0.  1.
         11   -1    0    0    0    0 -0.00000000000E+00 -0.00000000000E+00 -0.45593999997E+02  0.45594000000E+02  0.51100000000E-03 0. -1.
         23    2    1    2    0    0  0.00000000000E+00  0.00000000000E+00  0.00000000000E+00  0.91188000000E+02  0.91188000000E+02 0.  0.
    9900012    2    3    3    0    0 -0.25827320447E+02  0.86632153358E+01 -0.24772549508E+02  0.54367068581E+02  0.39999964444E+02 0.  0.
        -12    1    3    3    0    0  0.25827320447E+02 -0.86632153358E+01  0.24772549508E+02  0.36820931419E+02  0.00000000000E+00 0.  1.
         11    1    4    4    0    0 -0.91655686408E+01  0.14808877508E+02 -0.10757828742E+02  0.20470500264E+02  0.51100000000E-03 0. -1.
        -11    1    4    4    0    0 -0.35897748893E+01 -0.10382657294E+02 -0.16607912570E+02  0.19912529133E+02  0.51100000000E-03 0.  1.
         12    1    4    4    0    0 -0.13071976917E+02  0.42369951223E+01  0.25931918044E+01  0.13984039185E+02  0.00000000000E+00 0. -1.
</event>
<event>
 8    1  0.1229038E-006  0.9118800E+02  0.7816164E-02  0.1184000E+00
        -11   -1    0    0    0    0  0.00000000000E+00  0.00000000000E+00  0.45593999997E+02  0.45594000000E+02  0.51100000000E-03 0. -1.
         11   -1    0    0    0    0 -0.00000000000E+00 -0.00000000000E+00 -0.45593999997E+02  0.45594000000E+02  0.51100000000E-03 0.  1.
         23    2    1    2    0    0  0.00000000000E+00 -0.11102230246E-14  0.35527136788E-14  0.91188000000E+02  0.91188000000E+02 0.  0.
    9900012    2    3    3    0    0  0.31587613894E+02  0.62848758433E+00  0.18910374843E+02  0.54367155022E+02  0.40000161504E+02 0.  0.
        -12    1    3    3    0    0 -0.31587613894E+02 -0.62848758433E+00 -0.18910374843E+02  0.36820844978E+02  0.00000000000E+00 0.  1.
         11    1    4    4    0    0  0.13454344735E+02 -0.76590529316E+00  0.52665213223E-01  0.13476230076E+02  0.51100000000E-03 0. -1.
        -11    1    4    4    0    0  0.19860312380E+02 -0.66021572388E+01  0.66052675806E+00  0.20939359682E+02  0.51100000000E-03 0.  1.
        -12    1    4    4    0    0 -0.17270432210E+01  0.79965501163E+01  0.18197182871E+02  0.19951565265E+02  0.00000000000E+00 0.  1.
</event>
<event>
 8    1  0.1229038E-006  0.9118800E+02  0.7816164E-02  0.1184000E+00
        -11   -1    0    0    0    0  0.00000000000E+00  0.00000000000E+00  0.45593999997E+02  0.45594000000E+02  0.51100000000E-03 0.  1.
         11   -1    0    0    0    0 -0.00000000000E+00 -0.00000000000E+00 -0.45593999997E+02  0.45594000000E+02  0.51100000000E-03 0. -1.
         23    2    1    2    0    0  0.00000000000E+00 -0.88817841970E-15  0.00000000000E+00  0.91188000000E+02  0.91188000000E+02 0.  0.
    9900012    2    3    3    0    0  0.30763209697E+02  0.35769228367E+01 -0.19915038138E+02  0.54367106585E+02  0.40000051081E+02 0.  0.
        -12    1    3    3    0    0 -0.30763209697E+02 -0.35769228367E+01  0.19915038138E+02  0.36820893415E+02  0.00000000000E+00 0.  1.
         11    1    4    4    0    0  0.17713157605E+02  0.68213238119E+01 -0.21013345993E+02  0.28316905215E+02  0.51100000000E-03 0. -1.
        -11    1    4    4    0    0  0.15168696710E+02 -0.96599466656E+01 -0.28755300422E+01  0.18211880813E+02  0.51100000000E-03 0.  1.
         12    1    4    4    0    0 -0.21186446170E+01  0.64155456904E+01  0.39738378976E+01  0.78383205570E+01  0.00000000000E+00 0. -1.
</event>
<event>
 8    1  0.1229038E-006  0.9118800E+02  0.7816164E-02  0.1184000E+00
        -11   -1    0    0    0    0  0.00000000000E+00  0.00000000000E+00  0.45593999997E+02  0.45594000000E+02  0.51100000000E-03 0. -1.
         11   -1    0    0    0    0 -0.00000000000E+00 -0.00000000000E+00 -0.45593999997E+02  0.45594000000E+02  0.51100000000E-03 0.  1.
         23    2    1    2    0    0  0.00000000000E+00  0.00000000000E+00 -0.35527136788E-14  0.91188000000E+02  0.91188000000E+02 0.  0.
    9900012    2    3    3    0    0 -0.56146587366E+01  0.18386432918E+02 -0.31403727269E+02  0.54367090254E+02  0.40000013852E+02 0.  0.
         12    1    3    3    0    0  0.56146587366E+01 -0.18386432918E+02  0.31403727269E+02  0.36820909746E+02  0.00000000000E+00 0. -1.
         11    1    4    4    0    0 -0.39923402565E+01  0.14240684288E+02 -0.24903203351E+01  0.14997918700E+02  0.51100000000E-03 0. -1.
        -11    1    4    4    0    0 -0.23484902639E+00  0.13201477166E+02 -0.26934192135E+02  0.29996414114E+02  0.51100000000E-03 0.  1.
         12    1    4    4    0    0 -0.13874694537E+01 -0.90557285363E+01 -0.19792147983E+01  0.93727574398E+01  0.00000000000E+00 0. -1.
</event>
<event>
 8    1  0.1229038E-006  0.9118800E+02  0.7816164E-02  0.1184000E+00
        -11   -1    0    0    0    0  0.00000000000E+00  0.00000000000E+00  0.45593999997E+02  0.45594000000E+02  0.51100000000E-03 0. -1.
         11   -1    0    0    0    0 -0.00000000000E+00 -0.00000000000E+00 -0.45593999997E+02  0.45594000000E+02  0.51100000000E-03 0.  1.
         23    2    1    2    0    0  0.35527136788E-14  0.00000000000E+00  0.35527136788E-14  0.91188000000E+02  0.91188000000E+02 0.  0.
    9900012    2    3    3    0    0  0.22167369037E+02  0.16001746607E+02  0.24664354716E+02  0.54367101885E+02  0.40000040366E+02 0.  0.
        -12    1    3    3    0    0 -0.22167369037E+02 -0.16001746607E+02 -0.24664354716E+02  0.36820898115E+02  0.00000000000E+00 0.  1.
         11    1    4    4    0    0  0.79819799446E+01  0.65363774950E+01  0.65710053916E+01  0.12231694352E+02  0.51100000000E-03 0. -1.
        -11    1    4    4    0    0  0.94020276164E+01  0.17280400014E+02 -0.22724027377E+01  0.19803387650E+02  0.51100000000E-03 0.  1.
         12    1    4    4    0    0  0.47833614762E+01 -0.78150309024E+01  0.20365752062E+02  0.22332019883E+02  0.00000000000E+00 0. -1.
</event>
<event>
 8    1  0.1229038E-006  0.9118800E+02  0.7816164E-02  0.1184000E+00
        -11   -1    0    0    0    0  0.00000000000E+00  0.00000000000E+00  0.45593999997E+02  0.45594000000E+02  0.51100000000E-03 0.  1.
         11   -1    0    0    0    0 -0.00000000000E+00 -0.00000000000E+00 -0.45593999997E+02  0.45594000000E+02  0.51100000000E-03 0. -1.
         23    2    1    2    0    0 -0.35527136788E-14  0.00000000000E+00  0.00000000000E+00  0.91188000000E+02  0.91188000000E+02 0.  0.
    9900012    2    3    3    0    0  0.22177530001E+02  0.24110335949E+02 -0.16811609607E+02  0.54367063644E+02  0.39999953189E+02 0.  0.
        -12    1    3    3    0    0 -0.22177530001E+02 -0.24110335949E+02  0.16811609607E+02  0.36820936356E+02  0.00000000000E+00 0.  1.
         11    1    4    4    0    0  0.24086007047E+00  0.15228334576E+02  0.11387458232E+01  0.15272751221E+02  0.51100000000E-03 0. -1.
        -11    1    4    4    0    0  0.22268914336E+02  0.14974869890E+02 -0.90845731495E+01  0.28331620912E+02  0.51100000000E-03 0.  1.
        -12    1    4    4    0    0 -0.33224440548E+00 -0.60928685168E+01 -0.88657822811E+01  0.10762691511E+02  0.00000000000E+00 0.  1.
</event>
<event>
 8    1  0.1229038E-006  0.9118800E+02  0.7816164E-02  0.1184000E+00
        -11   -1    0    0    0    0  0.00000000000E+00  0.00000000000E+00  0.45593999997E+02  0.45594000000E+02  0.51100000000E-03 0.  1.
         11   -1    0    0    0    0 -0.00000000000E+00 -0.00000000000E+00 -0.45593999997E+02  0.45594000000E+02  0.51100000000E-03 0. -1.
         23    2    1    2    0    0 -0.35527136788E-14  0.17763568394E-14  0.00000000000E+00  0.91188000000E+02  0.91188000000E+02 0.  0.
    9900012    2    3    3    0    0 -0.16733315053E+02  0.15159254963E+02 -0.29085619485E+02  0.54367080612E+02  0.39999991872E+02 0.  0.
        -12    1    3    3    0    0  0.16733315053E+02 -0.15159254963E+02  0.29085619485E+02  0.36820919388E+02  0.00000000000E+00 0.  1.
         11    1    4    4    0    0 -0.11170563847E+02  0.15605414476E+02 -0.34218646659E+02  0.39232973850E+02  0.51100000000E-03 0. -1.
        -11    1    4    4    0    0 -0.10666462383E+01  0.42198872339E+01 -0.25805409557E+01  0.50600765162E+01  0.51100000000E-03 0.  1.
        -12    1    4    4    0    0 -0.44961049676E+01 -0.46660467467E+01  0.77135681293E+01  0.10074030247E+02  0.00000000000E+00 0.  1.
</event>
<event>
 8    1  0.1229038E-006  0.9118800E+02  0.7816164E-02  0.1184000E+00
        -11   -1    0    0    0    0  0.00000000000E+00  0.00000000000E+00  0.45593999997E+02  0.45594000000E+02  0.51100000000E-03 0. -1.
         11   -1    0    0    0    0 -0.00000000000E+00 -0.00000000000E+00 -0.45593999997E+02  0.45594000000E+02  0.51100000000E-03 0.  1.
         23    2    1    2    0    0 -0.35527136788E-14  0.00000000000E+00  0.00000000000E+00  0.91188000000E+02  0.91188000000E+02 0.  0.
    9900012    2    3    3    0    0 -0.30248611961E+02 -0.20574973957E+02  0.41803022331E+01  0.54367041218E+02  0.39999902064E+02 0.  0.
        -12    1    3    3    0    0  0.30248611961E+02  0.20574973957E+02 -0.41803022331E+01  0.36820958782E+02  0.00000000000E+00 0.  1.
         11    1    4    4    0    0  0.34429608534E+01  0.66040902015E+01 -0.22464613023E+01  0.77791114835E+01  0.51100000000E-03 0.  1.
        -11    1    4    4    0    0 -0.58287932079E+01 -0.29746185511E+01  0.71241272257E+01  0.96734882423E+01  0.51100000000E-03 0. -1.
        -12    1    4    4    0    0 -0.27862779606E+02 -0.24204445607E+02 -0.69736369031E+00  0.36914441492E+02  0.00000000000E+00 0.  1.
</event>
<event>
 8    1  0.1229038E-006  0.9118800E+02  0.7816164E-02  0.1184000E+00
        -11   -1    0    0    0    0  0.00000000000E+00  0.00000000000E+00  0.45593999997E+02  0.45594000000E+02  0.51100000000E-03 0.  1.
         11   -1    0    0    0    0 -0.00000000000E+00 -0.00000000000E+00 -0.45593999997E+02  0.45594000000E+02  0.51100000000E-03 0. -1.
         23    2    1    2    0    0  0.00000000000E+00  0.53290705182E-14 -0.71054273576E-14  0.91188000000E+02  0.91188000000E+02 0.  0.
    9900012    2    3    3    0    0  0.29309692063E+02 -0.14916245504E+02  0.16559829736E+02  0.54367076741E+02  0.39999983047E+02 0.  0.
         12    1    3    3    0    0 -0.29309692063E+02  0.14916245504E+02 -0.16559829736E+02  0.36820923259E+02  0.00000000000E+00 0. -1.
         11    1    4    4    0    0  0.24331682283E+02 -0.14499157056E+02 -0.28578251610E+01  0.28467937807E+02  0.51100000000E-03 0. -1.
        -11    1    4    4    0    0 -0.35256796218E+01 -0.22250471880E+01 -0.46883556725E+00  0.41953615857E+01  0.51100000000E-03 0.  1.
        -12    1    4    4    0    0  0.85036894014E+01  0.18079587402E+01  0.19886490464E+02  0.21703777349E+02  0.00000000000E+00 0.  1.
</event>
<event>
 8    1  0.1229038E-006  0.9118800E+02  0.7816164E-02  0.1184000E+00
        -11   -1    0    0    0    0  0.00000000000E+00  0.00000000000E+00  0.45593999997E+02  0.45594000000E+02  0.51100000000E-03 0.  1.
         11   -1    0    0    0    0 -0.00000000000E+00 -0.00000000000E+00 -0.45593999997E+02  0.45594000000E+02  0.51100000000E-03 0. -1.
         23    2    1    2    0    0 -0.35527136788E-14 -0.35527136788E-14  0.00000000000E+00  0.91188000000E+02  0.91188000000E+02 0.  0.
    9900012    2    3    3    0    0  0.25617708952E+02  0.15344200398E+02 -0.21542248581E+02  0.54367082416E+02  0.39999995984E+02 0.  0.
         12    1    3    3    0    0 -0.25617708952E+02 -0.15344200398E+02  0.21542248581E+02  0.36820917584E+02  0.00000000000E+00 0. -1.
         11    1    4    4    0    0  0.12489005498E+02  0.14157949369E+01  0.36102342302E+01  0.13077213965E+02  0.51100000000E-03 0.  1.
        -11    1    4    4    0    0 -0.48236865307E+01  0.11736252254E+02 -0.17584382664E+02  0.21684512507E+02  0.51100000000E-03 0. -1.
        -12    1    4    4    0    0  0.17952389984E+02  0.21921532068E+01 -0.75681001472E+01  0.19605355944E+02  0.00000000000E+00 0.  1.
</event>
<event>
 8    1  0.1229038E-006  0.9118800E+02  0.7816164E-02  0.1184000E+00
        -11   -1    0    0    0    0  0.00000000000E+00  0.00000000000E+00  0.45593999997E+02  0.45594000000E+02  0.51100000000E-03 0. -1.
         11   -1    0    0    0    0 -0.00000000000E+00 -0.00000000000E+00 -0.45593999997E+02  0.45594000000E+02  0.51100000000E-03 0.  1.
         23    2    1    2    0    0 -0.71054273576E-14  0.00000000000E+00  0.00000000000E+00  0.91188000000E+02  0.91188000000E+02 0.  0.
    9900012    2    3    3    0    0  0.24479230087E+02 -0.27202347307E+02 -0.40722633441E+01  0.54367031335E+02  0.39999879535E+02 0.  0.
         12    1    3    3    0    0 -0.24479230087E+02  0.27202347307E+02  0.40722633441E+01  0.36820968665E+02  0.00000000000E+00 0. -1.
         11    1    4    4    0    0 -0.26251195588E+01  0.27043268326E+00 -0.53019011236E+01  0.59223764082E+01  0.51100000000E-03 0. -1.
        -11    1    4    4    0    0  0.12911331200E+01 -0.13766620589E+02 -0.10074898902E+02  0.17108198482E+02  0.51100000000E-03 0.  1.
         12    1    4    4    0    0  0.25813216525E+02 -0.13706159402E+02  0.11304536682E+02  0.31336456445E+02  0.00000000000E+00 0. -1.
</event>
<event>
 8    1  0.1229038E-006  0.9118800E+02  0.7816164E-02  0.1184000E+00
        -11   -1    0    0    0    0  0.00000000000E+00  0.00000000000E+00  0.45593999997E+02  0.45594000000E+02  0.51100000000E-03 0.  1.
         11   -1    0    0    0    0 -0.00000000000E+00 -0.00000000000E+00 -0.45593999997E+02  0.45594000000E+02  0.51100000000E-03 0. -1.
         23    2    1    2    0    0  0.00000000000E+00  0.00000000000E+00  0.00000000000E+00  0.91188000000E+02  0.91188000000E+02 0.  0.
    9900012    2    3    3    0    0 -0.68569088716E+01 -0.36042547661E+02  0.31141897089E+01  0.54367073631E+02  0.39999975956E+02 0.  0.
         12    1    3    3    0    0  0.68569088716E+01  0.36042547661E+02 -0.31141897089E+01  0.36820926369E+02  0.00000000000E+00 0. -1.
         11    1    4    4    0    0  0.95323080238E+00 -0.74973681117E+01 -0.28664117982E+01  0.80830374503E+01  0.51100000000E-03 0.  1.
        -11    1    4    4    0    0  0.65267121917E+01 -0.30704363869E+02  0.44693535865E+01  0.31706955930E+02  0.51100000000E-03 0. -1.
         12    1    4    4    0    0 -0.14336851866E+02  0.21591843199E+01  0.15112479206E+01  0.14577080250E+02  0.00000000000E+00 0. -1.
</event>
<event>
 8    1  0.1229038E-006  0.9118800E+02  0.7816164E-02  0.1184000E+00
        -11   -1    0    0    0    0  0.00000000000E+00  0.00000000000E+00  0.45593999997E+02  0.45594000000E+02  0.51100000000E-03 0.  1.
         11   -1    0    0    0    0 -0.00000000000E+00 -0.00000000000E+00 -0.45593999997E+02  0.45594000000E+02  0.51100000000E-03 0. -1.
         23    2    1    2    0    0  0.71054273576E-14 -0.88817841970E-15 -0.35527136788E-14  0.91188000000E+02  0.91188000000E+02 0.  0.
    9900012    2    3    3    0    0  0.34356206961E+02 -0.52133865438E+01 -0.12176029774E+02  0.54367026940E+02  0.39999869515E+02 0.  0.
        -12    1    3    3    0    0 -0.34356206961E+02  0.52133865438E+01  0.12176029774E+02  0.36820973060E+02  0.00000000000E+00 0.  1.
         11    1    4    4    0    0  0.12051930101E+02  0.73519229786E+01 -0.53689693744E+01  0.15103828093E+02  0.51100000000E-03 0. -1.
        -11    1    4    4    0    0  0.99630020161E+01 -0.51284147253E+01  0.11439623938E+02  0.16013339529E+02  0.51100000000E-03 0.  1.
        -12    1    4    4    0    0  0.12341274844E+02 -0.74368947971E+01 -0.18246684338E+02  0.23249859318E+02  0.00000000000E+00 0.  1.
</event>
<event>
 8    1  0.1229038E-006  0.9118800E+02  0.7816164E-02  0.1184000E+00
        -11   -1    0    0    0    0  0.00000000000E+00  0.00000000000E+00  0.45593999997E+02  0.45594000000E+02  0.51100000000E-03 0.  1.
         11   -1    0    0    0    0 -0.00000000000E+00 -0.00000000000E+00 -0.45593999997E+02  0.45594000000E+02  0.51100000000E-03 0. -1.
         23    2    1    2    0    0  0.00000000000E+00 -0.22204460493E-15  0.17763568394E-14  0.91188000000E+02  0.91188000000E+02 0.  0.
    9900012    2    3    3    0    0 -0.33964283457E+02 -0.19977497642E+01  0.14078934306E+02  0.54367082765E+02  0.39999996779E+02 0.  0.
         12    1    3    3    0    0  0.33964283457E+02  0.19977497642E+01 -0.14078934306E+02  0.36820917235E+02  0.00000000000E+00 0. -1.
         11    1    4    4    0    0 -0.10378396203E+02  0.67456266378E+00 -0.25946404099E+01  0.10719062536E+02  0.51100000000E-03 0. -1.
        -11    1    4    4    0    0 -0.18579856725E+02 -0.14413248781E+02  0.11390585787E+01  0.23542520491E+02  0.51100000000E-03 0.  1.
         12    1    4    4    0    0 -0.50060305291E+01  0.11740936353E+02  0.15534516137E+02  0.20105499738E+02  0.00000000000E+00 0. -1.
</event>
<event>
 8    1  0.1229038E-006  0.9118800E+02  0.7816164E-02  0.1184000E+00
        -11   -1    0    0    0    0  0.00000000000E+00  0.00000000000E+00  0.45593999997E+02  0.45594000000E+02  0.51100000000E-03 0.  1.
         11   -1    0    0    0    0 -0.00000000000E+00 -0.00000000000E+00 -0.45593999997E+02  0.45594000000E+02  0.51100000000E-03 0. -1.
         23    2    1    2    0    0  0.00000000000E+00  0.00000000000E+00 -0.35527136788E-14  0.91188000000E+02  0.91188000000E+02 0.  0.
    9900012    2    3    3    0    0  0.23571831908E+02  0.19728058715E+02  0.20271980231E+02  0.54367071947E+02  0.39999972118E+02 0.  0.
         12    1    3    3    0    0 -0.23571831908E+02 -0.19728058715E+02 -0.20271980231E+02  0.36820928053E+02  0.00000000000E+00 0. -1.
         11    1    4    4    0    0 -0.54736142207E+00 -0.45338415781E+01  0.24002607292E+01  0.51591254889E+01  0.51100000000E-03 0. -1.
        -11    1    4    4    0    0  0.14695066483E+02  0.20456773370E+02 -0.36082321600E+01  0.25444918849E+02  0.51100000000E-03 0.  1.
        -12    1    4    4    0    0  0.94241268471E+01  0.38051269229E+01  0.21479951662E+02  0.23763027609E+02  0.00000000000E+00 0.  1.
</event>
<event>
 8    1  0.1229038E-006  0.9118800E+02  0.7816164E-02  0.1184000E+00
        -11   -1    0    0    0    0  0.00000000000E+00  0.00000000000E+00  0.45593999997E+02  0.45594000000E+02  0.51100000000E-03 0. -1.
         11   -1    0    0    0    0 -0.00000000000E+00 -0.00000000000E+00 -0.45593999997E+02  0.45594000000E+02  0.51100000000E-03 0.  1.
         23    2    1    2    0    0 -0.35527136788E-14  0.35527136788E-14  0.44408920985E-15  0.91188000000E+02  0.91188000000E+02 0.  0.
    9900012    2    3    3    0    0  0.22017925998E+02  0.29301883698E+02  0.35201332435E+01  0.54367071284E+02  0.39999970605E+02 0.  0.
        -12    1    3    3    0    0 -0.22017925998E+02 -0.29301883698E+02 -0.35201332435E+01  0.36820928716E+02  0.00000000000E+00 0.  1.
         11    1    4    4    0    0 -0.14090714947E+01  0.18378476676E+02  0.36470204446E+01  0.18789748423E+02  0.51100000000E-03 0. -1.
        -11    1    4    4    0    0  0.24356994225E+02  0.47876082657E+01 -0.75083242354E+01  0.25933748161E+02  0.51100000000E-03 0.  1.
        -12    1    4    4    0    0 -0.92999673297E+00  0.61357987562E+01  0.73814370343E+01  0.96435746999E+01  0.00000000000E+00 0.  1.
</event>
<event>
 8    1  0.1229038E-006  0.9118800E+02  0.7816164E-02  0.1184000E+00
        -11   -1    0    0    0    0  0.00000000000E+00  0.00000000000E+00  0.45593999997E+02  0.45594000000E+02  0.51100000000E-03 0. -1.
         11   -1    0    0    0    0 -0.00000000000E+00 -0.00000000000E+00 -0.45593999997E+02  0.45594000000E+02  0.51100000000E-03 0.  1.
         23    2    1    2    0    0  0.00000000000E+00  0.00000000000E+00 -0.88817841970E-15  0.91188000000E+02  0.91188000000E+02 0.  0.
    9900012    2    3    3    0    0 -0.35499194209E+02  0.86137600705E+01 -0.46253521939E+01  0.54367034030E+02  0.39999885677E+02 0.  0.
         12    1    3    3    0    0  0.35499194209E+02 -0.86137600705E+01  0.46253521939E+01  0.36820965970E+02  0.00000000000E+00 0. -1.
         11    1    4    4    0    0 -0.16893359739E+02  0.78331225672E+00 -0.41601806457E+01  0.17415690760E+02  0.51100000000E-03 0. -1.
        -11    1    4    4    0    0 -0.17293399268E+02 -0.26621299692E+01 -0.12066180749E+02  0.21254206933E+02  0.51100000000E-03 0.  1.
         12    1    4    4    0    0 -0.13124352018E+01  0.10492577783E+02  0.11601009201E+02  0.15697136337E+02  0.00000000000E+00 0. -1.
</event>
<event>
 8    1  0.1229038E-006  0.9118800E+02  0.7816164E-02  0.1184000E+00
        -11   -1    0    0    0    0  0.00000000000E+00  0.00000000000E+00  0.45593999997E+02  0.45594000000E+02  0.51100000000E-03 0.  1.
         11   -1    0    0    0    0 -0.00000000000E+00 -0.00000000000E+00 -0.45593999997E+02  0.45594000000E+02  0.51100000000E-03 0. -1.
         23    2    1    2    0    0 -0.11102230246E-15  0.00000000000E+00  0.35527136788E-14  0.91188000000E+02  0.91188000000E+02 0.  0.
    9900012    2    3    3    0    0 -0.74092902966E+00 -0.19098208933E+02  0.31472022467E+02  0.54367098892E+02  0.40000033544E+02 0.  0.
         12    1    3    3    0    0  0.74092902966E+00  0.19098208933E+02 -0.31472022467E+02  0.36820901108E+02  0.00000000000E+00 0. -1.
         11    1    4    4    0    0 -0.88512288417E+01 -0.10597489663E+02  0.15720764137E+02  0.20923514630E+02  0.51100000000E-03 0. -1.
        -11    1    4    4    0    0 -0.47111523295E+01 -0.13452477054E+02  0.27343582832E+01  0.14513469973E+02  0.51100000000E-03 0.  1.
         12    1    4    4    0    0  0.12821452142E+02  0.49517577843E+01  0.13016900046E+02  0.18930114289E+02  0.00000000000E+00 0. -1.
</event>
<event>
 8    1  0.1229038E-006  0.9118800E+02  0.7816164E-02  0.1184000E+00
        -11   -1    0    0    0    0  0.00000000000E+00  0.00000000000E+00  0.45593999997E+02  0.45594000000E+02  0.51100000000E-03 0. -1.
         11   -1    0    0    0    0 -0.00000000000E+00 -0.00000000000E+00 -0.45593999997E+02  0.45594000000E+02  0.51100000000E-03 0.  1.
         23    2    1    2    0    0  0.44408920985E-15  0.00000000000E+00  0.00000000000E+00  0.91188000000E+02  0.91188000000E+02 0.  0.
    9900012    2    3    3    0    0 -0.18152187477E+01 -0.29769304089E+02 -0.21593343515E+02  0.54367096030E+02  0.40000027019E+02 0.  0.
         12    1    3    3    0    0  0.18152187477E+01  0.29769304089E+02  0.21593343515E+02  0.36820903970E+02  0.00000000000E+00 0. -1.
         11    1    4    4    0    0  0.10100305284E+02  0.12636194827E+00 -0.17280687387E+01  0.10247846408E+02  0.51100000000E-03 0. -1.
        -11    1    4    4    0    0 -0.66165354892E+01  0.18201081457E+00 -0.10061351742E+02  0.12043357877E+02  0.51100000000E-03 0.  1.
        -12    1    4    4    0    0 -0.52989885425E+01 -0.30077676851E+02 -0.98039230346E+01  0.32075891745E+02  0.00000000000E+00 0.  1.
</event>
<event>
 8    1  0.1229038E-006  0.9118800E+02  0.7816164E-02  0.1184000E+00
        -11   -1    0    0    0    0  0.00000000000E+00  0.00000000000E+00  0.45593999997E+02  0.45594000000E+02  0.51100000000E-03 0.  1.
         11   -1    0    0    0    0 -0.00000000000E+00 -0.00000000000E+00 -0.45593999997E+02  0.45594000000E+02  0.51100000000E-03 0. -1.
         23    2    1    2    0    0  0.00000000000E+00  0.35527136788E-14 -0.35527136788E-14  0.91188000000E+02  0.91188000000E+02 0.  0.
    9900012    2    3    3    0    0 -0.99114588028E+01  0.22163813122E+02 -0.27682274301E+02  0.54367082871E+02  0.39999997022E+02 0.  0.
        -12    1    3    3    0    0  0.99114588028E+01 -0.22163813122E+02  0.27682274301E+02  0.36820917129E+02  0.00000000000E+00 0.  1.
         11    1    4    4    0    0 -0.72424895875E+01  0.28146741898E+01 -0.28900457211E+02  0.29926785218E+02  0.51100000000E-03 0. -1.
        -11    1    4    4    0    0  0.54213240687E+01  0.97846134319E+01  0.34705454620E+01  0.11712134764E+02  0.51100000000E-03 0.  1.
        -12    1    4    4    0    0 -0.80902932840E+01  0.95645255006E+01 -0.22523625520E+01  0.12728162889E+02  0.00000000000E+00 0.  1.
</event>
<event>
 8    1  0.1229038E-006  0.9118800E+02  0.7816164E-02  0.1184000E+00
        -11   -1    0    0    0    0  0.00000000000E+00  0.00000000000E+00  0.45593999997E+02  0.45594000000E+02  0.51100000000E-03 0. -1.
         11   -1    0    0    0    0 -0.00000000000E+00 -0.00000000000E+00 -0.45593999997E+02  0.45594000000E+02  0.51100000000E-03 0.  1.
         23    2    1    2    0    0  0.17763568394E-14  0.35527136788E-14  0.35527136788E-14  0.91188000000E+02  0.91188000000E+02 0.  0.
    9900012    2    3    3    0    0  0.14723877184E+02  0.18712098697E+02  0.28086371217E+02  0.54367089567E+02  0.40000012286E+02 0.  0.
        -12    1    3    3    0    0 -0.14723877184E+02 -0.18712098697E+02 -0.28086371217E+02  0.36820910433E+02  0.00000000000E+00 0.  1.
         11    1    4    4    0    0 -0.80195596807E+01  0.17256953313E+02  0.21268215610E+02  0.28538618933E+02  0.51100000000E-03 0. -1.
        -11    1    4    4    0    0  0.15282423129E+02  0.39217588017E+01  0.83064736905E+01  0.17830596015E+02  0.51100000000E-03 0.  1.
         12    1    4    4    0    0  0.74610137352E+01 -0.24666134172E+01 -0.14883180840E+01  0.79978746193E+01  0.00000000000E+00 0. -1.
</event>
<event>
 8    1  0.1229038E-006  0.9118800E+02  0.7816164E-02  0.1184000E+00
        -11   -1    0    0    0    0  0.00000000000E+00  0.00000000000E+00  0.45593999997E+02  0.45594000000E+02  0.51100000000E-03 0.  1.
         11   -1    0    0    0    0 -0.00000000000E+00 -0.00000000000E+00 -0.45593999997E+02  0.45594000000E+02  0.51100000000E-03 0. -1.
         23    2    1    2    0    0  0.00000000000E+00 -0.17763568394E-14  0.00000000000E+00  0.91188000000E+02  0.91188000000E+02 0.  0.
    9900012    2    3    3    0    0 -0.19169867854E+02  0.15143143865E+02 -0.27549577900E+02  0.54367110791E+02  0.40000060669E+02 0.  0.
        -12    1    3    3    0    0  0.19169867854E+02 -0.15143143865E+02  0.27549577900E+02  0.36820889209E+02  0.00000000000E+00 0.  1.
         11    1    4    4    0    0 -0.18708990351E+02 -0.58087093659E+01 -0.15732128710E+02  0.25125033303E+02  0.51100000000E-03 0. -1.
        -11    1    4    4    0    0  0.34500492073E+01  0.18077293924E+02 -0.14737923684E+02  0.23577484809E+02  0.51100000000E-03 0.  1.
        -12    1    4    4    0    0 -0.39109267105E+01  0.28745593065E+01  0.29204744938E+01  0.56645926782E+01  0.00000000000E+00 0.  1.
</event>
<event>
 8    1  0.1229038E-006  0.9118800E+02  0.7816164E-02  0.1184000E+00
        -11   -1    0    0    0    0  0.00000000000E+00  0.00000000000E+00  0.45593999997E+02  0.45594000000E+02  0.51100000000E-03 0. -1.
         11   -1    0    0    0    0 -0.00000000000E+00 -0.00000000000E+00 -0.45593999997E+02  0.45594000000E+02  0.51100000000E-03 0.  1.
         23    2    1    2    0    0  0.88817841970E-15  0.00000000000E+00  0.00000000000E+00  0.91188000000E+02  0.91188000000E+02 0.  0.
    9900012    2    3    3    0    0  0.62186265362E+01  0.23116995048E+02  0.27977008067E+02  0.54367085340E+02  0.40000002649E+02 0.  0.
        -12    1    3    3    0    0 -0.62186265362E+01 -0.23116995048E+02 -0.27977008067E+02  0.36820914660E+02  0.00000000000E+00 0.  1.
         11    1    4    4    0    0 -0.55879010893E+01  0.17273869195E+02  0.19847409284E+02  0.26898528790E+02  0.51100000000E-03 0. -1.
        -11    1    4    4    0    0  0.18671674760E+02  0.48520487702E+01  0.56462337537E+01  0.20101088814E+02  0.51100000000E-03 0.  1.
        -12    1    4    4    0    0 -0.68651471349E+01  0.99107708280E+00  0.24833650296E+01  0.73674677358E+01  0.00000000000E+00 0.  1.
</event>
<event>
 8    1  0.1229038E-006  0.9118800E+02  0.7816164E-02  0.1184000E+00
        -11   -1    0    0    0    0  0.00000000000E+00  0.00000000000E+00  0.45593999997E+02  0.45594000000E+02  0.51100000000E-03 0.  1.
         11   -1    0    0    0    0 -0.00000000000E+00 -0.00000000000E+00 -0.45593999997E+02  0.45594000000E+02  0.51100000000E-03 0. -1.
         23    2    1    2    0    0  0.00000000000E+00  0.00000000000E+00  0.00000000000E+00  0.91188000000E+02  0.91188000000E+02 0.  0.
    9900012    2    3    3    0    0  0.24258450764E+02 -0.93849408432E+01 -0.26062050648E+02  0.54367081596E+02  0.39999994115E+02 0.  0.
        -12    1    3    3    0    0 -0.24258450764E+02  0.93849408432E+01  0.26062050648E+02  0.36820918404E+02  0.00000000000E+00 0.  1.
         11    1    4    4    0    0 -0.53545668570E+01 -0.59295552796E+01  0.38155770920E+01  0.88537924556E+01  0.51100000000E-03 0. -1.
        -11    1    4    4    0    0 -0.63803003131E+00  0.31297287914E+00 -0.79005919218E+01  0.79324893520E+01  0.51100000000E-03 0.  1.
         12    1    4    4    0    0  0.30251047652E+02 -0.37683584427E+01 -0.21977035818E+02  0.37580799789E+02  0.00000000000E+00 0. -1.
</event>
<event>
 8    1  0.1229038E-006  0.9118800E+02  0.7816164E-02  0.1184000E+00
        -11   -1    0    0    0    0  0.00000000000E+00  0.00000000000E+00  0.45593999997E+02  0.45594000000E+02  0.51100000000E-03 0. -1.
         11   -1    0    0    0    0 -0.00000000000E+00 -0.00000000000E+00 -0.45593999997E+02  0.45594000000E+02  0.51100000000E-03 0.  1.
         23    2    1    2    0    0  0.88817841970E-15  0.71054273576E-14 -0.17763568394E-14  0.91188000000E+02  0.91188000000E+02 0.  0.
    9900012    2    3    3    0    0 -0.50296241984E+00  0.33258957905E+02 -0.15791415457E+02  0.54367081295E+02  0.39999993428E+02 0.  0.
         12    1    3    3    0    0  0.50296241984E+00 -0.33258957905E+02  0.15791415457E+02  0.36820918705E+02  0.00000000000E+00 0. -1.
         11    1    4    4    0    0  0.12577076007E+02  0.14699275377E+02 -0.15182841691E+02  0.24592076357E+02  0.51100000000E-03 0. -1.
        -11    1    4    4    0    0 -0.30345947991E+01  0.18899196431E+02  0.23806349891E+01  0.19288748392E+02  0.51100000000E-03 0.  1.
        -12    1    4    4    0    0 -0.10045443628E+02 -0.33951390184E+00 -0.29892087551E+01  0.10486256546E+02  0.00000000000E+00 0.  1.
</event>
<event>
 8    1  0.1229038E-006  0.9118800E+02  0.7816164E-02  0.1184000E+00
        -11   -1    0    0    0    0  0.00000000000E+00  0.00000000000E+00  0.45593999997E+02  0.45594000000E+02  0.51100000000E-03 0.  1.
         11   -1    0    0    0    0 -0.00000000000E+00 -0.00000000000E+00 -0.45593999997E+02  0.45594000000E+02  0.51100000000E-03 0. -1.
         23    2    1    2    0    0  0.71054273576E-14 -0.17763568394E-14  0.00000000000E+00  0.91188000000E+02  0.91188000000E+02 0.  0.
    9900012    2    3    3    0    0  0.27121833993E+02 -0.11643558180E+02  0.22013942433E+02  0.54367082200E+02  0.39999995491E+02 0.  0.
         12    1    3    3    0    0 -0.27121833993E+02  0.11643558180E+02 -0.22013942433E+02  0.36820917800E+02  0.00000000000E+00 0. -1.
         11    1    4    4    0    0  0.11997155239E+02  0.30758131537E+00  0.18701978365E+02  0.22221393636E+02  0.51100000000E-03 0. -1.
        -11    1    4    4    0    0  0.17546567838E+02 -0.53238891229E+01  0.11259847188E+02  0.21517667096E+02  0.51100000000E-03 0.  1.
        -12    1    4    4    0    0 -0.24218890845E+01 -0.66272503721E+01 -0.79478831202E+01  0.10628021468E+02  0.00000000000E+00 0.  1.
</event>
<event>
 8    1  0.1229038E-006  0.9118800E+02  0.7816164E-02  0.1184000E+00
        -11   -1    0    0    0    0  0.00000000000E+00  0.00000000000E+00  0.45593999997E+02  0.45594000000E+02  0.51100000000E-03 0.  1.
         11   -1    0    0    0    0 -0.00000000000E+00 -0.00000000000E+00 -0.45593999997E+02  0.45594000000E+02  0.51100000000E-03 0. -1.
         23    2    1    2    0    0  0.00000000000E+00  0.35527136788E-14  0.00000000000E+00  0.91188000000E+02  0.91188000000E+02 0.  0.
    9900012    2    3    3    0    0  0.98951366555E+01  0.20998142273E+02  0.28582019645E+02  0.54367251021E+02  0.40000380352E+02 0.  0.
         12    1    3    3    0    0 -0.98951366555E+01 -0.20998142273E+02 -0.28582019645E+02  0.36820748979E+02  0.00000000000E+00 0. -1.
         11    1    4    4    0    0 -0.34191497862E+01  0.34011022513E+01  0.19520976633E+01  0.52027653543E+01  0.51100000000E-03 0. -1.
        -11    1    4    4    0    0  0.61247541879E+01  0.27599000930E+02  0.22633640405E+02  0.36214626112E+02  0.51100000000E-03 0.  1.
        -12    1    4    4    0    0  0.71895322538E+01 -0.10001960909E+02  0.39962815774E+01  0.12949859555E+02  0.00000000000E+00 0.  1.
</event>
<event>
 8    1  0.1229038E-006  0.9118800E+02  0.7816164E-02  0.1184000E+00
        -11   -1    0    0    0    0  0.00000000000E+00  0.00000000000E+00  0.45593999997E+02  0.45594000000E+02  0.51100000000E-03 0.  1.
         11   -1    0    0    0    0 -0.00000000000E+00 -0.00000000000E+00 -0.45593999997E+02  0.45594000000E+02  0.51100000000E-03 0. -1.
         23    2    1    2    0    0 -0.17763568394E-14  0.17763568394E-14 -0.71054273576E-14  0.91188000000E+02  0.91188000000E+02 0.  0.
    9900012    2    3    3    0    0 -0.11902605850E+02 -0.11954449670E+02 -0.32729182517E+02  0.54367078214E+02  0.39999986404E+02 0.  0.
        -12    1    3    3    0    0  0.11902605850E+02  0.11954449670E+02  0.32729182517E+02  0.36820921786E+02  0.00000000000E+00 0.  1.
         11    1    4    4    0    0 -0.73682372240E+01 -0.96771369623E+00 -0.77615960702E+01  0.10745685804E+02  0.51100000000E-03 0. -1.
        -11    1    4    4    0    0  0.12130263313E+02 -0.31844443452E+01 -0.21509388533E+02  0.24898549539E+02  0.51100000000E-03 0.  1.
        -12    1    4    4    0    0 -0.16664631939E+02 -0.78022916287E+01 -0.34581979140E+01  0.18722842870E+02  0.00000000000E+00 0.  1.
</event>
<event>
 8    1  0.1229038E-006  0.9118800E+02  0.7816164E-02  0.1184000E+00
        -11   -1    0    0    0    0  0.00000000000E+00  0.00000000000E+00  0.45593999997E+02  0.45594000000E+02  0.51100000000E-03 0.  1.
         11   -1    0    0    0    0 -0.00000000000E+00 -0.00000000000E+00 -0.45593999997E+02  0.45594000000E+02  0.51100000000E-03 0. -1.
         23    2    1    2    0    0  0.00000000000E+00  0.17763568394E-14  0.00000000000E+00  0.91188000000E+02  0.91188000000E+02 0.  0.
    9900012    2    3    3    0    0 -0.22656965963E+02  0.13984959376E+02 -0.25433384886E+02  0.54367159948E+02  0.40000172733E+02 0.  0.
        -12    1    3    3    0    0  0.22656965963E+02 -0.13984959376E+02  0.25433384886E+02  0.36820840052E+02  0.00000000000E+00 0.  1.
         11    1    4    4    0    0 -0.11386668852E+02  0.13922805361E+02 -0.15609325740E+02  0.23814948813E+02  0.51100000000E-03 0. -1.
        -11    1    4    4    0    0 -0.14261478006E+02 -0.49933686070E+01 -0.16014803424E+02  0.22018115585E+02  0.51100000000E-03 0.  1.
        -12    1    4    4    0    0  0.29911808950E+01  0.50555226217E+01  0.61907442783E+01  0.85340955493E+01  0.00000000000E+00 0.  1.
</event>
<event>
 8    1  0.1229038E-006  0.9118800E+02  0.7816164E-02  0.1184000E+00
        -11   -1    0    0    0    0  0.00000000000E+00  0.00000000000E+00  0.45593999997E+02  0.45594000000E+02  0.51100000000E-03 0. -1.
         11   -1    0    0    0    0 -0.00000000000E+00 -0.00000000000E+00 -0.45593999997E+02  0.45594000000E+02  0.51100000000E-03 0.  1.
         23    2    1    2    0    0  0.88817841970E-15  0.00000000000E+00  0.00000000000E+00  0.91188000000E+02  0.91188000000E+02 0.  0.
    9900012    2    3    3    0    0  0.62987275104E+01 -0.34567053260E+02 -0.11010184957E+02  0.54367091373E+02  0.40000016403E+02 0.  0.
         12    1    3    3    0    0 -0.62987275104E+01  0.34567053260E+02  0.11010184957E+02  0.36820908627E+02  0.00000000000E+00 0. -1.
         11    1    4    4    0    0  0.69120218705E+01 -0.30549686131E+02  0.99284264130E+01  0.32857769558E+02  0.51100000000E-03 0. -1.
        -11    1    4    4    0    0  0.82977797627E+00 -0.11268622623E+01 -0.10191140145E+02  0.10286772466E+02  0.51100000000E-03 0.  1.
         12    1    4    4    0    0 -0.14430723364E+01 -0.28905048664E+01 -0.10747471225E+02  0.11222549349E+02  0.00000000000E+00 0. -1.
</event>
<event>
 8    1  0.1229038E-006  0.9118800E+02  0.7816164E-02  0.1184000E+00
        -11   -1    0    0    0    0  0.00000000000E+00  0.00000000000E+00  0.45593999997E+02  0.45594000000E+02  0.51100000000E-03 0.  1.
         11   -1    0    0    0    0 -0.00000000000E+00 -0.00000000000E+00 -0.45593999997E+02  0.45594000000E+02  0.51100000000E-03 0. -1.
         23    2    1    2    0    0  0.00000000000E+00  0.00000000000E+00  0.00000000000E+00  0.91188000000E+02  0.91188000000E+02 0.  0.
    9900012    2    3    3    0    0 -0.50423416546E+01  0.23574923352E+02 -0.27831204173E+02  0.54367107206E+02  0.40000052497E+02 0.  0.
        -12    1    3    3    0    0  0.50423416546E+01 -0.23574923352E+02  0.27831204173E+02  0.36820892794E+02  0.00000000000E+00 0.  1.
         11    1    4    4    0    0  0.70743377985E+01  0.51573147136E+01 -0.26149692117E+02  0.27576267848E+02  0.51100000000E-03 0. -1.
        -11    1    4    4    0    0  0.29659399985E+00  0.82464067930E+01  0.47277877877E+01  0.95101614404E+01  0.51100000000E-03 0.  1.
         12    1    4    4    0    0 -0.12413273453E+02  0.10171201846E+02 -0.64092998441E+01  0.17280677918E+02  0.00000000000E+00 0. -1.
</event>
<event>
 8    1  0.1229038E-006  0.9118800E+02  0.7816164E-02  0.1184000E+00
        -11   -1    0    0    0    0  0.00000000000E+00  0.00000000000E+00  0.45593999997E+02  0.45594000000E+02  0.51100000000E-03 0.  1.
         11   -1    0    0    0    0 -0.00000000000E+00 -0.00000000000E+00 -0.45593999997E+02  0.45594000000E+02  0.51100000000E-03 0. -1.
         23    2    1    2    0    0  0.00000000000E+00 -0.35527136788E-14  0.10658141036E-13  0.91188000000E+02  0.91188000000E+02 0.  0.
    9900012    2    3    3    0    0 -0.15102281826E+02 -0.17823118434E+02  0.28461156108E+02  0.54367083741E+02  0.39999999005E+02 0.  0.
         12    1    3    3    0    0  0.15102281826E+02  0.17823118434E+02 -0.28461156108E+02  0.36820916259E+02  0.00000000000E+00 0. -1.
         11    1    4    4    0    0  0.49884552855E+01 -0.97014835172E+00  0.11119047429E+02  0.12225346210E+02  0.51100000000E-03 0. -1.
        -11    1    4    4    0    0 -0.12048882835E+02 -0.14256334751E+02 -0.40855679490E+01  0.19107865496E+02  0.51100000000E-03 0.  1.
        -12    1    4    4    0    0 -0.80418542769E+01 -0.25966353322E+01  0.21427676628E+02  0.23033872035E+02  0.00000000000E+00 0.  1.
</event>
<event>
 8    1  0.1229038E-006  0.9118800E+02  0.7816164E-02  0.1184000E+00
        -11   -1    0    0    0    0  0.00000000000E+00  0.00000000000E+00  0.45593999997E+02  0.45594000000E+02  0.51100000000E-03 0. -1.
         11   -1    0    0    0    0 -0.00000000000E+00 -0.00000000000E+00 -0.45593999997E+02  0.45594000000E+02  0.51100000000E-03 0.  1.
         23    2    1    2    0    0 -0.17763568394E-14  0.00000000000E+00  0.00000000000E+00  0.91188000000E+02  0.91188000000E+02 0.  0.
    9900012    2    3    3    0    0 -0.89691408589E+01  0.18018398947E+02 -0.30832965593E+02  0.54367082635E+02  0.39999996482E+02 0.  0.
         12    1    3    3    0    0  0.89691408589E+01 -0.18018398947E+02  0.30832965593E+02  0.36820917365E+02  0.00000000000E+00 0. -1.
         11    1    4    4    0    0 -0.83632781135E+01  0.10012451495E+02 -0.24964796670E+01  0.13282545567E+02  0.51100000000E-03 0. -1.
        -11    1    4    4    0    0  0.11667371374E+01 -0.10780835861E+02 -0.93955593752E+01  0.14347969670E+02  0.51100000000E-03 0.  1.
        -12    1    4    4    0    0 -0.17725998829E+01  0.18786783314E+02 -0.18940926551E+02  0.26736567398E+02  0.00000000000E+00 0.  1.
</event>
<event>
 8    1  0.1229038E-006  0.9118800E+02  0.7816164E-02  0.1184000E+00
        -11   -1    0    0    0    0  0.00000000000E+00  0.00000000000E+00  0.45593999997E+02  0.45594000000E+02  0.51100000000E-03 0. -1.
         11   -1    0    0    0    0 -0.00000000000E+00 -0.00000000000E+00 -0.45593999997E+02  0.45594000000E+02  0.51100000000E-03 0.  1.
         23    2    1    2    0    0  0.00000000000E+00 -0.17763568394E-14  0.00000000000E+00  0.91188000000E+02  0.91188000000E+02 0.  0.
    9900012    2    3    3    0    0 -0.55576776655E+01  0.12723605886E+02  0.34102777463E+02  0.54367117902E+02  0.40000076881E+02 0.  0.
        -12    1    3    3    0    0  0.55576776655E+01 -0.12723605886E+02 -0.34102777463E+02  0.36820882098E+02  0.00000000000E+00 0.  1.
         11    1    4    4    0    0 -0.69048494365E+00 -0.23797217115E+01  0.18968243414E+02  0.19129404156E+02  0.51100000000E-03 0. -1.
        -11    1    4    4    0    0 -0.12631114275E+02 -0.17855438206E+01  0.91902904857E+01  0.15722425196E+02  0.51100000000E-03 0.  1.
         12    1    4    4    0    0  0.77639215534E+01  0.16888871418E+02  0.59442435634E+01  0.19515288550E+02  0.00000000000E+00 0. -1.
</event>
<event>
 8    1  0.1229038E-006  0.9118800E+02  0.7816164E-02  0.1184000E+00
        -11   -1    0    0    0    0  0.00000000000E+00  0.00000000000E+00  0.45593999997E+02  0.45594000000E+02  0.51100000000E-03 0. -1.
         11   -1    0    0    0    0 -0.00000000000E+00 -0.00000000000E+00 -0.45593999997E+02  0.45594000000E+02  0.51100000000E-03 0.  1.
         23    2    1    2    0    0  0.00000000000E+00  0.00000000000E+00  0.17763568394E-14  0.91188000000E+02  0.91188000000E+02 0.  0.
    9900012    2    3    3    0    0 -0.35016492834E+02  0.29570453531E+01 -0.10994577073E+02  0.54367087292E+02  0.40000007100E+02 0.  0.
         12    1    3    3    0    0  0.35016492834E+02 -0.29570453531E+01  0.10994577073E+02  0.36820912708E+02  0.00000000000E+00 0. -1.
         11    1    4    4    0    0 -0.14476973471E+02 -0.24086220907E+01 -0.18568828496E+02  0.23668240602E+02  0.51100000000E-03 0. -1.
        -11    1    4    4    0    0 -0.22672186737E+02  0.70240450106E+01  0.11884028505E+01  0.23765049155E+02  0.51100000000E-03 0.  1.
         12    1    4    4    0    0  0.21326673733E+01 -0.16583775669E+01  0.63858485718E+01  0.69337975353E+01  0.00000000000E+00 0. -1.
</event>
<event>
 8    1  0.1229038E-006  0.9118800E+02  0.7816164E-02  0.1184000E+00
        -11   -1    0    0    0    0  0.00000000000E+00  0.00000000000E+00  0.45593999997E+02  0.45594000000E+02  0.51100000000E-03 0. -1.
         11   -1    0    0    0    0 -0.00000000000E+00 -0.00000000000E+00 -0.45593999997E+02  0.45594000000E+02  0.51100000000E-03 0.  1.
         23    2    1    2    0    0 -0.35527136788E-14  0.35527136788E-14  0.17763568394E-14  0.91188000000E+02  0.91188000000E+02 0.  0.
    9900012    2    3    3    0    0  0.15391827647E+02  0.31754659245E+02  0.10512448591E+02  0.54367104880E+02  0.40000047194E+02 0.  0.
        -12    1    3    3    0    0 -0.15391827647E+02 -0.31754659245E+02 -0.10512448591E+02  0.36820895120E+02  0.00000000000E+00 0.  1.
         11    1    4    4    0    0 -0.13369322036E+01  0.26057694349E+02  0.15298193509E+02  0.30246083174E+02  0.51100000000E-03 0. -1.
        -11    1    4    4    0    0 -0.13972346054E+01 -0.38584405459E-01  0.32062849280E+01  0.34977159118E+01  0.51100000000E-03 0.  1.
        -12    1    4    4    0    0  0.18125994456E+02  0.57355493017E+01 -0.79920298453E+01  0.20623305794E+02  0.00000000000E+00 0.  1.
</event>
<event>
 8    1  0.1229038E-006  0.9118800E+02  0.7816164E-02  0.1184000E+00
        -11   -1    0    0    0    0  0.00000000000E+00  0.00000000000E+00  0.45593999997E+02  0.45594000000E+02  0.51100000000E-03 0.  1.
         11   -1    0    0    0    0 -0.00000000000E+00 -0.00000000000E+00 -0.45593999997E+02  0.45594000000E+02  0.51100000000E-03 0. -1.
         23    2    1    2    0    0  0.35527136788E-14 -0.17763568394E-14 -0.17763568394E-14  0.91188000000E+02  0.91188000000E+02 0.  0.
    9900012    2    3    3    0    0  0.30274051536E+02 -0.15056744341E+02  0.14579189594E+02  0.54367129345E+02  0.40000102969E+02 0.  0.
         12    1    3    3    0    0 -0.30274051536E+02  0.15056744341E+02 -0.14579189594E+02  0.36820870655E+02  0.00000000000E+00 0. -1.
         11    1    4    4    0    0 -0.55849220482E+01 -0.91907800605E+01  0.10436741920E+00  0.10755123673E+02  0.51100000000E-03 0. -1.
        -11    1    4    4    0    0  0.44550682750E+01 -0.23225282638E+01  0.10653355340E+02  0.11778614143E+02  0.51100000000E-03 0.  1.
        -12    1    4    4    0    0  0.31403905309E+02 -0.35434360168E+01  0.38214668341E+01  0.31833391529E+02  0.00000000000E+00 0.  1.
</event>
<event>
 8    1  0.1229038E-006  0.9118800E+02  0.7816164E-02  0.1184000E+00
        -11   -1    0    0    0    0  0.00000000000E+00  0.00000000000E+00  0.45593999997E+02  0.45594000000E+02  0.51100000000E-03 0.  1.
         11   -1    0    0    0    0 -0.00000000000E+00 -0.00000000000E+00 -0.45593999997E+02  0.45594000000E+02  0.51100000000E-03 0. -1.
         23    2    1    2    0    0 -0.17763568394E-14  0.00000000000E+00  0.00000000000E+00  0.91188000000E+02  0.91188000000E+02 0.  0.
    9900012    2    3    3    0    0 -0.10430060593E+02  0.79176375909E+00  0.35303923078E+02  0.54367081509E+02  0.39999993917E+02 0.  0.
         12    1    3    3    0    0  0.10430060593E+02 -0.79176375909E+00 -0.35303923078E+02  0.36820918491E+02  0.00000000000E+00 0. -1.
         11    1    4    4    0    0 -0.81292454540E+01  0.12112011085E+02  0.14909341686E+02  0.20858425491E+02  0.51100000000E-03 0. -1.
        -11    1    4    4    0    0  0.93149132289E+01 -0.10234064170E+02  0.15712781811E+02  0.20937888872E+02  0.51100000000E-03 0.  1.
         12    1    4    4    0    0 -0.11615728368E+02 -0.10861831561E+01  0.46817995803E+01  0.12570767147E+02  0.00000000000E+00 0. -1.
</event>
<event>
 8    1  0.1229038E-006  0.9118800E+02  0.7816164E-02  0.1184000E+00
        -11   -1    0    0    0    0  0.00000000000E+00  0.00000000000E+00  0.45593999997E+02  0.45594000000E+02  0.51100000000E-03 0. -1.
         11   -1    0    0    0    0 -0.00000000000E+00 -0.00000000000E+00 -0.45593999997E+02  0.45594000000E+02  0.51100000000E-03 0.  1.
         23    2    1    2    0    0  0.00000000000E+00  0.24424906542E-14  0.00000000000E+00  0.91188000000E+02  0.91188000000E+02 0.  0.
    9900012    2    3    3    0    0 -0.33763632208E+02  0.16978262794E+01  0.14591577276E+02  0.54367087445E+02  0.40000007449E+02 0.  0.
        -12    1    3    3    0    0  0.33763632208E+02 -0.16978262794E+01 -0.14591577276E+02  0.36820912555E+02  0.00000000000E+00 0.  1.
         11    1    4    4    0    0 -0.30332801473E+02  0.11702195152E+01  0.10530647117E+02  0.32130091626E+02  0.51100000000E-03 0. -1.
        -11    1    4    4    0    0 -0.86453219920E+01 -0.65718115034E+01 -0.26321317918E+01  0.11174006301E+02  0.51100000000E-03 0.  1.
        -12    1    4    4    0    0  0.52144912573E+01  0.70994182677E+01  0.66930619502E+01  0.11062989518E+02  0.00000000000E+00 0.  1.
</event>
<event>
 8    1  0.1229038E-006  0.9118800E+02  0.7816164E-02  0.1184000E+00
        -11   -1    0    0    0    0  0.00000000000E+00  0.00000000000E+00  0.45593999997E+02  0.45594000000E+02  0.51100000000E-03 0.  1.
         11   -1    0    0    0    0 -0.00000000000E+00 -0.00000000000E+00 -0.45593999997E+02  0.45594000000E+02  0.51100000000E-03 0. -1.
         23    2    1    2    0    0  0.00000000000E+00 -0.17763568394E-14  0.17763568394E-14  0.91188000000E+02  0.91188000000E+02 0.  0.
    9900012    2    3    3    0    0  0.32451880744E+02  0.91145759900E+01 -0.14818215932E+02  0.54367087698E+02  0.40000008025E+02 0.  0.
        -12    1    3    3    0    0 -0.32451880744E+02 -0.91145759900E+01  0.14818215932E+02  0.36820912302E+02  0.00000000000E+00 0.  1.
         11    1    4    4    0    0  0.17038101986E+02 -0.57896950829E+01 -0.73729167162E+01  0.19446783528E+02  0.51100000000E-03 0. -1.
        -11    1    4    4    0    0  0.16187156040E+02  0.15315458581E+02 -0.15290943932E+02  0.27025918279E+02  0.51100000000E-03 0.  1.
        -12    1    4    4    0    0 -0.77337728118E+00 -0.41118750765E+00  0.78456447164E+01  0.78943858914E+01  0.00000000000E+00 0.  1.
</event>
<event>
 8    1  0.1229038E-006  0.9118800E+02  0.7816164E-02  0.1184000E+00
        -11   -1    0    0    0    0  0.00000000000E+00  0.00000000000E+00  0.45593999997E+02  0.45594000000E+02  0.51100000000E-03 0.  1.
         11   -1    0    0    0    0 -0.00000000000E+00 -0.00000000000E+00 -0.45593999997E+02  0.45594000000E+02  0.51100000000E-03 0. -1.
         23    2    1    2    0    0  0.35527136788E-14  0.00000000000E+00  0.00000000000E+00  0.91188000000E+02  0.91188000000E+02 0.  0.
    9900012    2    3    3    0    0 -0.10486209445E+02  0.20370607641E+02  0.28824582474E+02  0.54367098341E+02  0.40000032287E+02 0.  0.
         12    1    3    3    0    0  0.10486209445E+02 -0.20370607641E+02 -0.28824582474E+02  0.36820901659E+02  0.00000000000E+00 0. -1.
         11    1    4    4    0    0  0.44755666227E+01 -0.31174941981E+00  0.49192475686E+01  0.66578435846E+01  0.51100000000E-03 0. -1.
        -11    1    4    4    0    0  0.60872996716E+01  0.69183981801E+01  0.20311294732E+02  0.22303993916E+02  0.51100000000E-03 0.  1.
         12    1    4    4    0    0 -0.21049075740E+02  0.13763958881E+02  0.35940401738E+01  0.25405260840E+02  0.00000000000E+00 0. -1.
</event>
<event>
 8    1  0.1229038E-006  0.9118800E+02  0.7816164E-02  0.1184000E+00
        -11   -1    0    0    0    0  0.00000000000E+00  0.00000000000E+00  0.45593999997E+02  0.45594000000E+02  0.51100000000E-03 0.  1.
         11   -1    0    0    0    0 -0.00000000000E+00 -0.00000000000E+00 -0.45593999997E+02  0.45594000000E+02  0.51100000000E-03 0. -1.
         23    2    1    2    0    0 -0.71054273576E-14 -0.17763568394E-14 -0.88817841970E-15  0.91188000000E+02  0.91188000000E+02 0.  0.
    9900012    2    3    3    0    0  0.35119774825E+02  0.10329338666E+02  0.39603894871E+01  0.54367102321E+02  0.40000041361E+02 0.  0.
        -12    1    3    3    0    0 -0.35119774825E+02 -0.10329338666E+02 -0.39603894871E+01  0.36820897679E+02  0.00000000000E+00 0.  1.
         11    1    4    4    0    0 -0.20507737270E+01  0.85584438925E+01  0.11059747993E+02  0.14134024928E+02  0.51100000000E-03 0.  1.
        -11    1    4    4    0    0  0.63196721748E+01 -0.39186996199E+01  0.17470384826E+01  0.76384950631E+01  0.51100000000E-03 0. -1.
        -12    1    4    4    0    0  0.30850876377E+02  0.56895943936E+01 -0.88463969880E+01  0.32594582330E+02  0.00000000000E+00 0.  1.
</event>
<event>
 8    1  0.1229038E-006  0.9118800E+02  0.7816164E-02  0.1184000E+00
        -11   -1    0    0    0    0  0.00000000000E+00  0.00000000000E+00  0.45593999997E+02  0.45594000000E+02  0.51100000000E-03 0. -1.
         11   -1    0    0    0    0 -0.00000000000E+00 -0.00000000000E+00 -0.45593999997E+02  0.45594000000E+02  0.51100000000E-03 0.  1.
         23    2    1    2    0    0  0.00000000000E+00 -0.44408920985E-15  0.00000000000E+00  0.91188000000E+02  0.91188000000E+02 0.  0.
    9900012    2    3    3    0    0  0.13129291557E+02  0.12620795141E+01 -0.34377461366E+02  0.54367068569E+02  0.39999964416E+02 0.  0.
         12    1    3    3    0    0 -0.13129291557E+02 -0.12620795141E+01  0.34377461366E+02  0.36820931431E+02  0.00000000000E+00 0. -1.
         11    1    4    4    0    0  0.76200550384E+01  0.47125619307E+01  0.23415613530E+01  0.92604745326E+01  0.51100000000E-03 0.  1.
        -11    1    4    4    0    0 -0.46482771524E+00  0.21102399394E+01  0.34751532204E+01  0.40921714985E+01  0.51100000000E-03 0. -1.
        -12    1    4    4    0    0  0.59740642336E+01 -0.55607223559E+01 -0.40194175940E+02  0.41014422537E+02  0.00000000000E+00 0.  1.
</event>
<event>
 8    1  0.1229038E-006  0.9118800E+02  0.7816164E-02  0.1184000E+00
        -11   -1    0    0    0    0  0.00000000000E+00  0.00000000000E+00  0.45593999997E+02  0.45594000000E+02  0.51100000000E-03 0.  1.
         11   -1    0    0    0    0 -0.00000000000E+00 -0.00000000000E+00 -0.45593999997E+02  0.45594000000E+02  0.51100000000E-03 0. -1.
         23    2    1    2    0    0  0.00000000000E+00  0.17763568394E-14 -0.35527136788E-14  0.91188000000E+02  0.91188000000E+02 0.  0.
    9900012    2    3    3    0    0 -0.31407782767E+02  0.14054694225E+02  0.13107115566E+02  0.54367085745E+02  0.40000003573E+02 0.  0.
         12    1    3    3    0    0  0.31407782767E+02 -0.14054694225E+02 -0.13107115566E+02  0.36820914255E+02  0.00000000000E+00 0. -1.
         11    1    4    4    0    0 -0.63620941982E+01  0.20735629410E+01  0.79861159632E+01  0.10418922895E+02  0.51100000000E-03 0.  1.
        -11    1    4    4    0    0 -0.12796072650E+02  0.16796531155E+02 -0.10449737062E+02  0.23559710079E+02  0.51100000000E-03 0. -1.
        -12    1    4    4    0    0 -0.12249615919E+02 -0.48153998715E+01  0.15570736665E+02  0.20388452770E+02  0.00000000000E+00 0.  1.
</event>
<event>
 8    1  0.1229038E-006  0.9118800E+02  0.7816164E-02  0.1184000E+00
        -11   -1    0    0    0    0  0.00000000000E+00  0.00000000000E+00  0.45593999997E+02  0.45594000000E+02  0.51100000000E-03 0.  1.
         11   -1    0    0    0    0 -0.00000000000E+00 -0.00000000000E+00 -0.45593999997E+02  0.45594000000E+02  0.51100000000E-03 0. -1.
         23    2    1    2    0    0  0.00000000000E+00  0.00000000000E+00  0.00000000000E+00  0.91188000000E+02  0.91188000000E+02 0.  0.
    9900012    2    3    3    0    0  0.27692325958E+02  0.13840704225E+02 -0.19933637777E+02  0.54367083045E+02  0.39999997417E+02 0.  0.
        -12    1    3    3    0    0 -0.27692325958E+02 -0.13840704225E+02  0.19933637777E+02  0.36820916955E+02  0.00000000000E+00 0.  1.
         11    1    4    4    0    0  0.98618928224E+00  0.12823868262E+02  0.21644049736E-02  0.12861732832E+02  0.51100000000E-03 0. -1.
        -11    1    4    4    0    0 -0.12773292873E+01 -0.41509225831E+01 -0.10764043913E+02  0.11607168907E+02  0.51100000000E-03 0.  1.
        -12    1    4    4    0    0  0.27983465963E+02  0.51677585460E+01 -0.91717582690E+01  0.29898181306E+02  0.00000000000E+00 0.  1.
</event>
<event>
 8    1  0.1229038E-006  0.9118800E+02  0.7816164E-02  0.1184000E+00
        -11   -1    0    0    0    0  0.00000000000E+00  0.00000000000E+00  0.45593999997E+02  0.45594000000E+02  0.51100000000E-03 0. -1.
         11   -1    0    0    0    0 -0.00000000000E+00 -0.00000000000E+00 -0.45593999997E+02  0.45594000000E+02  0.51100000000E-03 0.  1.
         23    2    1    2    0    0  0.00000000000E+00  0.00000000000E+00 -0.88817841970E-15  0.91188000000E+02  0.91188000000E+02 0.  0.
    9900012    2    3    3    0    0  0.34722254473E+02 -0.10762084618E+02 -0.58584854699E+01  0.54367091903E+02  0.40000017612E+02 0.  0.
        -12    1    3    3    0    0 -0.34722254473E+02  0.10762084618E+02  0.58584854699E+01  0.36820908097E+02  0.00000000000E+00 0.  1.
         11    1    4    4    0    0  0.17523413495E+02  0.58422168872E+01  0.36663458602E+01  0.18831983721E+02  0.51100000000E-03 0. -1.
        -11    1    4    4    0    0  0.59820985014E+01 -0.84871927000E+01 -0.16909562985E+02  0.19843166658E+02  0.51100000000E-03 0.  1.
         12    1    4    4    0    0  0.11216742477E+02 -0.81171088055E+01  0.73847316553E+01  0.15691941524E+02  0.00000000000E+00 0. -1.
</event>
<event>
 8    1  0.1229038E-006  0.9118800E+02  0.7816164E-02  0.1184000E+00
        -11   -1    0    0    0    0  0.00000000000E+00  0.00000000000E+00  0.45593999997E+02  0.45594000000E+02  0.51100000000E-03 0.  1.
         11   -1    0    0    0    0 -0.00000000000E+00 -0.00000000000E+00 -0.45593999997E+02  0.45594000000E+02  0.51100000000E-03 0. -1.
         23    2    1    2    0    0  0.17763568394E-14  0.35527136788E-14  0.00000000000E+00  0.91188000000E+02  0.91188000000E+02 0.  0.
    9900012    2    3    3    0    0 -0.10974155786E+02 -0.22190492265E+02 -0.27256771335E+02  0.54367059955E+02  0.39999944780E+02 0.  0.
        -12    1    3    3    0    0  0.10974155786E+02  0.22190492265E+02  0.27256771335E+02  0.36820940045E+02  0.00000000000E+00 0.  1.
         11    1    4    4    0    0 -0.13813878311E+02 -0.60161497927E+01 -0.88146976654E+01  0.17456121777E+02  0.51100000000E-03 0. -1.
        -11    1    4    4    0    0 -0.33437556291E+01 -0.14696114039E+02  0.22730362995E+01  0.15242150893E+02  0.51100000000E-03 0.  1.
         12    1    4    4    0    0  0.61834781541E+01 -0.14782284327E+01 -0.20715109969E+02  0.21668787285E+02  0.00000000000E+00 0. -1.
</event>
<event>
 8    1  0.1229038E-006  0.9118800E+02  0.7816164E-02  0.1184000E+00
        -11   -1    0    0    0    0  0.00000000000E+00  0.00000000000E+00  0.45593999997E+02  0.45594000000E+02  0.51100000000E-03 0.  1.
         11   -1    0    0    0    0 -0.00000000000E+00 -0.00000000000E+00 -0.45593999997E+02  0.45594000000E+02  0.51100000000E-03 0. -1.
         23    2    1    2    0    0  0.00000000000E+00  0.00000000000E+00  0.35527136788E-14  0.91188000000E+02  0.91188000000E+02 0.  0.
    9900012    2    3    3    0    0  0.15274493323E+02  0.26938330065E+02 -0.19919821067E+02  0.54367040693E+02  0.39999900868E+02 0.  0.
         12    1    3    3    0    0 -0.15274493323E+02 -0.26938330065E+02  0.19919821067E+02  0.36820959307E+02  0.00000000000E+00 0. -1.
         11    1    4    4    0    0  0.22249475268E+01  0.53494409097E+01  0.83135111945E+01  0.10133182036E+02  0.51100000000E-03 0.  1.
        -11    1    4    4    0    0  0.55238157000E+01 -0.38006445014E+01 -0.20935458310E+01  0.70242702767E+01  0.51100000000E-03 0. -1.
        -12    1    4    4    0    0  0.75257300963E+01  0.25389533657E+02 -0.26139786430E+02  0.37209588380E+02  0.00000000000E+00 0.  1.
</event>
<event>
 8    1  0.1229038E-006  0.9118800E+02  0.7816164E-02  0.1184000E+00
        -11   -1    0    0    0    0  0.00000000000E+00  0.00000000000E+00  0.45593999997E+02  0.45594000000E+02  0.51100000000E-03 0.  1.
         11   -1    0    0    0    0 -0.00000000000E+00 -0.00000000000E+00 -0.45593999997E+02  0.45594000000E+02  0.51100000000E-03 0. -1.
         23    2    1    2    0    0  0.00000000000E+00  0.17763568394E-14  0.35527136788E-14  0.91188000000E+02  0.91188000000E+02 0.  0.
    9900012    2    3    3    0    0  0.21949814082E+02  0.87749568259E+01  0.28230939707E+02  0.54367079829E+02  0.39999990086E+02 0.  0.
         12    1    3    3    0    0 -0.21949814082E+02 -0.87749568259E+01 -0.28230939707E+02  0.36820920171E+02  0.00000000000E+00 0. -1.
         11    1    4    4    0    0 -0.34908421288E+01 -0.34153671164E+00  0.40723791321E+01  0.53746533051E+01  0.51100000000E-03 0. -1.
        -11    1    4    4    0    0  0.49253782372E+01  0.81730173276E+00  0.26289784422E+02  0.26759672982E+02  0.51100000000E-03 0.  1.
         12    1    4    4    0    0  0.20515277974E+02  0.82991918048E+01 -0.21312238474E+01  0.22232753542E+02  0.00000000000E+00 0. -1.
</event>
<event>
 8    1  0.1229038E-006  0.9118800E+02  0.7816164E-02  0.1184000E+00
        -11   -1    0    0    0    0  0.00000000000E+00  0.00000000000E+00  0.45593999997E+02  0.45594000000E+02  0.51100000000E-03 0. -1.
         11   -1    0    0    0    0 -0.00000000000E+00 -0.00000000000E+00 -0.45593999997E+02  0.45594000000E+02  0.51100000000E-03 0.  1.
         23    2    1    2    0    0 -0.17763568394E-14  0.00000000000E+00  0.00000000000E+00  0.91188000000E+02  0.91188000000E+02 0.  0.
    9900012    2    3    3    0    0 -0.12629899057E+02 -0.10202626212E+02 -0.33048010375E+02  0.54367096676E+02  0.40000028493E+02 0.  0.
         12    1    3    3    0    0  0.12629899057E+02  0.10202626212E+02  0.33048010375E+02  0.36820903324E+02  0.00000000000E+00 0. -1.
         11    1    4    4    0    0 -0.27381431994E+01  0.12626149727E+02 -0.77612880378E+01  0.15071651448E+02  0.51100000000E-03 0. -1.
        -11    1    4    4    0    0 -0.14886788200E+01 -0.82050342096E+01 -0.19921715338E+02  0.21596608374E+02  0.51100000000E-03 0.  1.
        -12    1    4    4    0    0 -0.84030770381E+01 -0.14623741730E+02 -0.53650069994E+01  0.17698836854E+02  0.00000000000E+00 0.  1.
</event>
<event>
 8    1  0.1229038E-006  0.9118800E+02  0.7816164E-02  0.1184000E+00
        -11   -1    0    0    0    0  0.00000000000E+00  0.00000000000E+00  0.45593999997E+02  0.45594000000E+02  0.51100000000E-03 0.  1.
         11   -1    0    0    0    0 -0.00000000000E+00 -0.00000000000E+00 -0.45593999997E+02  0.45594000000E+02  0.51100000000E-03 0. -1.
         23    2    1    2    0    0  0.00000000000E+00 -0.35527136788E-14  0.00000000000E+00  0.91188000000E+02  0.91188000000E+02 0.  0.
    9900012    2    3    3    0    0  0.19918551545E+02  0.30826178375E+02 -0.29626433581E+01  0.54367092563E+02  0.40000019115E+02 0.  0.
         12    1    3    3    0    0 -0.19918551545E+02 -0.30826178375E+02  0.29626433581E+01  0.36820907437E+02  0.00000000000E+00 0. -1.
         11    1    4    4    0    0  0.19533683948E+02  0.12297460801E+02  0.20120754718E+01  0.23169825176E+02  0.51100000000E-03 0. -1.
        -11    1    4    4    0    0  0.13559892320E+01  0.75127195017E+01  0.10000516044E+02  0.12581334687E+02  0.51100000000E-03 0.  1.
         12    1    4    4    0    0 -0.97112163518E+00  0.11015998072E+02 -0.14975234874E+02  0.18615932699E+02  0.00000000000E+00 0. -1.
</event>
<event>
 8    1  0.1229038E-006  0.9118800E+02  0.7816164E-02  0.1184000E+00
        -11   -1    0    0    0    0  0.00000000000E+00  0.00000000000E+00  0.45593999997E+02  0.45594000000E+02  0.51100000000E-03 0. -1.
         11   -1    0    0    0    0 -0.00000000000E+00 -0.00000000000E+00 -0.45593999997E+02  0.45594000000E+02  0.51100000000E-03 0.  1.
         23    2    1    2    0    0  0.00000000000E+00  0.35527136788E-14  0.35527136788E-14  0.91188000000E+02  0.91188000000E+02 0.  0.
    9900012    2    3    3    0    0 -0.10048556298E+02  0.30091611611E+02  0.18689603532E+02  0.54367084026E+02  0.39999999653E+02 0.  0.
        -12    1    3    3    0    0  0.10048556298E+02 -0.30091611611E+02 -0.18689603532E+02  0.36820915974E+02  0.00000000000E+00 0.  1.
         11    1    4    4    0    0 -0.88946124289E+01  0.39877953218E+01 -0.49428665473E+00  0.97601721987E+01  0.51100000000E-03 0. -1.
        -11    1    4    4    0    0  0.47822263703E+01  0.19402997803E+02 -0.34388347566E+01  0.20277366633E+02  0.51100000000E-03 0.  1.
         12    1    4    4    0    0 -0.59361702393E+01  0.67008184855E+01  0.22622724944E+02  0.24329545194E+02  0.00000000000E+00 0. -1.
</event>
<event>
 8    1  0.1229038E-006  0.9118800E+02  0.7816164E-02  0.1184000E+00
        -11   -1    0    0    0    0  0.00000000000E+00  0.00000000000E+00  0.45593999997E+02  0.45594000000E+02  0.51100000000E-03 0.  1.
         11   -1    0    0    0    0 -0.00000000000E+00 -0.00000000000E+00 -0.45593999997E+02  0.45594000000E+02  0.51100000000E-03 0. -1.
         23    2    1    2    0    0 -0.44408920985E-15  0.00000000000E+00  0.00000000000E+00  0.91188000000E+02  0.91188000000E+02 0.  0.
    9900012    2    3    3    0    0  0.26600456966E+01  0.33483024490E+02  0.15086097628E+02  0.54367094066E+02  0.40000022543E+02 0.  0.
        -12    1    3    3    0    0 -0.26600456966E+01 -0.33483024490E+02 -0.15086097628E+02  0.36820905934E+02  0.00000000000E+00 0.  1.
         11    1    4    4    0    0 -0.88967314514E+00  0.30081478393E+02 -0.19912486180E+01  0.30160436534E+02  0.51100000000E-03 0. -1.
        -11    1    4    4    0    0  0.31900672934E+01  0.91424649494E+01  0.15441524166E+02  0.18226405666E+02  0.51100000000E-03 0.  1.
         12    1    4    4    0    0  0.35965154830E+00 -0.57409188519E+01  0.16358220803E+01  0.59802518658E+01  0.00000000000E+00 0. -1.
</event>
<event>
 8    1  0.1229038E-006  0.9118800E+02  0.7816164E-02  0.1184000E+00
        -11   -1    0    0    0    0  0.00000000000E+00  0.00000000000E+00  0.45593999997E+02  0.45594000000E+02  0.51100000000E-03 0. -1.
         11   -1    0    0    0    0 -0.00000000000E+00 -0.00000000000E+00 -0.45593999997E+02  0.45594000000E+02  0.51100000000E-03 0.  1.
         23    2    1    2    0    0 -0.35527136788E-14 -0.17763568394E-14  0.00000000000E+00  0.91188000000E+02  0.91188000000E+02 0.  0.
    9900012    2    3    3    0    0 -0.28376632707E+02 -0.11225401757E+02 -0.20604322194E+02  0.54367068161E+02  0.39999963487E+02 0.  0.
         12    1    3    3    0    0  0.28376632707E+02  0.11225401757E+02  0.20604322194E+02  0.36820931839E+02  0.00000000000E+00 0. -1.
         11    1    4    4    0    0 -0.75092693892E+01 -0.10828903928E+02 -0.18475608396E+02  0.22693664158E+02  0.51100000000E-03 0. -1.
        -11    1    4    4    0    0 -0.56215712526E+01  0.10370219267E+02 -0.49586582261E+01  0.12795772844E+02  0.51100000000E-03 0.  1.
         12    1    4    4    0    0 -0.15245792065E+02 -0.10766717097E+02  0.28299444284E+01  0.18877631160E+02  0.00000000000E+00 0. -1.
</event>
<event>
 8    1  0.1229038E-006  0.9118800E+02  0.7816164E-02  0.1184000E+00
        -11   -1    0    0    0    0  0.00000000000E+00  0.00000000000E+00  0.45593999997E+02  0.45594000000E+02  0.51100000000E-03 0.  1.
         11   -1    0    0    0    0 -0.00000000000E+00 -0.00000000000E+00 -0.45593999997E+02  0.45594000000E+02  0.51100000000E-03 0. -1.
         23    2    1    2    0    0 -0.88817841970E-15  0.17763568394E-14  0.00000000000E+00  0.91188000000E+02  0.91188000000E+02 0.  0.
    9900012    2    3    3    0    0  0.16514554810E+01 -0.12076132685E+02  0.34745063843E+02  0.54367085464E+02  0.40000002931E+02 0.  0.
         12    1    3    3    0    0 -0.16514554810E+01  0.12076132685E+02 -0.34745063843E+02  0.36820914536E+02  0.00000000000E+00 0. -1.
         11    1    4    4    0    0 -0.10753733428E+02 -0.20102458901E+02  0.13288816901E+02  0.26388336275E+02  0.51100000000E-03 0. -1.
        -11    1    4    4    0    0  0.14196164914E+02  0.68645182602E+01  0.19549072726E+02  0.25116109450E+02  0.51100000000E-03 0.  1.
         12    1    4    4    0    0 -0.17909760055E+01  0.11618079558E+01  0.19071742158E+01  0.28626397376E+01  0.00000000000E+00 0. -1.
</event>
<event>
 8    1  0.1229038E-006  0.9118800E+02  0.7816164E-02  0.1184000E+00
        -11   -1    0    0    0    0  0.00000000000E+00  0.00000000000E+00  0.45593999997E+02  0.45594000000E+02  0.51100000000E-03 0.  1.
         11   -1    0    0    0    0 -0.00000000000E+00 -0.00000000000E+00 -0.45593999997E+02  0.45594000000E+02  0.51100000000E-03 0. -1.
         23    2    1    2    0    0  0.00000000000E+00  0.88817841970E-15  0.71054273576E-14  0.91188000000E+02  0.91188000000E+02 0.  0.
    9900012    2    3    3    0    0  0.83337604128E+01 -0.25113077710E+01 -0.35777393205E+02  0.54367080758E+02  0.39999992203E+02 0.  0.
        -12    1    3    3    0    0 -0.83337604128E+01  0.25113077710E+01  0.35777393205E+02  0.36820919242E+02  0.00000000000E+00 0.  1.
         11    1    4    4    0    0 -0.87141759337E+01 -0.36772481420E+01 -0.70365836307E+01  0.11788660889E+02  0.51100000000E-03 0. -1.
        -11    1    4    4    0    0  0.22312362316E+02  0.71035226924E+01 -0.20259087544E+02  0.30963400575E+02  0.51100000000E-03 0.  1.
        -12    1    4    4    0    0 -0.52644259694E+01 -0.59375823214E+01 -0.84817220295E+01  0.11615019294E+02  0.00000000000E+00 0.  1.
</event>
<event>
 8    1  0.1229038E-006  0.9118800E+02  0.7816164E-02  0.1184000E+00
        -11   -1    0    0    0    0  0.00000000000E+00  0.00000000000E+00  0.45593999997E+02  0.45594000000E+02  0.51100000000E-03 0.  1.
         11   -1    0    0    0    0 -0.00000000000E+00 -0.00000000000E+00 -0.45593999997E+02  0.45594000000E+02  0.51100000000E-03 0. -1.
         23    2    1    2    0    0 -0.17763568394E-14  0.00000000000E+00  0.00000000000E+00  0.91188000000E+02  0.91188000000E+02 0.  0.
    9900012    2    3    3    0    0 -0.51795471950E+01  0.21597928197E+02  0.29368043619E+02  0.54367079349E+02  0.39999988993E+02 0.  0.
         12    1    3    3    0    0  0.51795471950E+01 -0.21597928197E+02 -0.29368043619E+02  0.36820920651E+02  0.00000000000E+00 0. -1.
         11    1    4    4    0    0 -0.64536711207E+00  0.18013552630E+02  0.15637344527E+02  0.23862755942E+02  0.51100000000E-03 0.  1.
        -11    1    4    4    0    0 -0.15261806521E+02  0.52097580955E+01  0.10255773144E+02  0.19111389294E+02  0.51100000000E-03 0. -1.
         12    1    4    4    0    0  0.10727626438E+02 -0.16253825287E+01  0.34749259484E+01  0.11392934113E+02  0.00000000000E+00 0. -1.
</event>
<event>
 8    1  0.1229038E-006  0.9118800E+02  0.7816164E-02  0.1184000E+00
        -11   -1    0    0    0    0  0.00000000000E+00  0.00000000000E+00  0.45593999997E+02  0.45594000000E+02  0.51100000000E-03 0.  1.
         11   -1    0    0    0    0 -0.00000000000E+00 -0.00000000000E+00 -0.45593999997E+02  0.45594000000E+02  0.51100000000E-03 0. -1.
         23    2    1    2    0    0 -0.35527136788E-14  0.00000000000E+00  0.35527136788E-14  0.91188000000E+02  0.91188000000E+02 0.  0.
    9900012    2    3    3    0    0 -0.19703007077E+02 -0.10085116370E+01  0.31089603402E+02  0.54366959502E+02  0.39999715777E+02 0.  0.
         12    1    3    3    0    0  0.19703007077E+02  0.10085116370E+01 -0.31089603402E+02  0.36821040498E+02  0.00000000000E+00 0. -1.
         11    1    4    4    0    0 -0.38633013037E+01  0.82259847219E+01  0.33765722082E+02  0.34967354913E+02  0.51100000000E-03 0. -1.
        -11    1    4    4    0    0 -0.81602506894E+01 -0.68193298137E+01 -0.37536301155E+01  0.11277530303E+02  0.51100000000E-03 0.  1.
         12    1    4    4    0    0 -0.76794550841E+01 -0.24151665451E+01  0.10775114358E+01  0.81220742870E+01  0.00000000000E+00 0. -1.
</event>
<event>
 8    1  0.1229038E-006  0.9118800E+02  0.7816164E-02  0.1184000E+00
        -11   -1    0    0    0    0  0.00000000000E+00  0.00000000000E+00  0.45593999997E+02  0.45594000000E+02  0.51100000000E-03 0. -1.
         11   -1    0    0    0    0 -0.00000000000E+00 -0.00000000000E+00 -0.45593999997E+02  0.45594000000E+02  0.51100000000E-03 0.  1.
         23    2    1    2    0    0  0.00000000000E+00  0.00000000000E+00  0.00000000000E+00  0.91188000000E+02  0.91188000000E+02 0.  0.
    9900012    2    3    3    0    0 -0.30964124898E+01  0.12316016037E+02  0.34561620519E+02  0.54367114157E+02  0.40000068344E+02 0.  0.
        -12    1    3    3    0    0  0.30964124898E+01 -0.12316016037E+02 -0.34561620519E+02  0.36820885843E+02  0.00000000000E+00 0.  1.
         11    1    4    4    0    0  0.54559211064E+01  0.15553011083E+02  0.48327250745E+01  0.17176101443E+02  0.51100000000E-03 0. -1.
        -11    1    4    4    0    0 -0.33738596264E+01 -0.72558425124E+01  0.14122339506E+01  0.81255513250E+01  0.51100000000E-03 0.  1.
         12    1    4    4    0    0 -0.51784739698E+01  0.40188474661E+01  0.28316661494E+02  0.29065461389E+02  0.00000000000E+00 0. -1.
</event>
<event>
 8    1  0.1229038E-006  0.9118800E+02  0.7816164E-02  0.1184000E+00
        -11   -1    0    0    0    0  0.00000000000E+00  0.00000000000E+00  0.45593999997E+02  0.45594000000E+02  0.51100000000E-03 0. -1.
         11   -1    0    0    0    0 -0.00000000000E+00 -0.00000000000E+00 -0.45593999997E+02  0.45594000000E+02  0.51100000000E-03 0.  1.
         23    2    1    2    0    0  0.17763568394E-14  0.17763568394E-14  0.00000000000E+00  0.91188000000E+02  0.91188000000E+02 0.  0.
    9900012    2    3    3    0    0 -0.15782146609E+02 -0.13803848380E+02 -0.30268080134E+02  0.54367094842E+02  0.40000024311E+02 0.  0.
         12    1    3    3    0    0  0.15782146609E+02  0.13803848380E+02  0.30268080134E+02  0.36820905158E+02  0.00000000000E+00 0. -1.
         11    1    4    4    0    0  0.19666507653E+01  0.62290424950E+01 -0.24409311434E+01  0.69732941101E+01  0.51100000000E-03 0. -1.
        -11    1    4    4    0    0 -0.34379875646E+01  0.54566997968E+01  0.77562171511E+00  0.64959156763E+01  0.51100000000E-03 0.  1.
        -12    1    4    4    0    0 -0.14310809809E+02 -0.25489590672E+02 -0.28602770705E+02  0.40897885056E+02  0.00000000000E+00 0.  1.
</event>
<event>
 8    1  0.1229038E-006  0.9118800E+02  0.7816164E-02  0.1184000E+00
        -11   -1    0    0    0    0  0.00000000000E+00  0.00000000000E+00  0.45593999997E+02  0.45594000000E+02  0.51100000000E-03 0. -1.
         11   -1    0    0    0    0 -0.00000000000E+00 -0.00000000000E+00 -0.45593999997E+02  0.45594000000E+02  0.51100000000E-03 0.  1.
         23    2    1    2    0    0  0.17763568394E-14  0.35527136788E-14  0.35527136788E-14  0.91188000000E+02  0.91188000000E+02 0.  0.
    9900012    2    3    3    0    0  0.10371290328E+02 -0.29521414805E+02  0.19408780595E+02  0.54367104311E+02  0.40000045897E+02 0.  0.
        -12    1    3    3    0    0 -0.10371290328E+02  0.29521414805E+02 -0.19408780595E+02  0.36820895689E+02  0.00000000000E+00 0.  1.
         11    1    4    4    0    0  0.71554358068E+00 -0.35962050158E+02  0.88827382119E+01  0.37049751586E+02  0.51100000000E-03 0. -1.
        -11    1    4    4    0    0  0.87860280572E+00  0.42541803104E+01  0.53651386446E+01  0.69032388008E+01  0.51100000000E-03 0.  1.
         12    1    4    4    0    0  0.87771439416E+01  0.21864550423E+01  0.51609037388E+01  0.10414113924E+02  0.00000000000E+00 0. -1.
</event>
<event>
 8    1  0.1229038E-006  0.9118800E+02  0.7816164E-02  0.1184000E+00
        -11   -1    0    0    0    0  0.00000000000E+00  0.00000000000E+00  0.45593999997E+02  0.45594000000E+02  0.51100000000E-03 0.  1.
         11   -1    0    0    0    0 -0.00000000000E+00 -0.00000000000E+00 -0.45593999997E+02  0.45594000000E+02  0.51100000000E-03 0. -1.
         23    2    1    2    0    0 -0.17763568394E-14  0.35527136788E-14 -0.14210854715E-13  0.91188000000E+02  0.91188000000E+02 0.  0.
    9900012    2    3    3    0    0  0.35373308169E+01 -0.17608873625E+02  0.32143342099E+02  0.54367087722E+02  0.40000008080E+02 0.  0.
         12    1    3    3    0    0 -0.35373308169E+01  0.17608873625E+02 -0.32143342099E+02  0.36820912278E+02  0.00000000000E+00 0. -1.
         11    1    4    4    0    0 -0.36879515599E+01 -0.46710407620E+01  0.15648187025E+01  0.61537197158E+01  0.51100000000E-03 0. -1.
        -11    1    4    4    0    0  0.26681267597E+01 -0.23684574304E+02  0.26976166883E+02  0.35997104610E+02  0.51100000000E-03 0.  1.
         12    1    4    4    0    0  0.45571556171E+01  0.10746741440E+02  0.36023565135E+01  0.12216263396E+02  0.00000000000E+00 0. -1.
</event>
<event>
 8    1  0.1229038E-006  0.9118800E+02  0.7816164E-02  0.1184000E+00
        -11   -1    0    0    0    0  0.00000000000E+00  0.00000000000E+00  0.45593999997E+02  0.45594000000E+02  0.51100000000E-03 0. -1.
         11   -1    0    0    0    0 -0.00000000000E+00 -0.00000000000E+00 -0.45593999997E+02  0.45594000000E+02  0.51100000000E-03 0.  1.
         23    2    1    2    0    0  0.35527136788E-14 -0.35527136788E-14  0.00000000000E+00  0.91188000000E+02  0.91188000000E+02 0.  0.
    9900012    2    3    3    0    0 -0.29426049555E+02 -0.19719296656E+02  0.10051702446E+02  0.54367085086E+02  0.40000002071E+02 0.  0.
         12    1    3    3    0    0  0.29426049555E+02  0.19719296656E+02 -0.10051702446E+02  0.36820914914E+02  0.00000000000E+00 0. -1.
         11    1    4    4    0    0 -0.43892253404E+01 -0.24239751546E+02  0.94357536505E+00  0.24652001721E+02  0.51100000000E-03 0. -1.
        -11    1    4    4    0    0 -0.16558761167E+01  0.11115599689E+01  0.54525317658E+01  0.58058241617E+01  0.51100000000E-03 0.  1.
        -12    1    4    4    0    0 -0.23380948098E+02  0.34088949212E+01  0.36555953147E+01  0.23909259204E+02  0.00000000000E+00 0.  1.
</event>
<event>
 8    1  0.1229038E-006  0.9118800E+02  0.7816164E-02  0.1184000E+00
        -11   -1    0    0    0    0  0.00000000000E+00  0.00000000000E+00  0.45593999997E+02  0.45594000000E+02  0.51100000000E-03 0.  1.
         11   -1    0    0    0    0 -0.00000000000E+00 -0.00000000000E+00 -0.45593999997E+02  0.45594000000E+02  0.51100000000E-03 0. -1.
         23    2    1    2    0    0  0.35527136788E-14 -0.35527136788E-14  0.00000000000E+00  0.91188000000E+02  0.91188000000E+02 0.  0.
    9900012    2    3    3    0    0  0.16585178439E+02 -0.31231000955E+02  0.10263361984E+02  0.54367079809E+02  0.39999990041E+02 0.  0.
         12    1    3    3    0    0 -0.16585178439E+02  0.31231000955E+02 -0.10263361984E+02  0.36820920191E+02  0.00000000000E+00 0. -1.
         11    1    4    4    0    0 -0.85795312926E+00 -0.24843837176E+02 -0.31253407527E+01  0.25054342623E+02  0.51100000000E-03 0. -1.
        -11    1    4    4    0    0  0.62238144588E+01  0.30078832968E+01  0.12942026918E+02  0.14672398896E+02  0.51100000000E-03 0.  1.
         12    1    4    4    0    0  0.11219317110E+02 -0.93950470756E+01  0.44667581865E+00  0.14640338290E+02  0.00000000000E+00 0. -1.
</event>
<event>
 8    1  0.1229038E-006  0.9118800E+02  0.7816164E-02  0.1184000E+00
        -11   -1    0    0    0    0  0.00000000000E+00  0.00000000000E+00  0.45593999997E+02  0.45594000000E+02  0.51100000000E-03 0.  1.
         11   -1    0    0    0    0 -0.00000000000E+00 -0.00000000000E+00 -0.45593999997E+02  0.45594000000E+02  0.51100000000E-03 0. -1.
         23    2    1    2    0    0 -0.17763568394E-14  0.00000000000E+00  0.00000000000E+00  0.91188000000E+02  0.91188000000E+02 0.  0.
    9900012    2    3    3    0    0  0.14293624289E+02 -0.19162559094E+02 -0.28004798197E+02  0.54367080831E+02  0.39999992372E+02 0.  0.
        -12    1    3    3    0    0 -0.14293624289E+02  0.19162559094E+02  0.28004798197E+02  0.36820919169E+02  0.00000000000E+00 0.  1.
         11    1    4    4    0    0  0.38682730271E+01  0.65251422496E+01 -0.73700383757E+01  0.10576317105E+02  0.51100000000E-03 0.  1.
        -11    1    4    4    0    0  0.98410863556E+01  0.27067822662E+01 -0.48820389424E+01  0.11314060075E+02  0.51100000000E-03 0. -1.
         12    1    4    4    0    0  0.58426490642E+00 -0.28394483609E+02 -0.15752720879E+02  0.32476703651E+02  0.00000000000E+00 0. -1.
</event>
<event>
 8    1  0.1229038E-006  0.9118800E+02  0.7816164E-02  0.1184000E+00
        -11   -1    0    0    0    0  0.00000000000E+00  0.00000000000E+00  0.45593999997E+02  0.45594000000E+02  0.51100000000E-03 0.  1.
         11   -1    0    0    0    0 -0.00000000000E+00 -0.00000000000E+00 -0.45593999997E+02  0.45594000000E+02  0.51100000000E-03 0. -1.
         23    2    1    2    0    0  0.17763568394E-14  0.00000000000E+00  0.00000000000E+00  0.91188000000E+02  0.91188000000E+02 0.  0.
    9900012    2    3    3    0    0  0.15145549584E+02  0.32436539071E+02 -0.86175642813E+01  0.54367093530E+02  0.40000021321E+02 0.  0.
        -12    1    3    3    0    0 -0.15145549584E+02 -0.32436539071E+02  0.86175642813E+01  0.36820906470E+02  0.00000000000E+00 0.  1.
         11    1    4    4    0    0 -0.22776577448E+01  0.45332223783E+01 -0.12278344957E+02  0.13285164097E+02  0.51100000000E-03 0. -1.
        -11    1    4    4    0    0  0.97043751793E+01 -0.20400825516E+01 -0.20727913372E+00  0.99186591502E+01  0.51100000000E-03 0.  1.
         12    1    4    4    0    0  0.77188321498E+01  0.29943399244E+02  0.38680598092E+01  0.31163270283E+02  0.00000000000E+00 0. -1.
</event>
<event>
 8    1  0.1229038E-006  0.9118800E+02  0.7816164E-02  0.1184000E+00
        -11   -1    0    0    0    0  0.00000000000E+00  0.00000000000E+00  0.45593999997E+02  0.45594000000E+02  0.51100000000E-03 0.  1.
         11   -1    0    0    0    0 -0.00000000000E+00 -0.00000000000E+00 -0.45593999997E+02  0.45594000000E+02  0.51100000000E-03 0. -1.
         23    2    1    2    0    0  0.35527136788E-14  0.17763568394E-14  0.00000000000E+00  0.91188000000E+02  0.91188000000E+02 0.  0.
    9900012    2    3    3    0    0  0.25015717875E+02 -0.15265813288E+02  0.22292334660E+02  0.54367090441E+02  0.40000014278E+02 0.  0.
         12    1    3    3    0    0 -0.25015717875E+02  0.15265813288E+02 -0.22292334660E+02  0.36820909559E+02  0.00000000000E+00 0. -1.
         11    1    4    4    0    0 -0.62716809170E+01 -0.46295110370E+01 -0.23838583541E+01  0.81516338779E+01  0.51100000000E-03 0. -1.
        -11    1    4    4    0    0  0.24184043154E+02 -0.16717776202E+00  0.23138825347E+02  0.33470899755E+02  0.51100000000E-03 0.  1.
        -12    1    4    4    0    0  0.71033556388E+01 -0.10469124489E+02  0.15373676666E+01  0.12744556808E+02  0.00000000000E+00 0.  1.
</event>
<event>
 8    1  0.1229038E-006  0.9118800E+02  0.7816164E-02  0.1184000E+00
        -11   -1    0    0    0    0  0.00000000000E+00  0.00000000000E+00  0.45593999997E+02  0.45594000000E+02  0.51100000000E-03 0. -1.
         11   -1    0    0    0    0 -0.00000000000E+00 -0.00000000000E+00 -0.45593999997E+02  0.45594000000E+02  0.51100000000E-03 0.  1.
         23    2    1    2    0    0  0.00000000000E+00  0.00000000000E+00  0.00000000000E+00  0.91188000000E+02  0.91188000000E+02 0.  0.
    9900012    2    3    3    0    0 -0.51295468753E+01 -0.53236071182E+01 -0.36071134543E+02  0.54367084868E+02  0.40000001574E+02 0.  0.
         12    1    3    3    0    0  0.51295468753E+01  0.53236071182E+01  0.36071134543E+02  0.36820915132E+02  0.00000000000E+00 0. -1.
         11    1    4    4    0    0 -0.91029925756E+01 -0.71700455913E+01  0.31135657710E+01  0.11998679914E+02  0.51100000000E-03 0. -1.
        -11    1    4    4    0    0  0.95650504115E+01  0.34701623892E+01 -0.22406539148E+02  0.24608641028E+02  0.51100000000E-03 0.  1.
        -12    1    4    4    0    0 -0.55916047112E+01 -0.16237239161E+01 -0.16778161166E+02  0.17759763926E+02  0.00000000000E+00 0.  1.
</event>
<event>
 8    1  0.1229038E-006  0.9118800E+02  0.7816164E-02  0.1184000E+00
        -11   -1    0    0    0    0  0.00000000000E+00  0.00000000000E+00  0.45593999997E+02  0.45594000000E+02  0.51100000000E-03 0. -1.
         11   -1    0    0    0    0 -0.00000000000E+00 -0.00000000000E+00 -0.45593999997E+02  0.45594000000E+02  0.51100000000E-03 0.  1.
         23    2    1    2    0    0  0.35527136788E-14 -0.35527136788E-14 -0.35527136788E-14  0.91188000000E+02  0.91188000000E+02 0.  0.
    9900012    2    3    3    0    0 -0.21195724754E+02  0.24144204920E+02  0.17988320553E+02  0.54367067701E+02  0.39999962438E+02 0.  0.
         12    1    3    3    0    0  0.21195724754E+02 -0.24144204920E+02 -0.17988320553E+02  0.36820932299E+02  0.00000000000E+00 0. -1.
         11    1    4    4    0    0 -0.80735589841E+01  0.19156308033E+02  0.91608775979E+01  0.22717133858E+02  0.51100000000E-03 0.  1.
        -11    1    4    4    0    0 -0.20267931843E+01  0.66350337997E+01 -0.85228174396E+01  0.10989539640E+02  0.51100000000E-03 0. -1.
         12    1    4    4    0    0 -0.11095372585E+02 -0.16471369128E+01  0.17350260395E+02  0.20660394202E+02  0.00000000000E+00 0. -1.
</event>
<event>
 8    1  0.1229038E-006  0.9118800E+02  0.7816164E-02  0.1184000E+00
        -11   -1    0    0    0    0  0.00000000000E+00  0.00000000000E+00  0.45593999997E+02  0.45594000000E+02  0.51100000000E-03 0.  1.
         11   -1    0    0    0    0 -0.00000000000E+00 -0.00000000000E+00 -0.45593999997E+02  0.45594000000E+02  0.51100000000E-03 0. -1.
         23    2    1    2    0    0  0.00000000000E+00  0.00000000000E+00 -0.17763568394E-14  0.91188000000E+02  0.91188000000E+02 0.  0.
    9900012    2    3    3    0    0  0.34179802291E+02 -0.95415266095E+01  0.98223164521E+01  0.54367115774E+02  0.40000072031E+02 0.  0.
        -12    1    3    3    0    0 -0.34179802291E+02  0.95415266095E+01 -0.98223164521E+01  0.36820884226E+02  0.00000000000E+00 0.  1.
         11    1    4    4    0    0  0.12938602788E+02 -0.10775538219E+02 -0.93363791693E+01  0.19253250174E+02  0.51100000000E-03 0. -1.
        -11    1    4    4    0    0  0.37775244607E+01 -0.72547899926E+01  0.11780966155E+02  0.14341995423E+02  0.51100000000E-03 0.  1.
        -12    1    4    4    0    0  0.17463675042E+02  0.84888016018E+01  0.73777294660E+01  0.20771870178E+02  0.00000000000E+00 0.  1.
</event>
<event>
 8    1  0.1229038E-006  0.9118800E+02  0.7816164E-02  0.1184000E+00
        -11   -1    0    0    0    0  0.00000000000E+00  0.00000000000E+00  0.45593999997E+02  0.45594000000E+02  0.51100000000E-03 0.  1.
         11   -1    0    0    0    0 -0.00000000000E+00 -0.00000000000E+00 -0.45593999997E+02  0.45594000000E+02  0.51100000000E-03 0. -1.
         23    2    1    2    0    0 -0.35527136788E-14  0.35527136788E-14  0.00000000000E+00  0.91188000000E+02  0.91188000000E+02 0.  0.
    9900012    2    3    3    0    0 -0.21346515154E+02  0.17849507621E+02  0.24114328761E+02  0.54367089051E+02  0.40000011108E+02 0.  0.
         12    1    3    3    0    0  0.21346515154E+02 -0.17849507621E+02 -0.24114328761E+02  0.36820910949E+02  0.00000000000E+00 0. -1.
         11    1    4    4    0    0 -0.20436608642E+00  0.95989180730E+01  0.23679170377E+02  0.25551596891E+02  0.51100000000E-03 0. -1.
        -11    1    4    4    0    0  0.21144402770E+01  0.48714200200E+01 -0.74227582823E-02  0.53105222017E+01  0.51100000000E-03 0.  1.
        -12    1    4    4    0    0 -0.23256589345E+02  0.33791695280E+01  0.44258114244E+00  0.23504969958E+02  0.00000000000E+00 0.  1.
</event>
<event>
 8    1  0.1229038E-006  0.9118800E+02  0.7816164E-02  0.1184000E+00
        -11   -1    0    0    0    0  0.00000000000E+00  0.00000000000E+00  0.45593999997E+02  0.45594000000E+02  0.51100000000E-03 0. -1.
         11   -1    0    0    0    0 -0.00000000000E+00 -0.00000000000E+00 -0.45593999997E+02  0.45594000000E+02  0.51100000000E-03 0.  1.
         23    2    1    2    0    0  0.26645352591E-14  0.00000000000E+00  0.00000000000E+00  0.91188000000E+02  0.91188000000E+02 0.  0.
    9900012    2    3    3    0    0  0.49733353646E+01  0.21928617529E+02  0.29157872216E+02  0.54367084157E+02  0.39999999953E+02 0.  0.
        -12    1    3    3    0    0 -0.49733353646E+01 -0.21928617529E+02 -0.29157872216E+02  0.36820915843E+02  0.00000000000E+00 0.  1.
         11    1    4    4    0    0  0.10022734370E+02  0.76360974511E+01  0.15343347282E+02  0.19854054866E+02  0.51100000000E-03 0. -1.
        -11    1    4    4    0    0  0.69670842796E+01 -0.23866346099E+01  0.11730502270E+02  0.13850666839E+02  0.51100000000E-03 0.  1.
         12    1    4    4    0    0 -0.12016483285E+02  0.16679154688E+02  0.20840226632E+01  0.20662362452E+02  0.00000000000E+00 0. -1.
</event>
<event>
 8    1  0.1229038E-006  0.9118800E+02  0.7816164E-02  0.1184000E+00
        -11   -1    0    0    0    0  0.00000000000E+00  0.00000000000E+00  0.45593999997E+02  0.45594000000E+02  0.51100000000E-03 0. -1.
         11   -1    0    0    0    0 -0.00000000000E+00 -0.00000000000E+00 -0.45593999997E+02  0.45594000000E+02  0.51100000000E-03 0.  1.
         23    2    1    2    0    0  0.00000000000E+00  0.00000000000E+00  0.00000000000E+00  0.91188000000E+02  0.91188000000E+02 0.  0.
    9900012    2    3    3    0    0  0.31891320717E+02 -0.46934207189E+00 -0.18398392829E+02  0.54367116282E+02  0.40000073189E+02 0.  0.
        -12    1    3    3    0    0 -0.31891320717E+02  0.46934207189E+00  0.18398392829E+02  0.36820883718E+02  0.00000000000E+00 0.  1.
         11    1    4    4    0    0  0.25826960081E+02  0.25444356466E+00 -0.65567774043E+01  0.26647475279E+02  0.51100000000E-03 0. -1.
        -11    1    4    4    0    0  0.12875533135E+02  0.28304822401E+01 -0.14493422144E+02  0.19592097104E+02  0.51100000000E-03 0.  1.
        -12    1    4    4    0    0 -0.68111724994E+01 -0.35542678766E+01  0.26518067193E+01  0.81275438991E+01  0.00000000000E+00 0.  1.
</event>
<event>
 8    1  0.1229038E-006  0.9118800E+02  0.7816164E-02  0.1184000E+00
        -11   -1    0    0    0    0  0.00000000000E+00  0.00000000000E+00  0.45593999997E+02  0.45594000000E+02  0.51100000000E-03 0.  1.
         11   -1    0    0    0    0 -0.00000000000E+00 -0.00000000000E+00 -0.45593999997E+02  0.45594000000E+02  0.51100000000E-03 0. -1.
         23    2    1    2    0    0 -0.71054273576E-14  0.00000000000E+00 -0.26645352591E-14  0.91188000000E+02  0.91188000000E+02 0.  0.
    9900012    2    3    3    0    0 -0.35488756750E+02  0.92377376517E+01 -0.33155717319E+01  0.54367072955E+02  0.39999974415E+02 0.  0.
         12    1    3    3    0    0  0.35488756750E+02 -0.92377376517E+01  0.33155717319E+01  0.36820927045E+02  0.00000000000E+00 0. -1.
         11    1    4    4    0    0 -0.50095954907E+01  0.12808488857E+02  0.54883804928E+01  0.14807962537E+02  0.51100000000E-03 0. -1.
        -11    1    4    4    0    0 -0.16582938285E+01  0.52585115356E+01  0.39975146515E+01  0.68104335869E+01  0.51100000000E-03 0.  1.
         12    1    4    4    0    0 -0.28820867431E+02 -0.88292627413E+01 -0.12801466876E+02  0.32748676831E+02  0.00000000000E+00 0. -1.
</event>
<event>
 8    1  0.1229038E-006  0.9118800E+02  0.7816164E-02  0.1184000E+00
        -11   -1    0    0    0    0  0.00000000000E+00  0.00000000000E+00  0.45593999997E+02  0.45594000000E+02  0.51100000000E-03 0.  1.
         11   -1    0    0    0    0 -0.00000000000E+00 -0.00000000000E+00 -0.45593999997E+02  0.45594000000E+02  0.51100000000E-03 0. -1.
         23    2    1    2    0    0  0.00000000000E+00  0.35527136788E-14  0.00000000000E+00  0.91188000000E+02  0.91188000000E+02 0.  0.
    9900012    2    3    3    0    0  0.27257537569E+02 -0.16079454687E+02 -0.18821752081E+02  0.54367074309E+02  0.39999977502E+02 0.  0.
        -12    1    3    3    0    0 -0.27257537569E+02  0.16079454687E+02  0.18821752081E+02  0.36820925691E+02  0.00000000000E+00 0.  1.
         11    1    4    4    0    0  0.16730884348E+02  0.75229234345E+01 -0.64612076682E+01  0.19449012131E+02  0.51100000000E-03 0. -1.
        -11    1    4    4    0    0  0.53777723786E+01 -0.97265136686E+01  0.49296560255E+01  0.12158413247E+02  0.51100000000E-03 0.  1.
        -12    1    4    4    0    0  0.51488808423E+01 -0.13875864453E+02 -0.17290200438E+02  0.22759648931E+02  0.00000000000E+00 0.  1.
</event>
<event>
 8    1  0.1229038E-006  0.9118800E+02  0.7816164E-02  0.1184000E+00
        -11   -1    0    0    0    0  0.00000000000E+00  0.00000000000E+00  0.45593999997E+02  0.45594000000E+02  0.51100000000E-03 0.  1.
         11   -1    0    0    0    0 -0.00000000000E+00 -0.00000000000E+00 -0.45593999997E+02  0.45594000000E+02  0.51100000000E-03 0. -1.
         23    2    1    2    0    0  0.00000000000E+00  0.12212453271E-14 -0.22204460493E-15  0.91188000000E+02  0.91188000000E+02 0.  0.
    9900012    2    3    3    0    0 -0.36806476680E+02 -0.21177554223E+00 -0.10093710688E+01  0.54367076540E+02  0.39999982588E+02 0.  0.
        -12    1    3    3    0    0  0.36806476680E+02  0.21177554223E+00  0.10093710688E+01  0.36820923460E+02  0.00000000000E+00 0.  1.
         11    1    4    4    0    0 -0.12000054365E+02 -0.12683678168E+02  0.12416866646E+01  0.17504821698E+02  0.51100000000E-03 0. -1.
        -11    1    4    4    0    0  0.25287698650E+01  0.47244837169E+01  0.52237930297E+01  0.74835444343E+01  0.51100000000E-03 0.  1.
        -12    1    4    4    0    0 -0.27335192180E+02  0.77474189089E+01 -0.74748507631E+01  0.29378710408E+02  0.00000000000E+00 0.  1.
</event>
<event>
 8    1  0.1229038E-006  0.9118800E+02  0.7816164E-02  0.1184000E+00
        -11   -1    0    0    0    0  0.00000000000E+00  0.00000000000E+00  0.45593999997E+02  0.45594000000E+02  0.51100000000E-03 0.  1.
         11   -1    0    0    0    0 -0.00000000000E+00 -0.00000000000E+00 -0.45593999997E+02  0.45594000000E+02  0.51100000000E-03 0. -1.
         23    2    1    2    0    0 -0.35527136788E-14 -0.17763568394E-14 -0.35527136788E-14  0.91188000000E+02  0.91188000000E+02 0.  0.
    9900012    2    3    3    0    0 -0.29796107660E+02  0.13758475120E+02 -0.16693589091E+02  0.54367087653E+02  0.40000007922E+02 0.  0.
        -12    1    3    3    0    0  0.29796107660E+02 -0.13758475120E+02  0.16693589091E+02  0.36820912347E+02  0.00000000000E+00 0.  1.
         11    1    4    4    0    0 -0.18903894967E+02  0.40494303176E+01 -0.27131663899E+02  0.33314896323E+02  0.51100000000E-03 0. -1.
        -11    1    4    4    0    0 -0.45160871032E+01  0.10866491130E+02  0.73431318044E+01  0.13870733836E+02  0.51100000000E-03 0.  1.
         12    1    4    4    0    0 -0.63761255899E+01 -0.11574463274E+01  0.30949430037E+01  0.71814574938E+01  0.00000000000E+00 0. -1.
</event>
<event>
 8    1  0.1229038E-006  0.9118800E+02  0.7816164E-02  0.1184000E+00
        -11   -1    0    0    0    0  0.00000000000E+00  0.00000000000E+00  0.45593999997E+02  0.45594000000E+02  0.51100000000E-03 0. -1.
         11   -1    0    0    0    0 -0.00000000000E+00 -0.00000000000E+00 -0.45593999997E+02  0.45594000000E+02  0.51100000000E-03 0.  1.
         23    2    1    2    0    0 -0.35527136788E-14 -0.35527136788E-14  0.00000000000E+00  0.91188000000E+02  0.91188000000E+02 0.  0.
    9900012    2    3    3    0    0  0.31982782069E+02  0.94885772456E+01 -0.15583693511E+02  0.54367041967E+02  0.39999903771E+02 0.  0.
         12    1    3    3    0    0 -0.31982782069E+02 -0.94885772456E+01  0.15583693511E+02  0.36820958033E+02  0.00000000000E+00 0. -1.
         11    1    4    4    0    0 -0.26543614082E+01  0.15261439286E+01  0.79118780036E+00  0.31623927923E+01  0.51100000000E-03 0. -1.
        -11    1    4    4    0    0  0.15234341182E+02 -0.12809209781E+02 -0.45392371702E+01  0.20414839721E+02  0.51100000000E-03 0.  1.
        -12    1    4    4    0    0  0.19402802296E+02  0.20771643098E+02 -0.11835644142E+02  0.30789809454E+02  0.00000000000E+00 0.  1.
</event>
<event>
 8    1  0.1229038E-006  0.9118800E+02  0.7816164E-02  0.1184000E+00
        -11   -1    0    0    0    0  0.00000000000E+00  0.00000000000E+00  0.45593999997E+02  0.45594000000E+02  0.51100000000E-03 0. -1.
         11   -1    0    0    0    0 -0.00000000000E+00 -0.00000000000E+00 -0.45593999997E+02  0.45594000000E+02  0.51100000000E-03 0.  1.
         23    2    1    2    0    0  0.00000000000E+00 -0.35527136788E-14 -0.35527136788E-14  0.91188000000E+02  0.91188000000E+02 0.  0.
    9900012    2    3    3    0    0 -0.18729942856E+02  0.20020937170E+02  0.24579099351E+02  0.54367071040E+02  0.39999970050E+02 0.  0.
        -12    1    3    3    0    0  0.18729942856E+02 -0.20020937170E+02 -0.24579099351E+02  0.36820928960E+02  0.00000000000E+00 0.  1.
         11    1    4    4    0    0 -0.30461609926E+01  0.10051075281E+02 -0.17407033475E+01  0.10645809481E+02  0.51100000000E-03 0. -1.
        -11    1    4    4    0    0 -0.23574099901E+02  0.10686326635E+02  0.24396013757E+02  0.35568261844E+02  0.51100000000E-03 0.  1.
        -12    1    4    4    0    0  0.78903180374E+01 -0.71646474687E+00  0.19237889419E+01  0.81529997153E+01  0.00000000000E+00 0.  1.
</event>
<event>
 8    1  0.1229038E-006  0.9118800E+02  0.7816164E-02  0.1184000E+00
        -11   -1    0    0    0    0  0.00000000000E+00  0.00000000000E+00  0.45593999997E+02  0.45594000000E+02  0.51100000000E-03 0. -1.
         11   -1    0    0    0    0 -0.00000000000E+00 -0.00000000000E+00 -0.45593999997E+02  0.45594000000E+02  0.51100000000E-03 0.  1.
         23    2    1    2    0    0  0.35527136788E-14  0.17763568394E-14  0.00000000000E+00  0.91188000000E+02  0.91188000000E+02 0.  0.
    9900012    2    3    3    0    0 -0.29144149728E+02  0.14906398121E+02 -0.16858200994E+02  0.54367066972E+02  0.39999960775E+02 0.  0.
         12    1    3    3    0    0  0.29144149728E+02 -0.14906398121E+02  0.16858200994E+02  0.36820933028E+02  0.00000000000E+00 0. -1.
         11    1    4    4    0    0 -0.22640345812E+01  0.57575763559E+01 -0.16145362468E+02  0.17290120519E+02  0.51100000000E-03 0. -1.
        -11    1    4    4    0    0 -0.19939012100E+02  0.16285924368E+02 -0.50195673986E+01  0.26229593843E+02  0.51100000000E-03 0.  1.
         12    1    4    4    0    0 -0.69411030465E+01 -0.71371026022E+01  0.43067288724E+01  0.10847352610E+02  0.00000000000E+00 0. -1.
</event>
<event>
 8    1  0.1229038E-006  0.9118800E+02  0.7816164E-02  0.1184000E+00
        -11   -1    0    0    0    0  0.00000000000E+00  0.00000000000E+00  0.45593999997E+02  0.45594000000E+02  0.51100000000E-03 0.  1.
         11   -1    0    0    0    0 -0.00000000000E+00 -0.00000000000E+00 -0.45593999997E+02  0.45594000000E+02  0.51100000000E-03 0. -1.
         23    2    1    2    0    0  0.71054273576E-14  0.00000000000E+00  0.17763568394E-14  0.91188000000E+02  0.91188000000E+02 0.  0.
    9900012    2    3    3    0    0 -0.20334133475E+02 -0.26460854551E+02 -0.15560381903E+02  0.54367091636E+02  0.40000017003E+02 0.  0.
        -12    1    3    3    0    0  0.20334133475E+02  0.26460854551E+02  0.15560381903E+02  0.36820908364E+02  0.00000000000E+00 0.  1.
         11    1    4    4    0    0  0.38703145780E+01 -0.22463806195E+01 -0.38184966063E+01  0.58827270388E+01  0.51100000000E-03 0. -1.
        -11    1    4    4    0    0  0.62557099426E+01  0.51689633163E+00  0.24817141642E+01  0.67498143795E+01  0.51100000000E-03 0.  1.
         12    1    4    4    0    0 -0.30460157996E+02 -0.24731370263E+02 -0.14223599461E+02  0.41734550218E+02  0.00000000000E+00 0. -1.
</event>
<event>
 8    1  0.1229038E-006  0.9118800E+02  0.7816164E-02  0.1184000E+00
        -11   -1    0    0    0    0  0.00000000000E+00  0.00000000000E+00  0.45593999997E+02  0.45594000000E+02  0.51100000000E-03 0. -1.
         11   -1    0    0    0    0 -0.00000000000E+00 -0.00000000000E+00 -0.45593999997E+02  0.45594000000E+02  0.51100000000E-03 0.  1.
         23    2    1    2    0    0  0.00000000000E+00  0.17763568394E-14  0.35527136788E-14  0.91188000000E+02  0.91188000000E+02 0.  0.
    9900012    2    3    3    0    0  0.18388432729E+02  0.15847097531E+02 -0.27686014385E+02  0.54367077267E+02  0.39999984246E+02 0.  0.
         12    1    3    3    0    0 -0.18388432729E+02 -0.15847097531E+02  0.27686014385E+02  0.36820922733E+02  0.00000000000E+00 0. -1.
         11    1    4    4    0    0 -0.60849488481E+01  0.56014639875E+01  0.22506200645E+01  0.85713646652E+01  0.51100000000E-03 0. -1.
        -11    1    4    4    0    0  0.88500853901E+01  0.11308659453E+02 -0.30485779664E+01  0.14680041482E+02  0.51100000000E-03 0.  1.
         12    1    4    4    0    0  0.15623296187E+02 -0.10630259092E+01 -0.26888056483E+02  0.31115671120E+02  0.00000000000E+00 0. -1.
</event>
<event>
 8    1  0.1229038E-006  0.9118800E+02  0.7816164E-02  0.1184000E+00
        -11   -1    0    0    0    0  0.00000000000E+00  0.00000000000E+00  0.45593999997E+02  0.45594000000E+02  0.51100000000E-03 0.  1.
         11   -1    0    0    0    0 -0.00000000000E+00 -0.00000000000E+00 -0.45593999997E+02  0.45594000000E+02  0.51100000000E-03 0. -1.
         23    2    1    2    0    0 -0.17763568394E-14  0.00000000000E+00  0.00000000000E+00  0.91188000000E+02  0.91188000000E+02 0.  0.
    9900012    2    3    3    0    0  0.91728715500E+01 -0.41496873668E+01 -0.35417755987E+02  0.54367096740E+02  0.40000028638E+02 0.  0.
        -12    1    3    3    0    0 -0.91728715500E+01  0.41496873668E+01  0.35417755987E+02  0.36820903260E+02  0.00000000000E+00 0.  1.
         11    1    4    4    0    0  0.79107430107E+01 -0.18011403091E+02 -0.16922450173E+02  0.25949177567E+02  0.51100000000E-03 0. -1.
        -11    1    4    4    0    0 -0.56073241159E+00 -0.25785417450E+01 -0.89269591962E+01  0.93088076100E+01  0.51100000000E-03 0.  1.
         12    1    4    4    0    0  0.18228609509E+01  0.16440257469E+02 -0.95683466181E+01  0.19109111563E+02  0.00000000000E+00 0. -1.
</event>
<event>
 8    1  0.1229038E-006  0.9118800E+02  0.7816164E-02  0.1184000E+00
        -11   -1    0    0    0    0  0.00000000000E+00  0.00000000000E+00  0.45593999997E+02  0.45594000000E+02  0.51100000000E-03 0.  1.
         11   -1    0    0    0    0 -0.00000000000E+00 -0.00000000000E+00 -0.45593999997E+02  0.45594000000E+02  0.51100000000E-03 0. -1.
         23    2    1    2    0    0  0.00000000000E+00  0.00000000000E+00  0.55511151231E-15  0.91188000000E+02  0.91188000000E+02 0.  0.
    9900012    2    3    3    0    0 -0.30732298943E+02 -0.20267622325E+02  0.72755615207E+00  0.54367081339E+02  0.39999993529E+02 0.  0.
         12    1    3    3    0    0  0.30732298943E+02  0.20267622325E+02 -0.72755615207E+00  0.36820918661E+02  0.00000000000E+00 0. -1.
         11    1    4    4    0    0  0.14137813247E+01  0.44103145667E+01 -0.35202784788E+01  0.58173888507E+01  0.51100000000E-03 0. -1.
        -11    1    4    4    0    0 -0.20946546137E+02 -0.33410447005E+01  0.10480334059E+02  0.23659200684E+02  0.51100000000E-03 0.  1.
        -12    1    4    4    0    0 -0.11199534131E+02 -0.21336892192E+02 -0.62324994277E+01  0.24890491805E+02  0.00000000000E+00 0.  1.
</event>
<event>
 8    1  0.1229038E-006  0.9118800E+02  0.7816164E-02  0.1184000E+00
        -11   -1    0    0    0    0  0.00000000000E+00  0.00000000000E+00  0.45593999997E+02  0.45594000000E+02  0.51100000000E-03 0.  1.
         11   -1    0    0    0    0 -0.00000000000E+00 -0.00000000000E+00 -0.45593999997E+02  0.45594000000E+02  0.51100000000E-03 0. -1.
         23    2    1    2    0    0  0.00000000000E+00 -0.88817841970E-15  0.88817841970E-15  0.91188000000E+02  0.91188000000E+02 0.  0.
    9900012    2    3    3    0    0 -0.35700957550E+02  0.64903877916E+01 -0.62532127183E+01  0.54366998208E+02  0.39999804013E+02 0.  0.
         12    1    3    3    0    0  0.35700957550E+02 -0.64903877916E+01  0.62532127183E+01  0.36821001792E+02  0.00000000000E+00 0. -1.
         11    1    4    4    0    0 -0.27515321876E+02 -0.56171768759E+01  0.10280950801E+02  0.29905577467E+02  0.51100000000E-03 0. -1.
        -11    1    4    4    0    0 -0.59247538535E+01  0.30747819900E+01 -0.16031945100E+01  0.68649271961E+01  0.51100000000E-03 0.  1.
         12    1    4    4    0    0 -0.22608818209E+01  0.90327826775E+01 -0.14930969009E+02  0.17596493545E+02  0.00000000000E+00 0. -1.
</event>
<event>
 8    1  0.1229038E-006  0.9118800E+02  0.7816164E-02  0.1184000E+00
        -11   -1    0    0    0    0  0.00000000000E+00  0.00000000000E+00  0.45593999997E+02  0.45594000000E+02  0.51100000000E-03 0.  1.
         11   -1    0    0    0    0 -0.00000000000E+00 -0.00000000000E+00 -0.45593999997E+02  0.45594000000E+02  0.51100000000E-03 0. -1.
         23    2    1    2    0    0  0.00000000000E+00  0.00000000000E+00 -0.71054273576E-14  0.91188000000E+02  0.91188000000E+02 0.  0.
    9900012    2    3    3    0    0  0.83991160406E+01 -0.12162000456E+02 -0.33724191410E+02  0.54367075357E+02  0.39999979890E+02 0.  0.
        -12    1    3    3    0    0 -0.83991160406E+01  0.12162000456E+02  0.33724191410E+02  0.36820924643E+02  0.00000000000E+00 0.  1.
         11    1    4    4    0    0  0.68617310257E+01 -0.10854573546E+01 -0.91495171285E+01  0.11488047453E+02  0.51100000000E-03 0. -1.
        -11    1    4    4    0    0 -0.10795555414E+02 -0.61993522720E+00 -0.24422322082E+02  0.26709139869E+02  0.51100000000E-03 0.  1.
        -12    1    4    4    0    0  0.12332940429E+02 -0.10456607874E+02 -0.15235219924E+00  0.16169888035E+02  0.00000000000E+00 0.  1.
</event>
<event>
 8    1  0.1229038E-006  0.9118800E+02  0.7816164E-02  0.1184000E+00
        -11   -1    0    0    0    0  0.00000000000E+00  0.00000000000E+00  0.45593999997E+02  0.45594000000E+02  0.51100000000E-03 0.  1.
         11   -1    0    0    0    0 -0.00000000000E+00 -0.00000000000E+00 -0.45593999997E+02  0.45594000000E+02  0.51100000000E-03 0. -1.
         23    2    1    2    0    0  0.88817841970E-15 -0.35527136788E-14  0.35527136788E-14  0.91188000000E+02  0.91188000000E+02 0.  0.
    9900012    2    3    3    0    0  0.35815910868E+01  0.27519252697E+02 -0.24200056561E+02  0.54367084731E+02  0.40000001260E+02 0.  0.
        -12    1    3    3    0    0 -0.35815910868E+01 -0.27519252697E+02  0.24200056561E+02  0.36820915269E+02  0.00000000000E+00 0.  1.
         11    1    4    4    0    0 -0.25228329373E+01  0.23631252382E+02 -0.12720718851E+02  0.26955842846E+02  0.51100000000E-03 0. -1.
        -11    1    4    4    0    0 -0.50968535441E+01  0.88317786350E+01  0.59634039568E+00  0.10214394355E+02  0.51100000000E-03 0.  1.
         12    1    4    4    0    0  0.11201277568E+02 -0.49437783203E+01 -0.12075678106E+02  0.17196847530E+02  0.00000000000E+00 0. -1.
</event>
<event>
 8    1  0.1229038E-006  0.9118800E+02  0.7816164E-02  0.1184000E+00
        -11   -1    0    0    0    0  0.00000000000E+00  0.00000000000E+00  0.45593999997E+02  0.45594000000E+02  0.51100000000E-03 0. -1.
         11   -1    0    0    0    0 -0.00000000000E+00 -0.00000000000E+00 -0.45593999997E+02  0.45594000000E+02  0.51100000000E-03 0.  1.
         23    2    1    2    0    0  0.00000000000E+00  0.17763568394E-14  0.00000000000E+00  0.91188000000E+02  0.91188000000E+02 0.  0.
    9900012    2    3    3    0    0  0.80253496344E+01  0.90759894231E+01  0.34770687932E+02  0.54367074428E+02  0.39999977772E+02 0.  0.
        -12    1    3    3    0    0 -0.80253496344E+01 -0.90759894231E+01 -0.34770687932E+02  0.36820925572E+02  0.00000000000E+00 0.  1.
         11    1    4    4    0    0  0.93192734701E+01  0.18593906267E+02  0.20363618967E+02  0.29107716949E+02  0.51100000000E-03 0. -1.
        -11    1    4    4    0    0 -0.26428263404E+01 -0.13196759887E+02  0.38500693066E+01  0.13998644096E+02  0.51100000000E-03 0.  1.
        -12    1    4    4    0    0  0.13489025047E+01  0.36788430434E+01  0.10556999659E+02  0.11260713383E+02  0.00000000000E+00 0.  1.
</event>
<event>
 8    1  0.1229038E-006  0.9118800E+02  0.7816164E-02  0.1184000E+00
        -11   -1    0    0    0    0  0.00000000000E+00  0.00000000000E+00  0.45593999997E+02  0.45594000000E+02  0.51100000000E-03 0. -1.
         11   -1    0    0    0    0 -0.00000000000E+00 -0.00000000000E+00 -0.45593999997E+02  0.45594000000E+02  0.51100000000E-03 0.  1.
         23    2    1    2    0    0  0.00000000000E+00  0.35527136788E-14  0.17763568394E-14  0.91188000000E+02  0.91188000000E+02 0.  0.
    9900012    2    3    3    0    0 -0.32437271526E+02  0.15633421904E+02  0.76940691235E+01  0.54367093382E+02  0.40000020984E+02 0.  0.
        -12    1    3    3    0    0  0.32437271526E+02 -0.15633421904E+02 -0.76940691235E+01  0.36820906618E+02  0.00000000000E+00 0.  1.
         11    1    4    4    0    0 -0.22061670493E+02  0.13593715200E+02 -0.50084713942E+01  0.26393013921E+02  0.51100000000E-03 0. -1.
        -11    1    4    4    0    0 -0.95785274796E+01 -0.66070507346E+01 -0.10778490191E+01  0.11686020146E+02  0.51100000000E-03 0.  1.
         12    1    4    4    0    0 -0.79707355271E+00  0.86467574390E+01  0.13780389537E+02  0.16288059315E+02  0.00000000000E+00 0. -1.
</event>
<event>
 8    1  0.1229038E-006  0.9118800E+02  0.7816164E-02  0.1184000E+00
        -11   -1    0    0    0    0  0.00000000000E+00  0.00000000000E+00  0.45593999997E+02  0.45594000000E+02  0.51100000000E-03 0. -1.
         11   -1    0    0    0    0 -0.00000000000E+00 -0.00000000000E+00 -0.45593999997E+02  0.45594000000E+02  0.51100000000E-03 0.  1.
         23    2    1    2    0    0  0.00000000000E+00  0.33306690739E-15  0.17763568394E-14  0.91188000000E+02  0.91188000000E+02 0.  0.
    9900012    2    3    3    0    0  0.33540313408E+02 -0.90069916544E+00 -0.15166263605E+02  0.54367089715E+02  0.40000012623E+02 0.  0.
         12    1    3    3    0    0 -0.33540313408E+02  0.90069916544E+00  0.15166263605E+02  0.36820910285E+02  0.00000000000E+00 0. -1.
         11    1    4    4    0    0  0.84120818862E+01  0.47255250554E+01 -0.91028398907E+01  0.13264818244E+02  0.51100000000E-03 0. -1.
        -11    1    4    4    0    0  0.10964140535E+02 -0.13408887063E+02 -0.14753627810E+02  0.22752585870E+02  0.51100000000E-03 0.  1.
         12    1    4    4    0    0  0.14164090987E+02  0.77826628427E+01  0.86902040963E+01  0.18349685601E+02  0.00000000000E+00 0. -1.
</event>
<event>
 8    1  0.1229038E-006  0.9118800E+02  0.7816164E-02  0.1184000E+00
        -11   -1    0    0    0    0  0.00000000000E+00  0.00000000000E+00  0.45593999997E+02  0.45594000000E+02  0.51100000000E-03 0.  1.
         11   -1    0    0    0    0 -0.00000000000E+00 -0.00000000000E+00 -0.45593999997E+02  0.45594000000E+02  0.51100000000E-03 0. -1.
         23    2    1    2    0    0  0.00000000000E+00  0.00000000000E+00  0.88817841970E-15  0.91188000000E+02  0.91188000000E+02 0.  0.
    9900012    2    3    3    0    0  0.19128989467E+02  0.31147456076E+02 -0.44386383687E+01  0.54367030857E+02  0.39999878445E+02 0.  0.
        -12    1    3    3    0    0 -0.19128989467E+02 -0.31147456076E+02  0.44386383687E+01  0.36820969143E+02  0.00000000000E+00 0.  1.
         11    1    4    4    0    0 -0.38728168574E+00  0.13904798142E+02  0.37349273457E+01  0.14402884468E+02  0.51100000000E-03 0. -1.
        -11    1    4    4    0    0  0.66515911848E+01  0.17981024966E+00 -0.15903864697E+02  0.17239747956E+02  0.51100000000E-03 0.  1.
        -12    1    4    4    0    0  0.12864679968E+02  0.17062847684E+02  0.77302989827E+01  0.22724398433E+02  0.00000000000E+00 0.  1.
</event>
<event>
 8    1  0.1229038E-006  0.9118800E+02  0.7816164E-02  0.1184000E+00
        -11   -1    0    0    0    0  0.00000000000E+00  0.00000000000E+00  0.45593999997E+02  0.45594000000E+02  0.51100000000E-03 0. -1.
         11   -1    0    0    0    0 -0.00000000000E+00 -0.00000000000E+00 -0.45593999997E+02  0.45594000000E+02  0.51100000000E-03 0.  1.
         23    2    1    2    0    0  0.17763568394E-14  0.00000000000E+00  0.00000000000E+00  0.91188000000E+02  0.91188000000E+02 0.  0.
    9900012    2    3    3    0    0 -0.15050101334E+02  0.48705815253E+01 -0.33249843648E+02  0.54367079083E+02  0.39999988386E+02 0.  0.
         12    1    3    3    0    0  0.15050101334E+02 -0.48705815253E+01  0.33249843648E+02  0.36820920917E+02  0.00000000000E+00 0. -1.
         11    1    4    4    0    0 -0.72032084081E+01  0.16972961786E+02 -0.82319332880E+01  0.20192383938E+02  0.51100000000E-03 0. -1.
        -11    1    4    4    0    0 -0.12613724567E+02 -0.84510613953E+01 -0.23505205472E+02  0.27982515446E+02  0.51100000000E-03 0.  1.
         12    1    4    4    0    0  0.47668316415E+01 -0.36513188654E+01 -0.15127048880E+01  0.61921796997E+01  0.00000000000E+00 0. -1.
</event>
<event>
 8    1  0.1229038E-006  0.9118800E+02  0.7816164E-02  0.1184000E+00
        -11   -1    0    0    0    0  0.00000000000E+00  0.00000000000E+00  0.45593999997E+02  0.45594000000E+02  0.51100000000E-03 0. -1.
         11   -1    0    0    0    0 -0.00000000000E+00 -0.00000000000E+00 -0.45593999997E+02  0.45594000000E+02  0.51100000000E-03 0.  1.
         23    2    1    2    0    0  0.88817841970E-15  0.35527136788E-14  0.00000000000E+00  0.91188000000E+02  0.91188000000E+02 0.  0.
    9900012    2    3    3    0    0 -0.39467784907E+01 -0.13555161941E+02 -0.34006760841E+02  0.54367092100E+02  0.40000018061E+02 0.  0.
         12    1    3    3    0    0  0.39467784907E+01  0.13555161941E+02  0.34006760841E+02  0.36820907900E+02  0.00000000000E+00 0. -1.
         11    1    4    4    0    0  0.96243301809E+01 -0.98647478922E+01 -0.31964236948E+01  0.14147724450E+02  0.51100000000E-03 0. -1.
        -11    1    4    4    0    0 -0.93531121774E+00 -0.28324685019E+01 -0.26755412873E+02  0.26921177596E+02  0.51100000000E-03 0.  1.
        -12    1    4    4    0    0 -0.12635797454E+02 -0.85794554658E+00 -0.40549242725E+01  0.13298190054E+02  0.00000000000E+00 0.  1.
</event>
<event>
 8    1  0.1229038E-006  0.9118800E+02  0.7816164E-02  0.1184000E+00
        -11   -1    0    0    0    0  0.00000000000E+00  0.00000000000E+00  0.45593999997E+02  0.45594000000E+02  0.51100000000E-03 0.  1.
         11   -1    0    0    0    0 -0.00000000000E+00 -0.00000000000E+00 -0.45593999997E+02  0.45594000000E+02  0.51100000000E-03 0. -1.
         23    2    1    2    0    0  0.71054273576E-14 -0.26645352591E-14  0.00000000000E+00  0.91188000000E+02  0.91188000000E+02 0.  0.
    9900012    2    3    3    0    0 -0.34054628063E+02 -0.73721146835E+01 -0.11904220708E+02  0.54367133116E+02  0.40000111564E+02 0.  0.
        -12    1    3    3    0    0  0.34054628063E+02  0.73721146835E+01  0.11904220708E+02  0.36820866884E+02  0.00000000000E+00 0.  1.
         11    1    4    4    0    0 -0.96651342627E+01 -0.18508090221E+02 -0.17888075631E+01  0.20956241473E+02  0.51100000000E-03 0. -1.
        -11    1    4    4    0    0 -0.24819696448E+01 -0.39369352274E+01  0.69488592888E+00  0.47055816875E+01  0.51100000000E-03 0.  1.
         12    1    4    4    0    0 -0.21907524156E+02  0.15072910765E+02 -0.10810299073E+02  0.28705309955E+02  0.00000000000E+00 0. -1.
</event>
<event>
 8    1  0.1229038E-006  0.9118800E+02  0.7816164E-02  0.1184000E+00
        -11   -1    0    0    0    0  0.00000000000E+00  0.00000000000E+00  0.45593999997E+02  0.45594000000E+02  0.51100000000E-03 0.  1.
         11   -1    0    0    0    0 -0.00000000000E+00 -0.00000000000E+00 -0.45593999997E+02  0.45594000000E+02  0.51100000000E-03 0. -1.
         23    2    1    2    0    0 -0.17763568394E-14 -0.35527136788E-14  0.00000000000E+00  0.91188000000E+02  0.91188000000E+02 0.  0.
    9900012    2    3    3    0    0  0.23353681941E+01 -0.18681954148E+02  0.31643476698E+02  0.54367095979E+02  0.40000026904E+02 0.  0.
         12    1    3    3    0    0 -0.23353681941E+01  0.18681954148E+02 -0.31643476698E+02  0.36820904021E+02  0.00000000000E+00 0. -1.
         11    1    4    4    0    0  0.51610305559E+01  0.14567870880E-01 -0.14217596651E+01  0.53533026654E+01  0.51100000000E-03 0. -1.
        -11    1    4    4    0    0  0.12640870514E+02 -0.53249929598E+01  0.21560242806E+02  0.25553693031E+02  0.51100000000E-03 0.  1.
        -12    1    4    4    0    0 -0.15466532876E+02 -0.13371529059E+02  0.11504993556E+02  0.23460100283E+02  0.00000000000E+00 0.  1.
</event>
<event>
 8    1  0.1229038E-006  0.9118800E+02  0.7816164E-02  0.1184000E+00
        -11   -1    0    0    0    0  0.00000000000E+00  0.00000000000E+00  0.45593999997E+02  0.45594000000E+02  0.51100000000E-03 0.  1.
         11   -1    0    0    0    0 -0.00000000000E+00 -0.00000000000E+00 -0.45593999997E+02  0.45594000000E+02  0.51100000000E-03 0. -1.
         23    2    1    2    0    0  0.00000000000E+00 -0.17763568394E-14  0.00000000000E+00  0.91188000000E+02  0.91188000000E+02 0.  0.
    9900012    2    3    3    0    0 -0.11073685146E+02  0.10472748257E+02 -0.33518282346E+02  0.54367079177E+02  0.39999988600E+02 0.  0.
        -12    1    3    3    0    0  0.11073685146E+02 -0.10472748257E+02  0.33518282346E+02  0.36820920823E+02  0.00000000000E+00 0.  1.
         11    1    4    4    0    0 -0.33545176779E+00  0.87711713676E+01 -0.33191151377E+02  0.34332178857E+02  0.51100000000E-03 0. -1.
        -11    1    4    4    0    0  0.29813396446E+01 -0.37082323630E+01 -0.20618051975E+01  0.51855968093E+01  0.51100000000E-03 0.  1.
        -12    1    4    4    0    0 -0.13719573023E+02  0.54098092528E+01  0.17346742285E+01  0.14849303511E+02  0.00000000000E+00 0.  1.
</event>
<event>
 8    1  0.1229038E-006  0.9118800E+02  0.7816164E-02  0.1184000E+00
        -11   -1    0    0    0    0  0.00000000000E+00  0.00000000000E+00  0.45593999997E+02  0.45594000000E+02  0.51100000000E-03 0. -1.
         11   -1    0    0    0    0 -0.00000000000E+00 -0.00000000000E+00 -0.45593999997E+02  0.45594000000E+02  0.51100000000E-03 0.  1.
         23    2    1    2    0    0  0.00000000000E+00  0.00000000000E+00 -0.17763568394E-14  0.91188000000E+02  0.91188000000E+02 0.  0.
    9900012    2    3    3    0    0  0.31557314464E+02  0.15443912583E+02  0.11018232649E+02  0.54367082266E+02  0.39999995642E+02 0.  0.
        -12    1    3    3    0    0 -0.31557314464E+02 -0.15443912583E+02 -0.11018232649E+02  0.36820917734E+02  0.00000000000E+00 0.  1.
         11    1    4    4    0    0 -0.50884154340E+01  0.10567549173E+01 -0.40345588157E+01  0.65792376217E+01  0.51100000000E-03 0.  1.
        -11    1    4    4    0    0  0.96897187441E+01  0.10555601665E+02 -0.36127126629E+01  0.14777113009E+02  0.51100000000E-03 0. -1.
         12    1    4    4    0    0  0.26956011154E+02  0.38315560010E+01  0.18665504128E+02  0.33010731635E+02  0.00000000000E+00 0. -1.
</event>
<event>
 8    1  0.1229038E-006  0.9118800E+02  0.7816164E-02  0.1184000E+00
        -11   -1    0    0    0    0  0.00000000000E+00  0.00000000000E+00  0.45593999997E+02  0.45594000000E+02  0.51100000000E-03 0.  1.
         11   -1    0    0    0    0 -0.00000000000E+00 -0.00000000000E+00 -0.45593999997E+02  0.45594000000E+02  0.51100000000E-03 0. -1.
         23    2    1    2    0    0  0.00000000000E+00 -0.35527136788E-14  0.17763568394E-14  0.91188000000E+02  0.91188000000E+02 0.  0.
    9900012    2    3    3    0    0 -0.21084468876E+02 -0.29106028273E+02  0.80039806020E+01  0.54367089975E+02  0.40000013215E+02 0.  0.
        -12    1    3    3    0    0  0.21084468876E+02  0.29106028273E+02 -0.80039806020E+01  0.36820910025E+02  0.00000000000E+00 0.  1.
         11    1    4    4    0    0 -0.23069211585E+02 -0.96415614101E+01  0.85246405451E+01  0.26416239821E+02  0.51100000000E-03 0. -1.
        -11    1    4    4    0    0  0.97450965131E+01 -0.16534768592E+02 -0.26809942821E+01  0.19379195263E+02  0.51100000000E-03 0.  1.
        -12    1    4    4    0    0 -0.77603538036E+01 -0.29296982718E+01  0.21603343390E+01  0.85716548914E+01  0.00000000000E+00 0.  1.
</event>
<event>
 8    1  0.1229038E-006  0.9118800E+02  0.7816164E-02  0.1184000E+00
        -11   -1    0    0    0    0  0.00000000000E+00  0.00000000000E+00  0.45593999997E+02  0.45594000000E+02  0.51100000000E-03 0.  1.
         11   -1    0    0    0    0 -0.00000000000E+00 -0.00000000000E+00 -0.45593999997E+02  0.45594000000E+02  0.51100000000E-03 0. -1.
         23    2    1    2    0    0  0.35527136788E-14  0.00000000000E+00 -0.71054273576E-14  0.91188000000E+02  0.91188000000E+02 0.  0.
    9900012    2    3    3    0    0  0.10666476709E+02 -0.11597369319E+02 -0.33279229618E+02  0.54367084415E+02  0.40000000542E+02 0.  0.
        -12    1    3    3    0    0 -0.10666476709E+02  0.11597369319E+02  0.33279229618E+02  0.36820915585E+02  0.00000000000E+00 0.  1.
         11    1    4    4    0    0  0.80331280548E+01  0.19291839748E+00 -0.29476555738E+02  0.30552179992E+02  0.51100000000E-03 0. -1.
        -11    1    4    4    0    0  0.31575606325E+01 -0.17391095086E+02 -0.42263910231E+01  0.18173683137E+02  0.51100000000E-03 0.  1.
        -12    1    4    4    0    0 -0.52421197835E+00  0.56008073687E+01  0.42371714302E+00  0.56412212859E+01  0.00000000000E+00 0.  1.
</event>
<event>
 8    1  0.1229038E-006  0.9118800E+02  0.7816164E-02  0.1184000E+00
        -11   -1    0    0    0    0  0.00000000000E+00  0.00000000000E+00  0.45593999997E+02  0.45594000000E+02  0.51100000000E-03 0. -1.
         11   -1    0    0    0    0 -0.00000000000E+00 -0.00000000000E+00 -0.45593999997E+02  0.45594000000E+02  0.51100000000E-03 0.  1.
         23    2    1    2    0    0  0.00000000000E+00  0.00000000000E+00 -0.88817841970E-15  0.91188000000E+02  0.91188000000E+02 0.  0.
    9900012    2    3    3    0    0  0.84827478279E+01 -0.35449234142E+02 -0.52129199219E+01  0.54367085481E+02  0.40000002970E+02 0.  0.
         12    1    3    3    0    0 -0.84827478279E+01  0.35449234142E+02  0.52129199219E+01  0.36820914519E+02  0.00000000000E+00 0. -1.
         11    1    4    4    0    0  0.11557733090E+02 -0.70712536684E+00 -0.90816536600E+01  0.14715897999E+02  0.51100000000E-03 0. -1.
        -11    1    4    4    0    0 -0.98598709204E+01 -0.11183255892E+02  0.63745743818E+00  0.14922755080E+02  0.51100000000E-03 0.  1.
         12    1    4    4    0    0  0.67848856587E+01 -0.23558852882E+02  0.32312763000E+01  0.24728432402E+02  0.00000000000E+00 0. -1.
</event>
<event>
 8    1  0.1229038E-006  0.9118800E+02  0.7816164E-02  0.1184000E+00
        -11   -1    0    0    0    0  0.00000000000E+00  0.00000000000E+00  0.45593999997E+02  0.45594000000E+02  0.51100000000E-03 0.  1.
         11   -1    0    0    0    0 -0.00000000000E+00 -0.00000000000E+00 -0.45593999997E+02  0.45594000000E+02  0.51100000000E-03 0. -1.
         23    2    1    2    0    0 -0.88817841970E-15  0.00000000000E+00 -0.35527136788E-14  0.91188000000E+02  0.91188000000E+02 0.  0.
    9900012    2    3    3    0    0  0.24635989618E+01 -0.30055545953E+02  0.21127659601E+02  0.54367039086E+02  0.39999897205E+02 0.  0.
         12    1    3    3    0    0 -0.24635989618E+01  0.30055545953E+02 -0.21127659601E+02  0.36820960914E+02  0.00000000000E+00 0. -1.
         11    1    4    4    0    0 -0.36649444832E+01 -0.41953677426E+00 -0.89769843110E+01  0.97053632983E+01  0.51100000000E-03 0. -1.
        -11    1    4    4    0    0 -0.25090746495E+01 -0.12078075696E+02  0.17408395031E+02  0.21336063037E+02  0.51100000000E-03 0.  1.
         12    1    4    4    0    0  0.86376180946E+01 -0.17557933483E+02  0.12696248881E+02  0.23325612751E+02  0.00000000000E+00 0. -1.
</event>
<event>
 8    1  0.1229038E-006  0.9118800E+02  0.7816164E-02  0.1184000E+00
        -11   -1    0    0    0    0  0.00000000000E+00  0.00000000000E+00  0.45593999997E+02  0.45594000000E+02  0.51100000000E-03 0.  1.
         11   -1    0    0    0    0 -0.00000000000E+00 -0.00000000000E+00 -0.45593999997E+02  0.45594000000E+02  0.51100000000E-03 0. -1.
         23    2    1    2    0    0 -0.35527136788E-14  0.35527136788E-14 -0.17763568394E-14  0.91188000000E+02  0.91188000000E+02 0.  0.
    9900012    2    3    3    0    0  0.18271850987E+02 -0.30268461146E+02  0.10282682663E+02  0.54367165661E+02  0.40000185758E+02 0.  0.
         12    1    3    3    0    0 -0.18271850987E+02  0.30268461146E+02 -0.10282682663E+02  0.36820834339E+02  0.00000000000E+00 0. -1.
         11    1    4    4    0    0  0.10597202750E+02  0.11535807630E+01  0.10404145060E+02  0.14895559385E+02  0.51100000000E-03 0. -1.
        -11    1    4    4    0    0  0.10204542172E+02 -0.10447981769E+02  0.82193469191E+01  0.16758599823E+02  0.51100000000E-03 0.  1.
         12    1    4    4    0    0 -0.25298939360E+01 -0.20974060140E+02 -0.83408093157E+01  0.22713006453E+02  0.00000000000E+00 0. -1.
</event>
<event>
 8    1  0.1229038E-006  0.9118800E+02  0.7816164E-02  0.1184000E+00
        -11   -1    0    0    0    0  0.00000000000E+00  0.00000000000E+00  0.45593999997E+02  0.45594000000E+02  0.51100000000E-03 0. -1.
         11   -1    0    0    0    0 -0.00000000000E+00 -0.00000000000E+00 -0.45593999997E+02  0.45594000000E+02  0.51100000000E-03 0.  1.
         23    2    1    2    0    0 -0.11102230246E-14  0.00000000000E+00  0.00000000000E+00  0.91188000000E+02  0.91188000000E+02 0.  0.
    9900012    2    3    3    0    0  0.10374317667E+01  0.69132104851E+01 -0.36151267427E+02  0.54367042918E+02  0.39999905940E+02 0.  0.
         12    1    3    3    0    0 -0.10374317667E+01 -0.69132104851E+01  0.36151267427E+02  0.36820957082E+02  0.00000000000E+00 0. -1.
         11    1    4    4    0    0 -0.90182301183E+01 -0.19114617295E+01 -0.19538153831E+02  0.21603740782E+02  0.51100000000E-03 0. -1.
        -11    1    4    4    0    0 -0.11126073767E+01  0.69516269918E+01  0.48134213696E+01  0.85283080708E+01  0.51100000000E-03 0.  1.
        -12    1    4    4    0    0  0.11168269262E+02  0.18730452228E+01 -0.21426534965E+02  0.24234994065E+02  0.00000000000E+00 0.  1.
</event>
<event>
 8    1  0.1229038E-006  0.9118800E+02  0.7816164E-02  0.1184000E+00
        -11   -1    0    0    0    0  0.00000000000E+00  0.00000000000E+00  0.45593999997E+02  0.45594000000E+02  0.51100000000E-03 0.  1.
         11   -1    0    0    0    0 -0.00000000000E+00 -0.00000000000E+00 -0.45593999997E+02  0.45594000000E+02  0.51100000000E-03 0. -1.
         23    2    1    2    0    0  0.71054273576E-14  0.00000000000E+00  0.44408920985E-15  0.91188000000E+02  0.91188000000E+02 0.  0.
    9900012    2    3    3    0    0 -0.35874081014E+02  0.81815006271E+01 -0.13759201935E+01  0.54367084782E+02  0.40000001378E+02 0.  0.
         12    1    3    3    0    0  0.35874081014E+02 -0.81815006271E+01  0.13759201935E+01  0.36820915218E+02  0.00000000000E+00 0. -1.
         11    1    4    4    0    0 -0.64745396630E+01  0.28830808597E+01  0.17322450292E+01  0.72960600460E+01  0.51100000000E-03 0. -1.
        -11    1    4    4    0    0 -0.95710738652E+01  0.19284790596E+02  0.37548014717E+01  0.21854224709E+02  0.51100000000E-03 0.  1.
         12    1    4    4    0    0 -0.19828467486E+02 -0.13986370829E+02 -0.68629666944E+01  0.25216800028E+02  0.00000000000E+00 0. -1.
</event>
<event>
 8    1  0.1229038E-006  0.9118800E+02  0.7816164E-02  0.1184000E+00
        -11   -1    0    0    0    0  0.00000000000E+00  0.00000000000E+00  0.45593999997E+02  0.45594000000E+02  0.51100000000E-03 0.  1.
         11   -1    0    0    0    0 -0.00000000000E+00 -0.00000000000E+00 -0.45593999997E+02  0.45594000000E+02  0.51100000000E-03 0. -1.
         23    2    1    2    0    0 -0.17763568394E-14 -0.35527136788E-14  0.00000000000E+00  0.91188000000E+02  0.91188000000E+02 0.  0.
    9900012    2    3    3    0    0 -0.15751050255E+02  0.20627507680E+02 -0.26118617296E+02  0.54367193019E+02  0.40000248126E+02 0.  0.
        -12    1    3    3    0    0  0.15751050255E+02 -0.20627507680E+02  0.26118617296E+02  0.36820806981E+02  0.00000000000E+00 0.  1.
         11    1    4    4    0    0 -0.55821096299E-01  0.31934845362E+01 -0.17999549528E+02  0.18280734202E+02  0.51100000000E-03 0. -1.
        -11    1    4    4    0    0 -0.19384706580E+02  0.83889472972E+01  0.29457940918E+01  0.21326485624E+02  0.51100000000E-03 0.  1.
        -12    1    4    4    0    0  0.36894774212E+01  0.90450758466E+01 -0.11064861860E+02  0.14759973194E+02  0.00000000000E+00 0.  1.
</event>
<event>
 8    1  0.1229038E-006  0.9118800E+02  0.7816164E-02  0.1184000E+00
        -11   -1    0    0    0    0  0.00000000000E+00  0.00000000000E+00  0.45593999997E+02  0.45594000000E+02  0.51100000000E-03 0.  1.
         11   -1    0    0    0    0 -0.00000000000E+00 -0.00000000000E+00 -0.45593999997E+02  0.45594000000E+02  0.51100000000E-03 0. -1.
         23    2    1    2    0    0  0.35527136788E-14 -0.35527136788E-14  0.17763568394E-14  0.91188000000E+02  0.91188000000E+02 0.  0.
    9900012    2    3    3    0    0 -0.26062973580E+02 -0.23446903815E+02  0.11258045129E+02  0.54367089222E+02  0.40000011500E+02 0.  0.
         12    1    3    3    0    0  0.26062973580E+02  0.23446903815E+02 -0.11258045129E+02  0.36820910778E+02  0.00000000000E+00 0. -1.
         11    1    4    4    0    0 -0.49752789460E-01  0.20344796166E+01  0.51542083257E+01  0.55414299938E+01  0.51100000000E-03 0.  1.
        -11    1    4    4    0    0 -0.56508522384E+00  0.70221510266E+01 -0.30036474792E+00  0.70512513495E+01  0.51100000000E-03 0. -1.
        -12    1    4    4    0    0 -0.25448135567E+02 -0.32503534458E+02  0.64042015514E+01  0.41774407879E+02  0.00000000000E+00 0.  1.
</event>
<event>
 8    1  0.1229038E-006  0.9118800E+02  0.7816164E-02  0.1184000E+00
        -11   -1    0    0    0    0  0.00000000000E+00  0.00000000000E+00  0.45593999997E+02  0.45594000000E+02  0.51100000000E-03 0.  1.
         11   -1    0    0    0    0 -0.00000000000E+00 -0.00000000000E+00 -0.45593999997E+02  0.45594000000E+02  0.51100000000E-03 0. -1.
         23    2    1    2    0    0  0.00000000000E+00 -0.17763568394E-14 -0.35527136788E-14  0.91188000000E+02  0.91188000000E+02 0.  0.
    9900012    2    3    3    0    0  0.30709559266E+02 -0.11680069795E+02 -0.16621632756E+02  0.54367085614E+02  0.40000003274E+02 0.  0.
        -12    1    3    3    0    0 -0.30709559266E+02  0.11680069795E+02  0.16621632756E+02  0.36820914386E+02  0.00000000000E+00 0.  1.
         11    1    4    4    0    0  0.39717806328E+02 -0.10280412282E+02 -0.15337728477E+02  0.43799964970E+02  0.51100000000E-03 0. -1.
        -11    1    4    4    0    0 -0.77397291036E+00 -0.20315050461E+01 -0.71728978079E+00  0.22892251329E+01  0.51100000000E-03 0.  1.
        -12    1    4    4    0    0 -0.82342741517E+01  0.63184753345E+00 -0.56661449829E+00  0.82778955116E+01  0.00000000000E+00 0.  1.
</event>
<event>
 8    1  0.1229038E-006  0.9118800E+02  0.7816164E-02  0.1184000E+00
        -11   -1    0    0    0    0  0.00000000000E+00  0.00000000000E+00  0.45593999997E+02  0.45594000000E+02  0.51100000000E-03 0. -1.
         11   -1    0    0    0    0 -0.00000000000E+00 -0.00000000000E+00 -0.45593999997E+02  0.45594000000E+02  0.51100000000E-03 0.  1.
         23    2    1    2    0    0  0.11102230246E-14  0.00000000000E+00  0.88817841970E-15  0.91188000000E+02  0.91188000000E+02 0.  0.
    9900012    2    3    3    0    0  0.84078876536E+00  0.36558012973E+02  0.43108767732E+01  0.54367097012E+02  0.40000029259E+02 0.  0.
        -12    1    3    3    0    0 -0.84078876536E+00 -0.36558012973E+02 -0.43108767732E+01  0.36820902988E+02  0.00000000000E+00 0.  1.
         11    1    4    4    0    0 -0.55825714895E+01  0.27523313807E+01 -0.18105152848E+01  0.64821600044E+01  0.51100000000E-03 0. -1.
        -11    1    4    4    0    0 -0.91013452929E+00 -0.64710635510E+01  0.13033658341E+01  0.66634653973E+01  0.51100000000E-03 0.  1.
         12    1    4    4    0    0  0.73334947842E+01  0.40276745143E+02  0.48180262239E+01  0.41221471611E+02  0.00000000000E+00 0. -1.
</event>
<event>
 8    1  0.1229038E-006  0.9118800E+02  0.7816164E-02  0.1184000E+00
        -11   -1    0    0    0    0  0.00000000000E+00  0.00000000000E+00  0.45593999997E+02  0.45594000000E+02  0.51100000000E-03 0.  1.
         11   -1    0    0    0    0 -0.00000000000E+00 -0.00000000000E+00 -0.45593999997E+02  0.45594000000E+02  0.51100000000E-03 0. -1.
         23    2    1    2    0    0  0.00000000000E+00 -0.71054273576E-14 -0.88817841970E-15  0.91188000000E+02  0.91188000000E+02 0.  0.
    9900012    2    3    3    0    0 -0.16102296798E+02  0.32787807855E+02  0.46319268632E+01  0.54367094898E+02  0.40000024438E+02 0.  0.
         12    1    3    3    0    0  0.16102296798E+02 -0.32787807855E+02 -0.46319268632E+01  0.36820905102E+02  0.00000000000E+00 0. -1.
         11    1    4    4    0    0 -0.15886889152E+02  0.20704761470E+02 -0.10037988062E+02  0.27961430561E+02  0.51100000000E-03 0. -1.
        -11    1    4    4    0    0  0.43104629959E+00 -0.17595075872E+01  0.12194924204E+02  0.12328740587E+02  0.51100000000E-03 0.  1.
        -12    1    4    4    0    0 -0.64645394633E+00  0.13842553972E+02  0.24749907205E+01  0.14076923749E+02  0.00000000000E+00 0.  1.
</event>
<event>
 8    1  0.1229038E-006  0.9118800E+02  0.7816164E-02  0.1184000E+00
        -11   -1    0    0    0    0  0.00000000000E+00  0.00000000000E+00  0.45593999997E+02  0.45594000000E+02  0.51100000000E-03 0. -1.
         11   -1    0    0    0    0 -0.00000000000E+00 -0.00000000000E+00 -0.45593999997E+02  0.45594000000E+02  0.51100000000E-03 0.  1.
         23    2    1    2    0    0  0.44408920985E-15  0.00000000000E+00  0.00000000000E+00  0.91188000000E+02  0.91188000000E+02 0.  0.
    9900012    2    3    3    0    0  0.18673512515E+01 -0.25798358498E+02 -0.26205662548E+02  0.54367094912E+02  0.40000024471E+02 0.  0.
         12    1    3    3    0    0 -0.18673512515E+01  0.25798358498E+02  0.26205662548E+02  0.36820905088E+02  0.00000000000E+00 0. -1.
         11    1    4    4    0    0 -0.12339925679E+02 -0.10650692694E+02 -0.58816242300E+01  0.17329296710E+02  0.51100000000E-03 0. -1.
        -11    1    4    4    0    0  0.13195363004E+02 -0.70185250572E+01 -0.23828473635E+02  0.28127805723E+02  0.51100000000E-03 0.  1.
         12    1    4    4    0    0  0.10119139263E+01 -0.81291407469E+01  0.35044353165E+01  0.89099924784E+01  0.00000000000E+00 0. -1.
</event>
<event>
 8    1  0.1229038E-006  0.9118800E+02  0.7816164E-02  0.1184000E+00
        -11   -1    0    0    0    0  0.00000000000E+00  0.00000000000E+00  0.45593999997E+02  0.45594000000E+02  0.51100000000E-03 0.  1.
         11   -1    0    0    0    0 -0.00000000000E+00 -0.00000000000E+00 -0.45593999997E+02  0.45594000000E+02  0.51100000000E-03 0. -1.
         23    2    1    2    0    0  0.00000000000E+00  0.00000000000E+00 -0.71054273576E-14  0.91188000000E+02  0.91188000000E+02 0.  0.
    9900012    2    3    3    0    0 -0.44496301175E+01 -0.52704905911E+01 -0.36169073415E+02  0.54367093561E+02  0.40000021391E+02 0.  0.
        -12    1    3    3    0    0  0.44496301175E+01  0.52704905911E+01  0.36169073415E+02  0.36820906439E+02  0.00000000000E+00 0.  1.
         11    1    4    4    0    0  0.24003773131E+01 -0.11139819356E+02 -0.18393855549E+02  0.21637728826E+02  0.51100000000E-03 0. -1.
        -11    1    4    4    0    0 -0.13261283574E+02  0.10675964777E+02 -0.17916449684E+02  0.24715117549E+02  0.51100000000E-03 0.  1.
        -12    1    4    4    0    0  0.64112761432E+01 -0.48066360116E+01  0.14123181715E+00  0.80142471860E+01  0.00000000000E+00 0.  1.
</event>
<event>
 8    1  0.1229038E-006  0.9118800E+02  0.7816164E-02  0.1184000E+00
        -11   -1    0    0    0    0  0.00000000000E+00  0.00000000000E+00  0.45593999997E+02  0.45594000000E+02  0.51100000000E-03 0.  1.
         11   -1    0    0    0    0 -0.00000000000E+00 -0.00000000000E+00 -0.45593999997E+02  0.45594000000E+02  0.51100000000E-03 0. -1.
         23    2    1    2    0    0  0.00000000000E+00  0.00000000000E+00  0.35527136788E-14  0.91188000000E+02  0.91188000000E+02 0.  0.
    9900012    2    3    3    0    0  0.11902307565E+02  0.17388294877E+02  0.30195376960E+02  0.54367102213E+02  0.40000041115E+02 0.  0.
         12    1    3    3    0    0 -0.11902307565E+02 -0.17388294877E+02 -0.30195376960E+02  0.36820897787E+02  0.00000000000E+00 0. -1.
         11    1    4    4    0    0  0.15112693070E+02  0.28678917246E+01  0.17998693241E+02  0.23676385987E+02  0.51100000000E-03 0.  1.
        -11    1    4    4    0    0 -0.12137253950E+02  0.11891285357E+02  0.23687243281E+01  0.17155945211E+02  0.51100000000E-03 0. -1.
         12    1    4    4    0    0  0.89268684461E+01  0.26291177956E+01  0.98279593909E+01  0.13534771015E+02  0.00000000000E+00 0. -1.
</event>
<event>
 8    1  0.1229038E-006  0.9118800E+02  0.7816164E-02  0.1184000E+00
        -11   -1    0    0    0    0  0.00000000000E+00  0.00000000000E+00  0.45593999997E+02  0.45594000000E+02  0.51100000000E-03 0.  1.
         11   -1    0    0    0    0 -0.00000000000E+00 -0.00000000000E+00 -0.45593999997E+02  0.45594000000E+02  0.51100000000E-03 0. -1.
         23    2    1    2    0    0  0.00000000000E+00  0.00000000000E+00  0.00000000000E+00  0.91188000000E+02  0.91188000000E+02 0.  0.
    9900012    2    3    3    0    0  0.31961764576E+02  0.12805620585E+02 -0.13047738101E+02  0.54367057821E+02  0.39999939914E+02 0.  0.
        -12    1    3    3    0    0 -0.31961764576E+02 -0.12805620585E+02  0.13047738101E+02  0.36820942179E+02  0.00000000000E+00 0.  1.
         11    1    4    4    0    0  0.11134757422E+02  0.50860319338E+01 -0.31676334518E+01  0.12644542128E+02  0.51100000000E-03 0. -1.
        -11    1    4    4    0    0  0.12848258340E+02  0.20387924100E+02 -0.59605571147E+00  0.24106025681E+02  0.51100000000E-03 0.  1.
        -12    1    4    4    0    0  0.79787488146E+01 -0.12668335448E+02 -0.92840489381E+01  0.17616490012E+02  0.00000000000E+00 0.  1.
</event>
<event>
 8    1  0.1229038E-006  0.9118800E+02  0.7816164E-02  0.1184000E+00
        -11   -1    0    0    0    0  0.00000000000E+00  0.00000000000E+00  0.45593999997E+02  0.45594000000E+02  0.51100000000E-03 0. -1.
         11   -1    0    0    0    0 -0.00000000000E+00 -0.00000000000E+00 -0.45593999997E+02  0.45594000000E+02  0.51100000000E-03 0.  1.
         23    2    1    2    0    0  0.17763568394E-14  0.00000000000E+00  0.00000000000E+00  0.91188000000E+02  0.91188000000E+02 0.  0.
    9900012    2    3    3    0    0 -0.12457730102E+02 -0.12377112105E+02  0.32363645964E+02  0.54366898394E+02  0.39999576466E+02 0.  0.
        -12    1    3    3    0    0  0.12457730102E+02  0.12377112105E+02 -0.32363645964E+02  0.36821101606E+02  0.00000000000E+00 0.  1.
         11    1    4    4    0    0 -0.48316961421E+01  0.66427705937E+01  0.16695754580E+02  0.18606985517E+02  0.51100000000E-03 0. -1.
        -11    1    4    4    0    0 -0.91652642780E+01  0.15469230026E+01  0.11381841345E+02  0.14694943100E+02  0.51100000000E-03 0.  1.
        -12    1    4    4    0    0  0.15392303180E+01 -0.20566805702E+02  0.42860500394E+01  0.21064969776E+02  0.00000000000E+00 0.  1.
</event>
<event>
 8    1  0.1229038E-006  0.9118800E+02  0.7816164E-02  0.1184000E+00
        -11   -1    0    0    0    0  0.00000000000E+00  0.00000000000E+00  0.45593999997E+02  0.45594000000E+02  0.51100000000E-03 0. -1.
         11   -1    0    0    0    0 -0.00000000000E+00 -0.00000000000E+00 -0.45593999997E+02  0.45594000000E+02  0.51100000000E-03 0.  1.
         23    2    1    2    0    0  0.00000000000E+00  0.00000000000E+00  0.71054273576E-14  0.91188000000E+02  0.91188000000E+02 0.  0.
    9900012    2    3    3    0    0  0.13766301096E+02  0.50211400111E+01  0.33779533879E+02  0.54367084722E+02  0.40000001240E+02 0.  0.
        -12    1    3    3    0    0 -0.13766301096E+02 -0.50211400111E+01 -0.33779533879E+02  0.36820915278E+02  0.00000000000E+00 0.  1.
         11    1    4    4    0    0  0.15544674872E+02  0.10708078103E+02  0.19610292364E+02  0.27218806374E+02  0.51100000000E-03 0. -1.
        -11    1    4    4    0    0 -0.80088002714E+00  0.50370949201E+01 -0.36889532610E+01  0.62946096365E+01  0.51100000000E-03 0.  1.
         12    1    4    4    0    0 -0.97749374885E+00 -0.10724033012E+02  0.17858194775E+02  0.20853668711E+02  0.00000000000E+00 0. -1.
</event>
<event>
 8    1  0.1229038E-006  0.9118800E+02  0.7816164E-02  0.1184000E+00
        -11   -1    0    0    0    0  0.00000000000E+00  0.00000000000E+00  0.45593999997E+02  0.45594000000E+02  0.51100000000E-03 0.  1.
         11   -1    0    0    0    0 -0.00000000000E+00 -0.00000000000E+00 -0.45593999997E+02  0.45594000000E+02  0.51100000000E-03 0. -1.
         23    2    1    2    0    0  0.00000000000E+00  0.00000000000E+00 -0.11102230246E-15  0.91188000000E+02  0.91188000000E+02 0.  0.
    9900012    2    3    3    0    0 -0.30761354026E+02  0.20234704348E+02  0.27623574162E+00  0.54367075681E+02  0.39999980629E+02 0.  0.
         12    1    3    3    0    0  0.30761354026E+02 -0.20234704348E+02 -0.27623574162E+00  0.36820924319E+02  0.00000000000E+00 0. -1.
         11    1    4    4    0    0 -0.11430121882E+02  0.11218338775E+02 -0.18527149458E+02  0.24489877060E+02  0.51100000000E-03 0. -1.
        -11    1    4    4    0    0 -0.12389003382E+02  0.35614910914E+01  0.57421046220E+01  0.14111817365E+02  0.51100000000E-03 0.  1.
         12    1    4    4    0    0 -0.69422287608E+01  0.54548744822E+01  0.13061280578E+02  0.15765381255E+02  0.00000000000E+00 0. -1.
</event>
<event>
 8    1  0.1229038E-006  0.9118800E+02  0.7816164E-02  0.1184000E+00
        -11   -1    0    0    0    0  0.00000000000E+00  0.00000000000E+00  0.45593999997E+02  0.45594000000E+02  0.51100000000E-03 0. -1.
         11   -1    0    0    0    0 -0.00000000000E+00 -0.00000000000E+00 -0.45593999997E+02  0.45594000000E+02  0.51100000000E-03 0.  1.
         23    2    1    2    0    0 -0.21094237468E-14  0.00000000000E+00 -0.17763568394E-14  0.91188000000E+02  0.91188000000E+02 0.  0.
    9900012    2    3    3    0    0 -0.92865718997E+00  0.36023841901E+02 -0.75630583834E+01  0.54367089615E+02  0.40000012396E+02 0.  0.
         12    1    3    3    0    0  0.92865718997E+00 -0.36023841901E+02  0.75630583834E+01  0.36820910385E+02  0.00000000000E+00 0. -1.
         11    1    4    4    0    0  0.82621484590E+01  0.11815653717E+02  0.52551988101E+01  0.15345679675E+02  0.51100000000E-03 0. -1.
        -11    1    4    4    0    0 -0.11643513312E+02  0.28642947393E+02 -0.77964800802E+01  0.31886908591E+02  0.51100000000E-03 0.  1.
         12    1    4    4    0    0  0.24527076633E+01 -0.44347592087E+01 -0.50217771133E+01  0.71345013488E+01  0.00000000000E+00 0. -1.
</event>
<event>
 8    1  0.1229038E-006  0.9118800E+02  0.7816164E-02  0.1184000E+00
        -11   -1    0    0    0    0  0.00000000000E+00  0.00000000000E+00  0.45593999997E+02  0.45594000000E+02  0.51100000000E-03 0. -1.
         11   -1    0    0    0    0 -0.00000000000E+00 -0.00000000000E+00 -0.45593999997E+02  0.45594000000E+02  0.51100000000E-03 0.  1.
         23    2    1    2    0    0  0.00000000000E+00 -0.88817841970E-15  0.35527136788E-14  0.91188000000E+02  0.91188000000E+02 0.  0.
    9900012    2    3    3    0    0  0.29783812360E+02 -0.75465522866E+01 -0.20291723860E+02  0.54367082204E+02  0.39999995502E+02 0.  0.
         12    1    3    3    0    0 -0.29783812360E+02  0.75465522866E+01  0.20291723860E+02  0.36820917796E+02  0.00000000000E+00 0. -1.
         11    1    4    4    0    0  0.27643611492E+02 -0.18061392911E+02 -0.24223100911E+01  0.33109677689E+02  0.51100000000E-03 0. -1.
        -11    1    4    4    0    0 -0.66813263191E+00  0.48438623123E+00 -0.29387302793E+01  0.30524035039E+01  0.51100000000E-03 0.  1.
         12    1    4    4    0    0  0.28083334995E+01  0.10030454393E+02 -0.14930683489E+02  0.18205001012E+02  0.00000000000E+00 0. -1.
</event>
<event>
 8    1  0.1229038E-006  0.9118800E+02  0.7816164E-02  0.1184000E+00
        -11   -1    0    0    0    0  0.00000000000E+00  0.00000000000E+00  0.45593999997E+02  0.45594000000E+02  0.51100000000E-03 0.  1.
         11   -1    0    0    0    0 -0.00000000000E+00 -0.00000000000E+00 -0.45593999997E+02  0.45594000000E+02  0.51100000000E-03 0. -1.
         23    2    1    2    0    0 -0.88817841970E-15  0.35527136788E-14  0.00000000000E+00  0.91188000000E+02  0.91188000000E+02 0.  0.
    9900012    2    3    3    0    0 -0.59386697727E+01  0.29092260936E+02  0.21775065001E+02  0.54367069799E+02  0.39999967221E+02 0.  0.
        -12    1    3    3    0    0  0.59386697727E+01 -0.29092260936E+02 -0.21775065001E+02  0.36820930201E+02  0.00000000000E+00 0.  1.
         11    1    4    4    0    0 -0.36698286682E+00  0.54873805442E+01 -0.34854348914E+01  0.65110888724E+01  0.51100000000E-03 0. -1.
        -11    1    4    4    0    0  0.12926482962E+02  0.50435438579E+01  0.50624394408E+01  0.14770226463E+02  0.51100000000E-03 0.  1.
         12    1    4    4    0    0 -0.18498169868E+02  0.18561336534E+02  0.20198060452E+02  0.33085754464E+02  0.00000000000E+00 0. -1.
</event>
<event>
 8    1  0.1229038E-006  0.9118800E+02  0.7816164E-02  0.1184000E+00
        -11   -1    0    0    0    0  0.00000000000E+00  0.00000000000E+00  0.45593999997E+02  0.45594000000E+02  0.51100000000E-03 0.  1.
         11   -1    0    0    0    0 -0.00000000000E+00 -0.00000000000E+00 -0.45593999997E+02  0.45594000000E+02  0.51100000000E-03 0. -1.
         23    2    1    2    0    0 -0.17763568394E-14  0.22204460493E-15  0.00000000000E+00  0.91188000000E+02  0.91188000000E+02 0.  0.
    9900012    2    3    3    0    0 -0.13106200479E+02  0.94220450777E+00 -0.34396495530E+02  0.54367093642E+02  0.40000021575E+02 0.  0.
        -12    1    3    3    0    0  0.13106200479E+02 -0.94220450777E+00  0.34396495530E+02  0.36820906358E+02  0.00000000000E+00 0.  1.
         11    1    4    4    0    0 -0.11834814944E+01  0.53090251203E+01 -0.28485227489E+02  0.28999906233E+02  0.51100000000E-03 0. -1.
        -11    1    4    4    0    0 -0.16701929538E+02 -0.63152596795E+01 -0.46235030277E+00  0.17861991020E+02  0.51100000000E-03 0.  1.
         12    1    4    4    0    0  0.47792105539E+01  0.19484390669E+01 -0.54489177381E+01  0.75051963887E+01  0.00000000000E+00 0. -1.
</event>
<event>
 8    1  0.1229038E-006  0.9118800E+02  0.7816164E-02  0.1184000E+00
        -11   -1    0    0    0    0  0.00000000000E+00  0.00000000000E+00  0.45593999997E+02  0.45594000000E+02  0.51100000000E-03 0. -1.
         11   -1    0    0    0    0 -0.00000000000E+00 -0.00000000000E+00 -0.45593999997E+02  0.45594000000E+02  0.51100000000E-03 0.  1.
         23    2    1    2    0    0  0.44408920985E-15  0.00000000000E+00  0.17763568394E-14  0.91188000000E+02  0.91188000000E+02 0.  0.
    9900012    2    3    3    0    0 -0.25892709844E+01 -0.34062939932E+02  0.13740152222E+02  0.54367082248E+02  0.39999995600E+02 0.  0.
        -12    1    3    3    0    0  0.25892709844E+01  0.34062939932E+02 -0.13740152222E+02  0.36820917752E+02  0.00000000000E+00 0.  1.
         11    1    4    4    0    0 -0.63579036985E+01 -0.16234855488E+02  0.14612064805E+02  0.22748756236E+02  0.51100000000E-03 0. -1.
        -11    1    4    4    0    0  0.13061435517E+02 -0.44917782598E+01  0.44553043573E+01  0.14512990969E+02  0.51100000000E-03 0.  1.
        -12    1    4    4    0    0 -0.92928028029E+01 -0.13336306184E+02 -0.53272169404E+01  0.17105335042E+02  0.00000000000E+00 0.  1.
</event>
<event>
 8    1  0.1229038E-006  0.9118800E+02  0.7816164E-02  0.1184000E+00
        -11   -1    0    0    0    0  0.00000000000E+00  0.00000000000E+00  0.45593999997E+02  0.45594000000E+02  0.51100000000E-03 0.  1.
         11   -1    0    0    0    0 -0.00000000000E+00 -0.00000000000E+00 -0.45593999997E+02  0.45594000000E+02  0.51100000000E-03 0. -1.
         23    2    1    2    0    0 -0.35527136788E-14  0.35527136788E-14  0.35527136788E-14  0.91188000000E+02  0.91188000000E+02 0.  0.
    9900012    2    3    3    0    0  0.15280936594E+02 -0.20388455887E+02  0.26581656265E+02  0.54367073797E+02  0.39999976335E+02 0.  0.
         12    1    3    3    0    0 -0.15280936594E+02  0.20388455887E+02 -0.26581656265E+02  0.36820926203E+02  0.00000000000E+00 0. -1.
         11    1    4    4    0    0 -0.17053286077E+00  0.61751041417E+00  0.12103670400E+02  0.12120612113E+02  0.51100000000E-03 0. -1.
        -11    1    4    4    0    0 -0.70935568322E+01 -0.12047460310E+02 -0.27838041491E-01  0.13980723288E+02  0.51100000000E-03 0.  1.
         12    1    4    4    0    0  0.22545026287E+02 -0.89585059916E+01  0.14505823906E+02  0.28265738396E+02  0.00000000000E+00 0. -1.
</event>
<event>
 8    1  0.1229038E-006  0.9118800E+02  0.7816164E-02  0.1184000E+00
        -11   -1    0    0    0    0  0.00000000000E+00  0.00000000000E+00  0.45593999997E+02  0.45594000000E+02  0.51100000000E-03 0. -1.
         11   -1    0    0    0    0 -0.00000000000E+00 -0.00000000000E+00 -0.45593999997E+02  0.45594000000E+02  0.51100000000E-03 0.  1.
         23    2    1    2    0    0 -0.35527136788E-14  0.00000000000E+00 -0.35527136788E-14  0.91188000000E+02  0.91188000000E+02 0.  0.
    9900012    2    3    3    0    0 -0.17606547853E+02 -0.82257526062E+01 -0.31275006137E+02  0.54367088250E+02  0.40000009283E+02 0.  0.
         12    1    3    3    0    0  0.17606547853E+02  0.82257526062E+01  0.31275006137E+02  0.36820911750E+02  0.00000000000E+00 0. -1.
         11    1    4    4    0    0 -0.25284085757E+01 -0.95718662281E+01 -0.12998245222E+02  0.16339150900E+02  0.51100000000E-03 0. -1.
        -11    1    4    4    0    0  0.90519314562E+01 -0.91383863848E+00 -0.54882404530E+01  0.10625128125E+02  0.51100000000E-03 0.  1.
        -12    1    4    4    0    0 -0.24130070733E+02  0.22599522604E+01 -0.12788520462E+02  0.27402809225E+02  0.00000000000E+00 0.  1.
</event>
<event>
 8    1  0.1229038E-006  0.9118800E+02  0.7816164E-02  0.1184000E+00
        -11   -1    0    0    0    0  0.00000000000E+00  0.00000000000E+00  0.45593999997E+02  0.45594000000E+02  0.51100000000E-03 0.  1.
         11   -1    0    0    0    0 -0.00000000000E+00 -0.00000000000E+00 -0.45593999997E+02  0.45594000000E+02  0.51100000000E-03 0. -1.
         23    2    1    2    0    0  0.00000000000E+00  0.00000000000E+00 -0.71054273576E-14  0.91188000000E+02  0.91188000000E+02 0.  0.
    9900012    2    3    3    0    0 -0.82913188156E+01  0.96182990109E+01 -0.34561870313E+02  0.54367074929E+02  0.39999978916E+02 0.  0.
        -12    1    3    3    0    0  0.82913188156E+01 -0.96182990109E+01  0.34561870313E+02  0.36820925071E+02  0.00000000000E+00 0.  1.
         11    1    4    4    0    0 -0.35097512205E+01  0.16275314231E+02 -0.39973596246E+02  0.43302339476E+02  0.51100000000E-03 0. -1.
        -11    1    4    4    0    0 -0.14958894888E+01 -0.61386154529E+01  0.37359306460E+01  0.73401269127E+01  0.51100000000E-03 0.  1.
         12    1    4    4    0    0 -0.32856781063E+01 -0.51839976675E+00  0.16757952876E+01  0.37246085408E+01  0.00000000000E+00 0. -1.
</event>
<event>
 8    1  0.1229038E-006  0.9118800E+02  0.7816164E-02  0.1184000E+00
        -11   -1    0    0    0    0  0.00000000000E+00  0.00000000000E+00  0.45593999997E+02  0.45594000000E+02  0.51100000000E-03 0.  1.
         11   -1    0    0    0    0 -0.00000000000E+00 -0.00000000000E+00 -0.45593999997E+02  0.45594000000E+02  0.51100000000E-03 0. -1.
         23    2    1    2    0    0  0.00000000000E+00  0.17763568394E-14 -0.35527136788E-14  0.91188000000E+02  0.91188000000E+02 0.  0.
    9900012    2    3    3    0    0  0.32290901122E+02  0.28107242295E+01  0.17469316810E+02  0.54367088879E+02  0.40000010718E+02 0.  0.
         12    1    3    3    0    0 -0.32290901122E+02 -0.28107242295E+01 -0.17469316810E+02  0.36820911121E+02  0.00000000000E+00 0. -1.
         11    1    4    4    0    0 -0.81582649875E+00 -0.16722118862E+00  0.26323201866E+01  0.27609139117E+01  0.51100000000E-03 0. -1.
        -11    1    4    4    0    0  0.23048001861E+02 -0.10241465532E+02 -0.50216939438E+01  0.25716053670E+02  0.51100000000E-03 0.  1.
        -12    1    4    4    0    0  0.10058725759E+02  0.13219410950E+02  0.19858690567E+02  0.25890121297E+02  0.00000000000E+00 0.  1.
</event>
<event>
 8    1  0.1229038E-006  0.9118800E+02  0.7816164E-02  0.1184000E+00
        -11   -1    0    0    0    0  0.00000000000E+00  0.00000000000E+00  0.45593999997E+02  0.45594000000E+02  0.51100000000E-03 0. -1.
         11   -1    0    0    0    0 -0.00000000000E+00 -0.00000000000E+00 -0.45593999997E+02  0.45594000000E+02  0.51100000000E-03 0.  1.
         23    2    1    2    0    0  0.66613381478E-15  0.00000000000E+00  0.00000000000E+00  0.91188000000E+02  0.91188000000E+02 0.  0.
    9900012    2    3    3    0    0 -0.16871370965E+01 -0.17723553346E+02 -0.32230623261E+02  0.54367029744E+02  0.39999875906E+02 0.  0.
         12    1    3    3    0    0  0.16871370965E+01  0.17723553346E+02  0.32230623261E+02  0.36820970256E+02  0.00000000000E+00 0. -1.
         11    1    4    4    0    0  0.10738935879E+02 -0.11515488302E+02 -0.10534556769E+01  0.15781032405E+02  0.51100000000E-03 0. -1.
        -11    1    4    4    0    0  0.35352376683E+01 -0.46601647834E+01 -0.13534260061E+02  0.14744193326E+02  0.51100000000E-03 0.  1.
         12    1    4    4    0    0 -0.15961310644E+02 -0.15479002612E+01 -0.17642907524E+02  0.23841804013E+02  0.00000000000E+00 0. -1.
</event>
<event>
 8    1  0.1229038E-006  0.9118800E+02  0.7816164E-02  0.1184000E+00
        -11   -1    0    0    0    0  0.00000000000E+00  0.00000000000E+00  0.45593999997E+02  0.45594000000E+02  0.51100000000E-03 0. -1.
         11   -1    0    0    0    0 -0.00000000000E+00 -0.00000000000E+00 -0.45593999997E+02  0.45594000000E+02  0.51100000000E-03 0.  1.
         23    2    1    2    0    0  0.00000000000E+00  0.00000000000E+00  0.00000000000E+00  0.91188000000E+02  0.91188000000E+02 0.  0.
    9900012    2    3    3    0    0 -0.18321350170E+02 -0.27367667444E+02  0.16465701478E+02  0.54367076349E+02  0.39999982152E+02 0.  0.
        -12    1    3    3    0    0  0.18321350170E+02  0.27367667444E+02 -0.16465701478E+02  0.36820923651E+02  0.00000000000E+00 0.  1.
         11    1    4    4    0    0 -0.16114402878E+02 -0.17805135553E+02  0.26651763728E+01  0.24161953512E+02  0.51100000000E-03 0. -1.
        -11    1    4    4    0    0 -0.48226031366E-03 -0.16863299814E+02  0.32292232796E+01  0.17169704835E+02  0.51100000000E-03 0.  1.
        -12    1    4    4    0    0 -0.22064650316E+01  0.73007679229E+01  0.10571301825E+02  0.13035418002E+02  0.00000000000E+00 0.  1.
</event>
<event>
 8    1  0.1229038E-006  0.9118800E+02  0.7816164E-02  0.1184000E+00
        -11   -1    0    0    0    0  0.00000000000E+00  0.00000000000E+00  0.45593999997E+02  0.45594000000E+02  0.51100000000E-03 0. -1.
         11   -1    0    0    0    0 -0.00000000000E+00 -0.00000000000E+00 -0.45593999997E+02  0.45594000000E+02  0.51100000000E-03 0.  1.
         23    2    1    2    0    0  0.00000000000E+00  0.88817841970E-15 -0.71054273576E-14  0.91188000000E+02  0.91188000000E+02 0.  0.
    9900012    2    3    3    0    0  0.10473376163E+02  0.38563524896E+01 -0.35088691245E+02  0.54367091319E+02  0.40000016280E+02 0.  0.
         12    1    3    3    0    0 -0.10473376163E+02 -0.38563524896E+01  0.35088691245E+02  0.36820908681E+02  0.00000000000E+00 0. -1.
         11    1    4    4    0    0 -0.54990374604E+00 -0.13891499822E+02 -0.54744076999E+01  0.14941395563E+02  0.51100000000E-03 0. -1.
        -11    1    4    4    0    0  0.24360739806E+01  0.13661508706E+02 -0.25567256357E+02  0.29090477384E+02  0.51100000000E-03 0.  1.
         12    1    4    4    0    0  0.85872059288E+01  0.40863436060E+01 -0.40470271887E+01  0.10335218372E+02  0.00000000000E+00 0. -1.
</event>
<event>
 8    1  0.1229038E-006  0.9118800E+02  0.7816164E-02  0.1184000E+00
        -11   -1    0    0    0    0  0.00000000000E+00  0.00000000000E+00  0.45593999997E+02  0.45594000000E+02  0.51100000000E-03 0. -1.
         11   -1    0    0    0    0 -0.00000000000E+00 -0.00000000000E+00 -0.45593999997E+02  0.45594000000E+02  0.51100000000E-03 0.  1.
         23    2    1    2    0    0  0.00000000000E+00  0.00000000000E+00  0.00000000000E+00  0.91188000000E+02  0.91188000000E+02 0.  0.
    9900012    2    3    3    0    0  0.12473783687E+01  0.27529815378E+02 -0.24419919725E+02  0.54367093345E+02  0.40000020899E+02 0.  0.
        -12    1    3    3    0    0 -0.12473783687E+01 -0.27529815378E+02  0.24419919725E+02  0.36820906655E+02  0.00000000000E+00 0.  1.
         11    1    4    4    0    0 -0.19389149668E+01 -0.29569921324E+01 -0.82586637653E+01  0.89838032686E+01  0.51100000000E-03 0. -1.
        -11    1    4    4    0    0  0.22449585357E+01 -0.44106418489E+01  0.27688468593E+01  0.56709887619E+01  0.51100000000E-03 0.  1.
        -12    1    4    4    0    0  0.94133479974E+00  0.34897449359E+02 -0.18930102819E+02  0.39712301315E+02  0.00000000000E+00 0.  1.
</event>
<event>
 8    1  0.1229038E-006  0.9118800E+02  0.7816164E-02  0.1184000E+00
        -11   -1    0    0    0    0  0.00000000000E+00  0.00000000000E+00  0.45593999997E+02  0.45594000000E+02  0.51100000000E-03 0.  1.
         11   -1    0    0    0    0 -0.00000000000E+00 -0.00000000000E+00 -0.45593999997E+02  0.45594000000E+02  0.51100000000E-03 0. -1.
         23    2    1    2    0    0 -0.17208456882E-14  0.17763568394E-14  0.00000000000E+00  0.91188000000E+02  0.91188000000E+02 0.  0.
    9900012    2    3    3    0    0  0.28144346807E+00  0.14132680531E+02  0.33999524073E+02  0.54367088732E+02  0.40000010383E+02 0.  0.
         12    1    3    3    0    0 -0.28144346807E+00 -0.14132680531E+02 -0.33999524073E+02  0.36820911268E+02  0.00000000000E+00 0. -1.
         11    1    4    4    0    0 -0.10735990887E+02  0.21007943556E+02  0.21896653033E+02  0.32187864282E+02  0.51100000000E-03 0. -1.
        -11    1    4    4    0    0 -0.28396756194E-01 -0.54895121858E+01  0.91356946263E+01  0.10658164334E+02  0.51100000000E-03 0.  1.
         12    1    4    4    0    0  0.11045831111E+02 -0.13857508387E+01  0.29671764133E+01  0.11521060115E+02  0.00000000000E+00 0. -1.
</event>
<event>
 8    1  0.1229038E-006  0.9118800E+02  0.7816164E-02  0.1184000E+00
        -11   -1    0    0    0    0  0.00000000000E+00  0.00000000000E+00  0.45593999997E+02  0.45594000000E+02  0.51100000000E-03 0.  1.
         11   -1    0    0    0    0 -0.00000000000E+00 -0.00000000000E+00 -0.45593999997E+02  0.45594000000E+02  0.51100000000E-03 0. -1.
         23    2    1    2    0    0 -0.35527136788E-14  0.00000000000E+00  0.35527136788E-14  0.91188000000E+02  0.91188000000E+02 0.  0.
    9900012    2    3    3    0    0 -0.29739221109E+02  0.45516794900E+01  0.21228341801E+02  0.54367060930E+02  0.39999947003E+02 0.  0.
         12    1    3    3    0    0  0.29739221109E+02 -0.45516794900E+01 -0.21228341801E+02  0.36820939070E+02  0.00000000000E+00 0. -1.
         11    1    4    4    0    0 -0.28401482157E+02  0.30272596401E+01  0.47995994903E+01  0.28962814870E+02  0.51100000000E-03 0.  1.
        -11    1    4    4    0    0 -0.57369643870E+01 -0.11829593209E+01 -0.20585556412E+01  0.62088489047E+01  0.51100000000E-03 0. -1.
        -12    1    4    4    0    0  0.43992254355E+01  0.27073791708E+01  0.18487297952E+02  0.19195397156E+02  0.00000000000E+00 0.  1.
</event>
<event>
 8    1  0.1229038E-006  0.9118800E+02  0.7816164E-02  0.1184000E+00
        -11   -1    0    0    0    0  0.00000000000E+00  0.00000000000E+00  0.45593999997E+02  0.45594000000E+02  0.51100000000E-03 0.  1.
         11   -1    0    0    0    0 -0.00000000000E+00 -0.00000000000E+00 -0.45593999997E+02  0.45594000000E+02  0.51100000000E-03 0. -1.
         23    2    1    2    0    0  0.00000000000E+00  0.00000000000E+00  0.00000000000E+00  0.91188000000E+02  0.91188000000E+02 0.  0.
    9900012    2    3    3    0    0  0.16163876584E+02  0.16560551662E+02 -0.28640142172E+02  0.54367074955E+02  0.39999978974E+02 0.  0.
        -12    1    3    3    0    0 -0.16163876584E+02 -0.16560551662E+02  0.28640142172E+02  0.36820925045E+02  0.00000000000E+00 0.  1.
         11    1    4    4    0    0  0.37754932985E+01  0.22094150441E+02 -0.15953669214E+02  0.27512277169E+02  0.51100000000E-03 0.  1.
        -11    1    4    4    0    0  0.65874167059E+01 -0.38065143971E+01 -0.17525446022E+02  0.19105624021E+02  0.51100000000E-03 0. -1.
         12    1    4    4    0    0  0.58009665801E+01 -0.17270843824E+01  0.48389730639E+01  0.77491737650E+01  0.00000000000E+00 0. -1.
</event>
<event>
 8    1  0.1229038E-006  0.9118800E+02  0.7816164E-02  0.1184000E+00
        -11   -1    0    0    0    0  0.00000000000E+00  0.00000000000E+00  0.45593999997E+02  0.45594000000E+02  0.51100000000E-03 0. -1.
         11   -1    0    0    0    0 -0.00000000000E+00 -0.00000000000E+00 -0.45593999997E+02  0.45594000000E+02  0.51100000000E-03 0.  1.
         23    2    1    2    0    0  0.17763568394E-14 -0.88817841970E-15  0.00000000000E+00  0.91188000000E+02  0.91188000000E+02 0.  0.
    9900012    2    3    3    0    0 -0.99635417753E+01  0.51612165145E+01 -0.35069513884E+02  0.54367066760E+02  0.39999960293E+02 0.  0.
         12    1    3    3    0    0  0.99635417753E+01 -0.51612165145E+01  0.35069513884E+02  0.36820933240E+02  0.00000000000E+00 0. -1.
         11    1    4    4    0    0 -0.12936908833E+02  0.13428744929E+02 -0.22976910927E+02  0.29591100630E+02  0.51100000000E-03 0. -1.
        -11    1    4    4    0    0 -0.57860352690E+01 -0.32344548761E+01 -0.13041127380E+02  0.14629111595E+02  0.51100000000E-03 0.  1.
         12    1    4    4    0    0  0.87594023264E+01 -0.50330735384E+01  0.94852442261E+00  0.10146854534E+02  0.00000000000E+00 0. -1.
</event>
<event>
 8    1  0.1229038E-006  0.9118800E+02  0.7816164E-02  0.1184000E+00
        -11   -1    0    0    0    0  0.00000000000E+00  0.00000000000E+00  0.45593999997E+02  0.45594000000E+02  0.51100000000E-03 0. -1.
         11   -1    0    0    0    0 -0.00000000000E+00 -0.00000000000E+00 -0.45593999997E+02  0.45594000000E+02  0.51100000000E-03 0.  1.
         23    2    1    2    0    0  0.00000000000E+00 -0.17763568394E-14  0.00000000000E+00  0.91188000000E+02  0.91188000000E+02 0.  0.
    9900012    2    3    3    0    0  0.30095512300E+02 -0.34255024588E+01 -0.20935764605E+02  0.54367079760E+02  0.39999989929E+02 0.  0.
         12    1    3    3    0    0 -0.30095512300E+02  0.34255024588E+01  0.20935764605E+02  0.36820920240E+02  0.00000000000E+00 0. -1.
         11    1    4    4    0    0  0.97231202767E+01  0.17416726270E+01  0.29251251432E+01  0.10301885692E+02  0.51100000000E-03 0. -1.
        -11    1    4    4    0    0  0.15922551415E+02 -0.14935524916E+02 -0.50506984985E+01  0.22407746510E+02  0.51100000000E-03 0.  1.
        -12    1    4    4    0    0  0.44498406081E+01  0.97683498299E+01 -0.18810191250E+02  0.21657447557E+02  0.00000000000E+00 0.  1.
</event>
<event>
 8    1  0.1229038E-006  0.9118800E+02  0.7816164E-02  0.1184000E+00
        -11   -1    0    0    0    0  0.00000000000E+00  0.00000000000E+00  0.45593999997E+02  0.45594000000E+02  0.51100000000E-03 0. -1.
         11   -1    0    0    0    0 -0.00000000000E+00 -0.00000000000E+00 -0.45593999997E+02  0.45594000000E+02  0.51100000000E-03 0.  1.
         23    2    1    2    0    0  0.35527136788E-14 -0.33306690739E-15  0.00000000000E+00  0.91188000000E+02  0.91188000000E+02 0.  0.
    9900012    2    3    3    0    0  0.30978441672E+02  0.84882073322E+00 -0.19884337966E+02  0.54367200967E+02  0.40000266245E+02 0.  0.
         12    1    3    3    0    0 -0.30978441672E+02 -0.84882073322E+00  0.19884337966E+02  0.36820799033E+02  0.00000000000E+00 0. -1.
         11    1    4    4    0    0  0.15997013656E+02  0.27353379580E+01 -0.15618390426E+02  0.22523779421E+02  0.51100000000E-03 0. -1.
        -11    1    4    4    0    0  0.21217788331E+02 -0.62075097922E+01 -0.78406637926E+01  0.23456421902E+02  0.51100000000E-03 0.  1.
         12    1    4    4    0    0 -0.62363603151E+01  0.43209925675E+01  0.35747162525E+01  0.83869996443E+01  0.00000000000E+00 0. -1.
</event>
<event>
 8    1  0.1229038E-006  0.9118800E+02  0.7816164E-02  0.1184000E+00
        -11   -1    0    0    0    0  0.00000000000E+00  0.00000000000E+00  0.45593999997E+02  0.45594000000E+02  0.51100000000E-03 0. -1.
         11   -1    0    0    0    0 -0.00000000000E+00 -0.00000000000E+00 -0.45593999997E+02  0.45594000000E+02  0.51100000000E-03 0.  1.
         23    2    1    2    0    0 -0.17763568394E-14  0.00000000000E+00 -0.17763568394E-14  0.91188000000E+02  0.91188000000E+02 0.  0.
    9900012    2    3    3    0    0  0.15766208138E+02 -0.31648865790E+02 -0.10274025074E+02  0.54367087245E+02  0.40000006993E+02 0.  0.
        -12    1    3    3    0    0 -0.15766208138E+02  0.31648865790E+02  0.10274025074E+02  0.36820912755E+02  0.00000000000E+00 0.  1.
         11    1    4    4    0    0 -0.69154051324E+01 -0.13109702738E+02  0.85342442301E+01  0.17103229486E+02  0.51100000000E-03 0. -1.
        -11    1    4    4    0    0  0.59982524598E+01  0.25605779317E+00 -0.22499240060E+00  0.60079297604E+01  0.51100000000E-03 0.  1.
         12    1    4    4    0    0  0.16683360811E+02 -0.18795220845E+02 -0.18583276904E+02  0.31255927999E+02  0.00000000000E+00 0. -1.
</event>
<event>
 8    1  0.1229038E-006  0.9118800E+02  0.7816164E-02  0.1184000E+00
        -11   -1    0    0    0    0  0.00000000000E+00  0.00000000000E+00  0.45593999997E+02  0.45594000000E+02  0.51100000000E-03 0.  1.
         11   -1    0    0    0    0 -0.00000000000E+00 -0.00000000000E+00 -0.45593999997E+02  0.45594000000E+02  0.51100000000E-03 0. -1.
         23    2    1    2    0    0  0.00000000000E+00 -0.35527136788E-14  0.17763568394E-14  0.91188000000E+02  0.91188000000E+02 0.  0.
    9900012    2    3    3    0    0  0.14427905557E+02 -0.29907575691E+02  0.15910757729E+02  0.54367085373E+02  0.40000002725E+02 0.  0.
        -12    1    3    3    0    0 -0.14427905557E+02  0.29907575691E+02 -0.15910757729E+02  0.36820914627E+02  0.00000000000E+00 0.  1.
         11    1    4    4    0    0  0.11749372035E+02 -0.22995076576E+02  0.23751024930E+02  0.35084647290E+02  0.51100000000E-03 0. -1.
        -11    1    4    4    0    0 -0.55896314949E+01 -0.74302612404E+01 -0.35459087882E+01  0.99511924785E+01  0.51100000000E-03 0.  1.
         12    1    4    4    0    0  0.82681650167E+01  0.51776212568E+00 -0.42943584127E+01  0.93312456049E+01  0.00000000000E+00 0. -1.
</event>
<event>
 8    1  0.1229038E-006  0.9118800E+02  0.7816164E-02  0.1184000E+00
        -11   -1    0    0    0    0  0.00000000000E+00  0.00000000000E+00  0.45593999997E+02  0.45594000000E+02  0.51100000000E-03 0.  1.
         11   -1    0    0    0    0 -0.00000000000E+00 -0.00000000000E+00 -0.45593999997E+02  0.45594000000E+02  0.51100000000E-03 0. -1.
         23    2    1    2    0    0 -0.35527136788E-14  0.00000000000E+00  0.17763568394E-14  0.91188000000E+02  0.91188000000E+02 0.  0.
    9900012    2    3    3    0    0 -0.30080141849E+02 -0.20055199770E+02 -0.69824508364E+01  0.54367074005E+02  0.39999976808E+02 0.  0.
        -12    1    3    3    0    0  0.30080141849E+02  0.20055199770E+02  0.69824508364E+01  0.36820925995E+02  0.00000000000E+00 0.  1.
         11    1    4    4    0    0 -0.15086754905E+02 -0.64652285247E+01 -0.84536035916E+01  0.18462739975E+02  0.51100000000E-03 0. -1.
        -11    1    4    4    0    0 -0.98022751631E+01 -0.33050996137E+01 -0.13503755342E+02  0.17010575841E+02  0.51100000000E-03 0.  1.
        -12    1    4    4    0    0 -0.51911117812E+01 -0.10284871631E+02  0.14974908097E+02  0.18893758189E+02  0.00000000000E+00 0.  1.
</event>
<event>
 8    1  0.1229038E-006  0.9118800E+02  0.7816164E-02  0.1184000E+00
        -11   -1    0    0    0    0  0.00000000000E+00  0.00000000000E+00  0.45593999997E+02  0.45594000000E+02  0.51100000000E-03 0.  1.
         11   -1    0    0    0    0 -0.00000000000E+00 -0.00000000000E+00 -0.45593999997E+02  0.45594000000E+02  0.51100000000E-03 0. -1.
         23    2    1    2    0    0 -0.88817841970E-15 -0.71054273576E-14  0.44408920985E-15  0.91188000000E+02  0.91188000000E+02 0.  0.
    9900012    2    3    3    0    0  0.50905368865E+01 -0.36449058484E+02  0.11528903161E+01  0.54367128388E+02  0.40000100787E+02 0.  0.
        -12    1    3    3    0    0 -0.50905368865E+01  0.36449058484E+02 -0.11528903161E+01  0.36820871612E+02  0.00000000000E+00 0.  1.
         11    1    4    4    0    0 -0.15650330649E+02 -0.15484497741E+02  0.21676002475E+01  0.22122409697E+02  0.51100000000E-03 0. -1.
        -11    1    4    4    0    0  0.18029353083E+02 -0.11042358214E+02  0.26883976719E+01  0.21312407885E+02  0.51100000000E-03 0.  1.
         12    1    4    4    0    0  0.27115144524E+01 -0.99222025288E+01 -0.37031076033E+01  0.10932310806E+02  0.00000000000E+00 0. -1.
</event>
<event>
 8    1  0.1229038E-006  0.9118800E+02  0.7816164E-02  0.1184000E+00
        -11   -1    0    0    0    0  0.00000000000E+00  0.00000000000E+00  0.45593999997E+02  0.45594000000E+02  0.51100000000E-03 0.  1.
         11   -1    0    0    0    0 -0.00000000000E+00 -0.00000000000E+00 -0.45593999997E+02  0.45594000000E+02  0.51100000000E-03 0. -1.
         23    2    1    2    0    0  0.88817841970E-15  0.00000000000E+00  0.00000000000E+00  0.91188000000E+02  0.91188000000E+02 0.  0.
    9900012    2    3    3    0    0 -0.12303260538E+01  0.50819071094E+01 -0.36447763819E+02  0.54367096025E+02  0.40000027009E+02 0.  0.
        -12    1    3    3    0    0  0.12303260538E+01 -0.50819071094E+01  0.36447763819E+02  0.36820903975E+02  0.00000000000E+00 0.  1.
         11    1    4    4    0    0  0.49174417486E+01  0.13843452983E+02 -0.12364281123E+02  0.19201507018E+02  0.51100000000E-03 0. -1.
        -11    1    4    4    0    0  0.55067841939E+01 -0.81143656466E+01 -0.20869477987E+02  0.23058679791E+02  0.51100000000E-03 0.  1.
        -12    1    4    4    0    0 -0.11654551996E+02 -0.64718022659E+00 -0.32140047097E+01  0.12106909216E+02  0.00000000000E+00 0.  1.
</event>
<event>
 8    1  0.1229038E-006  0.9118800E+02  0.7816164E-02  0.1184000E+00
        -11   -1    0    0    0    0  0.00000000000E+00  0.00000000000E+00  0.45593999997E+02  0.45594000000E+02  0.51100000000E-03 0.  1.
         11   -1    0    0    0    0 -0.00000000000E+00 -0.00000000000E+00 -0.45593999997E+02  0.45594000000E+02  0.51100000000E-03 0. -1.
         23    2    1    2    0    0  0.00000000000E+00 -0.35527136788E-14 -0.71054273576E-14  0.91188000000E+02  0.91188000000E+02 0.  0.
    9900012    2    3    3    0    0 -0.23403351784E+02  0.93670580482E+01  0.26838789146E+02  0.54367092162E+02  0.40000018201E+02 0.  0.
         12    1    3    3    0    0  0.23403351784E+02 -0.93670580482E+01 -0.26838789146E+02  0.36820907838E+02  0.00000000000E+00 0. -1.
         11    1    4    4    0    0  0.68242279841E+00  0.36817565138E+01  0.64396734421E+01  0.74491896341E+01  0.51100000000E-03 0. -1.
        -11    1    4    4    0    0 -0.76007941949E+01  0.93017901021E+01  0.26401105047E+02  0.29005408452E+02  0.51100000000E-03 0.  1.
         12    1    4    4    0    0 -0.16484980387E+02 -0.36164885676E+01 -0.60019893431E+01  0.17912494075E+02  0.00000000000E+00 0. -1.
</event>
<event>
 8    1  0.1229038E-006  0.9118800E+02  0.7816164E-02  0.1184000E+00
        -11   -1    0    0    0    0  0.00000000000E+00  0.00000000000E+00  0.45593999997E+02  0.45594000000E+02  0.51100000000E-03 0.  1.
         11   -1    0    0    0    0 -0.00000000000E+00 -0.00000000000E+00 -0.45593999997E+02  0.45594000000E+02  0.51100000000E-03 0. -1.
         23    2    1    2    0    0 -0.35527136788E-14 -0.35527136788E-14 -0.35527136788E-14  0.91188000000E+02  0.91188000000E+02 0.  0.
    9900012    2    3    3    0    0 -0.26877713198E+02 -0.14705621600E+02  0.20423346021E+02  0.54367084258E+02  0.40000000183E+02 0.  0.
         12    1    3    3    0    0  0.26877713198E+02  0.14705621600E+02 -0.20423346021E+02  0.36820915742E+02  0.00000000000E+00 0. -1.
         11    1    4    4    0    0 -0.10123355702E+02  0.27724013354E+01  0.10271007370E+02  0.14685439472E+02  0.51100000000E-03 0. -1.
        -11    1    4    4    0    0 -0.19161374868E+02 -0.13294360021E+02  0.18681563870E+02  0.29881417706E+02  0.51100000000E-03 0.  1.
         12    1    4    4    0    0  0.24070173722E+01 -0.41836629144E+01 -0.85292252181E+01  0.98002270806E+01  0.00000000000E+00 0. -1.
</event>
<event>
 8    1  0.1229038E-006  0.9118800E+02  0.7816164E-02  0.1184000E+00
        -11   -1    0    0    0    0  0.00000000000E+00  0.00000000000E+00  0.45593999997E+02  0.45594000000E+02  0.51100000000E-03 0. -1.
         11   -1    0    0    0    0 -0.00000000000E+00 -0.00000000000E+00 -0.45593999997E+02  0.45594000000E+02  0.51100000000E-03 0.  1.
         23    2    1    2    0    0  0.35527136788E-14  0.00000000000E+00  0.35527136788E-14  0.91188000000E+02  0.91188000000E+02 0.  0.
    9900012    2    3    3    0    0  0.14873242923E+02  0.27175431155E+02  0.19901320641E+02  0.54367082348E+02  0.39999995828E+02 0.  0.
        -12    1    3    3    0    0 -0.14873242923E+02 -0.27175431155E+02 -0.19901320641E+02  0.36820917652E+02  0.00000000000E+00 0.  1.
         11    1    4    4    0    0 -0.86168486653E+00 -0.35656751814E+01  0.18549282471E+02  0.18908527726E+02  0.51100000000E-03 0. -1.
        -11    1    4    4    0    0  0.13972181159E+02  0.19461716059E+02 -0.38209099766E-01  0.23957915153E+02  0.51100000000E-03 0.  1.
         12    1    4    4    0    0  0.17627466312E+01  0.11279390278E+02  0.13902472700E+01  0.11500639469E+02  0.00000000000E+00 0. -1.
</event>
<event>
 8    1  0.1229038E-006  0.9118800E+02  0.7816164E-02  0.1184000E+00
        -11   -1    0    0    0    0  0.00000000000E+00  0.00000000000E+00  0.45593999997E+02  0.45594000000E+02  0.51100000000E-03 0.  1.
         11   -1    0    0    0    0 -0.00000000000E+00 -0.00000000000E+00 -0.45593999997E+02  0.45594000000E+02  0.51100000000E-03 0. -1.
         23    2    1    2    0    0  0.00000000000E+00 -0.17763568394E-14 -0.35527136788E-14  0.91188000000E+02  0.91188000000E+02 0.  0.
    9900012    2    3    3    0    0 -0.26244581086E+02 -0.95078148892E+01 -0.24012549646E+02  0.54367093970E+02  0.40000022324E+02 0.  0.
        -12    1    3    3    0    0  0.26244581086E+02  0.95078148892E+01  0.24012549646E+02  0.36820906030E+02  0.00000000000E+00 0.  1.
         11    1    4    4    0    0 -0.72569627905E+01  0.22188412539E+01 -0.23360389872E+02  0.24562055709E+02  0.51100000000E-03 0. -1.
        -11    1    4    4    0    0 -0.31520043081E+01  0.52659072842E+01  0.19324885526E+01  0.64342383349E+01  0.51100000000E-03 0.  1.
         12    1    4    4    0    0 -0.15835613988E+02 -0.16992563427E+02 -0.25846483266E+01  0.23370799926E+02  0.00000000000E+00 0. -1.
</event>
<event>
 8    1  0.1229038E-006  0.9118800E+02  0.7816164E-02  0.1184000E+00
        -11   -1    0    0    0    0  0.00000000000E+00  0.00000000000E+00  0.45593999997E+02  0.45594000000E+02  0.51100000000E-03 0. -1.
         11   -1    0    0    0    0 -0.00000000000E+00 -0.00000000000E+00 -0.45593999997E+02  0.45594000000E+02  0.51100000000E-03 0.  1.
         23    2    1    2    0    0  0.35527136788E-14  0.00000000000E+00 -0.88817841970E-15  0.91188000000E+02  0.91188000000E+02 0.  0.
    9900012    2    3    3    0    0  0.10150313990E+02  0.35030632059E+02 -0.50601419213E+01  0.54367094351E+02  0.40000023192E+02 0.  0.
         12    1    3    3    0    0 -0.10150313990E+02 -0.35030632059E+02  0.50601419213E+01  0.36820905649E+02  0.00000000000E+00 0. -1.
         11    1    4    4    0    0 -0.58075190620E+01 -0.23224028341E+01  0.68547758855E+01  0.92794819511E+01  0.51100000000E-03 0. -1.
        -11    1    4    4    0    0  0.61122643904E+00  0.10047770847E+02  0.28465542055E+01  0.10461078714E+02  0.51100000000E-03 0.  1.
        -12    1    4    4    0    0  0.15346606613E+02  0.27305264046E+02 -0.14761472012E+02  0.34626533687E+02  0.00000000000E+00 0.  1.
</event>
<event>
 8    1  0.1229038E-006  0.9118800E+02  0.7816164E-02  0.1184000E+00
        -11   -1    0    0    0    0  0.00000000000E+00  0.00000000000E+00  0.45593999997E+02  0.45594000000E+02  0.51100000000E-03 0.  1.
         11   -1    0    0    0    0 -0.00000000000E+00 -0.00000000000E+00 -0.45593999997E+02  0.45594000000E+02  0.51100000000E-03 0. -1.
         23    2    1    2    0    0  0.00000000000E+00  0.35527136788E-14 -0.35527136788E-14  0.91188000000E+02  0.91188000000E+02 0.  0.
    9900012    2    3    3    0    0 -0.27042549549E+02 -0.23192135811E+02  0.93061832338E+01  0.54367086161E+02  0.40000004520E+02 0.  0.
         12    1    3    3    0    0  0.27042549549E+02  0.23192135811E+02 -0.93061832338E+01  0.36820913839E+02  0.00000000000E+00 0. -1.
         11    1    4    4    0    0 -0.11373454712E+02  0.86660164973E+01  0.82678300271E+01  0.16517031442E+02  0.51100000000E-03 0. -1.
        -11    1    4    4    0    0 -0.93659444795E+01 -0.29693095376E+02  0.22525844174E+00  0.31136017257E+02  0.51100000000E-03 0.  1.
        -12    1    4    4    0    0 -0.63031503571E+01 -0.21650569327E+01  0.81309476501E+00  0.67140374621E+01  0.00000000000E+00 0.  1.
</event>
<event>
 8    1  0.1229038E-006  0.9118800E+02  0.7816164E-02  0.1184000E+00
        -11   -1    0    0    0    0  0.00000000000E+00  0.00000000000E+00  0.45593999997E+02  0.45594000000E+02  0.51100000000E-03 0.  1.
         11   -1    0    0    0    0 -0.00000000000E+00 -0.00000000000E+00 -0.45593999997E+02  0.45594000000E+02  0.51100000000E-03 0. -1.
         23    2    1    2    0    0  0.00000000000E+00  0.00000000000E+00  0.35527136788E-14  0.91188000000E+02  0.91188000000E+02 0.  0.
    9900012    2    3    3    0    0  0.18028758925E+02  0.26517866982E+02 -0.18098157120E+02  0.54367126724E+02  0.40000096993E+02 0.  0.
        -12    1    3    3    0    0 -0.18028758925E+02 -0.26517866982E+02  0.18098157120E+02  0.36820873276E+02  0.00000000000E+00 0.  1.
         11    1    4    4    0    0  0.10838862043E+02  0.23753194204E+02 -0.59050375238E+01  0.26768724918E+02  0.51100000000E-03 0. -1.
        -11    1    4    4    0    0 -0.48531561973E+01  0.56123091395E+01  0.29999348745E+01  0.80031711505E+01  0.51100000000E-03 0.  1.
        -12    1    4    4    0    0  0.12043053078E+02 -0.28476363616E+01 -0.15193054471E+02  0.19595230656E+02  0.00000000000E+00 0.  1.
</event>
<event>
 8    1  0.1229038E-006  0.9118800E+02  0.7816164E-02  0.1184000E+00
        -11   -1    0    0    0    0  0.00000000000E+00  0.00000000000E+00  0.45593999997E+02  0.45594000000E+02  0.51100000000E-03 0.  1.
         11   -1    0    0    0    0 -0.00000000000E+00 -0.00000000000E+00 -0.45593999997E+02  0.45594000000E+02  0.51100000000E-03 0. -1.
         23    2    1    2    0    0  0.00000000000E+00  0.00000000000E+00 -0.17763568394E-14  0.91188000000E+02  0.91188000000E+02 0.  0.
    9900012    2    3    3    0    0 -0.87413895388E+01 -0.32966734807E+02  0.13876670178E+02  0.54367089227E+02  0.40000011511E+02 0.  0.
        -12    1    3    3    0    0  0.87413895388E+01  0.32966734807E+02 -0.13876670178E+02  0.36820910773E+02  0.00000000000E+00 0.  1.
         11    1    4    4    0    0 -0.12254865128E+01 -0.23489076604E+02  0.16705099593E+02  0.28849590804E+02  0.51100000000E-03 0. -1.
        -11    1    4    4    0    0 -0.90423296419E+01 -0.15525663151E+02 -0.54144539402E+01  0.18765027401E+02  0.51100000000E-03 0.  1.
        -12    1    4    4    0    0  0.15264266159E+01  0.60480049476E+01  0.25860245252E+01  0.67524710222E+01  0.00000000000E+00 0.  1.
</event>
<event>
 8    1  0.1229038E-006  0.9118800E+02  0.7816164E-02  0.1184000E+00
        -11   -1    0    0    0    0  0.00000000000E+00  0.00000000000E+00  0.45593999997E+02  0.45594000000E+02  0.51100000000E-03 0. -1.
         11   -1    0    0    0    0 -0.00000000000E+00 -0.00000000000E+00 -0.45593999997E+02  0.45594000000E+02  0.51100000000E-03 0.  1.
         23    2    1    2    0    0 -0.35527136788E-14  0.17763568394E-14  0.00000000000E+00  0.91188000000E+02  0.91188000000E+02 0.  0.
    9900012    2    3    3    0    0  0.30580940389E+02 -0.11869271585E+02  0.16724423318E+02  0.54367083956E+02  0.39999999494E+02 0.  0.
        -12    1    3    3    0    0 -0.30580940389E+02  0.11869271585E+02 -0.16724423318E+02  0.36820916044E+02  0.00000000000E+00 0.  1.
         11    1    4    4    0    0  0.44356439299E+01 -0.16275922057E+02 -0.21017389345E+01  0.16999937726E+02  0.51100000000E-03 0. -1.
        -11    1    4    4    0    0  0.20993615765E+01  0.58975621590E+00  0.11837938592E+02  0.12037106039E+02  0.51100000000E-03 0.  1.
         12    1    4    4    0    0  0.24045934882E+02  0.38168942560E+01  0.69882236608E+01  0.25330040191E+02  0.00000000000E+00 0. -1.
</event>
<event>
 8    1  0.1229038E-006  0.9118800E+02  0.7816164E-02  0.1184000E+00
        -11   -1    0    0    0    0  0.00000000000E+00  0.00000000000E+00  0.45593999997E+02  0.45594000000E+02  0.51100000000E-03 0. -1.
         11   -1    0    0    0    0 -0.00000000000E+00 -0.00000000000E+00 -0.45593999997E+02  0.45594000000E+02  0.51100000000E-03 0.  1.
         23    2    1    2    0    0  0.00000000000E+00 -0.17763568394E-14 -0.35527136788E-14  0.91188000000E+02  0.91188000000E+02 0.  0.
    9900012    2    3    3    0    0  0.28955652240E+02  0.13051397066E+02 -0.18628235983E+02  0.54367082876E+02  0.39999997033E+02 0.  0.
         12    1    3    3    0    0 -0.28955652240E+02 -0.13051397066E+02  0.18628235983E+02  0.36820917124E+02  0.00000000000E+00 0. -1.
         11    1    4    4    0    0  0.25296780899E+02  0.32782159601E+01 -0.18743184485E+02  0.31654080126E+02  0.51100000000E-03 0. -1.
        -11    1    4    4    0    0  0.11738487002E+02  0.64101180122E+01 -0.24414638691E+01  0.13595677111E+02  0.51100000000E-03 0.  1.
        -12    1    4    4    0    0 -0.80796156612E+01  0.33630630934E+01  0.25564123706E+01  0.91173256392E+01  0.00000000000E+00 0.  1.
</event>
<event>
 8    1  0.1229038E-006  0.9118800E+02  0.7816164E-02  0.1184000E+00
        -11   -1    0    0    0    0  0.00000000000E+00  0.00000000000E+00  0.45593999997E+02  0.45594000000E+02  0.51100000000E-03 0.  1.
         11   -1    0    0    0    0 -0.00000000000E+00 -0.00000000000E+00 -0.45593999997E+02  0.45594000000E+02  0.51100000000E-03 0. -1.
         23    2    1    2    0    0  0.11102230246E-14  0.00000000000E+00  0.00000000000E+00  0.91188000000E+02  0.91188000000E+02 0.  0.
    9900012    2    3    3    0    0 -0.53406788469E+00 -0.27149880650E+02 -0.24867206734E+02  0.54367092643E+02  0.40000019299E+02 0.  0.
        -12    1    3    3    0    0  0.53406788469E+00  0.27149880650E+02  0.24867206734E+02  0.36820907357E+02  0.00000000000E+00 0.  1.
         11    1    4    4    0    0  0.75392834265E+01 -0.11349039291E+02 -0.11286270999E+02  0.17692410823E+02  0.51100000000E-03 0. -1.
        -11    1    4    4    0    0 -0.17275720848E+02 -0.16091163294E+02 -0.50924108701E+01  0.24151784939E+02  0.51100000000E-03 0.  1.
        -12    1    4    4    0    0  0.92023695370E+01  0.29032193528E+00 -0.84885248654E+01  0.12522896882E+02  0.00000000000E+00 0.  1.
</event>
<event>
 8    1  0.1229038E-006  0.9118800E+02  0.7816164E-02  0.1184000E+00
        -11   -1    0    0    0    0  0.00000000000E+00  0.00000000000E+00  0.45593999997E+02  0.45594000000E+02  0.51100000000E-03 0. -1.
         11   -1    0    0    0    0 -0.00000000000E+00 -0.00000000000E+00 -0.45593999997E+02  0.45594000000E+02  0.51100000000E-03 0.  1.
         23    2    1    2    0    0  0.00000000000E+00  0.00000000000E+00  0.00000000000E+00  0.91188000000E+02  0.91188000000E+02 0.  0.
    9900012    2    3    3    0    0  0.21617719750E+02 -0.21161652871E+02 -0.20991409674E+02  0.54367073348E+02  0.39999975311E+02 0.  0.
         12    1    3    3    0    0 -0.21617719750E+02  0.21161652871E+02  0.20991409674E+02  0.36820926652E+02  0.00000000000E+00 0. -1.
         11    1    4    4    0    0 -0.65532961911E+01 -0.17172592334E+01 -0.28804074312E+01  0.73614820162E+01  0.51100000000E-03 0. -1.
        -11    1    4    4    0    0  0.16107892490E+02 -0.20230571926E+02 -0.77587927398E+00  0.25871649152E+02  0.51100000000E-03 0.  1.
        -12    1    4    4    0    0  0.12063123451E+02  0.78617828863E+00 -0.17335122969E+02  0.21133942180E+02  0.00000000000E+00 0.  1.
</event>
<event>
 8    1  0.1229038E-006  0.9118800E+02  0.7816164E-02  0.1184000E+00
        -11   -1    0    0    0    0  0.00000000000E+00  0.00000000000E+00  0.45593999997E+02  0.45594000000E+02  0.51100000000E-03 0.  1.
         11   -1    0    0    0    0 -0.00000000000E+00 -0.00000000000E+00 -0.45593999997E+02  0.45594000000E+02  0.51100000000E-03 0. -1.
         23    2    1    2    0    0  0.00000000000E+00 -0.35527136788E-14  0.00000000000E+00  0.91188000000E+02  0.91188000000E+02 0.  0.
    9900012    2    3    3    0    0 -0.10911294582E+02 -0.26358861068E+02 -0.23279569588E+02  0.54367024096E+02  0.39999863033E+02 0.  0.
        -12    1    3    3    0    0  0.10911294582E+02  0.26358861068E+02  0.23279569588E+02  0.36820975904E+02  0.00000000000E+00 0.  1.
         11    1    4    4    0    0 -0.13885723076E+02  0.47661500256E+01 -0.12658038238E+02  0.19384411874E+02  0.51100000000E-03 0. -1.
        -11    1    4    4    0    0  0.56285257439E+01 -0.25882121832E+02 -0.11787677957E+02  0.28991617486E+02  0.51100000000E-03 0.  1.
         12    1    4    4    0    0 -0.26540972498E+01 -0.52428892618E+01  0.11661466064E+01  0.59909947364E+01  0.00000000000E+00 0. -1.
</event>
<event>
 8    1  0.1229038E-006  0.9118800E+02  0.7816164E-02  0.1184000E+00
        -11   -1    0    0    0    0  0.00000000000E+00  0.00000000000E+00  0.45593999997E+02  0.45594000000E+02  0.51100000000E-03 0. -1.
         11   -1    0    0    0    0 -0.00000000000E+00 -0.00000000000E+00 -0.45593999997E+02  0.45594000000E+02  0.51100000000E-03 0.  1.
         23    2    1    2    0    0  0.35527136788E-14  0.00000000000E+00  0.35527136788E-14  0.91188000000E+02  0.91188000000E+02 0.  0.
    9900012    2    3    3    0    0  0.31552863962E+02 -0.94474395489E+01 -0.16460347909E+02  0.54367076715E+02  0.39999982988E+02 0.  0.
         12    1    3    3    0    0 -0.31552863962E+02  0.94474395489E+01  0.16460347909E+02  0.36820923285E+02  0.00000000000E+00 0. -1.
         11    1    4    4    0    0  0.99461935725E+00 -0.62220496176E+01 -0.17558186050E+02  0.18654572275E+02  0.51100000000E-03 0.  1.
        -11    1    4    4    0    0 -0.85322695201E+00 -0.13391727244E+01 -0.35633244894E+01  0.39011102901E+01  0.51100000000E-03 0. -1.
         12    1    4    4    0    0  0.31411471557E+02 -0.18862172069E+01  0.46611626306E+01  0.31811394151E+02  0.00000000000E+00 0. -1.
</event>
<event>
 8    1  0.1229038E-006  0.9118800E+02  0.7816164E-02  0.1184000E+00
        -11   -1    0    0    0    0  0.00000000000E+00  0.00000000000E+00  0.45593999997E+02  0.45594000000E+02  0.51100000000E-03 0.  1.
         11   -1    0    0    0    0 -0.00000000000E+00 -0.00000000000E+00 -0.45593999997E+02  0.45594000000E+02  0.51100000000E-03 0. -1.
         23    2    1    2    0    0  0.00000000000E+00  0.71054273576E-14  0.13322676296E-14  0.91188000000E+02  0.91188000000E+02 0.  0.
    9900012    2    3    3    0    0 -0.17669854639E+02  0.32158704593E+02 -0.30617072766E+01  0.54367080735E+02  0.39999992151E+02 0.  0.
        -12    1    3    3    0    0  0.17669854639E+02 -0.32158704593E+02  0.30617072766E+01  0.36820919265E+02  0.00000000000E+00 0.  1.
         11    1    4    4    0    0 -0.22955648588E+01  0.33849891231E+01  0.14534250847E+02  0.15098748866E+02  0.51100000000E-03 0. -1.
        -11    1    4    4    0    0 -0.28331336704E+01  0.25429538334E+01 -0.76406619019E+01  0.85365669419E+01  0.51100000000E-03 0.  1.
         12    1    4    4    0    0 -0.12541156110E+02  0.26230761637E+02 -0.99552962218E+01  0.30731764926E+02  0.00000000000E+00 0. -1.
</event>
<event>
 8    1  0.1229038E-006  0.9118800E+02  0.7816164E-02  0.1184000E+00
        -11   -1    0    0    0    0  0.00000000000E+00  0.00000000000E+00  0.45593999997E+02  0.45594000000E+02  0.51100000000E-03 0.  1.
         11   -1    0    0    0    0 -0.00000000000E+00 -0.00000000000E+00 -0.45593999997E+02  0.45594000000E+02  0.51100000000E-03 0. -1.
         23    2    1    2    0    0  0.00000000000E+00 -0.44408920985E-15  0.00000000000E+00  0.91188000000E+02  0.91188000000E+02 0.  0.
    9900012    2    3    3    0    0  0.46554555211E+01  0.23928437049E+00 -0.36524635465E+02  0.54367088565E+02  0.40000010001E+02 0.  0.
        -12    1    3    3    0    0 -0.46554555211E+01 -0.23928437049E+00  0.36524635465E+02  0.36820911435E+02  0.00000000000E+00 0.  1.
         11    1    4    4    0    0 -0.27332759414E+01  0.22099357699E+01 -0.77519186585E+01  0.85115719246E+01  0.51100000000E-03 0. -1.
        -11    1    4    4    0    0  0.15937003220E+02 -0.55179213168E+01 -0.13569474619E+01  0.16919717314E+02  0.51100000000E-03 0.  1.
        -12    1    4    4    0    0 -0.85482717579E+01  0.35472699174E+01 -0.27415769344E+02  0.28935799326E+02  0.00000000000E+00 0.  1.
</event>
<event>
 8    1  0.1229038E-006  0.9118800E+02  0.7816164E-02  0.1184000E+00
        -11   -1    0    0    0    0  0.00000000000E+00  0.00000000000E+00  0.45593999997E+02  0.45594000000E+02  0.51100000000E-03 0.  1.
         11   -1    0    0    0    0 -0.00000000000E+00 -0.00000000000E+00 -0.45593999997E+02  0.45594000000E+02  0.51100000000E-03 0. -1.
         23    2    1    2    0    0  0.35527136788E-14  0.66613381478E-15  0.00000000000E+00  0.91188000000E+02  0.91188000000E+02 0.  0.
    9900012    2    3    3    0    0 -0.13373313845E+02 -0.19681276414E+01 -0.34249866977E+02  0.54367184724E+02  0.40000229216E+02 0.  0.
        -12    1    3    3    0    0  0.13373313845E+02  0.19681276414E+01  0.34249866977E+02  0.36820815276E+02  0.00000000000E+00 0.  1.
         11    1    4    4    0    0  0.42932116946E+01 -0.59044481735E+01 -0.24614982916E+02  0.25674726077E+02  0.51100000000E-03 0. -1.
        -11    1    4    4    0    0  0.17085893955E+01  0.97921504401E+00  0.42426048095E+01  0.46773748680E+01  0.51100000000E-03 0.  1.
         12    1    4    4    0    0 -0.19375114935E+02  0.29571054881E+01 -0.13877488871E+02  0.24015083780E+02  0.00000000000E+00 0. -1.
</event>
<event>
 8    1  0.1229038E-006  0.9118800E+02  0.7816164E-02  0.1184000E+00
        -11   -1    0    0    0    0  0.00000000000E+00  0.00000000000E+00  0.45593999997E+02  0.45594000000E+02  0.51100000000E-03 0.  1.
         11   -1    0    0    0    0 -0.00000000000E+00 -0.00000000000E+00 -0.45593999997E+02  0.45594000000E+02  0.51100000000E-03 0. -1.
         23    2    1    2    0    0  0.00000000000E+00  0.00000000000E+00  0.00000000000E+00  0.91188000000E+02  0.91188000000E+02 0.  0.
    9900012    2    3    3    0    0  0.42987117333E+01 -0.26886701546E+02  0.24787225790E+02  0.54367079249E+02  0.39999988764E+02 0.  0.
         12    1    3    3    0    0 -0.42987117333E+01  0.26886701546E+02 -0.24787225790E+02  0.36820920751E+02  0.00000000000E+00 0. -1.
         11    1    4    4    0    0  0.26418329945E+01 -0.10560859650E+02 -0.57652294111E+01  0.12318640693E+02  0.51100000000E-03 0. -1.
        -11    1    4    4    0    0  0.11391236934E+02 -0.24535000611E+01  0.15427580427E+02  0.19333654066E+02  0.51100000000E-03 0.  1.
         12    1    4    4    0    0 -0.97343581956E+01 -0.13872341835E+02  0.15124874774E+02  0.22714784490E+02  0.00000000000E+00 0. -1.
</event>
<event>
 8    1  0.1229038E-006  0.9118800E+02  0.7816164E-02  0.1184000E+00
        -11   -1    0    0    0    0  0.00000000000E+00  0.00000000000E+00  0.45593999997E+02  0.45594000000E+02  0.51100000000E-03 0. -1.
         11   -1    0    0    0    0 -0.00000000000E+00 -0.00000000000E+00 -0.45593999997E+02  0.45594000000E+02  0.51100000000E-03 0.  1.
         23    2    1    2    0    0  0.00000000000E+00  0.35527136788E-14  0.00000000000E+00  0.91188000000E+02  0.91188000000E+02 0.  0.
    9900012    2    3    3    0    0 -0.67911412066E+01  0.21454874433E+02  0.29143567423E+02  0.54367098898E+02  0.40000033559E+02 0.  0.
        -12    1    3    3    0    0  0.67911412066E+01 -0.21454874433E+02 -0.29143567423E+02  0.36820901102E+02  0.00000000000E+00 0.  1.
         11    1    4    4    0    0  0.43021897676E+00  0.13604994192E+02  0.35995571180E+02  0.38483270394E+02  0.51100000000E-03 0. -1.
        -11    1    4    4    0    0 -0.41484926228E+01 -0.11110079405E+01 -0.18281689236E+00  0.42985755736E+01  0.51100000000E-03 0.  1.
         12    1    4    4    0    0 -0.30728675607E+01  0.89608881810E+01 -0.66691868651E+01  0.11585252931E+02  0.00000000000E+00 0. -1.
</event>
<event>
 8    1  0.1229038E-006  0.9118800E+02  0.7816164E-02  0.1184000E+00
        -11   -1    0    0    0    0  0.00000000000E+00  0.00000000000E+00  0.45593999997E+02  0.45594000000E+02  0.51100000000E-03 0.  1.
         11   -1    0    0    0    0 -0.00000000000E+00 -0.00000000000E+00 -0.45593999997E+02  0.45594000000E+02  0.51100000000E-03 0. -1.
         23    2    1    2    0    0 -0.35527136788E-14  0.00000000000E+00  0.00000000000E+00  0.91188000000E+02  0.91188000000E+02 0.  0.
    9900012    2    3    3    0    0  0.16849537932E+02  0.32283545231E+02  0.54448286651E+01  0.54367076867E+02  0.39999983333E+02 0.  0.
         12    1    3    3    0    0 -0.16849537932E+02 -0.32283545231E+02 -0.54448286651E+01  0.36820923133E+02  0.00000000000E+00 0. -1.
         11    1    4    4    0    0 -0.11560902821E+02  0.53873381487E+01  0.20899669394E+01  0.12924621791E+02  0.51100000000E-03 0. -1.
        -11    1    4    4    0    0  0.10035617798E+02  0.96510596243E+01 -0.51515130266E+01  0.14845695106E+02  0.51100000000E-03 0.  1.
        -12    1    4    4    0    0  0.18374822955E+02  0.17245147458E+02  0.85063747522E+01  0.26596759970E+02  0.00000000000E+00 0.  1.
</event>
<event>
 8    1  0.1229038E-006  0.9118800E+02  0.7816164E-02  0.1184000E+00
        -11   -1    0    0    0    0  0.00000000000E+00  0.00000000000E+00  0.45593999997E+02  0.45594000000E+02  0.51100000000E-03 0. -1.
         11   -1    0    0    0    0 -0.00000000000E+00 -0.00000000000E+00 -0.45593999997E+02  0.45594000000E+02  0.51100000000E-03 0.  1.
         23    2    1    2    0    0  0.00000000000E+00  0.00000000000E+00  0.00000000000E+00  0.91188000000E+02  0.91188000000E+02 0.  0.
    9900012    2    3    3    0    0  0.17115201197E+02  0.32054849877E+02  0.59444117840E+01  0.54367088223E+02  0.40000009221E+02 0.  0.
         12    1    3    3    0    0 -0.17115201197E+02 -0.32054849877E+02 -0.59444117840E+01  0.36820911777E+02  0.00000000000E+00 0. -1.
         11    1    4    4    0    0 -0.36117282444E+01  0.21204974609E+02  0.47444856259E+01  0.22027384620E+02  0.51100000000E-03 0. -1.
        -11    1    4    4    0    0  0.20376004868E+02  0.13456104971E+02  0.74743032643E+01  0.25536513954E+02  0.51100000000E-03 0.  1.
         12    1    4    4    0    0  0.35092457407E+00 -0.26062297033E+01 -0.62743771062E+01  0.68031896486E+01  0.00000000000E+00 0. -1.
</event>
<event>
 8    1  0.1229038E-006  0.9118800E+02  0.7816164E-02  0.1184000E+00
        -11   -1    0    0    0    0  0.00000000000E+00  0.00000000000E+00  0.45593999997E+02  0.45594000000E+02  0.51100000000E-03 0.  1.
         11   -1    0    0    0    0 -0.00000000000E+00 -0.00000000000E+00 -0.45593999997E+02  0.45594000000E+02  0.51100000000E-03 0. -1.
         23    2    1    2    0    0  0.00000000000E+00  0.71054273576E-14  0.13322676296E-14  0.91188000000E+02  0.91188000000E+02 0.  0.
    9900012    2    3    3    0    0  0.14115390335E+02  0.33878451139E+02 -0.29637683274E+01  0.54367114370E+02  0.40000068829E+02 0.  0.
        -12    1    3    3    0    0 -0.14115390335E+02 -0.33878451139E+02  0.29637683274E+01  0.36820885630E+02  0.00000000000E+00 0.  1.
         11    1    4    4    0    0  0.21776135491E+02  0.20969395638E+02 -0.12050489672E+02  0.32544276485E+02  0.51100000000E-03 0. -1.
        -11    1    4    4    0    0 -0.27704146035E+01 -0.85113320785E+00 -0.19713459416E+01  0.35051148191E+01  0.51100000000E-03 0.  1.
         12    1    4    4    0    0 -0.48903305527E+01  0.13760188709E+02  0.11058067286E+02  0.18317723066E+02  0.00000000000E+00 0. -1.
</event>
<event>
 8    1  0.1229038E-006  0.9118800E+02  0.7816164E-02  0.1184000E+00
        -11   -1    0    0    0    0  0.00000000000E+00  0.00000000000E+00  0.45593999997E+02  0.45594000000E+02  0.51100000000E-03 0. -1.
         11   -1    0    0    0    0 -0.00000000000E+00 -0.00000000000E+00 -0.45593999997E+02  0.45594000000E+02  0.51100000000E-03 0.  1.
         23    2    1    2    0    0  0.71054273576E-14  0.35527136788E-14 -0.88817841970E-15  0.91188000000E+02  0.91188000000E+02 0.  0.
    9900012    2    3    3    0    0 -0.33770601839E+02 -0.13990723566E+02  0.44254829332E+01  0.54367098413E+02  0.40000032452E+02 0.  0.
         12    1    3    3    0    0  0.33770601839E+02  0.13990723566E+02 -0.44254829332E+01  0.36820901587E+02  0.00000000000E+00 0. -1.
         11    1    4    4    0    0  0.17123704281E+01 -0.12238947771E+02  0.61950669566E+01  0.13823997608E+02  0.51100000000E-03 0. -1.
        -11    1    4    4    0    0 -0.15900614010E+02 -0.93912794602E+01 -0.53372928667E+01  0.19222704056E+02  0.51100000000E-03 0.  1.
         12    1    4    4    0    0 -0.19582358257E+02  0.76395036648E+01  0.35677088433E+01  0.21320396749E+02  0.00000000000E+00 0. -1.
</event>
<event>
 8    1  0.1229038E-006  0.9118800E+02  0.7816164E-02  0.1184000E+00
        -11   -1    0    0    0    0  0.00000000000E+00  0.00000000000E+00  0.45593999997E+02  0.45594000000E+02  0.51100000000E-03 0. -1.
         11   -1    0    0    0    0 -0.00000000000E+00 -0.00000000000E+00 -0.45593999997E+02  0.45594000000E+02  0.51100000000E-03 0.  1.
         23    2    1    2    0    0  0.00000000000E+00  0.00000000000E+00  0.00000000000E+00  0.91188000000E+02  0.91188000000E+02 0.  0.
    9900012    2    3    3    0    0  0.13802400739E+02  0.18004661401E+02 -0.29001820012E+02  0.54367086617E+02  0.40000005562E+02 0.  0.
         12    1    3    3    0    0 -0.13802400739E+02 -0.18004661401E+02  0.29001820012E+02  0.36820913383E+02  0.00000000000E+00 0. -1.
         11    1    4    4    0    0 -0.40581121066E+01  0.11935304449E+01 -0.61643454032E+01  0.74760914456E+01  0.51100000000E-03 0. -1.
        -11    1    4    4    0    0  0.25751806870E+02  0.12211198507E+02 -0.82335247162E+01  0.29665802796E+02  0.51100000000E-03 0.  1.
        -12    1    4    4    0    0 -0.78912940244E+01  0.45999324494E+01 -0.14603949892E+02  0.17225192376E+02  0.00000000000E+00 0.  1.
</event>
<event>
 8    1  0.1229038E-006  0.9118800E+02  0.7816164E-02  0.1184000E+00
        -11   -1    0    0    0    0  0.00000000000E+00  0.00000000000E+00  0.45593999997E+02  0.45594000000E+02  0.51100000000E-03 0. -1.
         11   -1    0    0    0    0 -0.00000000000E+00 -0.00000000000E+00 -0.45593999997E+02  0.45594000000E+02  0.51100000000E-03 0.  1.
         23    2    1    2    0    0  0.17763568394E-14  0.00000000000E+00  0.35527136788E-14  0.91188000000E+02  0.91188000000E+02 0.  0.
    9900012    2    3    3    0    0  0.85504664495E+01  0.17225619575E+02  0.31399778235E+02  0.54367102137E+02  0.40000040941E+02 0.  0.
        -12    1    3    3    0    0 -0.85504664495E+01 -0.17225619575E+02 -0.31399778235E+02  0.36820897863E+02  0.00000000000E+00 0.  1.
         11    1    4    4    0    0  0.27914975620E+01  0.71102579758E+01  0.34554386149E+01  0.83838107924E+01  0.51100000000E-03 0. -1.
        -11    1    4    4    0    0  0.17997981748E+02  0.14771196670E+01  0.52781695112E+01  0.18814045369E+02  0.51100000000E-03 0.  1.
        -12    1    4    4    0    0 -0.12239012860E+02  0.86382419326E+01  0.22666170109E+02  0.27169245975E+02  0.00000000000E+00 0.  1.
</event>
<event>
 8    1  0.1229038E-006  0.9118800E+02  0.7816164E-02  0.1184000E+00
        -11   -1    0    0    0    0  0.00000000000E+00  0.00000000000E+00  0.45593999997E+02  0.45594000000E+02  0.51100000000E-03 0.  1.
         11   -1    0    0    0    0 -0.00000000000E+00 -0.00000000000E+00 -0.45593999997E+02  0.45594000000E+02  0.51100000000E-03 0. -1.
         23    2    1    2    0    0  0.00000000000E+00  0.00000000000E+00  0.17763568394E-14  0.91188000000E+02  0.91188000000E+02 0.  0.
    9900012    2    3    3    0    0  0.96213650258E+01 -0.32856821832E+02  0.13551323435E+02  0.54367085119E+02  0.40000002145E+02 0.  0.
        -12    1    3    3    0    0 -0.96213650258E+01  0.32856821832E+02 -0.13551323435E+02  0.36820914881E+02  0.00000000000E+00 0.  1.
         11    1    4    4    0    0  0.11386383980E+02 -0.35286186912E+00 -0.52678659524E+00  0.11404023677E+02  0.51100000000E-03 0. -1.
        -11    1    4    4    0    0 -0.10713042738E+02 -0.62757454474E+01  0.14212305628E+01  0.12496966120E+02  0.51100000000E-03 0.  1.
        -12    1    4    4    0    0  0.89480237838E+01 -0.26228214516E+02  0.12656879467E+02  0.30466095322E+02  0.00000000000E+00 0.  1.
</event>
<event>
 8    1  0.1229038E-006  0.9118800E+02  0.7816164E-02  0.1184000E+00
        -11   -1    0    0    0    0  0.00000000000E+00  0.00000000000E+00  0.45593999997E+02  0.45594000000E+02  0.51100000000E-03 0. -1.
         11   -1    0    0    0    0 -0.00000000000E+00 -0.00000000000E+00 -0.45593999997E+02  0.45594000000E+02  0.51100000000E-03 0.  1.
         23    2    1    2    0    0  0.00000000000E+00  0.35527136788E-14  0.35527136788E-14  0.91188000000E+02  0.91188000000E+02 0.  0.
    9900012    2    3    3    0    0 -0.98307575719E+01  0.21046173827E+02  0.28569103383E+02  0.54367097033E+02  0.40000029307E+02 0.  0.
        -12    1    3    3    0    0  0.98307575719E+01 -0.21046173827E+02 -0.28569103383E+02  0.36820902967E+02  0.00000000000E+00 0.  1.
         11    1    4    4    0    0 -0.49432830044E+00 -0.31921774454E+01  0.21352085224E+02  0.21595043436E+02  0.51100000000E-03 0. -1.
        -11    1    4    4    0    0 -0.92275397111E+01  0.26492961333E+02  0.94442480240E+01  0.29600984955E+02  0.51100000000E-03 0.  1.
         12    1    4    4    0    0 -0.10888956038E+00 -0.22546100608E+01 -0.22272298654E+01  0.31710686426E+01  0.00000000000E+00 0. -1.
</event>
<event>
 8    1  0.1229038E-006  0.9118800E+02  0.7816164E-02  0.1184000E+00
        -11   -1    0    0    0    0  0.00000000000E+00  0.00000000000E+00  0.45593999997E+02  0.45594000000E+02  0.51100000000E-03 0. -1.
         11   -1    0    0    0    0 -0.00000000000E+00 -0.00000000000E+00 -0.45593999997E+02  0.45594000000E+02  0.51100000000E-03 0.  1.
         23    2    1    2    0    0  0.00000000000E+00 -0.35527136788E-14  0.00000000000E+00  0.91188000000E+02  0.91188000000E+02 0.  0.
    9900012    2    3    3    0    0 -0.18525363677E+02 -0.22841089900E+02 -0.22155766689E+02  0.54367048291E+02  0.39999918188E+02 0.  0.
        -12    1    3    3    0    0  0.18525363677E+02  0.22841089900E+02  0.22155766689E+02  0.36820951709E+02  0.00000000000E+00 0.  1.
         11    1    4    4    0    0 -0.17107391346E+02 -0.19958047238E+02 -0.16238524253E+01  0.26336730723E+02  0.51100000000E-03 0. -1.
        -11    1    4    4    0    0  0.36042055060E+01  0.68708176712E+01 -0.59256327182E+01  0.97627637569E+01  0.51100000000E-03 0.  1.
         12    1    4    4    0    0 -0.50221778369E+01 -0.97538603335E+01 -0.14606281546E+02  0.18267553811E+02  0.00000000000E+00 0. -1.
</event>
<event>
 8    1  0.1229038E-006  0.9118800E+02  0.7816164E-02  0.1184000E+00
        -11   -1    0    0    0    0  0.00000000000E+00  0.00000000000E+00  0.45593999997E+02  0.45594000000E+02  0.51100000000E-03 0. -1.
         11   -1    0    0    0    0 -0.00000000000E+00 -0.00000000000E+00 -0.45593999997E+02  0.45594000000E+02  0.51100000000E-03 0.  1.
         23    2    1    2    0    0  0.00000000000E+00 -0.88817841970E-15  0.55511151231E-15  0.91188000000E+02  0.91188000000E+02 0.  0.
    9900012    2    3    3    0    0  0.36345303815E+02 -0.58949702009E+01  0.22078518885E+00  0.54367074847E+02  0.39999978728E+02 0.  0.
         12    1    3    3    0    0 -0.36345303815E+02  0.58949702009E+01 -0.22078518885E+00  0.36820925153E+02  0.00000000000E+00 0. -1.
         11    1    4    4    0    0  0.96008496803E+00 -0.64080794314E+01 -0.56273842729E+00  0.65039926156E+01  0.51100000000E-03 0. -1.
        -11    1    4    4    0    0  0.23677614674E+02  0.11985767027E+02 -0.98689622157E+01  0.28314032976E+02  0.51100000000E-03 0.  1.
        -12    1    4    4    0    0  0.11707604173E+02 -0.11472657797E+02  0.10652485832E+02  0.19549049255E+02  0.00000000000E+00 0.  1.
</event>
<event>
 8    1  0.1229038E-006  0.9118800E+02  0.7816164E-02  0.1184000E+00
        -11   -1    0    0    0    0  0.00000000000E+00  0.00000000000E+00  0.45593999997E+02  0.45594000000E+02  0.51100000000E-03 0. -1.
         11   -1    0    0    0    0 -0.00000000000E+00 -0.00000000000E+00 -0.45593999997E+02  0.45594000000E+02  0.51100000000E-03 0.  1.
         23    2    1    2    0    0  0.00000000000E+00  0.88817841970E-15  0.00000000000E+00  0.91188000000E+02  0.91188000000E+02 0.  0.
    9900012    2    3    3    0    0  0.30730450581E+02  0.56273521174E+01  0.19487279726E+02  0.54367058188E+02  0.39999940752E+02 0.  0.
         12    1    3    3    0    0 -0.30730450581E+02 -0.56273521174E+01 -0.19487279726E+02  0.36820941812E+02  0.00000000000E+00 0. -1.
         11    1    4    4    0    0  0.83838734708E+01  0.59702779088E+01  0.82250839517E+01  0.13175187246E+02  0.51100000000E-03 0. -1.
        -11    1    4    4    0    0  0.80859379687E+01  0.15836382899E+02  0.75041650368E+01  0.19299894023E+02  0.51100000000E-03 0.  1.
        -12    1    4    4    0    0  0.14260639142E+02 -0.16179308690E+02  0.37580307371E+01  0.21891976920E+02  0.00000000000E+00 0.  1.
</event>
<event>
 8    1  0.1229038E-006  0.9118800E+02  0.7816164E-02  0.1184000E+00
        -11   -1    0    0    0    0  0.00000000000E+00  0.00000000000E+00  0.45593999997E+02  0.45594000000E+02  0.51100000000E-03 0.  1.
         11   -1    0    0    0    0 -0.00000000000E+00 -0.00000000000E+00 -0.45593999997E+02  0.45594000000E+02  0.51100000000E-03 0. -1.
         23    2    1    2    0    0  0.88817841970E-15  0.00000000000E+00  0.00000000000E+00  0.91188000000E+02  0.91188000000E+02 0.  0.
    9900012    2    3    3    0    0 -0.12365543920E+01  0.19537402439E+02  0.31185595705E+02  0.54367074696E+02  0.39999978384E+02 0.  0.
         12    1    3    3    0    0  0.12365543920E+01 -0.19537402439E+02 -0.31185595705E+02  0.36820925304E+02  0.00000000000E+00 0. -1.
         11    1    4    4    0    0 -0.41491016820E+01 -0.28379997770E+01 -0.11015952680E+01  0.51461441777E+01  0.51100000000E-03 0. -1.
        -11    1    4    4    0    0  0.97167989945E+01  0.16208926248E+00  0.34576466877E+00  0.97242999283E+01  0.51100000000E-03 0.  1.
        -12    1    4    4    0    0 -0.68042517045E+01  0.22213312953E+02  0.31941426304E+02  0.39496630590E+02  0.00000000000E+00 0.  1.
</event>
<event>
 8    1  0.1229038E-006  0.9118800E+02  0.7816164E-02  0.1184000E+00
        -11   -1    0    0    0    0  0.00000000000E+00  0.00000000000E+00  0.45593999997E+02  0.45594000000E+02  0.51100000000E-03 0.  1.
         11   -1    0    0    0    0 -0.00000000000E+00 -0.00000000000E+00 -0.45593999997E+02  0.45594000000E+02  0.51100000000E-03 0. -1.
         23    2    1    2    0    0  0.00000000000E+00 -0.35527136788E-14 -0.25535129566E-14  0.91188000000E+02  0.91188000000E+02 0.  0.
    9900012    2    3    3    0    0  0.28807716081E+02  0.22926256604E+02  0.53280823265E+00  0.54367059867E+02  0.39999944578E+02 0.  0.
        -12    1    3    3    0    0 -0.28807716081E+02 -0.22926256604E+02 -0.53280823265E+00  0.36820940133E+02  0.00000000000E+00 0.  1.
         11    1    4    4    0    0  0.12188464763E+02  0.27639766902E+01 -0.58271911521E+01  0.13789648198E+02  0.51100000000E-03 0. -1.
        -11    1    4    4    0    0  0.14445281438E+02  0.11251661574E+02 -0.10700493277E+02  0.21207701447E+02  0.51100000000E-03 0.  1.
        -12    1    4    4    0    0  0.21739698797E+01  0.89106183393E+01  0.17060492662E+02  0.19369710222E+02  0.00000000000E+00 0.  1.
</event>
<event>
 8    1  0.1229038E-006  0.9118800E+02  0.7816164E-02  0.1184000E+00
        -11   -1    0    0    0    0  0.00000000000E+00  0.00000000000E+00  0.45593999997E+02  0.45594000000E+02  0.51100000000E-03 0.  1.
         11   -1    0    0    0    0 -0.00000000000E+00 -0.00000000000E+00 -0.45593999997E+02  0.45594000000E+02  0.51100000000E-03 0. -1.
         23    2    1    2    0    0  0.00000000000E+00  0.88817841970E-15  0.00000000000E+00  0.91188000000E+02  0.91188000000E+02 0.  0.
    9900012    2    3    3    0    0  0.13531525899E+02  0.51759762665E+01  0.33850951471E+02  0.54367084219E+02  0.40000000093E+02 0.  0.
        -12    1    3    3    0    0 -0.13531525899E+02 -0.51759762665E+01 -0.33850951471E+02  0.36820915781E+02  0.00000000000E+00 0.  1.
         11    1    4    4    0    0  0.16067894980E+02  0.35651549517E+01  0.52999504584E+00  0.16467193870E+02  0.51100000000E-03 0. -1.
        -11    1    4    4    0    0 -0.54040805712E+01  0.87168125420E+01  0.21363226002E+02  0.23697559646E+02  0.51100000000E-03 0.  1.
        -12    1    4    4    0    0  0.28677114899E+01 -0.71059912272E+01  0.11957730424E+02  0.14202330703E+02  0.00000000000E+00 0.  1.
</event>
<event>
 8    1  0.1229038E-006  0.9118800E+02  0.7816164E-02  0.1184000E+00
        -11   -1    0    0    0    0  0.00000000000E+00  0.00000000000E+00  0.45593999997E+02  0.45594000000E+02  0.51100000000E-03 0. -1.
         11   -1    0    0    0    0 -0.00000000000E+00 -0.00000000000E+00 -0.45593999997E+02  0.45594000000E+02  0.51100000000E-03 0.  1.
         23    2    1    2    0    0  0.00000000000E+00  0.00000000000E+00  0.00000000000E+00  0.91188000000E+02  0.91188000000E+02 0.  0.
    9900012    2    3    3    0    0  0.81517419870E+01  0.23473183647E+02  0.27172391493E+02  0.54367080574E+02  0.39999991785E+02 0.  0.
        -12    1    3    3    0    0 -0.81517419870E+01 -0.23473183647E+02 -0.27172391493E+02  0.36820919426E+02  0.00000000000E+00 0.  1.
         11    1    4    4    0    0 -0.33825264104E+01  0.89375617714E+01  0.13478655129E+02  0.16522579692E+02  0.51100000000E-03 0. -1.
        -11    1    4    4    0    0  0.14068944276E+02  0.12450170842E+02 -0.45319217963E+01  0.19325637440E+02  0.51100000000E-03 0.  1.
         12    1    4    4    0    0 -0.25346758785E+01  0.20854510335E+01  0.18225658160E+02  0.18518863442E+02  0.00000000000E+00 0. -1.
</event>
<event>
 8    1  0.1229038E-006  0.9118800E+02  0.7816164E-02  0.1184000E+00
        -11   -1    0    0    0    0  0.00000000000E+00  0.00000000000E+00  0.45593999997E+02  0.45594000000E+02  0.51100000000E-03 0.  1.
         11   -1    0    0    0    0 -0.00000000000E+00 -0.00000000000E+00 -0.45593999997E+02  0.45594000000E+02  0.51100000000E-03 0. -1.
         23    2    1    2    0    0  0.35527136788E-14 -0.88817841970E-15  0.35527136788E-14  0.91188000000E+02  0.91188000000E+02 0.  0.
    9900012    2    3    3    0    0  0.24326588975E+02 -0.63774470039E+01  0.26894602451E+02  0.54367158043E+02  0.40000168389E+02 0.  0.
         12    1    3    3    0    0 -0.24326588975E+02  0.63774470039E+01 -0.26894602451E+02  0.36820841957E+02  0.00000000000E+00 0. -1.
         11    1    4    4    0    0  0.92937832190E+00  0.27313598475E+01 -0.18193137500E+01  0.34108611030E+01  0.51100000000E-03 0. -1.
        -11    1    4    4    0    0  0.24005629005E+02  0.69287634417E+01  0.22882880761E+02  0.33880735218E+02  0.51100000000E-03 0.  1.
         12    1    4    4    0    0 -0.60841835154E+00 -0.16037570293E+02  0.58310354403E+01  0.17075561721E+02  0.00000000000E+00 0. -1.
</event>
<event>
 8    1  0.1229038E-006  0.9118800E+02  0.7816164E-02  0.1184000E+00
        -11   -1    0    0    0    0  0.00000000000E+00  0.00000000000E+00  0.45593999997E+02  0.45594000000E+02  0.51100000000E-03 0.  1.
         11   -1    0    0    0    0 -0.00000000000E+00 -0.00000000000E+00 -0.45593999997E+02  0.45594000000E+02  0.51100000000E-03 0. -1.
         23    2    1    2    0    0  0.00000000000E+00  0.00000000000E+00  0.00000000000E+00  0.91188000000E+02  0.91188000000E+02 0.  0.
    9900012    2    3    3    0    0 -0.96466348803E+00  0.19069545252E+02 -0.31483383936E+02  0.54367060362E+02  0.39999945708E+02 0.  0.
        -12    1    3    3    0    0  0.96466348803E+00 -0.19069545252E+02  0.31483383936E+02  0.36820939638E+02  0.00000000000E+00 0.  1.
         11    1    4    4    0    0 -0.65811214183E+01  0.14939595791E+02 -0.26072089628E+02  0.30761283122E+02  0.51100000000E-03 0. -1.
        -11    1    4    4    0    0  0.13782997956E+02  0.17897136192E-01 -0.40189481161E+01  0.14356994713E+02  0.51100000000E-03 0.  1.
        -12    1    4    4    0    0 -0.81665400258E+01  0.41120523250E+01 -0.13923461917E+01  0.92487825271E+01  0.00000000000E+00 0.  1.
</event>
<event>
 8    1  0.1229038E-006  0.9118800E+02  0.7816164E-02  0.1184000E+00
        -11   -1    0    0    0    0  0.00000000000E+00  0.00000000000E+00  0.45593999997E+02  0.45594000000E+02  0.51100000000E-03 0.  1.
         11   -1    0    0    0    0 -0.00000000000E+00 -0.00000000000E+00 -0.45593999997E+02  0.45594000000E+02  0.51100000000E-03 0. -1.
         23    2    1    2    0    0  0.00000000000E+00 -0.17763568394E-14  0.26645352591E-14  0.91188000000E+02  0.91188000000E+02 0.  0.
    9900012    2    3    3    0    0  0.34869031103E+02  0.99467550771E+01 -0.64024540846E+01  0.54367099889E+02  0.40000035818E+02 0.  0.
        -12    1    3    3    0    0 -0.34869031103E+02 -0.99467550771E+01  0.64024540846E+01  0.36820900111E+02  0.00000000000E+00 0.  1.
         11    1    4    4    0    0  0.48161944031E+01  0.96638025793E+01  0.47144636840E+01  0.11781807031E+02  0.51100000000E-03 0. -1.
        -11    1    4    4    0    0  0.22485343470E+02 -0.74735838293E+00  0.64717130374E+01  0.23410089393E+02  0.51100000000E-03 0.  1.
         12    1    4    4    0    0  0.75674932304E+01  0.10303108807E+01 -0.17588630806E+02  0.19175203465E+02  0.00000000000E+00 0. -1.
</event>
<event>
 8    1  0.1229038E-006  0.9118800E+02  0.7816164E-02  0.1184000E+00
        -11   -1    0    0    0    0  0.00000000000E+00  0.00000000000E+00  0.45593999997E+02  0.45594000000E+02  0.51100000000E-03 0. -1.
         11   -1    0    0    0    0 -0.00000000000E+00 -0.00000000000E+00 -0.45593999997E+02  0.45594000000E+02  0.51100000000E-03 0.  1.
         23    2    1    2    0    0  0.00000000000E+00 -0.35527136788E-14 -0.35527136788E-14  0.91188000000E+02  0.91188000000E+02 0.  0.
    9900012    2    3    3    0    0  0.10029295238E+02 -0.22555326458E+02 -0.27321237471E+02  0.54367088393E+02  0.40000009610E+02 0.  0.
         12    1    3    3    0    0 -0.10029295238E+02  0.22555326458E+02  0.27321237471E+02  0.36820911607E+02  0.00000000000E+00 0. -1.
         11    1    4    4    0    0 -0.23364304944E+01 -0.16572466012E+02  0.23482077356E+01  0.16900284525E+02  0.51100000000E-03 0. -1.
        -11    1    4    4    0    0  0.89275117451E+01 -0.92413021911E+01 -0.76725233999E+01  0.14965618856E+02  0.51100000000E-03 0.  1.
        -12    1    4    4    0    0  0.34382139878E+01  0.32584417452E+01 -0.21996921806E+02  0.22501185013E+02  0.00000000000E+00 0.  1.
</event>
<event>
 8    1  0.1229038E-006  0.9118800E+02  0.7816164E-02  0.1184000E+00
        -11   -1    0    0    0    0  0.00000000000E+00  0.00000000000E+00  0.45593999997E+02  0.45594000000E+02  0.51100000000E-03 0.  1.
         11   -1    0    0    0    0 -0.00000000000E+00 -0.00000000000E+00 -0.45593999997E+02  0.45594000000E+02  0.51100000000E-03 0. -1.
         23    2    1    2    0    0 -0.17763568394E-14 -0.35527136788E-14 -0.17763568394E-14  0.91188000000E+02  0.91188000000E+02 0.  0.
    9900012    2    3    3    0    0  0.15589413410E+02 -0.31049844072E+02 -0.12192490923E+02  0.54367089334E+02  0.40000011755E+02 0.  0.
        -12    1    3    3    0    0 -0.15589413410E+02  0.31049844072E+02  0.12192490923E+02  0.36820910666E+02  0.00000000000E+00 0.  1.
         11    1    4    4    0    0  0.64835275399E+01 -0.23973119483E+01 -0.44299313970E+01  0.82102086685E+01  0.51100000000E-03 0. -1.
        -11    1    4    4    0    0 -0.55172436369E-01 -0.30039213363E+02 -0.15755376494E+02  0.33920337148E+02  0.51100000000E-03 0.  1.
        -12    1    4    4    0    0  0.91610583069E+01  0.13866812399E+01  0.79928169686E+01  0.12236543518E+02  0.00000000000E+00 0.  1.
</event>
<event>
 8    1  0.1229038E-006  0.9118800E+02  0.7816164E-02  0.1184000E+00
        -11   -1    0    0    0    0  0.00000000000E+00  0.00000000000E+00  0.45593999997E+02  0.45594000000E+02  0.51100000000E-03 0.  1.
         11   -1    0    0    0    0 -0.00000000000E+00 -0.00000000000E+00 -0.45593999997E+02  0.45594000000E+02  0.51100000000E-03 0. -1.
         23    2    1    2    0    0  0.00000000000E+00  0.00000000000E+00  0.35527136788E-14  0.91188000000E+02  0.91188000000E+02 0.  0.
    9900012    2    3    3    0    0 -0.31656332289E+02  0.43631855130E+01 -0.18292657294E+02  0.54367053886E+02  0.39999930945E+02 0.  0.
         12    1    3    3    0    0  0.31656332289E+02 -0.43631855130E+01  0.18292657294E+02  0.36820946114E+02  0.00000000000E+00 0. -1.
         11    1    4    4    0    0 -0.18076236676E+02  0.17556643176E+01 -0.27423738160E+02  0.32892158708E+02  0.51100000000E-03 0. -1.
        -11    1    4    4    0    0  0.94318706666E+00 -0.27872770184E+01  0.43674035952E+01  0.52661873727E+01  0.51100000000E-03 0.  1.
        -12    1    4    4    0    0 -0.14523282681E+02  0.53947982138E+01  0.47636772710E+01  0.16208707806E+02  0.00000000000E+00 0.  1.
</event>
<event>
 8    1  0.1229038E-006  0.9118800E+02  0.7816164E-02  0.1184000E+00
        -11   -1    0    0    0    0  0.00000000000E+00  0.00000000000E+00  0.45593999997E+02  0.45594000000E+02  0.51100000000E-03 0. -1.
         11   -1    0    0    0    0 -0.00000000000E+00 -0.00000000000E+00 -0.45593999997E+02  0.45594000000E+02  0.51100000000E-03 0.  1.
         23    2    1    2    0    0  0.00000000000E+00 -0.35527136788E-14  0.35527136788E-14  0.91188000000E+02  0.91188000000E+02 0.  0.
    9900012    2    3    3    0    0  0.22653959478E+02  0.13909535935E+02  0.25477473576E+02  0.54367099280E+02  0.40000034430E+02 0.  0.
         12    1    3    3    0    0 -0.22653959478E+02 -0.13909535935E+02 -0.25477473576E+02  0.36820900720E+02  0.00000000000E+00 0. -1.
         11    1    4    4    0    0  0.96292139311E+01 -0.31127185524E+01  0.16180084332E+01  0.10248352515E+02  0.51100000000E-03 0. -1.
        -11    1    4    4    0    0  0.16077887920E+02  0.19140612369E+02  0.57739550971E+01  0.25655410337E+02  0.51100000000E-03 0.  1.
         12    1    4    4    0    0 -0.30531423728E+01 -0.21183578817E+01  0.18085510046E+02  0.18463336429E+02  0.00000000000E+00 0. -1.
</event>
<event>
 8    1  0.1229038E-006  0.9118800E+02  0.7816164E-02  0.1184000E+00
        -11   -1    0    0    0    0  0.00000000000E+00  0.00000000000E+00  0.45593999997E+02  0.45594000000E+02  0.51100000000E-03 0. -1.
         11   -1    0    0    0    0 -0.00000000000E+00 -0.00000000000E+00 -0.45593999997E+02  0.45594000000E+02  0.51100000000E-03 0.  1.
         23    2    1    2    0    0  0.00000000000E+00  0.00000000000E+00  0.00000000000E+00  0.91188000000E+02  0.91188000000E+02 0.  0.
    9900012    2    3    3    0    0  0.25714115918E+02  0.22658572039E+02 -0.13459597367E+02  0.54366981470E+02  0.39999765857E+02 0.  0.
         12    1    3    3    0    0 -0.25714115918E+02 -0.22658572039E+02  0.13459597367E+02  0.36821018530E+02  0.00000000000E+00 0. -1.
         11    1    4    4    0    0  0.25550494170E+02  0.14392970750E+02  0.85078859125E+01  0.30534725843E+02  0.51100000000E-03 0. -1.
        -11    1    4    4    0    0  0.86218828292E+00  0.12406845698E+01 -0.84330086080E+01  0.85672808569E+01  0.51100000000E-03 0.  1.
         12    1    4    4    0    0 -0.69856653470E+00  0.70249167189E+01 -0.13534474672E+02  0.15264974771E+02  0.00000000000E+00 0. -1.
</event>
<event>
 8    1  0.1229038E-006  0.9118800E+02  0.7816164E-02  0.1184000E+00
        -11   -1    0    0    0    0  0.00000000000E+00  0.00000000000E+00  0.45593999997E+02  0.45594000000E+02  0.51100000000E-03 0. -1.
         11   -1    0    0    0    0 -0.00000000000E+00 -0.00000000000E+00 -0.45593999997E+02  0.45594000000E+02  0.51100000000E-03 0.  1.
         23    2    1    2    0    0  0.00000000000E+00  0.00000000000E+00 -0.13322676296E-14  0.91188000000E+02  0.91188000000E+02 0.  0.
    9900012    2    3    3    0    0  0.25195590163E+02  0.26749896945E+02  0.23249085711E+01  0.54367082709E+02  0.39999996653E+02 0.  0.
         12    1    3    3    0    0 -0.25195590163E+02 -0.26749896945E+02 -0.23249085711E+01  0.36820917291E+02  0.00000000000E+00 0. -1.
         11    1    4    4    0    0  0.27261513555E+02  0.11142638616E+02  0.40894928644E+00  0.29453620429E+02  0.51100000000E-03 0. -1.
        -11    1    4    4    0    0  0.10878695757E+01  0.61921747212E+01  0.10200237344E+02  0.11982125443E+02  0.51100000000E-03 0.  1.
        -12    1    4    4    0    0 -0.31537929669E+01  0.94150836079E+01 -0.82842780596E+01  0.12931336837E+02  0.00000000000E+00 0.  1.
</event>
<event>
 8    1  0.1229038E-006  0.9118800E+02  0.7816164E-02  0.1184000E+00
        -11   -1    0    0    0    0  0.00000000000E+00  0.00000000000E+00  0.45593999997E+02  0.45594000000E+02  0.51100000000E-03 0.  1.
         11   -1    0    0    0    0 -0.00000000000E+00 -0.00000000000E+00 -0.45593999997E+02  0.45594000000E+02  0.51100000000E-03 0. -1.
         23    2    1    2    0    0  0.00000000000E+00 -0.35527136788E-14  0.00000000000E+00  0.91188000000E+02  0.91188000000E+02 0.  0.
    9900012    2    3    3    0    0 -0.21592114495E+02  0.20058533811E+02  0.22072932520E+02  0.54367101898E+02  0.40000040396E+02 0.  0.
         12    1    3    3    0    0  0.21592114495E+02 -0.20058533811E+02 -0.22072932520E+02  0.36820898102E+02  0.00000000000E+00 0. -1.
         11    1    4    4    0    0 -0.49227355953E+01 -0.59315247733E+01 -0.69820378326E+01  0.10400248287E+02  0.51100000000E-03 0. -1.
        -11    1    4    4    0    0 -0.14216390149E+02  0.17736658134E+02  0.14214409222E+02  0.26809405448E+02  0.51100000000E-03 0.  1.
        -12    1    4    4    0    0 -0.24529887506E+01  0.82534004495E+01  0.14840561131E+02  0.17157448163E+02  0.00000000000E+00 0.  1.
</event>
<event>
 8    1  0.1229038E-006  0.9118800E+02  0.7816164E-02  0.1184000E+00
        -11   -1    0    0    0    0  0.00000000000E+00  0.00000000000E+00  0.45593999997E+02  0.45594000000E+02  0.51100000000E-03 0. -1.
         11   -1    0    0    0    0 -0.00000000000E+00 -0.00000000000E+00 -0.45593999997E+02  0.45594000000E+02  0.51100000000E-03 0.  1.
         23    2    1    2    0    0  0.00000000000E+00  0.00000000000E+00  0.00000000000E+00  0.91188000000E+02  0.91188000000E+02 0.  0.
    9900012    2    3    3    0    0 -0.16274805534E+01 -0.36002699453E+02  0.75456052141E+01  0.54367092639E+02  0.40000019289E+02 0.  0.
        -12    1    3    3    0    0  0.16274805534E+01  0.36002699453E+02 -0.75456052141E+01  0.36820907361E+02  0.00000000000E+00 0.  1.
         11    1    4    4    0    0  0.21034862982E+01 -0.12798716071E+02 -0.86431645888E+01  0.15586406964E+02  0.51100000000E-03 0.  1.
        -11    1    4    4    0    0  0.30462846553E+01 -0.14221756232E+02 -0.45045705431E+01  0.15225943536E+02  0.51100000000E-03 0. -1.
        -12    1    4    4    0    0 -0.67772515069E+01 -0.89822271499E+01  0.20693340346E+02  0.23554742139E+02  0.00000000000E+00 0.  1.
</event>
<event>
 8    1  0.1229038E-006  0.9118800E+02  0.7816164E-02  0.1184000E+00
        -11   -1    0    0    0    0  0.00000000000E+00  0.00000000000E+00  0.45593999997E+02  0.45594000000E+02  0.51100000000E-03 0.  1.
         11   -1    0    0    0    0 -0.00000000000E+00 -0.00000000000E+00 -0.45593999997E+02  0.45594000000E+02  0.51100000000E-03 0. -1.
         23    2    1    2    0    0  0.00000000000E+00  0.00000000000E+00 -0.17763568394E-14  0.91188000000E+02  0.91188000000E+02 0.  0.
    9900012    2    3    3    0    0  0.99357540601E+01  0.34383113025E+02 -0.86523078000E+01  0.54367080670E+02  0.39999992004E+02 0.  0.
        -12    1    3    3    0    0 -0.99357540601E+01 -0.34383113025E+02  0.86523078000E+01  0.36820919330E+02  0.00000000000E+00 0.  1.
         11    1    4    4    0    0 -0.71688157646E+00 -0.10878873538E+00  0.97381050254E+01  0.97650624130E+01  0.51100000000E-03 0.  1.
        -11    1    4    4    0    0 -0.24977873121E+00  0.12571588255E+02 -0.15486657153E+02  0.19948528033E+02  0.51100000000E-03 0. -1.
         12    1    4    4    0    0  0.10902414368E+02  0.21920313505E+02 -0.29037556724E+01  0.24653490224E+02  0.00000000000E+00 0. -1.
</event>
<event>
 8    1  0.1229038E-006  0.9118800E+02  0.7816164E-02  0.1184000E+00
        -11   -1    0    0    0    0  0.00000000000E+00  0.00000000000E+00  0.45593999997E+02  0.45594000000E+02  0.51100000000E-03 0.  1.
         11   -1    0    0    0    0 -0.00000000000E+00 -0.00000000000E+00 -0.45593999997E+02  0.45594000000E+02  0.51100000000E-03 0. -1.
         23    2    1    2    0    0 -0.35527136788E-14  0.17763568394E-14  0.35527136788E-14  0.91188000000E+02  0.91188000000E+02 0.  0.
    9900012    2    3    3    0    0  0.22593186698E+02  0.95407570637E+01  0.27464525268E+02  0.54367105405E+02  0.40000048393E+02 0.  0.
         12    1    3    3    0    0 -0.22593186698E+02 -0.95407570637E+01 -0.27464525268E+02  0.36820894595E+02  0.00000000000E+00 0. -1.
         11    1    4    4    0    0  0.12970677312E+02 -0.71010077072E+01  0.12090207844E+01  0.14836593676E+02  0.51100000000E-03 0. -1.
        -11    1    4    4    0    0  0.10619616497E+02  0.14764630555E+02  0.30082474253E+02  0.35152892163E+02  0.51100000000E-03 0.  1.
        -12    1    4    4    0    0 -0.99710710979E+00  0.18771342163E+01 -0.38269697695E+01  0.43776195667E+01  0.00000000000E+00 0.  1.
</event>
<event>
 8    1  0.1229038E-006  0.9118800E+02  0.7816164E-02  0.1184000E+00
        -11   -1    0    0    0    0  0.00000000000E+00  0.00000000000E+00  0.45593999997E+02  0.45594000000E+02  0.51100000000E-03 0.  1.
         11   -1    0    0    0    0 -0.00000000000E+00 -0.00000000000E+00 -0.45593999997E+02  0.45594000000E+02  0.51100000000E-03 0. -1.
         23    2    1    2    0    0  0.00000000000E+00  0.00000000000E+00  0.00000000000E+00  0.91188000000E+02  0.91188000000E+02 0.  0.
    9900012    2    3    3    0    0 -0.20380466580E+02 -0.13508979517E+02 -0.27530410623E+02  0.54367089438E+02  0.40000011991E+02 0.  0.
        -12    1    3    3    0    0  0.20380466580E+02  0.13508979517E+02  0.27530410623E+02  0.36820910562E+02  0.00000000000E+00 0.  1.
         11    1    4    4    0    0 -0.46336075157E+01  0.11574980046E+02 -0.10721615843E+02  0.16443951113E+02  0.51100000000E-03 0. -1.
        -11    1    4    4    0    0 -0.33147767285E-01 -0.14229027122E+02 -0.35248913267E+01  0.14659166782E+02  0.51100000000E-03 0.  1.
        -12    1    4    4    0    0 -0.15713711297E+02 -0.10854932440E+02 -0.13283903453E+02  0.23263971543E+02  0.00000000000E+00 0.  1.
</event>
<event>
 8    1  0.1229038E-006  0.9118800E+02  0.7816164E-02  0.1184000E+00
        -11   -1    0    0    0    0  0.00000000000E+00  0.00000000000E+00  0.45593999997E+02  0.45594000000E+02  0.51100000000E-03 0.  1.
         11   -1    0    0    0    0 -0.00000000000E+00 -0.00000000000E+00 -0.45593999997E+02  0.45594000000E+02  0.51100000000E-03 0. -1.
         23    2    1    2    0    0  0.35527136788E-14  0.88817841970E-15  0.35527136788E-14  0.91188000000E+02  0.91188000000E+02 0.  0.
    9900012    2    3    3    0    0 -0.16744537430E+02 -0.79990913210E+01 -0.31802768770E+02  0.54367067134E+02  0.39999961145E+02 0.  0.
        -12    1    3    3    0    0  0.16744537430E+02  0.79990913210E+01  0.31802768770E+02  0.36820932866E+02  0.00000000000E+00 0.  1.
         11    1    4    4    0    0 -0.50046798107E+01  0.53563644018E+01 -0.73775229444E+01  0.10400255029E+02  0.51100000000E-03 0. -1.
        -11    1    4    4    0    0  0.45251212112E+00  0.94489563062E+01 -0.11991790956E+02  0.15273853249E+02  0.51100000000E-03 0.  1.
         12    1    4    4    0    0 -0.12192369741E+02 -0.22804412029E+02 -0.12433454870E+02  0.28692958855E+02  0.00000000000E+00 0. -1.
</event>
<event>
 8    1  0.1229038E-006  0.9118800E+02  0.7816164E-02  0.1184000E+00
        -11   -1    0    0    0    0  0.00000000000E+00  0.00000000000E+00  0.45593999997E+02  0.45594000000E+02  0.51100000000E-03 0.  1.
         11   -1    0    0    0    0 -0.00000000000E+00 -0.00000000000E+00 -0.45593999997E+02  0.45594000000E+02  0.51100000000E-03 0. -1.
         23    2    1    2    0    0  0.00000000000E+00  0.00000000000E+00  0.00000000000E+00  0.91188000000E+02  0.91188000000E+02 0.  0.
    9900012    2    3    3    0    0  0.24742878427E+02  0.26335047092E+02 -0.70734808579E+01  0.54367097382E+02  0.40000030101E+02 0.  0.
        -12    1    3    3    0    0 -0.24742878427E+02 -0.26335047092E+02  0.70734808579E+01  0.36820902618E+02  0.00000000000E+00 0.  1.
         11    1    4    4    0    0 -0.29491965531E+01  0.17965217759E+02 -0.92089529390E+01  0.20402245561E+02  0.51100000000E-03 0. -1.
        -11    1    4    4    0    0  0.24629029088E+02  0.12801201494E+02  0.44320694414E+01  0.28108772177E+02  0.51100000000E-03 0.  1.
        -12    1    4    4    0    0  0.30630458919E+01 -0.44313721608E+01 -0.22965973603E+01  0.58560796442E+01  0.00000000000E+00 0.  1.
</event>
<event>
 8    1  0.1229038E-006  0.9118800E+02  0.7816164E-02  0.1184000E+00
        -11   -1    0    0    0    0  0.00000000000E+00  0.00000000000E+00  0.45593999997E+02  0.45594000000E+02  0.51100000000E-03 0.  1.
         11   -1    0    0    0    0 -0.00000000000E+00 -0.00000000000E+00 -0.45593999997E+02  0.45594000000E+02  0.51100000000E-03 0. -1.
         23    2    1    2    0    0  0.00000000000E+00 -0.35527136788E-14  0.00000000000E+00  0.91188000000E+02  0.91188000000E+02 0.  0.
    9900012    2    3    3    0    0  0.22599195554E+02  0.23956189511E+02  0.16466808975E+02  0.54367103034E+02  0.40000042986E+02 0.  0.
         12    1    3    3    0    0 -0.22599195554E+02 -0.23956189511E+02 -0.16466808975E+02  0.36820896966E+02  0.00000000000E+00 0. -1.
         11    1    4    4    0    0 -0.68286628682E+01  0.84809388876E+01 -0.31757402588E+00  0.10893016777E+02  0.51100000000E-03 0. -1.
        -11    1    4    4    0    0 -0.18022629719E+01 -0.29500581436E+01 -0.13707141111E+00  0.34597375195E+01  0.51100000000E-03 0.  1.
        -12    1    4    4    0    0  0.31230121394E+02  0.18425308767E+02  0.16921454412E+02  0.40014348737E+02  0.00000000000E+00 0.  1.
</event>
<event>
 8    1  0.1229038E-006  0.9118800E+02  0.7816164E-02  0.1184000E+00
        -11   -1    0    0    0    0  0.00000000000E+00  0.00000000000E+00  0.45593999997E+02  0.45594000000E+02  0.51100000000E-03 0. -1.
         11   -1    0    0    0    0 -0.00000000000E+00 -0.00000000000E+00 -0.45593999997E+02  0.45594000000E+02  0.51100000000E-03 0.  1.
         23    2    1    2    0    0  0.66613381478E-15  0.00000000000E+00  0.00000000000E+00  0.91188000000E+02  0.91188000000E+02 0.  0.
    9900012    2    3    3    0    0  0.10079378306E+01 -0.20309544842E+02  0.30696676420E+02  0.54367088909E+02  0.40000010785E+02 0.  0.
        -12    1    3    3    0    0 -0.10079378306E+01  0.20309544842E+02 -0.30696676420E+02  0.36820911091E+02  0.00000000000E+00 0.  1.
         11    1    4    4    0    0  0.75297858768E+01 -0.30637408701E+01  0.23295839257E+02  0.24673473822E+02  0.51100000000E-03 0. -1.
        -11    1    4    4    0    0  0.80598276694E+00  0.48450724937E+01 -0.87996675845E+00  0.49898574575E+01  0.51100000000E-03 0.  1.
         12    1    4    4    0    0 -0.73278308132E+01 -0.22090876465E+02  0.82808039212E+01  0.24703757629E+02  0.00000000000E+00 0. -1.
</event>
<event>
 8    1  0.1229038E-006  0.9118800E+02  0.7816164E-02  0.1184000E+00
        -11   -1    0    0    0    0  0.00000000000E+00  0.00000000000E+00  0.45593999997E+02  0.45594000000E+02  0.51100000000E-03 0.  1.
         11   -1    0    0    0    0 -0.00000000000E+00 -0.00000000000E+00 -0.45593999997E+02  0.45594000000E+02  0.51100000000E-03 0. -1.
         23    2    1    2    0    0  0.17763568394E-14 -0.17763568394E-14  0.00000000000E+00  0.91188000000E+02  0.91188000000E+02 0.  0.
    9900012    2    3    3    0    0  0.11246019555E+02  0.14032426809E+02  0.32130961101E+02  0.54367073623E+02  0.39999975939E+02 0.  0.
         12    1    3    3    0    0 -0.11246019555E+02 -0.14032426809E+02 -0.32130961101E+02  0.36820926377E+02  0.00000000000E+00 0. -1.
         11    1    4    4    0    0 -0.74814025710E+00 -0.90689938080E+01  0.12558037504E+02  0.15508406390E+02  0.51100000000E-03 0. -1.
        -11    1    4    4    0    0  0.12479407862E+02  0.10033498984E+02  0.20187784292E+02  0.25767292395E+02  0.51100000000E-03 0.  1.
         12    1    4    4    0    0 -0.48524805044E+00  0.13067921634E+02 -0.61486069579E+00  0.13091374839E+02  0.00000000000E+00 0. -1.
</event>
<event>
 8    1  0.1229038E-006  0.9118800E+02  0.7816164E-02  0.1184000E+00
        -11   -1    0    0    0    0  0.00000000000E+00  0.00000000000E+00  0.45593999997E+02  0.45594000000E+02  0.51100000000E-03 0. -1.
         11   -1    0    0    0    0 -0.00000000000E+00 -0.00000000000E+00 -0.45593999997E+02  0.45594000000E+02  0.51100000000E-03 0.  1.
         23    2    1    2    0    0 -0.35527136788E-14  0.00000000000E+00  0.00000000000E+00  0.91188000000E+02  0.91188000000E+02 0.  0.
    9900012    2    3    3    0    0  0.18703331388E+02  0.29268764118E+02  0.12219020937E+02  0.54367087047E+02  0.40000006542E+02 0.  0.
        -12    1    3    3    0    0 -0.18703331388E+02 -0.29268764118E+02 -0.12219020937E+02  0.36820912953E+02  0.00000000000E+00 0.  1.
         11    1    4    4    0    0  0.72568254256E+01  0.30318908079E+02  0.14591135910E+02  0.34420908614E+02  0.51100000000E-03 0. -1.
        -11    1    4    4    0    0 -0.38017032059E+01 -0.11575681580E+01 -0.25038181155E+01  0.46970221122E+01  0.51100000000E-03 0.  1.
        -12    1    4    4    0    0  0.15248209168E+02  0.10742419689E+00  0.13170314227E+00  0.15249156321E+02  0.00000000000E+00 0.  1.
</event>
<event>
 8    1  0.1229038E-006  0.9118800E+02  0.7816164E-02  0.1184000E+00
        -11   -1    0    0    0    0  0.00000000000E+00  0.00000000000E+00  0.45593999997E+02  0.45594000000E+02  0.51100000000E-03 0. -1.
         11   -1    0    0    0    0 -0.00000000000E+00 -0.00000000000E+00 -0.45593999997E+02  0.45594000000E+02  0.51100000000E-03 0.  1.
         23    2    1    2    0    0  0.35527136788E-14 -0.35527136788E-14  0.00000000000E+00  0.91188000000E+02  0.91188000000E+02 0.  0.
    9900012    2    3    3    0    0 -0.28511081596E+02  0.17499809472E+02  0.15383589251E+02  0.54367083070E+02  0.39999997475E+02 0.  0.
        -12    1    3    3    0    0  0.28511081596E+02 -0.17499809472E+02 -0.15383589251E+02  0.36820916930E+02  0.00000000000E+00 0.  1.
         11    1    4    4    0    0  0.55253876055E+01 -0.46302269868E+00  0.24775504734E+01  0.60731009229E+01  0.51100000000E-03 0. -1.
        -11    1    4    4    0    0 -0.99646813113E+01 -0.54590963330E+01  0.89734942438E+01  0.14478266665E+02  0.51100000000E-03 0.  1.
        -12    1    4    4    0    0 -0.24071787890E+02  0.23421928504E+02  0.39325445333E+01  0.33815715482E+02  0.00000000000E+00 0.  1.
</event>
<event>
 8    1  0.1229038E-006  0.9118800E+02  0.7816164E-02  0.1184000E+00
        -11   -1    0    0    0    0  0.00000000000E+00  0.00000000000E+00  0.45593999997E+02  0.45594000000E+02  0.51100000000E-03 0.  1.
         11   -1    0    0    0    0 -0.00000000000E+00 -0.00000000000E+00 -0.45593999997E+02  0.45594000000E+02  0.51100000000E-03 0. -1.
         23    2    1    2    0    0 -0.35527136788E-14  0.00000000000E+00  0.35527136788E-14  0.91188000000E+02  0.91188000000E+02 0.  0.
    9900012    2    3    3    0    0 -0.30879704490E+02 -0.35999187291E+01 -0.19729798880E+02  0.54367074861E+02  0.39999978760E+02 0.  0.
        -12    1    3    3    0    0  0.30879704490E+02  0.35999187291E+01  0.19729798880E+02  0.36820925139E+02  0.00000000000E+00 0.  1.
         11    1    4    4    0    0 -0.32000104660E+02  0.13886648945E+01  0.15886601545E+01  0.32069595099E+02  0.51100000000E-03 0. -1.
        -11    1    4    4    0    0  0.62476227351E-01 -0.38826242891E+01 -0.80133010726E+01  0.89045869635E+01  0.51100000000E-03 0.  1.
         12    1    4    4    0    0  0.10579239426E+01 -0.11059593345E+01 -0.13305157962E+02  0.13392892799E+02  0.00000000000E+00 0. -1.
</event>
<event>
 8    1  0.1229038E-006  0.9118800E+02  0.7816164E-02  0.1184000E+00
        -11   -1    0    0    0    0  0.00000000000E+00  0.00000000000E+00  0.45593999997E+02  0.45594000000E+02  0.51100000000E-03 0.  1.
         11   -1    0    0    0    0 -0.00000000000E+00 -0.00000000000E+00 -0.45593999997E+02  0.45594000000E+02  0.51100000000E-03 0. -1.
         23    2    1    2    0    0  0.35527136788E-14  0.35527136788E-14  0.35527136788E-14  0.91188000000E+02  0.91188000000E+02 0.  0.
    9900012    2    3    3    0    0  0.74272795114E+01  0.29053935512E+02  0.21365490124E+02  0.54367084505E+02  0.40000000745E+02 0.  0.
         12    1    3    3    0    0 -0.74272795114E+01 -0.29053935512E+02 -0.21365490124E+02  0.36820915495E+02  0.00000000000E+00 0. -1.
         11    1    4    4    0    0 -0.58345132388E+01 -0.35908702294E+01  0.56292715439E+01  0.88670509254E+01  0.51100000000E-03 0. -1.
        -11    1    4    4    0    0  0.16033664197E+02  0.18224424049E+02  0.18547961972E+02  0.30548893811E+02  0.51100000000E-03 0.  1.
         12    1    4    4    0    0 -0.27718714466E+01  0.14420381692E+02 -0.28117433916E+01  0.14951139768E+02  0.00000000000E+00 0. -1.
</event>
<event>
 8    1  0.1229038E-006  0.9118800E+02  0.7816164E-02  0.1184000E+00
        -11   -1    0    0    0    0  0.00000000000E+00  0.00000000000E+00  0.45593999997E+02  0.45594000000E+02  0.51100000000E-03 0.  1.
         11   -1    0    0    0    0 -0.00000000000E+00 -0.00000000000E+00 -0.45593999997E+02  0.45594000000E+02  0.51100000000E-03 0. -1.
         23    2    1    2    0    0 -0.17763568394E-14  0.00000000000E+00  0.00000000000E+00  0.91188000000E+02  0.91188000000E+02 0.  0.
    9900012    2    3    3    0    0  0.15551350783E+02 -0.29092633160E+02 -0.16356836491E+02  0.54367191816E+02  0.40000245383E+02 0.  0.
        -12    1    3    3    0    0 -0.15551350783E+02  0.29092633160E+02  0.16356836491E+02  0.36820808184E+02  0.00000000000E+00 0.  1.
         11    1    4    4    0    0 -0.16014909299E+01 -0.76194863536E+01  0.45410742331E+00  0.77992024787E+01  0.51100000000E-03 0. -1.
        -11    1    4    4    0    0  0.51192328911E+01  0.91329735038E-01 -0.20916652381E+02  0.21534187553E+02  0.51100000000E-03 0.  1.
        -12    1    4    4    0    0  0.12033608821E+02 -0.21564476541E+02  0.41057084666E+01  0.25033801784E+02  0.00000000000E+00 0.  1.
</event>
<event>
 8    1  0.1229038E-006  0.9118800E+02  0.7816164E-02  0.1184000E+00
        -11   -1    0    0    0    0  0.00000000000E+00  0.00000000000E+00  0.45593999997E+02  0.45594000000E+02  0.51100000000E-03 0. -1.
         11   -1    0    0    0    0 -0.00000000000E+00 -0.00000000000E+00 -0.45593999997E+02  0.45594000000E+02  0.51100000000E-03 0.  1.
         23    2    1    2    0    0 -0.17763568394E-14  0.00000000000E+00  0.00000000000E+00  0.91188000000E+02  0.91188000000E+02 0.  0.
    9900012    2    3    3    0    0  0.11797803793E+02  0.24629209187E+02 -0.24698055941E+02  0.54367080854E+02  0.39999992422E+02 0.  0.
         12    1    3    3    0    0 -0.11797803793E+02 -0.24629209187E+02  0.24698055941E+02  0.36820919146E+02  0.00000000000E+00 0. -1.
         11    1    4    4    0    0 -0.78605776836E+01 -0.78640774599E+00 -0.15970774249E+02  0.17817764984E+02  0.51100000000E-03 0. -1.
        -11    1    4    4    0    0  0.14557475604E+02  0.10851648172E+02 -0.10567864900E+02  0.21008525242E+02  0.51100000000E-03 0.  1.
         12    1    4    4    0    0  0.51009058725E+01  0.14563968761E+02  0.18405832078E+01  0.15540790628E+02  0.00000000000E+00 0. -1.
</event>
<event>
 8    1  0.1229038E-006  0.9118800E+02  0.7816164E-02  0.1184000E+00
        -11   -1    0    0    0    0  0.00000000000E+00  0.00000000000E+00  0.45593999997E+02  0.45594000000E+02  0.51100000000E-03 0.  1.
         11   -1    0    0    0    0 -0.00000000000E+00 -0.00000000000E+00 -0.45593999997E+02  0.45594000000E+02  0.51100000000E-03 0. -1.
         23    2    1    2    0    0 -0.61062266354E-15  0.35527136788E-14  0.35527136788E-14  0.91188000000E+02  0.91188000000E+02 0.  0.
    9900012    2    3    3    0    0  0.28146875235E+00  0.26457890372E+02  0.25606273720E+02  0.54367076038E+02  0.39999981444E+02 0.  0.
         12    1    3    3    0    0 -0.28146875235E+00 -0.26457890372E+02 -0.25606273720E+02  0.36820923962E+02  0.00000000000E+00 0. -1.
         11    1    4    4    0    0 -0.58485123408E+01 -0.86438356713E+00  0.11773704854E+01  0.60281387735E+01  0.51100000000E-03 0. -1.
        -11    1    4    4    0    0 -0.10548100441E+02  0.15475317117E+01  0.91390701029E+01  0.14042075342E+02  0.51100000000E-03 0.  1.
        -12    1    4    4    0    0  0.16678081534E+02  0.25774742227E+02  0.15289833131E+02  0.34296861923E+02  0.00000000000E+00 0.  1.
</event>
<event>
 8    1  0.1229038E-006  0.9118800E+02  0.7816164E-02  0.1184000E+00
        -11   -1    0    0    0    0  0.00000000000E+00  0.00000000000E+00  0.45593999997E+02  0.45594000000E+02  0.51100000000E-03 0. -1.
         11   -1    0    0    0    0 -0.00000000000E+00 -0.00000000000E+00 -0.45593999997E+02  0.45594000000E+02  0.51100000000E-03 0.  1.
         23    2    1    2    0    0  0.00000000000E+00  0.71054273576E-14  0.00000000000E+00  0.91188000000E+02  0.91188000000E+02 0.  0.
    9900012    2    3    3    0    0  0.83478396745E+01  0.32233252783E+02 -0.15719764445E+02  0.54367081945E+02  0.39999994910E+02 0.  0.
         12    1    3    3    0    0 -0.83478396745E+01 -0.32233252783E+02  0.15719764445E+02  0.36820918055E+02  0.00000000000E+00 0. -1.
         11    1    4    4    0    0  0.38239707039E+01  0.20469410647E+01 -0.21707418215E+02  0.22136502106E+02  0.51100000000E-03 0.  1.
        -11    1    4    4    0    0  0.44853876548E+00  0.13514703077E+02  0.66216666974E+01  0.15056389221E+02  0.51100000000E-03 0. -1.
        -12    1    4    4    0    0  0.40753302052E+01  0.16671608642E+02 -0.63401292758E+00  0.17174190618E+02  0.00000000000E+00 0.  1.
</event>
<event>
 8    1  0.1229038E-006  0.9118800E+02  0.7816164E-02  0.1184000E+00
        -11   -1    0    0    0    0  0.00000000000E+00  0.00000000000E+00  0.45593999997E+02  0.45594000000E+02  0.51100000000E-03 0.  1.
         11   -1    0    0    0    0 -0.00000000000E+00 -0.00000000000E+00 -0.45593999997E+02  0.45594000000E+02  0.51100000000E-03 0. -1.
         23    2    1    2    0    0 -0.35527136788E-14  0.00000000000E+00 -0.17763568394E-14  0.91188000000E+02  0.91188000000E+02 0.  0.
    9900012    2    3    3    0    0 -0.17242160404E+02  0.32137396643E+02 -0.50667803898E+01  0.54367127904E+02  0.40000099683E+02 0.  0.
         12    1    3    3    0    0  0.17242160404E+02 -0.32137396643E+02  0.50667803898E+01  0.36820872096E+02  0.00000000000E+00 0. -1.
         11    1    4    4    0    0  0.32936330981E+01  0.12904772246E+02 -0.69616826476E+01  0.15028179905E+02  0.51100000000E-03 0. -1.
        -11    1    4    4    0    0 -0.77000076530E+01  0.30936419842E+01  0.13373222582E+02  0.15738609249E+02  0.51100000000E-03 0.  1.
        -12    1    4    4    0    0 -0.12835785849E+02  0.16138982412E+02 -0.11478320325E+02  0.23600338751E+02  0.00000000000E+00 0.  1.
</event>
<event>
 8    1  0.1229038E-006  0.9118800E+02  0.7816164E-02  0.1184000E+00
        -11   -1    0    0    0    0  0.00000000000E+00  0.00000000000E+00  0.45593999997E+02  0.45594000000E+02  0.51100000000E-03 0. -1.
         11   -1    0    0    0    0 -0.00000000000E+00 -0.00000000000E+00 -0.45593999997E+02  0.45594000000E+02  0.51100000000E-03 0.  1.
         23    2    1    2    0    0  0.00000000000E+00 -0.71054273576E-14  0.00000000000E+00  0.91188000000E+02  0.91188000000E+02 0.  0.
    9900012    2    3    3    0    0 -0.25757184305E+02  0.26217866470E+02 -0.22295837015E+01  0.54367080552E+02  0.39999991734E+02 0.  0.
         12    1    3    3    0    0  0.25757184305E+02 -0.26217866470E+02  0.22295837015E+01  0.36820919448E+02  0.00000000000E+00 0. -1.
         11    1    4    4    0    0 -0.25697310610E+02  0.22624299349E+01  0.65028998847E+00  0.25804907268E+02  0.51100000000E-03 0. -1.
        -11    1    4    4    0    0  0.17778312286E+01  0.67658450906E+01 -0.79081301911E+01  0.10558213251E+02  0.51100000000E-03 0.  1.
         12    1    4    4    0    0 -0.18377049232E+01  0.17189591444E+02  0.50282565012E+01  0.18003960032E+02  0.00000000000E+00 0. -1.
</event>
<event>
 8    1  0.1229038E-006  0.9118800E+02  0.7816164E-02  0.1184000E+00
        -11   -1    0    0    0    0  0.00000000000E+00  0.00000000000E+00  0.45593999997E+02  0.45594000000E+02  0.51100000000E-03 0.  1.
         11   -1    0    0    0    0 -0.00000000000E+00 -0.00000000000E+00 -0.45593999997E+02  0.45594000000E+02  0.51100000000E-03 0. -1.
         23    2    1    2    0    0 -0.44408920985E-15 -0.44408920985E-15  0.00000000000E+00  0.91188000000E+02  0.91188000000E+02 0.  0.
    9900012    2    3    3    0    0  0.32982060198E+01  0.34471803552E+00 -0.36671253379E+02  0.54367111663E+02  0.40000062659E+02 0.  0.
        -12    1    3    3    0    0 -0.32982060198E+01 -0.34471803552E+00  0.36671253379E+02  0.36820888337E+02  0.00000000000E+00 0.  1.
         11    1    4    4    0    0  0.24472160257E+01  0.61073868968E+00 -0.93785167123E+01  0.97117683255E+01  0.51100000000E-03 0. -1.
        -11    1    4    4    0    0  0.74766419623E+00 -0.17277516579E+02 -0.83792196710E+01  0.19216734984E+02  0.51100000000E-03 0.  1.
        -12    1    4    4    0    0  0.10332579791E+00  0.17011495925E+02 -0.18913516996E+02  0.25438608354E+02  0.00000000000E+00 0.  1.
</event>
<event>
 8    1  0.1229038E-006  0.9118800E+02  0.7816164E-02  0.1184000E+00
        -11   -1    0    0    0    0  0.00000000000E+00  0.00000000000E+00  0.45593999997E+02  0.45594000000E+02  0.51100000000E-03 0.  1.
         11   -1    0    0    0    0 -0.00000000000E+00 -0.00000000000E+00 -0.45593999997E+02  0.45594000000E+02  0.51100000000E-03 0. -1.
         23    2    1    2    0    0  0.71054273576E-14  0.88817841970E-15  0.00000000000E+00  0.91188000000E+02  0.91188000000E+02 0.  0.
    9900012    2    3    3    0    0  0.32637870565E+02 -0.65831349099E+01 -0.15722964076E+02  0.54367083939E+02  0.39999999456E+02 0.  0.
        -12    1    3    3    0    0 -0.32637870565E+02  0.65831349099E+01  0.15722964076E+02  0.36820916061E+02  0.00000000000E+00 0.  1.
         11    1    4    4    0    0  0.31166833004E+01  0.37497796841E+01 -0.12745992314E+02  0.13646790201E+02  0.51100000000E-03 0. -1.
        -11    1    4    4    0    0 -0.42287525062E+01  0.19547674183E+01  0.19899693320E+00  0.46629457920E+01  0.51100000000E-03 0.  1.
         12    1    4    4    0    0  0.33749939770E+02 -0.12287682012E+02 -0.31759686947E+01  0.36057347946E+02  0.00000000000E+00 0. -1.
</event>
<event>
 8    1  0.1229038E-006  0.9118800E+02  0.7816164E-02  0.1184000E+00
        -11   -1    0    0    0    0  0.00000000000E+00  0.00000000000E+00  0.45593999997E+02  0.45594000000E+02  0.51100000000E-03 0. -1.
         11   -1    0    0    0    0 -0.00000000000E+00 -0.00000000000E+00 -0.45593999997E+02  0.45594000000E+02  0.51100000000E-03 0.  1.
         23    2    1    2    0    0  0.35527136788E-14  0.17763568394E-14  0.00000000000E+00  0.91188000000E+02  0.91188000000E+02 0.  0.
    9900012    2    3    3    0    0 -0.26270004464E+02 -0.36342521052E+01 -0.25543281148E+02  0.54367080203E+02  0.39999990939E+02 0.  0.
         12    1    3    3    0    0  0.26270004464E+02  0.36342521052E+01  0.25543281148E+02  0.36820919797E+02  0.00000000000E+00 0. -1.
         11    1    4    4    0    0 -0.54683140850E+01  0.40696609359E+01  0.27964188464E+01  0.73678054868E+01  0.51100000000E-03 0. -1.
        -11    1    4    4    0    0 -0.67203869222E+01 -0.12499635534E+02  0.87161111516E+00  0.14218445593E+02  0.51100000000E-03 0.  1.
        -12    1    4    4    0    0 -0.14081303456E+02  0.47957224931E+01 -0.29211311110E+02  0.32780829123E+02  0.00000000000E+00 0.  1.
</event>
<event>
 8    1  0.1229038E-006  0.9118800E+02  0.7816164E-02  0.1184000E+00
        -11   -1    0    0    0    0  0.00000000000E+00  0.00000000000E+00  0.45593999997E+02  0.45594000000E+02  0.51100000000E-03 0.  1.
         11   -1    0    0    0    0 -0.00000000000E+00 -0.00000000000E+00 -0.45593999997E+02  0.45594000000E+02  0.51100000000E-03 0. -1.
         23    2    1    2    0    0 -0.17763568394E-14  0.00000000000E+00  0.00000000000E+00  0.91188000000E+02  0.91188000000E+02 0.  0.
    9900012    2    3    3    0    0 -0.14042089403E+02  0.21380647987E+02  0.26485220325E+02  0.54367091825E+02  0.40000017434E+02 0.  0.
         12    1    3    3    0    0  0.14042089403E+02 -0.21380647987E+02 -0.26485220325E+02  0.36820908175E+02  0.00000000000E+00 0. -1.
         11    1    4    4    0    0  0.27376390216E+01  0.95262176510E+01  0.10159030117E+02  0.14193286559E+02  0.51100000000E-03 0. -1.
        -11    1    4    4    0    0 -0.16992271975E+02  0.10244207607E+02  0.24678189363E+02  0.31665345835E+02  0.51100000000E-03 0.  1.
         12    1    4    4    0    0  0.21254355040E+00  0.16102227292E+01 -0.83519991557E+01  0.85084594314E+01  0.00000000000E+00 0. -1.
</event>
<event>
 8    1  0.1229038E-006  0.9118800E+02  0.7816164E-02  0.1184000E+00
        -11   -1    0    0    0    0  0.00000000000E+00  0.00000000000E+00  0.45593999997E+02  0.45594000000E+02  0.51100000000E-03 0.  1.
         11   -1    0    0    0    0 -0.00000000000E+00 -0.00000000000E+00 -0.45593999997E+02  0.45594000000E+02  0.51100000000E-03 0. -1.
         23    2    1    2    0    0 -0.35527136788E-14  0.35527136788E-14 -0.35527136788E-14  0.91188000000E+02  0.91188000000E+02 0.  0.
    9900012    2    3    3    0    0 -0.24113631437E+02  0.20896118286E+02 -0.18375758421E+02  0.54367034803E+02  0.39999887439E+02 0.  0.
        -12    1    3    3    0    0  0.24113631437E+02 -0.20896118286E+02  0.18375758421E+02  0.36820965197E+02  0.00000000000E+00 0.  1.
         11    1    4    4    0    0 -0.20125314633E+02  0.96517418154E+01 -0.14731249676E+02  0.26743113626E+02  0.51100000000E-03 0. -1.
        -11    1    4    4    0    0 -0.14042970650E+02  0.48006127203E+01 -0.48686805128E+01  0.15619057506E+02  0.51100000000E-03 0.  1.
        -12    1    4    4    0    0  0.10054653846E+02  0.64437637507E+01  0.12241717680E+01  0.12004863671E+02  0.00000000000E+00 0.  1.
</event>
<event>
 8    1  0.1229038E-006  0.9118800E+02  0.7816164E-02  0.1184000E+00
        -11   -1    0    0    0    0  0.00000000000E+00  0.00000000000E+00  0.45593999997E+02  0.45594000000E+02  0.51100000000E-03 0.  1.
         11   -1    0    0    0    0 -0.00000000000E+00 -0.00000000000E+00 -0.45593999997E+02  0.45594000000E+02  0.51100000000E-03 0. -1.
         23    2    1    2    0    0 -0.35527136788E-14  0.35527136788E-14  0.55511151231E-15  0.91188000000E+02  0.91188000000E+02 0.  0.
    9900012    2    3    3    0    0 -0.20805309938E+02  0.30374983639E+02 -0.52773036521E+00  0.54367094905E+02  0.40000024455E+02 0.  0.
        -12    1    3    3    0    0  0.20805309938E+02 -0.30374983639E+02  0.52773036521E+00  0.36820905095E+02  0.00000000000E+00 0.  1.
         11    1    4    4    0    0  0.81330345199E+01  0.43368029077E+00 -0.29140238888E+01  0.86501944824E+01  0.51100000000E-03 0. -1.
        -11    1    4    4    0    0 -0.17087402265E+02  0.58435456391E+01  0.49930199124E+01  0.18736504207E+02  0.51100000000E-03 0.  1.
         12    1    4    4    0    0 -0.11850942193E+02  0.24097757709E+02 -0.26067263888E+01  0.26980396216E+02  0.00000000000E+00 0. -1.
</event>
<event>
 8    1  0.1229038E-006  0.9118800E+02  0.7816164E-02  0.1184000E+00
        -11   -1    0    0    0    0  0.00000000000E+00  0.00000000000E+00  0.45593999997E+02  0.45594000000E+02  0.51100000000E-03 0. -1.
         11   -1    0    0    0    0 -0.00000000000E+00 -0.00000000000E+00 -0.45593999997E+02  0.45594000000E+02  0.51100000000E-03 0.  1.
         23    2    1    2    0    0  0.00000000000E+00  0.00000000000E+00  0.00000000000E+00  0.91188000000E+02  0.91188000000E+02 0.  0.
    9900012    2    3    3    0    0 -0.17624459317E+02 -0.21457498945E+02  0.24181333182E+02  0.54367045346E+02  0.39999911475E+02 0.  0.
        -12    1    3    3    0    0  0.17624459317E+02  0.21457498945E+02 -0.24181333182E+02  0.36820954654E+02  0.00000000000E+00 0.  1.
         11    1    4    4    0    0  0.29614916079E+01 -0.51601015544E+01  0.11854579161E+02  0.13263790105E+02  0.51100000000E-03 0. -1.
        -11    1    4    4    0    0 -0.15123012709E+02 -0.55587634624E+01  0.20846233430E+02  0.26347121533E+02  0.51100000000E-03 0.  1.
         12    1    4    4    0    0 -0.54629382162E+01 -0.10738633928E+02 -0.85194794093E+01  0.14756133708E+02  0.00000000000E+00 0. -1.
</event>
<event>
 8    1  0.1229038E-006  0.9118800E+02  0.7816164E-02  0.1184000E+00
        -11   -1    0    0    0    0  0.00000000000E+00  0.00000000000E+00  0.45593999997E+02  0.45594000000E+02  0.51100000000E-03 0. -1.
         11   -1    0    0    0    0 -0.00000000000E+00 -0.00000000000E+00 -0.45593999997E+02  0.45594000000E+02  0.51100000000E-03 0.  1.
         23    2    1    2    0    0  0.00000000000E+00 -0.44408920985E-15 -0.22204460493E-14  0.91188000000E+02  0.91188000000E+02 0.  0.
    9900012    2    3    3    0    0  0.36678086930E+02 -0.30032737855E+01 -0.12149946420E+01  0.54367110192E+02  0.40000059305E+02 0.  0.
        -12    1    3    3    0    0 -0.36678086930E+02  0.30032737855E+01  0.12149946420E+01  0.36820889808E+02  0.00000000000E+00 0.  1.
         11    1    4    4    0    0 -0.42106566376E+01 -0.39509893345E+00  0.43506791192E+01  0.60674658257E+01  0.51100000000E-03 0. -1.
        -11    1    4    4    0    0  0.26857914963E+02 -0.78697916295E+01 -0.13796544307E+02  0.31202978247E+02  0.51100000000E-03 0.  1.
        -12    1    4    4    0    0  0.14030828605E+02  0.52616167774E+01  0.82308705457E+01  0.17096666119E+02  0.00000000000E+00 0.  1.
</event>
<event>
 8    1  0.1229038E-006  0.9118800E+02  0.7816164E-02  0.1184000E+00
        -11   -1    0    0    0    0  0.00000000000E+00  0.00000000000E+00  0.45593999997E+02  0.45594000000E+02  0.51100000000E-03 0.  1.
         11   -1    0    0    0    0 -0.00000000000E+00 -0.00000000000E+00 -0.45593999997E+02  0.45594000000E+02  0.51100000000E-03 0. -1.
         23    2    1    2    0    0  0.00000000000E+00  0.00000000000E+00  0.00000000000E+00  0.91188000000E+02  0.91188000000E+02 0.  0.
    9900012    2    3    3    0    0 -0.32521305198E+02  0.71347181651E+01  0.15723864097E+02  0.54367090217E+02  0.40000013768E+02 0.  0.
         12    1    3    3    0    0  0.32521305198E+02 -0.71347181651E+01 -0.15723864097E+02  0.36820909783E+02  0.00000000000E+00 0. -1.
         11    1    4    4    0    0  0.53884011291E+01 -0.51545359342E+01 -0.34597201016E+01  0.82203266887E+01  0.51100000000E-03 0. -1.
        -11    1    4    4    0    0 -0.10726790752E+02  0.99896738571E+01  0.75733771725E+01  0.16498898923E+02  0.51100000000E-03 0.  1.
         12    1    4    4    0    0 -0.27182915575E+02  0.22995802422E+01  0.11610207026E+02  0.29647864605E+02  0.00000000000E+00 0. -1.
</event>
<event>
 8    1  0.1229038E-006  0.9118800E+02  0.7816164E-02  0.1184000E+00
        -11   -1    0    0    0    0  0.00000000000E+00  0.00000000000E+00  0.45593999997E+02  0.45594000000E+02  0.51100000000E-03 0. -1.
         11   -1    0    0    0    0 -0.00000000000E+00 -0.00000000000E+00 -0.45593999997E+02  0.45594000000E+02  0.51100000000E-03 0.  1.
         23    2    1    2    0    0  0.71054273576E-14  0.00000000000E+00  0.00000000000E+00  0.91188000000E+02  0.91188000000E+02 0.  0.
    9900012    2    3    3    0    0  0.28072985086E+02  0.20508443356E+02 -0.12128130468E+02  0.54367078106E+02  0.39999986157E+02 0.  0.
         12    1    3    3    0    0 -0.28072985086E+02 -0.20508443356E+02  0.12128130468E+02  0.36820921894E+02  0.00000000000E+00 0. -1.
         11    1    4    4    0    0  0.98880669977E+01  0.98559664650E+01  0.44306508229E+00  0.13968187099E+02  0.51100000000E-03 0. -1.
        -11    1    4    4    0    0  0.26665494804E+02  0.57082498175E+01 -0.43913149977E+01  0.27620940911E+02  0.51100000000E-03 0.  1.
         12    1    4    4    0    0 -0.84805767160E+01  0.49442270734E+01 -0.81798805526E+01  0.12777950096E+02  0.00000000000E+00 0. -1.
</event>
<event>
 8    1  0.1229038E-006  0.9118800E+02  0.7816164E-02  0.1184000E+00
        -11   -1    0    0    0    0  0.00000000000E+00  0.00000000000E+00  0.45593999997E+02  0.45594000000E+02  0.51100000000E-03 0.  1.
         11   -1    0    0    0    0 -0.00000000000E+00 -0.00000000000E+00 -0.45593999997E+02  0.45594000000E+02  0.51100000000E-03 0. -1.
         23    2    1    2    0    0  0.00000000000E+00  0.35527136788E-14  0.35527136788E-14  0.91188000000E+02  0.91188000000E+02 0.  0.
    9900012    2    3    3    0    0 -0.71090267176E+01  0.23868670763E+02  0.27120631623E+02  0.54367077082E+02  0.39999983825E+02 0.  0.
         12    1    3    3    0    0  0.71090267176E+01 -0.23868670763E+02 -0.27120631623E+02  0.36820922918E+02  0.00000000000E+00 0. -1.
         11    1    4    4    0    0  0.89733457762E+01 -0.25931440891E+01  0.17328234488E+01  0.94998951600E+01  0.51100000000E-03 0. -1.
        -11    1    4    4    0    0 -0.60890739721E+01 -0.13786559271E+01  0.59531798659E+00  0.62715163852E+01  0.51100000000E-03 0.  1.
        -12    1    4    4    0    0 -0.99932985217E+01  0.27840470779E+02  0.24792490188E+02  0.38595665537E+02  0.00000000000E+00 0.  1.
</event>
<event>
 8    1  0.1229038E-006  0.9118800E+02  0.7816164E-02  0.1184000E+00
        -11   -1    0    0    0    0  0.00000000000E+00  0.00000000000E+00  0.45593999997E+02  0.45594000000E+02  0.51100000000E-03 0.  1.
         11   -1    0    0    0    0 -0.00000000000E+00 -0.00000000000E+00 -0.45593999997E+02  0.45594000000E+02  0.51100000000E-03 0. -1.
         23    2    1    2    0    0 -0.35527136788E-14  0.17763568394E-14  0.10658141036E-13  0.91188000000E+02  0.91188000000E+02 0.  0.
    9900012    2    3    3    0    0  0.19873553132E+02 -0.46516491657E+01 -0.30646150789E+02  0.54367047918E+02  0.39999917339E+02 0.  0.
        -12    1    3    3    0    0 -0.19873553132E+02  0.46516491657E+01  0.30646150789E+02  0.36820952082E+02  0.00000000000E+00 0.  1.
         11    1    4    4    0    0  0.17373879440E+01  0.48895661943E+00 -0.12094474612E+02  0.12228405941E+02  0.51100000000E-03 0. -1.
        -11    1    4    4    0    0  0.17482011143E+01  0.79085070039E+01  0.58404465907E+01  0.99855649218E+01  0.51100000000E-03 0.  1.
         12    1    4    4    0    0  0.16387964074E+02 -0.13049112789E+02 -0.24392122767E+02  0.32153077056E+02  0.00000000000E+00 0. -1.
</event>
<event>
 8    1  0.1229038E-006  0.9118800E+02  0.7816164E-02  0.1184000E+00
        -11   -1    0    0    0    0  0.00000000000E+00  0.00000000000E+00  0.45593999997E+02  0.45594000000E+02  0.51100000000E-03 0. -1.
         11   -1    0    0    0    0 -0.00000000000E+00 -0.00000000000E+00 -0.45593999997E+02  0.45594000000E+02  0.51100000000E-03 0.  1.
         23    2    1    2    0    0  0.00000000000E+00  0.00000000000E+00  0.00000000000E+00  0.91188000000E+02  0.91188000000E+02 0.  0.
    9900012    2    3    3    0    0  0.10395083899E+02  0.29789825195E+02  0.18981279214E+02  0.54367076397E+02  0.39999982262E+02 0.  0.
        -12    1    3    3    0    0 -0.10395083899E+02 -0.29789825195E+02 -0.18981279214E+02  0.36820923603E+02  0.00000000000E+00 0.  1.
         11    1    4    4    0    0  0.74711255415E+01  0.14482007136E+02 -0.28505494867E+01  0.16543031166E+02  0.51100000000E-03 0. -1.
        -11    1    4    4    0    0 -0.10265219236E+01  0.21388585970E+01 -0.61801642653E+01  0.66198862501E+01  0.51100000000E-03 0.  1.
         12    1    4    4    0    0  0.39504802814E+01  0.13168959462E+02  0.28011992966E+02  0.31204158980E+02  0.00000000000E+00 0. -1.
</event>
<event>
 8    1  0.1229038E-006  0.9118800E+02  0.7816164E-02  0.1184000E+00
        -11   -1    0    0    0    0  0.00000000000E+00  0.00000000000E+00  0.45593999997E+02  0.45594000000E+02  0.51100000000E-03 0.  1.
         11   -1    0    0    0    0 -0.00000000000E+00 -0.00000000000E+00 -0.45593999997E+02  0.45594000000E+02  0.51100000000E-03 0. -1.
         23    2    1    2    0    0  0.71054273576E-14  0.00000000000E+00  0.00000000000E+00  0.91188000000E+02  0.91188000000E+02 0.  0.
    9900012    2    3    3    0    0  0.34323664938E+02  0.10059287297E+02  0.87450840311E+01  0.54367085692E+02  0.40000003453E+02 0.  0.
         12    1    3    3    0    0 -0.34323664938E+02 -0.10059287297E+02 -0.87450840311E+01  0.36820914308E+02  0.00000000000E+00 0. -1.
         11    1    4    4    0    0  0.67687746595E+01 -0.64233801434E+01  0.40647978834E+01  0.10178344902E+02  0.51100000000E-03 0. -1.
        -11    1    4    4    0    0  0.20551119582E+02 -0.38732884879E+01  0.80318403477E+01  0.22402261926E+02  0.51100000000E-03 0.  1.
         12    1    4    4    0    0  0.70037706972E+01  0.20355955928E+02 -0.33515542001E+01  0.21786478864E+02  0.00000000000E+00 0. -1.
</event>
<event>
 8    1  0.1229038E-006  0.9118800E+02  0.7816164E-02  0.1184000E+00
        -11   -1    0    0    0    0  0.00000000000E+00  0.00000000000E+00  0.45593999997E+02  0.45594000000E+02  0.51100000000E-03 0.  1.
         11   -1    0    0    0    0 -0.00000000000E+00 -0.00000000000E+00 -0.45593999997E+02  0.45594000000E+02  0.51100000000E-03 0. -1.
         23    2    1    2    0    0  0.35527136788E-14  0.17763568394E-14  0.00000000000E+00  0.91188000000E+02  0.91188000000E+02 0.  0.
    9900012    2    3    3    0    0  0.25353357445E+02  0.14491867136E+02  0.22427043131E+02  0.54367092754E+02  0.40000019551E+02 0.  0.
         12    1    3    3    0    0 -0.25353357445E+02 -0.14491867136E+02 -0.22427043131E+02  0.36820907246E+02  0.00000000000E+00 0. -1.
         11    1    4    4    0    0  0.11293955053E+02  0.23116090406E+01  0.33993324669E+01  0.12018835991E+02  0.51100000000E-03 0. -1.
        -11    1    4    4    0    0  0.21244074898E+02  0.18100616604E+01  0.20585002729E+02  0.29636622262E+02  0.51100000000E-03 0.  1.
         12    1    4    4    0    0 -0.71846725059E+01  0.10370196435E+02 -0.15572920644E+01  0.12711634501E+02  0.00000000000E+00 0. -1.
</event>
<event>
 8    1  0.1229038E-006  0.9118800E+02  0.7816164E-02  0.1184000E+00
        -11   -1    0    0    0    0  0.00000000000E+00  0.00000000000E+00  0.45593999997E+02  0.45594000000E+02  0.51100000000E-03 0. -1.
         11   -1    0    0    0    0 -0.00000000000E+00 -0.00000000000E+00 -0.45593999997E+02  0.45594000000E+02  0.51100000000E-03 0.  1.
         23    2    1    2    0    0  0.17763568394E-14 -0.88817841970E-15  0.00000000000E+00  0.91188000000E+02  0.91188000000E+02 0.  0.
    9900012    2    3    3    0    0  0.60607302500E+01 -0.64438363442E+01 -0.35742463416E+02  0.54367093316E+02  0.40000020832E+02 0.  0.
         12    1    3    3    0    0 -0.60607302500E+01  0.64438363442E+01  0.35742463416E+02  0.36820906684E+02  0.00000000000E+00 0. -1.
         11    1    4    4    0    0  0.58035253952E+01  0.10422103534E+02 -0.37165249382E+01  0.12494547089E+02  0.51100000000E-03 0. -1.
        -11    1    4    4    0    0 -0.80425679155E+01 -0.76383543362E+01 -0.50677794270E+01  0.12194660480E+02  0.51100000000E-03 0.  1.
        -12    1    4    4    0    0  0.82997727703E+01 -0.92275855423E+01 -0.26958159051E+02  0.29677885747E+02  0.00000000000E+00 0.  1.
</event>
<event>
 8    1  0.1229038E-006  0.9118800E+02  0.7816164E-02  0.1184000E+00
        -11   -1    0    0    0    0  0.00000000000E+00  0.00000000000E+00  0.45593999997E+02  0.45594000000E+02  0.51100000000E-03 0. -1.
         11   -1    0    0    0    0 -0.00000000000E+00 -0.00000000000E+00 -0.45593999997E+02  0.45594000000E+02  0.51100000000E-03 0.  1.
         23    2    1    2    0    0  0.88817841970E-15  0.00000000000E+00  0.19428902931E-15  0.91188000000E+02  0.91188000000E+02 0.  0.
    9900012    2    3    3    0    0 -0.74360130146E+01  0.36061925881E+02  0.15098504024E+00  0.54367087677E+02  0.40000007977E+02 0.  0.
        -12    1    3    3    0    0  0.74360130146E+01 -0.36061925881E+02 -0.15098504024E+00  0.36820912323E+02  0.00000000000E+00 0.  1.
         11    1    4    4    0    0  0.11178012531E+02  0.64170592325E+01  0.74868119202E+01  0.14905668933E+02  0.51100000000E-03 0. -1.
        -11    1    4    4    0    0 -0.11622837463E+02  0.18250087071E+02  0.39154426819E+01  0.21988331461E+02  0.51100000000E-03 0.  1.
        -12    1    4    4    0    0 -0.69911880829E+01  0.11394779578E+02 -0.11251269562E+02  0.17473087283E+02  0.00000000000E+00 0.  1.
</event>
<event>
 8    1  0.1229038E-006  0.9118800E+02  0.7816164E-02  0.1184000E+00
        -11   -1    0    0    0    0  0.00000000000E+00  0.00000000000E+00  0.45593999997E+02  0.45594000000E+02  0.51100000000E-03 0. -1.
         11   -1    0    0    0    0 -0.00000000000E+00 -0.00000000000E+00 -0.45593999997E+02  0.45594000000E+02  0.51100000000E-03 0.  1.
         23    2    1    2    0    0  0.00000000000E+00 -0.35527136788E-14  0.00000000000E+00  0.91188000000E+02  0.91188000000E+02 0.  0.
    9900012    2    3    3    0    0 -0.26391544737E+02 -0.19248768802E+02  0.16992690710E+02  0.54367078345E+02  0.39999986702E+02 0.  0.
        -12    1    3    3    0    0  0.26391544737E+02  0.19248768802E+02 -0.16992690710E+02  0.36820921655E+02  0.00000000000E+00 0.  1.
         11    1    4    4    0    0 -0.14924582250E+02 -0.25061141183E+02  0.12409940272E+02  0.31698747145E+02  0.51100000000E-03 0. -1.
        -11    1    4    4    0    0 -0.12451146890E+01 -0.22455250680E+01 -0.55881216977E+01  0.61497803041E+01  0.51100000000E-03 0.  1.
         12    1    4    4    0    0 -0.10221847798E+02  0.80578974489E+01  0.10170872135E+02  0.16518550896E+02  0.00000000000E+00 0. -1.
</event>
<event>
 8    1  0.1229038E-006  0.9118800E+02  0.7816164E-02  0.1184000E+00
        -11   -1    0    0    0    0  0.00000000000E+00  0.00000000000E+00  0.45593999997E+02  0.45594000000E+02  0.51100000000E-03 0. -1.
         11   -1    0    0    0    0 -0.00000000000E+00 -0.00000000000E+00 -0.45593999997E+02  0.45594000000E+02  0.51100000000E-03 0.  1.
         23    2    1    2    0    0  0.00000000000E+00  0.00000000000E+00  0.71054273576E-14  0.91188000000E+02  0.91188000000E+02 0.  0.
    9900012    2    3    3    0    0  0.22594233113E+02  0.24957954973E+02 -0.14912580625E+02  0.54367028431E+02  0.39999872914E+02 0.  0.
        -12    1    3    3    0    0 -0.22594233113E+02 -0.24957954973E+02  0.14912580625E+02  0.36820971569E+02  0.00000000000E+00 0.  1.
         11    1    4    4    0    0  0.54910008919E+01  0.35461724614E+01  0.12732363547E+02  0.14312215471E+02  0.51100000000E-03 0. -1.
        -11    1    4    4    0    0  0.27969078907E+01  0.10281805623E+02 -0.79935201628E+01  0.13320457405E+02  0.51100000000E-03 0.  1.
         12    1    4    4    0    0  0.14306324330E+02  0.11129976888E+02 -0.19651424009E+02  0.26734355555E+02  0.00000000000E+00 0. -1.
</event>
<event>
 8    1  0.1229038E-006  0.9118800E+02  0.7816164E-02  0.1184000E+00
        -11   -1    0    0    0    0  0.00000000000E+00  0.00000000000E+00  0.45593999997E+02  0.45594000000E+02  0.51100000000E-03 0.  1.
         11   -1    0    0    0    0 -0.00000000000E+00 -0.00000000000E+00 -0.45593999997E+02  0.45594000000E+02  0.51100000000E-03 0. -1.
         23    2    1    2    0    0  0.00000000000E+00 -0.17763568394E-14  0.00000000000E+00  0.91188000000E+02  0.91188000000E+02 0.  0.
    9900012    2    3    3    0    0 -0.18326753703E+02  0.14708677111E+02  0.28347210489E+02  0.54367089824E+02  0.40000012873E+02 0.  0.
         12    1    3    3    0    0  0.18326753703E+02 -0.14708677111E+02 -0.28347210489E+02  0.36820910176E+02  0.00000000000E+00 0. -1.
         11    1    4    4    0    0 -0.78964149380E+01 -0.10906761730E+02  0.37789791392E+01  0.13985403244E+02  0.51100000000E-03 0. -1.
        -11    1    4    4    0    0  0.78244134850E+00  0.21731012137E+01  0.10660948382E+02  0.10908272274E+02  0.51100000000E-03 0.  1.
         12    1    4    4    0    0 -0.11212780114E+02  0.23442337627E+02  0.13907282968E+02  0.29473414306E+02  0.00000000000E+00 0. -1.
</event>
<event>
 8    1  0.1229038E-006  0.9118800E+02  0.7816164E-02  0.1184000E+00
        -11   -1    0    0    0    0  0.00000000000E+00  0.00000000000E+00  0.45593999997E+02  0.45594000000E+02  0.51100000000E-03 0.  1.
         11   -1    0    0    0    0 -0.00000000000E+00 -0.00000000000E+00 -0.45593999997E+02  0.45594000000E+02  0.51100000000E-03 0. -1.
         23    2    1    2    0    0  0.88817841970E-15 -0.88817841970E-15  0.00000000000E+00  0.91188000000E+02  0.91188000000E+02 0.  0.
    9900012    2    3    3    0    0 -0.41737347221E+01 -0.40141338295E+01  0.36362712042E+02  0.54367079873E+02  0.39999990187E+02 0.  0.
         12    1    3    3    0    0  0.41737347221E+01  0.40141338295E+01 -0.36362712042E+02  0.36820920127E+02  0.00000000000E+00 0. -1.
         11    1    4    4    0    0 -0.19370704718E+01 -0.94627584183E+01  0.22995523671E+02  0.24941735066E+02  0.51100000000E-03 0. -1.
        -11    1    4    4    0    0 -0.77388786731E+01 -0.83278459407E+01  0.62185522738E+01  0.12958150091E+02  0.51100000000E-03 0.  1.
         12    1    4    4    0    0  0.55022144229E+01  0.13776470529E+02  0.71486360968E+01  0.16467194717E+02  0.00000000000E+00 0. -1.
</event>
<event>
 8    1  0.1229038E-006  0.9118800E+02  0.7816164E-02  0.1184000E+00
        -11   -1    0    0    0    0  0.00000000000E+00  0.00000000000E+00  0.45593999997E+02  0.45594000000E+02  0.51100000000E-03 0. -1.
         11   -1    0    0    0    0 -0.00000000000E+00 -0.00000000000E+00 -0.45593999997E+02  0.45594000000E+02  0.51100000000E-03 0.  1.
         23    2    1    2    0    0  0.00000000000E+00  0.00000000000E+00 -0.88817841970E-15  0.91188000000E+02  0.91188000000E+02 0.  0.
    9900012    2    3    3    0    0  0.10897383262E+02  0.34636561407E+02  0.61102819794E+01  0.54367083473E+02  0.39999998392E+02 0.  0.
         12    1    3    3    0    0 -0.10897383262E+02 -0.34636561407E+02 -0.61102819794E+01  0.36820916527E+02  0.00000000000E+00 0. -1.
         11    1    4    4    0    0  0.18738244360E+01 -0.41929904879E+01  0.32850380368E+01  0.56465797093E+01  0.51100000000E-03 0. -1.
        -11    1    4    4    0    0 -0.17647606351E+00  0.34740069265E+02 -0.60927943307E+01  0.35270748495E+02  0.51100000000E-03 0.  1.
         12    1    4    4    0    0  0.92000348894E+01  0.40894826295E+01  0.89180382733E+01  0.13449755269E+02  0.00000000000E+00 0. -1.
</event>
<event>
 8    1  0.1229038E-006  0.9118800E+02  0.7816164E-02  0.1184000E+00
        -11   -1    0    0    0    0  0.00000000000E+00  0.00000000000E+00  0.45593999997E+02  0.45594000000E+02  0.51100000000E-03 0. -1.
         11   -1    0    0    0    0 -0.00000000000E+00 -0.00000000000E+00 -0.45593999997E+02  0.45594000000E+02  0.51100000000E-03 0.  1.
         23    2    1    2    0    0  0.17763568394E-14  0.00000000000E+00  0.00000000000E+00  0.91188000000E+02  0.91188000000E+02 0.  0.
    9900012    2    3    3    0    0  0.10595868936E+02  0.89889967277E+01  0.34098465503E+02  0.54367084065E+02  0.39999999743E+02 0.  0.
        -12    1    3    3    0    0 -0.10595868936E+02 -0.89889967277E+01 -0.34098465503E+02  0.36820915935E+02  0.00000000000E+00 0.  1.
         11    1    4    4    0    0  0.18486332517E+02  0.59004147696E+01  0.17558630154E+02  0.26169923147E+02  0.51100000000E-03 0. -1.
        -11    1    4    4    0    0 -0.98590753351E+00 -0.85753907893E+01  0.32757837585E+01  0.92325565445E+01  0.51100000000E-03 0.  1.
         12    1    4    4    0    0 -0.69045560474E+01  0.11663972747E+02  0.13264051590E+02  0.18964604373E+02  0.00000000000E+00 0. -1.
</event>
<event>
 8    1  0.1229038E-006  0.9118800E+02  0.7816164E-02  0.1184000E+00
        -11   -1    0    0    0    0  0.00000000000E+00  0.00000000000E+00  0.45593999997E+02  0.45594000000E+02  0.51100000000E-03 0.  1.
         11   -1    0    0    0    0 -0.00000000000E+00 -0.00000000000E+00 -0.45593999997E+02  0.45594000000E+02  0.51100000000E-03 0. -1.
         23    2    1    2    0    0  0.15543122345E-14  0.35527136788E-14 -0.35527136788E-14  0.91188000000E+02  0.91188000000E+02 0.  0.
    9900012    2    3    3    0    0  0.10570071828E+01  0.26666392624E+02 -0.25368611462E+02  0.54367079217E+02  0.39999988692E+02 0.  0.
        -12    1    3    3    0    0 -0.10570071828E+01 -0.26666392624E+02  0.25368611462E+02  0.36820920783E+02  0.00000000000E+00 0.  1.
         11    1    4    4    0    0  0.12462342750E-01 -0.25383857439E+01 -0.20818609985E+01  0.32829412077E+01  0.51100000000E-03 0. -1.
        -11    1    4    4    0    0  0.14954007645E+02  0.64448210238E+01 -0.98142142895E+00  0.16313223193E+02  0.51100000000E-03 0.  1.
        -12    1    4    4    0    0 -0.13909462805E+02  0.22759957345E+02 -0.22305329034E+02  0.34770914816E+02  0.00000000000E+00 0.  1.
</event>
<event>
 8    1  0.1229038E-006  0.9118800E+02  0.7816164E-02  0.1184000E+00
        -11   -1    0    0    0    0  0.00000000000E+00  0.00000000000E+00  0.45593999997E+02  0.45594000000E+02  0.51100000000E-03 0.  1.
         11   -1    0    0    0    0 -0.00000000000E+00 -0.00000000000E+00 -0.45593999997E+02  0.45594000000E+02  0.51100000000E-03 0. -1.
         23    2    1    2    0    0  0.35527136788E-14  0.00000000000E+00  0.44408920985E-15  0.91188000000E+02  0.91188000000E+02 0.  0.
    9900012    2    3    3    0    0 -0.31636949143E+02  0.18734439298E+02 -0.19756864531E+01  0.54367094202E+02  0.40000022851E+02 0.  0.
        -12    1    3    3    0    0  0.31636949143E+02 -0.18734439298E+02  0.19756864531E+01  0.36820905798E+02  0.00000000000E+00 0.  1.
         11    1    4    4    0    0 -0.24926991380E+02  0.30474591696E+02 -0.64952222191E+01  0.39902926587E+02  0.51100000000E-03 0. -1.
        -11    1    4    4    0    0 -0.30944850036E+01 -0.46528953180E+01  0.67745863365E+00  0.56288740206E+01  0.51100000000E-03 0.  1.
         12    1    4    4    0    0 -0.36154727592E+01 -0.70872570803E+01  0.38420771323E+01  0.88352935936E+01  0.00000000000E+00 0. -1.
</event>
<event>
 8    1  0.1229038E-006  0.9118800E+02  0.7816164E-02  0.1184000E+00
        -11   -1    0    0    0    0  0.00000000000E+00  0.00000000000E+00  0.45593999997E+02  0.45594000000E+02  0.51100000000E-03 0. -1.
         11   -1    0    0    0    0 -0.00000000000E+00 -0.00000000000E+00 -0.45593999997E+02  0.45594000000E+02  0.51100000000E-03 0.  1.
         23    2    1    2    0    0  0.35527136788E-14  0.35527136788E-14  0.17763568394E-14  0.91188000000E+02  0.91188000000E+02 0.  0.
    9900012    2    3    3    0    0  0.25097065020E+02  0.25718777762E+02 -0.80288229714E+01  0.54367079309E+02  0.39999988901E+02 0.  0.
         12    1    3    3    0    0 -0.25097065020E+02 -0.25718777762E+02  0.80288229714E+01  0.36820920691E+02  0.00000000000E+00 0. -1.
         11    1    4    4    0    0  0.74408402170E+01  0.20214848216E+02  0.72484576170E+01  0.22727655612E+02  0.51100000000E-03 0. -1.
        -11    1    4    4    0    0  0.13949942154E+02 -0.32369864114E+01 -0.16743854862E+02  0.22032604091E+02  0.51100000000E-03 0.  1.
        -12    1    4    4    0    0  0.37062826493E+01  0.87409159575E+01  0.14665742733E+01  0.96068196065E+01  0.00000000000E+00 0.  1.
</event>
<event>
 8    1  0.1229038E-006  0.9118800E+02  0.7816164E-02  0.1184000E+00
        -11   -1    0    0    0    0  0.00000000000E+00  0.00000000000E+00  0.45593999997E+02  0.45594000000E+02  0.51100000000E-03 0.  1.
         11   -1    0    0    0    0 -0.00000000000E+00 -0.00000000000E+00 -0.45593999997E+02  0.45594000000E+02  0.51100000000E-03 0. -1.
         23    2    1    2    0    0 -0.17763568394E-14  0.00000000000E+00  0.00000000000E+00  0.91188000000E+02  0.91188000000E+02 0.  0.
    9900012    2    3    3    0    0 -0.14113180169E+02  0.30342104908E+02  0.15360785054E+02  0.54367096940E+02  0.40000029093E+02 0.  0.
         12    1    3    3    0    0  0.14113180169E+02 -0.30342104908E+02 -0.15360785054E+02  0.36820903060E+02  0.00000000000E+00 0. -1.
         11    1    4    4    0    0 -0.13113474406E+02  0.95065452391E+01  0.41227574282E+00  0.16202085820E+02  0.51100000000E-03 0. -1.
        -11    1    4    4    0    0 -0.84104678950E+00  0.27939909959E+02  0.11029704469E+02  0.30049963546E+02  0.51100000000E-03 0.  1.
        -12    1    4    4    0    0 -0.15865897323E+00 -0.71043502902E+01  0.39188048427E+01  0.81150475730E+01  0.00000000000E+00 0.  1.
</event>
<event>
 8    1  0.1229038E-006  0.9118800E+02  0.7816164E-02  0.1184000E+00
        -11   -1    0    0    0    0  0.00000000000E+00  0.00000000000E+00  0.45593999997E+02  0.45594000000E+02  0.51100000000E-03 0.  1.
         11   -1    0    0    0    0 -0.00000000000E+00 -0.00000000000E+00 -0.45593999997E+02  0.45594000000E+02  0.51100000000E-03 0. -1.
         23    2    1    2    0    0 -0.88817841970E-15  0.00000000000E+00  0.00000000000E+00  0.91188000000E+02  0.91188000000E+02 0.  0.
    9900012    2    3    3    0    0 -0.47983382924E+01 -0.46263254490E+01  0.36212599678E+02  0.54367091362E+02  0.40000016378E+02 0.  0.
         12    1    3    3    0    0  0.47983382924E+01  0.46263254490E+01 -0.36212599678E+02  0.36820908638E+02  0.00000000000E+00 0. -1.
         11    1    4    4    0    0 -0.16665258435E+02 -0.19507734540E+01  0.13746217138E+02  0.21690893057E+02  0.51100000000E-03 0. -1.
        -11    1    4    4    0    0  0.18140610229E+01 -0.70630444236E+00 -0.39168949771E+01  0.43739855833E+01  0.51100000000E-03 0.  1.
        -12    1    4    4    0    0  0.10052859119E+02 -0.19692475526E+01  0.26383277517E+02  0.28302212722E+02  0.00000000000E+00 0.  1.
</event>
<event>
 8    1  0.1229038E-006  0.9118800E+02  0.7816164E-02  0.1184000E+00
        -11   -1    0    0    0    0  0.00000000000E+00  0.00000000000E+00  0.45593999997E+02  0.45594000000E+02  0.51100000000E-03 0. -1.
         11   -1    0    0    0    0 -0.00000000000E+00 -0.00000000000E+00 -0.45593999997E+02  0.45594000000E+02  0.51100000000E-03 0.  1.
         23    2    1    2    0    0 -0.44408920985E-15  0.00000000000E+00  0.35527136788E-14  0.91188000000E+02  0.91188000000E+02 0.  0.
    9900012    2    3    3    0    0 -0.25312295073E+01 -0.19592042372E+02 -0.31072894460E+02  0.54367081798E+02  0.39999994575E+02 0.  0.
         12    1    3    3    0    0  0.25312295073E+01  0.19592042372E+02  0.31072894460E+02  0.36820918202E+02  0.00000000000E+00 0. -1.
         11    1    4    4    0    0 -0.61779263668E+01 -0.10874555877E+02  0.46661546969E+01  0.13348997701E+02  0.51100000000E-03 0. -1.
        -11    1    4    4    0    0  0.54625693302E+01 -0.16091421851E+01 -0.32505393293E+02  0.33000448416E+02  0.51100000000E-03 0.  1.
        -12    1    4    4    0    0 -0.18158724706E+01 -0.71083443105E+01 -0.32336558638E+01  0.80176356809E+01  0.00000000000E+00 0.  1.
</event>
<event>
 8    1  0.1229038E-006  0.9118800E+02  0.7816164E-02  0.1184000E+00
        -11   -1    0    0    0    0  0.00000000000E+00  0.00000000000E+00  0.45593999997E+02  0.45594000000E+02  0.51100000000E-03 0. -1.
         11   -1    0    0    0    0 -0.00000000000E+00 -0.00000000000E+00 -0.45593999997E+02  0.45594000000E+02  0.51100000000E-03 0.  1.
         23    2    1    2    0    0 -0.17763568394E-14  0.35527136788E-14  0.00000000000E+00  0.91188000000E+02  0.91188000000E+02 0.  0.
    9900012    2    3    3    0    0 -0.83980505664E+01  0.30258967721E+02 -0.19226212470E+02  0.54367087100E+02  0.40000006661E+02 0.  0.
         12    1    3    3    0    0  0.83980505664E+01 -0.30258967721E+02  0.19226212470E+02  0.36820912900E+02  0.00000000000E+00 0. -1.
         11    1    4    4    0    0  0.82120952622E+01  0.25235118864E+02 -0.96962129438E+01  0.28253606467E+02  0.51100000000E-03 0. -1.
        -11    1    4    4    0    0 -0.25132276335E+01  0.74578582163E+01 -0.87763422926E+01  0.11788135841E+02  0.51100000000E-03 0.  1.
         12    1    4    4    0    0 -0.14096918195E+02 -0.24340093592E+01 -0.75365723365E+00  0.14325344791E+02  0.00000000000E+00 0. -1.
</event>
<event>
 8    1  0.1229038E-006  0.9118800E+02  0.7816164E-02  0.1184000E+00
        -11   -1    0    0    0    0  0.00000000000E+00  0.00000000000E+00  0.45593999997E+02  0.45594000000E+02  0.51100000000E-03 0.  1.
         11   -1    0    0    0    0 -0.00000000000E+00 -0.00000000000E+00 -0.45593999997E+02  0.45594000000E+02  0.51100000000E-03 0. -1.
         23    2    1    2    0    0  0.00000000000E+00  0.35527136788E-14  0.17763568394E-14  0.91188000000E+02  0.91188000000E+02 0.  0.
    9900012    2    3    3    0    0 -0.17096636489E+02 -0.31654812035E+02 -0.78394775578E+01  0.54367088650E+02  0.40000010196E+02 0.  0.
        -12    1    3    3    0    0  0.17096636489E+02  0.31654812035E+02  0.78394775578E+01  0.36820911350E+02  0.00000000000E+00 0.  1.
         11    1    4    4    0    0 -0.69701749864E+01 -0.15748303850E+02 -0.17470407364E+02  0.24531766085E+02  0.51100000000E-03 0. -1.
        -11    1    4    4    0    0 -0.11331714338E+02 -0.35608485420E+00 -0.30662024331E+00  0.11341453279E+02  0.51100000000E-03 0.  1.
        -12    1    4    4    0    0  0.12052528348E+01 -0.15550423331E+02  0.99375500500E+01  0.18493869286E+02  0.00000000000E+00 0.  1.
</event>
<event>
 8    1  0.1229038E-006  0.9118800E+02  0.7816164E-02  0.1184000E+00
        -11   -1    0    0    0    0  0.00000000000E+00  0.00000000000E+00  0.45593999997E+02  0.45594000000E+02  0.51100000000E-03 0.  1.
         11   -1    0    0    0    0 -0.00000000000E+00 -0.00000000000E+00 -0.45593999997E+02  0.45594000000E+02  0.51100000000E-03 0. -1.
         23    2    1    2    0    0  0.00000000000E+00  0.00000000000E+00  0.00000000000E+00  0.91188000000E+02  0.91188000000E+02 0.  0.
    9900012    2    3    3    0    0 -0.81404751495E+01  0.25441525631E+02 -0.25342462619E+02  0.54367095968E+02  0.40000026879E+02 0.  0.
        -12    1    3    3    0    0  0.81404751495E+01 -0.25441525631E+02  0.25342462619E+02  0.36820904032E+02  0.00000000000E+00 0.  1.
         11    1    4    4    0    0 -0.93607377089E+01  0.35531506402E+02 -0.20795061642E+02  0.42220207799E+02  0.51100000000E-03 0. -1.
        -11    1    4    4    0    0 -0.16497138131E+01 -0.52693007321E+01 -0.13298366898E+01  0.56793971294E+01  0.51100000000E-03 0.  1.
         12    1    4    4    0    0  0.28699763725E+01 -0.48206800383E+01 -0.32175642876E+01  0.64674910402E+01  0.00000000000E+00 0. -1.
</event>
<event>
 8    1  0.1229038E-006  0.9118800E+02  0.7816164E-02  0.1184000E+00
        -11   -1    0    0    0    0  0.00000000000E+00  0.00000000000E+00  0.45593999997E+02  0.45594000000E+02  0.51100000000E-03 0.  1.
         11   -1    0    0    0    0 -0.00000000000E+00 -0.00000000000E+00 -0.45593999997E+02  0.45594000000E+02  0.51100000000E-03 0. -1.
         23    2    1    2    0    0  0.00000000000E+00 -0.35527136788E-14 -0.71054273576E-14  0.91188000000E+02  0.91188000000E+02 0.  0.
    9900012    2    3    3    0    0  0.56842303761E+01 -0.16748429294E+02 -0.32294908067E+02  0.54367062399E+02  0.39999950350E+02 0.  0.
        -12    1    3    3    0    0 -0.56842303761E+01  0.16748429294E+02  0.32294908067E+02  0.36820937601E+02  0.00000000000E+00 0.  1.
         11    1    4    4    0    0  0.59446495693E+01 -0.86656385031E+01 -0.28703373458E+02  0.30566579745E+02  0.51100000000E-03 0. -1.
        -11    1    4    4    0    0 -0.65422053464E+00  0.76193314205E+01 -0.25404504025E+01  0.80582941316E+01  0.51100000000E-03 0.  1.
        -12    1    4    4    0    0  0.39380134141E+00 -0.15702122212E+02 -0.10510842059E+01  0.15742188522E+02  0.00000000000E+00 0.  1.
</event>
<event>
 8    1  0.1229038E-006  0.9118800E+02  0.7816164E-02  0.1184000E+00
        -11   -1    0    0    0    0  0.00000000000E+00  0.00000000000E+00  0.45593999997E+02  0.45594000000E+02  0.51100000000E-03 0. -1.
         11   -1    0    0    0    0 -0.00000000000E+00 -0.00000000000E+00 -0.45593999997E+02  0.45594000000E+02  0.51100000000E-03 0.  1.
         23    2    1    2    0    0  0.00000000000E+00  0.00000000000E+00  0.17763568394E-14  0.91188000000E+02  0.91188000000E+02 0.  0.
    9900012    2    3    3    0    0 -0.32213456604E+02 -0.96346385152E+01 -0.15008225431E+02  0.54367083712E+02  0.39999998937E+02 0.  0.
         12    1    3    3    0    0  0.32213456604E+02  0.96346385152E+01  0.15008225431E+02  0.36820916288E+02  0.00000000000E+00 0. -1.
         11    1    4    4    0    0  0.49586220802E+01 -0.53216312633E+01  0.37508218571E+01  0.81839084246E+01  0.51100000000E-03 0. -1.
        -11    1    4    4    0    0 -0.19462268190E+02 -0.11812787990E+02 -0.12413572257E+02  0.25931035838E+02  0.51100000000E-03 0.  1.
         12    1    4    4    0    0 -0.17709810495E+02  0.74997807386E+01 -0.63454750317E+01  0.20252139449E+02  0.00000000000E+00 0. -1.
</event>
<event>
 8    1  0.1229038E-006  0.9118800E+02  0.7816164E-02  0.1184000E+00
        -11   -1    0    0    0    0  0.00000000000E+00  0.00000000000E+00  0.45593999997E+02  0.45594000000E+02  0.51100000000E-03 0. -1.
         11   -1    0    0    0    0 -0.00000000000E+00 -0.00000000000E+00 -0.45593999997E+02  0.45594000000E+02  0.51100000000E-03 0.  1.
         23    2    1    2    0    0  0.00000000000E+00  0.71054273576E-14  0.35527136788E-14  0.91188000000E+02  0.91188000000E+02 0.  0.
    9900012    2    3    3    0    0  0.78707576892E+01 -0.35202750948E+02 -0.73889830797E+01  0.54367087846E+02  0.40000008363E+02 0.  0.
        -12    1    3    3    0    0 -0.78707576892E+01  0.35202750948E+02  0.73889830797E+01  0.36820912154E+02  0.00000000000E+00 0.  1.
         11    1    4    4    0    0  0.37069817872E+01 -0.10443798796E+02  0.10137745412E+02  0.15019604841E+02  0.51100000000E-03 0. -1.
        -11    1    4    4    0    0 -0.87775815431E+01 -0.31755986890E+01 -0.13516544477E+01  0.94317196092E+01  0.51100000000E-03 0.  1.
         12    1    4    4    0    0  0.12941357445E+02 -0.21583353462E+02 -0.16175074044E+02  0.29915763396E+02  0.00000000000E+00 0. -1.
</event>
<event>
 8    1  0.1229038E-006  0.9118800E+02  0.7816164E-02  0.1184000E+00
        -11   -1    0    0    0    0  0.00000000000E+00  0.00000000000E+00  0.45593999997E+02  0.45594000000E+02  0.51100000000E-03 0.  1.
         11   -1    0    0    0    0 -0.00000000000E+00 -0.00000000000E+00 -0.45593999997E+02  0.45594000000E+02  0.51100000000E-03 0. -1.
         23    2    1    2    0    0  0.00000000000E+00  0.00000000000E+00 -0.15543122345E-14  0.91188000000E+02  0.91188000000E+02 0.  0.
    9900012    2    3    3    0    0  0.31653634289E+02  0.18781838544E+02  0.10356608955E+01  0.54367046505E+02  0.39999914117E+02 0.  0.
        -12    1    3    3    0    0 -0.31653634289E+02 -0.18781838544E+02 -0.10356608955E+01  0.36820953495E+02  0.00000000000E+00 0.  1.
         11    1    4    4    0    0  0.86367311091E+01  0.15788066618E+01 -0.11061790564E+02  0.14122640174E+02  0.51100000000E-03 0. -1.
        -11    1    4    4    0    0 -0.37834010349E+01  0.89146213408E+01  0.64311684089E+01  0.11625167715E+02  0.51100000000E-03 0.  1.
         12    1    4    4    0    0  0.26800304215E+02  0.82884105412E+01  0.56662830510E+01  0.28619238616E+02  0.00000000000E+00 0. -1.
</event>
<event>
 8    1  0.1229038E-006  0.9118800E+02  0.7816164E-02  0.1184000E+00
        -11   -1    0    0    0    0  0.00000000000E+00  0.00000000000E+00  0.45593999997E+02  0.45594000000E+02  0.51100000000E-03 0.  1.
         11   -1    0    0    0    0 -0.00000000000E+00 -0.00000000000E+00 -0.45593999997E+02  0.45594000000E+02  0.51100000000E-03 0. -1.
         23    2    1    2    0    0  0.35527136788E-14  0.00000000000E+00  0.00000000000E+00  0.91188000000E+02  0.91188000000E+02 0.  0.
    9900012    2    3    3    0    0 -0.21215197999E+02 -0.94576806665E+01  0.28570052911E+02  0.54367078324E+02  0.39999986654E+02 0.  0.
         12    1    3    3    0    0  0.21215197999E+02  0.94576806665E+01 -0.28570052911E+02  0.36820921676E+02  0.00000000000E+00 0. -1.
         11    1    4    4    0    0 -0.47080496822E+01  0.63799577354E+01  0.22397814586E+02  0.23759875652E+02  0.51100000000E-03 0. -1.
        -11    1    4    4    0    0 -0.66730669740E+01 -0.76606944116E+01 -0.69297106933E+01  0.12297843399E+02  0.51100000000E-03 0.  1.
        -12    1    4    4    0    0 -0.98340813432E+01 -0.81769439904E+01  0.13101949019E+02  0.18309359273E+02  0.00000000000E+00 0.  1.
</event>
<event>
 8    1  0.1229038E-006  0.9118800E+02  0.7816164E-02  0.1184000E+00
        -11   -1    0    0    0    0  0.00000000000E+00  0.00000000000E+00  0.45593999997E+02  0.45594000000E+02  0.51100000000E-03 0. -1.
         11   -1    0    0    0    0 -0.00000000000E+00 -0.00000000000E+00 -0.45593999997E+02  0.45594000000E+02  0.51100000000E-03 0.  1.
         23    2    1    2    0    0  0.00000000000E+00  0.35527136788E-14  0.00000000000E+00  0.91188000000E+02  0.91188000000E+02 0.  0.
    9900012    2    3    3    0    0 -0.26698741352E+02 -0.16981012704E+02  0.18830961829E+02  0.54367045292E+02  0.39999911352E+02 0.  0.
        -12    1    3    3    0    0  0.26698741352E+02  0.16981012704E+02 -0.18830961829E+02  0.36820954708E+02  0.00000000000E+00 0.  1.
         11    1    4    4    0    0 -0.22712415449E+02 -0.55452650218E+01  0.10658069718E+02  0.25694322915E+02  0.51100000000E-03 0. -1.
        -11    1    4    4    0    0 -0.36185745148E+01  0.66538001121E+01 -0.21087276533E+01  0.78621797249E+01  0.51100000000E-03 0.  1.
        -12    1    4    4    0    0 -0.36775138768E+00 -0.18089547794E+02  0.10281619765E+02  0.20810542652E+02  0.00000000000E+00 0.  1.
</event>
<event>
 8    1  0.1229038E-006  0.9118800E+02  0.7816164E-02  0.1184000E+00
        -11   -1    0    0    0    0  0.00000000000E+00  0.00000000000E+00  0.45593999997E+02  0.45594000000E+02  0.51100000000E-03 0.  1.
         11   -1    0    0    0    0 -0.00000000000E+00 -0.00000000000E+00 -0.45593999997E+02  0.45594000000E+02  0.51100000000E-03 0. -1.
         23    2    1    2    0    0  0.35527136788E-14  0.00000000000E+00 -0.35527136788E-14  0.91188000000E+02  0.91188000000E+02 0.  0.
    9900012    2    3    3    0    0  0.30061571974E+02 -0.15252800207E+02 -0.14813309783E+02  0.54367079718E+02  0.39999989833E+02 0.  0.
        -12    1    3    3    0    0 -0.30061571974E+02  0.15252800207E+02  0.14813309783E+02  0.36820920282E+02  0.00000000000E+00 0.  1.
         11    1    4    4    0    0  0.11611159960E+02 -0.16494535078E+02 -0.16366136582E+02  0.25975741567E+02  0.51100000000E-03 0. -1.
        -11    1    4    4    0    0 -0.40155410574E+01  0.29405375616E+01  0.30060373264E+01  0.58144296198E+01  0.51100000000E-03 0.  1.
         12    1    4    4    0    0  0.22465953071E+02 -0.16988026898E+01 -0.14532105276E+01  0.22576908531E+02  0.00000000000E+00 0. -1.
</event>
<event>
 8    1  0.1229038E-006  0.9118800E+02  0.7816164E-02  0.1184000E+00
        -11   -1    0    0    0    0  0.00000000000E+00  0.00000000000E+00  0.45593999997E+02  0.45594000000E+02  0.51100000000E-03 0.  1.
         11   -1    0    0    0    0 -0.00000000000E+00 -0.00000000000E+00 -0.45593999997E+02  0.45594000000E+02  0.51100000000E-03 0. -1.
         23    2    1    2    0    0  0.00000000000E+00  0.00000000000E+00  0.88817841970E-15  0.91188000000E+02  0.91188000000E+02 0.  0.
    9900012    2    3    3    0    0 -0.16710022704E+02 -0.32318975823E+02 -0.56607169091E+01  0.54367017219E+02  0.39999847353E+02 0.  0.
        -12    1    3    3    0    0  0.16710022704E+02  0.32318975823E+02  0.56607169091E+01  0.36820982781E+02  0.00000000000E+00 0.  1.
         11    1    4    4    0    0 -0.19792960773E+02 -0.10555128266E+02 -0.84002971802E+01  0.23952808225E+02  0.51100000000E-03 0. -1.
        -11    1    4    4    0    0 -0.87205147948E+01 -0.87670374348E+01 -0.11911361091E+01  0.12422847063E+02  0.51100000000E-03 0.  1.
         12    1    4    4    0    0  0.11803452864E+02 -0.12996810122E+02  0.39307163801E+01  0.17991361931E+02  0.00000000000E+00 0. -1.
</event>
<event>
 8    1  0.1229038E-006  0.9118800E+02  0.7816164E-02  0.1184000E+00
        -11   -1    0    0    0    0  0.00000000000E+00  0.00000000000E+00  0.45593999997E+02  0.45594000000E+02  0.51100000000E-03 0.  1.
         11   -1    0    0    0    0 -0.00000000000E+00 -0.00000000000E+00 -0.45593999997E+02  0.45594000000E+02  0.51100000000E-03 0. -1.
         23    2    1    2    0    0  0.35527136788E-14  0.00000000000E+00 -0.17763568394E-14  0.91188000000E+02  0.91188000000E+02 0.  0.
    9900012    2    3    3    0    0 -0.31280560626E+02  0.17913698801E+02  0.75104743258E+01  0.54367064346E+02  0.39999954790E+02 0.  0.
        -12    1    3    3    0    0  0.31280560626E+02 -0.17913698801E+02 -0.75104743258E+01  0.36820935654E+02  0.00000000000E+00 0.  1.
         11    1    4    4    0    0 -0.12764536471E+02  0.66238041197E+01 -0.85747878843E+01  0.16743212352E+02  0.51100000000E-03 0. -1.
        -11    1    4    4    0    0  0.67647839950E+01  0.30247563363E+01  0.32613970666E+01  0.80961820928E+01  0.51100000000E-03 0.  1.
         12    1    4    4    0    0 -0.25280808150E+02  0.82651383448E+01  0.12823865144E+02  0.29527669902E+02  0.00000000000E+00 0. -1.
</event>
<event>
 8    1  0.1229038E-006  0.9118800E+02  0.7816164E-02  0.1184000E+00
        -11   -1    0    0    0    0  0.00000000000E+00  0.00000000000E+00  0.45593999997E+02  0.45594000000E+02  0.51100000000E-03 0. -1.
         11   -1    0    0    0    0 -0.00000000000E+00 -0.00000000000E+00 -0.45593999997E+02  0.45594000000E+02  0.51100000000E-03 0.  1.
         23    2    1    2    0    0  0.00000000000E+00  0.17763568394E-14  0.71054273576E-14  0.91188000000E+02  0.91188000000E+02 0.  0.
    9900012    2    3    3    0    0 -0.12632347122E+02  0.13320669201E+02 -0.31918078983E+02  0.54367079482E+02  0.39999989296E+02 0.  0.
         12    1    3    3    0    0  0.12632347122E+02 -0.13320669201E+02  0.31918078983E+02  0.36820920518E+02  0.00000000000E+00 0. -1.
         11    1    4    4    0    0 -0.22721687892E+01  0.57099181430E+01  0.32263560235E+01  0.69408421433E+01  0.51100000000E-03 0. -1.
        -11    1    4    4    0    0 -0.53820690116E+01  0.82073106312E+01  0.19399201850E+01  0.10004494251E+02  0.51100000000E-03 0.  1.
        -12    1    4    4    0    0 -0.49781093215E+01 -0.59655957307E+00 -0.37084355192E+02  0.37421743088E+02  0.00000000000E+00 0.  1.
</event>
<event>
 8    1  0.1229038E-006  0.9118800E+02  0.7816164E-02  0.1184000E+00
        -11   -1    0    0    0    0  0.00000000000E+00  0.00000000000E+00  0.45593999997E+02  0.45594000000E+02  0.51100000000E-03 0. -1.
         11   -1    0    0    0    0 -0.00000000000E+00 -0.00000000000E+00 -0.45593999997E+02  0.45594000000E+02  0.51100000000E-03 0.  1.
         23    2    1    2    0    0 -0.35527136788E-14 -0.35527136788E-14  0.00000000000E+00  0.91188000000E+02  0.91188000000E+02 0.  0.
    9900012    2    3    3    0    0  0.20869183562E+02  0.26806197829E+02  0.14201652626E+02  0.54367054848E+02  0.39999933136E+02 0.  0.
        -12    1    3    3    0    0 -0.20869183562E+02 -0.26806197829E+02 -0.14201652626E+02  0.36820945152E+02  0.00000000000E+00 0.  1.
         11    1    4    4    0    0  0.22801986751E+02  0.17655461028E+02  0.28920107272E+01  0.28982919628E+02  0.51100000000E-03 0. -1.
        -11    1    4    4    0    0  0.29183555986E+00 -0.64817084354E+01  0.56719206205E+01  0.86179113491E+01  0.51100000000E-03 0.  1.
        -12    1    4    4    0    0 -0.22246387486E+01  0.15632445237E+02  0.56377212784E+01  0.16766223870E+02  0.00000000000E+00 0.  1.
</event>
<event>
 8    1  0.1229038E-006  0.9118800E+02  0.7816164E-02  0.1184000E+00
        -11   -1    0    0    0    0  0.00000000000E+00  0.00000000000E+00  0.45593999997E+02  0.45594000000E+02  0.51100000000E-03 0. -1.
         11   -1    0    0    0    0 -0.00000000000E+00 -0.00000000000E+00 -0.45593999997E+02  0.45594000000E+02  0.51100000000E-03 0.  1.
         23    2    1    2    0    0 -0.35527136788E-14 -0.71054273576E-14  0.88817841970E-15  0.91188000000E+02  0.91188000000E+02 0.  0.
    9900012    2    3    3    0    0  0.23829462242E+02  0.27707544122E+02  0.44993912177E+01  0.54366867571E+02  0.39999506198E+02 0.  0.
        -12    1    3    3    0    0 -0.23829462242E+02 -0.27707544122E+02 -0.44993912177E+01  0.36821132429E+02  0.00000000000E+00 0.  1.
         11    1    4    4    0    0 -0.92961558175E+01  0.10623644146E+02 -0.11161556033E+01  0.14160724965E+02  0.51100000000E-03 0. -1.
        -11    1    4    4    0    0  0.86948635787E+01  0.25722305490E+00 -0.31850856889E+01  0.92634544020E+01  0.51100000000E-03 0.  1.
        -12    1    4    4    0    0  0.24430754481E+02  0.16826676921E+02  0.88006325099E+01  0.30942688204E+02  0.00000000000E+00 0.  1.
</event>
<event>
 8    1  0.1229038E-006  0.9118800E+02  0.7816164E-02  0.1184000E+00
        -11   -1    0    0    0    0  0.00000000000E+00  0.00000000000E+00  0.45593999997E+02  0.45594000000E+02  0.51100000000E-03 0.  1.
         11   -1    0    0    0    0 -0.00000000000E+00 -0.00000000000E+00 -0.45593999997E+02  0.45594000000E+02  0.51100000000E-03 0. -1.
         23    2    1    2    0    0  0.00000000000E+00  0.00000000000E+00  0.00000000000E+00  0.91188000000E+02  0.91188000000E+02 0.  0.
    9900012    2    3    3    0    0  0.27080856615E+02 -0.81403508622E+01 -0.23582649994E+02  0.54367088986E+02  0.40000010962E+02 0.  0.
        -12    1    3    3    0    0 -0.27080856615E+02  0.81403508622E+01  0.23582649994E+02  0.36820911014E+02  0.00000000000E+00 0.  1.
         11    1    4    4    0    0  0.35337530763E+01 -0.85356074320E+01  0.81027692911E+00  0.92736483651E+01  0.51100000000E-03 0. -1.
        -11    1    4    4    0    0 -0.43808849329E+01  0.70307093659E+01 -0.15944784684E+01  0.84359580861E+01  0.51100000000E-03 0.  1.
         12    1    4    4    0    0  0.27927988472E+02 -0.66354527961E+01 -0.22798448454E+02  0.36657482535E+02  0.00000000000E+00 0. -1.
</event>
<event>
 8    1  0.1229038E-006  0.9118800E+02  0.7816164E-02  0.1184000E+00
        -11   -1    0    0    0    0  0.00000000000E+00  0.00000000000E+00  0.45593999997E+02  0.45594000000E+02  0.51100000000E-03 0.  1.
         11   -1    0    0    0    0 -0.00000000000E+00 -0.00000000000E+00 -0.45593999997E+02  0.45594000000E+02  0.51100000000E-03 0. -1.
         23    2    1    2    0    0  0.00000000000E+00  0.00000000000E+00 -0.17763568394E-14  0.91188000000E+02  0.91188000000E+02 0.  0.
    9900012    2    3    3    0    0  0.35000796797E+02 -0.98156306157E+01 -0.58632124403E+01  0.54367086908E+02  0.40000006224E+02 0.  0.
        -12    1    3    3    0    0 -0.35000796797E+02  0.98156306157E+01  0.58632124403E+01  0.36820913092E+02  0.00000000000E+00 0.  1.
         11    1    4    4    0    0  0.14577924019E+02  0.54051331094E+01  0.13560569434E+02  0.20630568976E+02  0.51100000000E-03 0. -1.
        -11    1    4    4    0    0  0.14513535428E+01 -0.52015457864E+01 -0.10761557248E+01  0.55064159923E+01  0.51100000000E-03 0.  1.
         12    1    4    4    0    0  0.18971519235E+02 -0.10019217939E+02 -0.18347626150E+02  0.28230101939E+02  0.00000000000E+00 0. -1.
</event>
<event>
 8    1  0.1229038E-006  0.9118800E+02  0.7816164E-02  0.1184000E+00
        -11   -1    0    0    0    0  0.00000000000E+00  0.00000000000E+00  0.45593999997E+02  0.45594000000E+02  0.51100000000E-03 0. -1.
         11   -1    0    0    0    0 -0.00000000000E+00 -0.00000000000E+00 -0.45593999997E+02  0.45594000000E+02  0.51100000000E-03 0.  1.
         23    2    1    2    0    0  0.00000000000E+00 -0.17763568394E-14  0.00000000000E+00  0.91188000000E+02  0.91188000000E+02 0.  0.
    9900012    2    3    3    0    0 -0.31941879693E+02 -0.14432463875E+02 -0.11278299026E+02  0.54367085824E+02  0.40000003753E+02 0.  0.
         12    1    3    3    0    0  0.31941879693E+02  0.14432463875E+02  0.11278299026E+02  0.36820914176E+02  0.00000000000E+00 0. -1.
         11    1    4    4    0    0  0.10323370145E+01  0.65586551716E+00  0.38725916954E+01  0.40611385089E+01  0.51100000000E-03 0. -1.
        -11    1    4    4    0    0 -0.11993910701E+02 -0.22034279691E+02 -0.12556304722E+02  0.28053950950E+02  0.51100000000E-03 0.  1.
        -12    1    4    4    0    0 -0.20980306007E+02  0.69459502987E+01 -0.25945859991E+01  0.22251996365E+02  0.00000000000E+00 0.  1.
</event>
<event>
 8    1  0.1229038E-006  0.9118800E+02  0.7816164E-02  0.1184000E+00
        -11   -1    0    0    0    0  0.00000000000E+00  0.00000000000E+00  0.45593999997E+02  0.45594000000E+02  0.51100000000E-03 0.  1.
         11   -1    0    0    0    0 -0.00000000000E+00 -0.00000000000E+00 -0.45593999997E+02  0.45594000000E+02  0.51100000000E-03 0. -1.
         23    2    1    2    0    0 -0.17763568394E-14 -0.17763568394E-14  0.00000000000E+00  0.91188000000E+02  0.91188000000E+02 0.  0.
    9900012    2    3    3    0    0 -0.14287859392E+02  0.97295054703E+01  0.32511122508E+02  0.54367091681E+02  0.40000017105E+02 0.  0.
         12    1    3    3    0    0  0.14287859392E+02 -0.97295054703E+01 -0.32511122508E+02  0.36820908319E+02  0.00000000000E+00 0. -1.
         11    1    4    4    0    0  0.13292110778E+01  0.29628942501E+01 -0.29451252700E+00  0.32607180676E+01  0.51100000000E-03 0. -1.
        -11    1    4    4    0    0 -0.19731313193E+02 -0.25757125054E+01  0.36701669824E+01  0.20234355467E+02  0.51100000000E-03 0.  1.
        -12    1    4    4    0    0  0.41142427234E+01  0.93423237255E+01  0.29135468053E+02  0.30872018146E+02  0.00000000000E+00 0.  1.
</event>
<event>
 8    1  0.1229038E-006  0.9118800E+02  0.7816164E-02  0.1184000E+00
        -11   -1    0    0    0    0  0.00000000000E+00  0.00000000000E+00  0.45593999997E+02  0.45594000000E+02  0.51100000000E-03 0.  1.
         11   -1    0    0    0    0 -0.00000000000E+00 -0.00000000000E+00 -0.45593999997E+02  0.45594000000E+02  0.51100000000E-03 0. -1.
         23    2    1    2    0    0  0.35527136788E-14  0.00000000000E+00  0.88817841970E-15  0.91188000000E+02  0.91188000000E+02 0.  0.
    9900012    2    3    3    0    0 -0.25724182271E+02  0.25264351970E+02  0.74670364534E+01  0.54367113707E+02  0.40000067319E+02 0.  0.
         12    1    3    3    0    0  0.25724182271E+02 -0.25264351970E+02 -0.74670364534E+01  0.36820886293E+02  0.00000000000E+00 0. -1.
         11    1    4    4    0    0  0.84282089097E+01  0.38771314232E+01 -0.19257256262E+01  0.94749814220E+01  0.51100000000E-03 0. -1.
        -11    1    4    4    0    0 -0.17736468250E+02  0.47923915376E+01  0.11137209091E+02  0.21484570027E+02  0.51100000000E-03 0.  1.
         12    1    4    4    0    0 -0.16415922931E+02  0.16594829009E+02 -0.17444470116E+01  0.23407562258E+02  0.00000000000E+00 0. -1.
</event>
<event>
 8    1  0.1229038E-006  0.9118800E+02  0.7816164E-02  0.1184000E+00
        -11   -1    0    0    0    0  0.00000000000E+00  0.00000000000E+00  0.45593999997E+02  0.45594000000E+02  0.51100000000E-03 0.  1.
         11   -1    0    0    0    0 -0.00000000000E+00 -0.00000000000E+00 -0.45593999997E+02  0.45594000000E+02  0.51100000000E-03 0. -1.
         23    2    1    2    0    0  0.17763568394E-14  0.00000000000E+00  0.35527136788E-14  0.91188000000E+02  0.91188000000E+02 0.  0.
    9900012    2    3    3    0    0  0.86169439565E+01  0.22050676882E+02  0.28200984510E+02  0.54367087445E+02  0.40000007448E+02 0.  0.
         12    1    3    3    0    0 -0.86169439565E+01 -0.22050676882E+02 -0.28200984510E+02  0.36820912555E+02  0.00000000000E+00 0. -1.
         11    1    4    4    0    0  0.12899249815E+02  0.12061542408E+02  0.22127886500E+02  0.28311036934E+02  0.51100000000E-03 0. -1.
        -11    1    4    4    0    0 -0.21405198552E+01  0.14898634003E+02  0.11106563836E+02  0.18705798056E+02  0.51100000000E-03 0.  1.
         12    1    4    4    0    0 -0.21417860031E+01 -0.49094995298E+01 -0.50334658266E+01  0.73502524544E+01  0.00000000000E+00 0. -1.
</event>
<event>
 8    1  0.1229038E-006  0.9118800E+02  0.7816164E-02  0.1184000E+00
        -11   -1    0    0    0    0  0.00000000000E+00  0.00000000000E+00  0.45593999997E+02  0.45594000000E+02  0.51100000000E-03 0.  1.
         11   -1    0    0    0    0 -0.00000000000E+00 -0.00000000000E+00 -0.45593999997E+02  0.45594000000E+02  0.51100000000E-03 0. -1.
         23    2    1    2    0    0  0.00000000000E+00  0.17763568394E-14  0.00000000000E+00  0.91188000000E+02  0.91188000000E+02 0.  0.
    9900012    2    3    3    0    0 -0.93192640231E+01 -0.15688672579E+02  0.31981144963E+02  0.54367125997E+02  0.40000095334E+02 0.  0.
         12    1    3    3    0    0  0.93192640231E+01  0.15688672579E+02 -0.31981144963E+02  0.36820874003E+02  0.00000000000E+00 0. -1.
         11    1    4    4    0    0  0.43974957222E+01 -0.71847323954E+01  0.14316957794E+02  0.16611250072E+02  0.51100000000E-03 0. -1.
        -11    1    4    4    0    0 -0.55823315393E+01  0.10483725831E+02  0.10614933697E+02  0.15929461710E+02  0.51100000000E-03 0.  1.
        -12    1    4    4    0    0 -0.81344282060E+01 -0.18987666015E+02  0.70492534721E+01  0.21826414214E+02  0.00000000000E+00 0.  1.
</event>
<event>
 8    1  0.1229038E-006  0.9118800E+02  0.7816164E-02  0.1184000E+00
        -11   -1    0    0    0    0  0.00000000000E+00  0.00000000000E+00  0.45593999997E+02  0.45594000000E+02  0.51100000000E-03 0.  1.
         11   -1    0    0    0    0 -0.00000000000E+00 -0.00000000000E+00 -0.45593999997E+02  0.45594000000E+02  0.51100000000E-03 0. -1.
         23    2    1    2    0    0  0.17763568394E-14  0.00000000000E+00  0.00000000000E+00  0.91188000000E+02  0.91188000000E+02 0.  0.
    9900012    2    3    3    0    0  0.13809347559E+02 -0.29767323872E+02 -0.16702890573E+02  0.54367106420E+02  0.40000050706E+02 0.  0.
        -12    1    3    3    0    0 -0.13809347559E+02  0.29767323872E+02  0.16702890573E+02  0.36820893580E+02  0.00000000000E+00 0.  1.
         11    1    4    4    0    0  0.12786378276E+02 -0.89112953170E+01 -0.12339005748E+02  0.19878473703E+02  0.51100000000E-03 0. -1.
        -11    1    4    4    0    0  0.10968876646E+02 -0.15876509594E+02 -0.10307407131E+02  0.21877441665E+02  0.51100000000E-03 0.  1.
        -12    1    4    4    0    0 -0.99459073632E+01 -0.49795189607E+01  0.59435223060E+01  0.12611191052E+02  0.00000000000E+00 0.  1.
</event>
<event>
 8    1  0.1229038E-006  0.9118800E+02  0.7816164E-02  0.1184000E+00
        -11   -1    0    0    0    0  0.00000000000E+00  0.00000000000E+00  0.45593999997E+02  0.45594000000E+02  0.51100000000E-03 0. -1.
         11   -1    0    0    0    0 -0.00000000000E+00 -0.00000000000E+00 -0.45593999997E+02  0.45594000000E+02  0.51100000000E-03 0.  1.
         23    2    1    2    0    0  0.35527136788E-14  0.00000000000E+00  0.71054273576E-14  0.91188000000E+02  0.91188000000E+02 0.  0.
    9900012    2    3    3    0    0 -0.83290618281E+01 -0.39614389838E+01 -0.35647081564E+02  0.54367072611E+02  0.39999973632E+02 0.  0.
         12    1    3    3    0    0  0.83290618281E+01  0.39614389838E+01  0.35647081564E+02  0.36820927389E+02  0.00000000000E+00 0. -1.
         11    1    4    4    0    0 -0.20261603411E+02 -0.28922949269E+01 -0.12817093046E+02  0.24149033461E+02  0.51100000000E-03 0. -1.
        -11    1    4    4    0    0  0.42456014413E-01 -0.26077328893E+01  0.15611197357E+01  0.30396000436E+01  0.51100000000E-03 0.  1.
        -12    1    4    4    0    0  0.11890085568E+02  0.15385888324E+01 -0.24391108254E+02  0.27178439106E+02  0.00000000000E+00 0.  1.
</event>
<event>
 8    1  0.1229038E-006  0.9118800E+02  0.7816164E-02  0.1184000E+00
        -11   -1    0    0    0    0  0.00000000000E+00  0.00000000000E+00  0.45593999997E+02  0.45594000000E+02  0.51100000000E-03 0. -1.
         11   -1    0    0    0    0 -0.00000000000E+00 -0.00000000000E+00 -0.45593999997E+02  0.45594000000E+02  0.51100000000E-03 0.  1.
         23    2    1    2    0    0  0.71054273576E-14  0.00000000000E+00 -0.11102230246E-14  0.91188000000E+02  0.91188000000E+02 0.  0.
    9900012    2    3    3    0    0  0.35748558592E+02 -0.88026642522E+01  0.57349398924E+00  0.54367146741E+02  0.40000142626E+02 0.  0.
         12    1    3    3    0    0 -0.35748558592E+02  0.88026642522E+01 -0.57349398924E+00  0.36820853259E+02  0.00000000000E+00 0. -1.
         11    1    4    4    0    0  0.29432433114E+02 -0.17884872904E+02  0.83308009988E+01  0.35433586375E+02  0.51100000000E-03 0. -1.
        -11    1    4    4    0    0  0.53267725665E+01 -0.22854518202E+01 -0.33954623898E+01  0.67176603888E+01  0.51100000000E-03 0.  1.
        -12    1    4    4    0    0  0.98935291110E+00  0.11367660472E+02 -0.43618446198E+01  0.12215899978E+02  0.00000000000E+00 0.  1.
</event>
<event>
 8    1  0.1229038E-006  0.9118800E+02  0.7816164E-02  0.1184000E+00
        -11   -1    0    0    0    0  0.00000000000E+00  0.00000000000E+00  0.45593999997E+02  0.45594000000E+02  0.51100000000E-03 0.  1.
         11   -1    0    0    0    0 -0.00000000000E+00 -0.00000000000E+00 -0.45593999997E+02  0.45594000000E+02  0.51100000000E-03 0. -1.
         23    2    1    2    0    0  0.00000000000E+00  0.00000000000E+00  0.17763568394E-14  0.91188000000E+02  0.91188000000E+02 0.  0.
    9900012    2    3    3    0    0  0.23205265092E+02 -0.26758328314E+02  0.10063948215E+02  0.54367142924E+02  0.40000133924E+02 0.  0.
        -12    1    3    3    0    0 -0.23205265092E+02  0.26758328314E+02 -0.10063948215E+02  0.36820857076E+02  0.00000000000E+00 0.  1.
         11    1    4    4    0    0  0.12921244972E+02 -0.11972580883E+02 -0.10673531365E+02  0.20596736068E+02  0.51100000000E-03 0. -1.
        -11    1    4    4    0    0  0.88328987436E+01  0.25324611715E+01  0.59059677282E+01  0.10923090903E+02  0.51100000000E-03 0.  1.
        -12    1    4    4    0    0  0.14511213764E+01 -0.17318208603E+02  0.14831511851E+02  0.22847315953E+02  0.00000000000E+00 0.  1.
</event>
<event>
 8    1  0.1229038E-006  0.9118800E+02  0.7816164E-02  0.1184000E+00
        -11   -1    0    0    0    0  0.00000000000E+00  0.00000000000E+00  0.45593999997E+02  0.45594000000E+02  0.51100000000E-03 0.  1.
         11   -1    0    0    0    0 -0.00000000000E+00 -0.00000000000E+00 -0.45593999997E+02  0.45594000000E+02  0.51100000000E-03 0. -1.
         23    2    1    2    0    0  0.44408920985E-15 -0.35527136788E-14  0.35527136788E-14  0.91188000000E+02  0.91188000000E+02 0.  0.
    9900012    2    3    3    0    0 -0.25765527196E+01  0.26373949431E+02  0.25564777803E+02  0.54367058993E+02  0.39999942587E+02 0.  0.
         12    1    3    3    0    0  0.25765527196E+01 -0.26373949431E+02 -0.25564777803E+02  0.36820941007E+02  0.00000000000E+00 0. -1.
         11    1    4    4    0    0  0.85285956514E+01 -0.46223649926E+01 -0.19172200880E+01  0.98883231661E+01  0.51100000000E-03 0. -1.
        -11    1    4    4    0    0  0.23993613636E+01  0.47963125338E+01  0.28934700048E+01  0.60937441532E+01  0.51100000000E-03 0.  1.
        -12    1    4    4    0    0 -0.13504509735E+02  0.26200001890E+02  0.24588527886E+02  0.38384991674E+02  0.00000000000E+00 0.  1.
</event>
<event>
 8    1  0.1229038E-006  0.9118800E+02  0.7816164E-02  0.1184000E+00
        -11   -1    0    0    0    0  0.00000000000E+00  0.00000000000E+00  0.45593999997E+02  0.45594000000E+02  0.51100000000E-03 0.  1.
         11   -1    0    0    0    0 -0.00000000000E+00 -0.00000000000E+00 -0.45593999997E+02  0.45594000000E+02  0.51100000000E-03 0. -1.
         23    2    1    2    0    0  0.44408920985E-15  0.00000000000E+00  0.00000000000E+00  0.91188000000E+02  0.91188000000E+02 0.  0.
    9900012    2    3    3    0    0 -0.20673843525E+01 -0.34485585234E+02 -0.12737857764E+02  0.54367045539E+02  0.39999911915E+02 0.  0.
         12    1    3    3    0    0  0.20673843525E+01  0.34485585234E+02  0.12737857764E+02  0.36820954461E+02  0.00000000000E+00 0. -1.
         11    1    4    4    0    0 -0.93759897923E+01  0.20381429169E+01 -0.63425975318E+01  0.11501815285E+02  0.51100000000E-03 0. -1.
        -11    1    4    4    0    0  0.11875081840E+02 -0.31554314244E+02 -0.10062312707E+02  0.35184406396E+02  0.51100000000E-03 0.  1.
        -12    1    4    4    0    0 -0.45664764007E+01 -0.49694139066E+01  0.36670524742E+01  0.76808238583E+01  0.00000000000E+00 0.  1.
</event>
<event>
 8    1  0.1229038E-006  0.9118800E+02  0.7816164E-02  0.1184000E+00
        -11   -1    0    0    0    0  0.00000000000E+00  0.00000000000E+00  0.45593999997E+02  0.45594000000E+02  0.51100000000E-03 0. -1.
         11   -1    0    0    0    0 -0.00000000000E+00 -0.00000000000E+00 -0.45593999997E+02  0.45594000000E+02  0.51100000000E-03 0.  1.
         23    2    1    2    0    0  0.00000000000E+00  0.44408920985E-15  0.00000000000E+00  0.91188000000E+02  0.91188000000E+02 0.  0.
    9900012    2    3    3    0    0  0.17947524029E+02 -0.23018889612E+00  0.32149834532E+02  0.54367102860E+02  0.40000042591E+02 0.  0.
        -12    1    3    3    0    0 -0.17947524029E+02  0.23018889612E+00 -0.32149834532E+02  0.36820897140E+02  0.00000000000E+00 0.  1.
         11    1    4    4    0    0  0.10450972257E+02 -0.27004030020E+01  0.44033154850E+01  0.11657795032E+02  0.51100000000E-03 0. -1.
        -11    1    4    4    0    0  0.77303351342E+01 -0.55364029736E+01 -0.37417944694E+01  0.10218163499E+02  0.51100000000E-03 0.  1.
         12    1    4    4    0    0 -0.23378336223E+00  0.80066170794E+01  0.31488313517E+02  0.32491144329E+02  0.00000000000E+00 0. -1.
</event>
<event>
 8    1  0.1229038E-006  0.9118800E+02  0.7816164E-02  0.1184000E+00
        -11   -1    0    0    0    0  0.00000000000E+00  0.00000000000E+00  0.45593999997E+02  0.45594000000E+02  0.51100000000E-03 0. -1.
         11   -1    0    0    0    0 -0.00000000000E+00 -0.00000000000E+00 -0.45593999997E+02  0.45594000000E+02  0.51100000000E-03 0.  1.
         23    2    1    2    0    0  0.71054273576E-14 -0.17763568394E-14 -0.26645352591E-14  0.91188000000E+02  0.91188000000E+02 0.  0.
    9900012    2    3    3    0    0  0.34496848624E+02 -0.11065586093E+02 -0.65805855329E+01  0.54367029528E+02  0.39999875415E+02 0.  0.
         12    1    3    3    0    0 -0.34496848624E+02  0.11065586093E+02  0.65805855329E+01  0.36820970472E+02  0.00000000000E+00 0. -1.
         11    1    4    4    0    0  0.14467318646E+02 -0.42700745117E+01  0.10280446982E+02  0.18254436051E+02  0.51100000000E-03 0. -1.
        -11    1    4    4    0    0  0.19579936590E+02  0.47789162481E+01 -0.87511354576E+01  0.21972581310E+02  0.51100000000E-03 0.  1.
         12    1    4    4    0    0  0.44959338810E+00 -0.11574427829E+02 -0.81098970578E+01  0.14140012167E+02  0.00000000000E+00 0. -1.
</event>
<event>
 8    1  0.1229038E-006  0.9118800E+02  0.7816164E-02  0.1184000E+00
        -11   -1    0    0    0    0  0.00000000000E+00  0.00000000000E+00  0.45593999997E+02  0.45594000000E+02  0.51100000000E-03 0. -1.
         11   -1    0    0    0    0 -0.00000000000E+00 -0.00000000000E+00 -0.45593999997E+02  0.45594000000E+02  0.51100000000E-03 0.  1.
         23    2    1    2    0    0  0.35527136788E-14  0.35527136788E-14  0.00000000000E+00  0.91188000000E+02  0.91188000000E+02 0.  0.
    9900012    2    3    3    0    0  0.17665754355E+02  0.25483454853E+02  0.19856857029E+02  0.54367080413E+02  0.39999991416E+02 0.  0.
        -12    1    3    3    0    0 -0.17665754355E+02 -0.25483454853E+02 -0.19856857029E+02  0.36820919587E+02  0.00000000000E+00 0.  1.
         11    1    4    4    0    0  0.24630718888E+02  0.28977599835E+02  0.14792637304E+02  0.40806809772E+02  0.51100000000E-03 0. -1.
        -11    1    4    4    0    0 -0.41932655529E+01 -0.33780954690E+01  0.79211505237E+01  0.95780807511E+01  0.51100000000E-03 0.  1.
         12    1    4    4    0    0 -0.27716989808E+01 -0.11604951228E+00 -0.28569307979E+01  0.39821898891E+01  0.00000000000E+00 0. -1.
</event>
<event>
 8    1  0.1229038E-006  0.9118800E+02  0.7816164E-02  0.1184000E+00
        -11   -1    0    0    0    0  0.00000000000E+00  0.00000000000E+00  0.45593999997E+02  0.45594000000E+02  0.51100000000E-03 0.  1.
         11   -1    0    0    0    0 -0.00000000000E+00 -0.00000000000E+00 -0.45593999997E+02  0.45594000000E+02  0.51100000000E-03 0. -1.
         23    2    1    2    0    0  0.00000000000E+00  0.00000000000E+00 -0.35527136788E-14  0.91188000000E+02  0.91188000000E+02 0.  0.
    9900012    2    3    3    0    0  0.56502898702E+01  0.24001021910E+02  0.27346035519E+02  0.54367075420E+02  0.39999980034E+02 0.  0.
         12    1    3    3    0    0 -0.56502898702E+01 -0.24001021910E+02 -0.27346035519E+02  0.36820924580E+02  0.00000000000E+00 0. -1.
         11    1    4    4    0    0 -0.11916198373E+00  0.20896150038E+02 -0.29382618373E+00  0.20898555454E+02  0.51100000000E-03 0. -1.
        -11    1    4    4    0    0  0.30394481906E+01 -0.73785762793E+01  0.10424064849E+02  0.13127938202E+02  0.51100000000E-03 0.  1.
        -12    1    4    4    0    0  0.27300036634E+01  0.10483448152E+02  0.17215796854E+02  0.20340581763E+02  0.00000000000E+00 0.  1.
</event>
<event>
 8    1  0.1229038E-006  0.9118800E+02  0.7816164E-02  0.1184000E+00
        -11   -1    0    0    0    0  0.00000000000E+00  0.00000000000E+00  0.45593999997E+02  0.45594000000E+02  0.51100000000E-03 0. -1.
         11   -1    0    0    0    0 -0.00000000000E+00 -0.00000000000E+00 -0.45593999997E+02  0.45594000000E+02  0.51100000000E-03 0.  1.
         23    2    1    2    0    0  0.17763568394E-14  0.35527136788E-14  0.35527136788E-14  0.91188000000E+02  0.91188000000E+02 0.  0.
    9900012    2    3    3    0    0 -0.14191908465E+02  0.25990147960E+02 -0.21883362631E+02  0.54367087234E+02  0.40000006968E+02 0.  0.
         12    1    3    3    0    0  0.14191908465E+02 -0.25990147960E+02  0.21883362631E+02  0.36820912766E+02  0.00000000000E+00 0. -1.
         11    1    4    4    0    0  0.14641062937E+01  0.25499829796E+02 -0.22623004658E+02  0.34120159245E+02  0.51100000000E-03 0. -1.
        -11    1    4    4    0    0 -0.32183879012E+01  0.45872337242E+01 -0.33494058810E+01  0.65283423577E+01  0.51100000000E-03 0.  1.
         12    1    4    4    0    0 -0.12437626857E+02 -0.40969155607E+01  0.40890479076E+01  0.13718585632E+02  0.00000000000E+00 0. -1.
</event>
<event>
 8    1  0.1229038E-006  0.9118800E+02  0.7816164E-02  0.1184000E+00
        -11   -1    0    0    0    0  0.00000000000E+00  0.00000000000E+00  0.45593999997E+02  0.45594000000E+02  0.51100000000E-03 0. -1.
         11   -1    0    0    0    0 -0.00000000000E+00 -0.00000000000E+00 -0.45593999997E+02  0.45594000000E+02  0.51100000000E-03 0.  1.
         23    2    1    2    0    0  0.00000000000E+00  0.00000000000E+00 -0.35527136788E-14  0.91188000000E+02  0.91188000000E+02 0.  0.
    9900012    2    3    3    0    0 -0.21332118259E+02 -0.14385876917E+02  0.26339438237E+02  0.54367099268E+02  0.40000034401E+02 0.  0.
        -12    1    3    3    0    0  0.21332118259E+02  0.14385876917E+02 -0.26339438237E+02  0.36820900732E+02  0.00000000000E+00 0.  1.
         11    1    4    4    0    0 -0.20897339440E+02 -0.16759715561E+02  0.90050002579E+01  0.28260872089E+02  0.51100000000E-03 0. -1.
        -11    1    4    4    0    0 -0.32842678352E+01  0.59893522754E+01  0.19756844036E+02  0.20904345060E+02  0.51100000000E-03 0.  1.
        -12    1    4    4    0    0  0.28494890157E+01 -0.36155136314E+01 -0.24224060569E+01  0.52018821184E+01  0.00000000000E+00 0.  1.
</event>
<event>
 8    1  0.1229038E-006  0.9118800E+02  0.7816164E-02  0.1184000E+00
        -11   -1    0    0    0    0  0.00000000000E+00  0.00000000000E+00  0.45593999997E+02  0.45594000000E+02  0.51100000000E-03 0. -1.
         11   -1    0    0    0    0 -0.00000000000E+00 -0.00000000000E+00 -0.45593999997E+02  0.45594000000E+02  0.51100000000E-03 0.  1.
         23    2    1    2    0    0  0.71054273576E-14  0.88817841970E-15 -0.26645352591E-14  0.91188000000E+02  0.91188000000E+02 0.  0.
    9900012    2    3    3    0    0  0.35323918133E+02 -0.70598873276E+01 -0.76261301149E+01  0.54367094771E+02  0.40000024149E+02 0.  0.
        -12    1    3    3    0    0 -0.35323918133E+02  0.70598873276E+01  0.76261301149E+01  0.36820905229E+02  0.00000000000E+00 0.  1.
         11    1    4    4    0    0  0.98039540770E+00 -0.11766767556E+02  0.47671077521E+01  0.12733550583E+02  0.51100000000E-03 0. -1.
        -11    1    4    4    0    0  0.53227983744E+01  0.25503853672E+01  0.49962531948E+01  0.77329938771E+01  0.51100000000E-03 0.  1.
        -12    1    4    4    0    0  0.29020724351E+02  0.21564948612E+01 -0.17389491062E+02  0.33900550310E+02  0.00000000000E+00 0.  1.
</event>
<event>
 8    1  0.1229038E-006  0.9118800E+02  0.7816164E-02  0.1184000E+00
        -11   -1    0    0    0    0  0.00000000000E+00  0.00000000000E+00  0.45593999997E+02  0.45594000000E+02  0.51100000000E-03 0. -1.
         11   -1    0    0    0    0 -0.00000000000E+00 -0.00000000000E+00 -0.45593999997E+02  0.45594000000E+02  0.51100000000E-03 0.  1.
         23    2    1    2    0    0  0.44408920985E-15 -0.88817841970E-15 -0.71054273576E-14  0.91188000000E+02  0.91188000000E+02 0.  0.
    9900012    2    3    3    0    0 -0.39934976659E+01  0.52304912796E+01  0.36228111673E+02  0.54367053000E+02  0.39999928923E+02 0.  0.
        -12    1    3    3    0    0  0.39934976659E+01 -0.52304912796E+01 -0.36228111673E+02  0.36820947000E+02  0.00000000000E+00 0.  1.
         11    1    4    4    0    0  0.60389175036E+01 -0.61493526568E+00  0.17869007233E+02  0.18871886227E+02  0.51100000000E-03 0. -1.
        -11    1    4    4    0    0 -0.60617199884E+01 -0.40241809497E+01  0.22825599110E+02  0.23957179645E+02  0.51100000000E-03 0.  1.
        -12    1    4    4    0    0 -0.39706951811E+01  0.98696074950E+01 -0.44664946704E+01  0.11537987128E+02  0.00000000000E+00 0.  1.
</event>
<event>
 8    1  0.1229038E-006  0.9118800E+02  0.7816164E-02  0.1184000E+00
        -11   -1    0    0    0    0  0.00000000000E+00  0.00000000000E+00  0.45593999997E+02  0.45594000000E+02  0.51100000000E-03 0.  1.
         11   -1    0    0    0    0 -0.00000000000E+00 -0.00000000000E+00 -0.45593999997E+02  0.45594000000E+02  0.51100000000E-03 0. -1.
         23    2    1    2    0    0 -0.68695049649E-15 -0.35527136788E-14  0.35527136788E-14  0.91188000000E+02  0.91188000000E+02 0.  0.
    9900012    2    3    3    0    0  0.42102729716E-01  0.30478333655E+02 -0.20660304648E+02  0.54367098556E+02  0.40000032777E+02 0.  0.
        -12    1    3    3    0    0 -0.42102729716E-01 -0.30478333655E+02  0.20660304648E+02  0.36820901444E+02  0.00000000000E+00 0.  1.
         11    1    4    4    0    0 -0.15543987668E+02  0.19979371174E+02 -0.14125533546E+02  0.28988299766E+02  0.51100000000E-03 0. -1.
        -11    1    4    4    0    0  0.46638916892E+00  0.90858929393E+01 -0.75006083780E+00  0.91287217552E+01  0.51100000000E-03 0.  1.
         12    1    4    4    0    0  0.15119701229E+02  0.14130695423E+01 -0.57847102639E+01  0.16250077034E+02  0.00000000000E+00 0. -1.
</event>
<event>
 8    1  0.1229038E-006  0.9118800E+02  0.7816164E-02  0.1184000E+00
        -11   -1    0    0    0    0  0.00000000000E+00  0.00000000000E+00  0.45593999997E+02  0.45594000000E+02  0.51100000000E-03 0.  1.
         11   -1    0    0    0    0 -0.00000000000E+00 -0.00000000000E+00 -0.45593999997E+02  0.45594000000E+02  0.51100000000E-03 0. -1.
         23    2    1    2    0    0  0.35527136788E-14  0.00000000000E+00  0.00000000000E+00  0.91188000000E+02  0.91188000000E+02 0.  0.
    9900012    2    3    3    0    0 -0.24207216300E+02 -0.18301272418E+02  0.20853178557E+02  0.54367069144E+02  0.39999965728E+02 0.  0.
         12    1    3    3    0    0  0.24207216300E+02  0.18301272418E+02 -0.20853178557E+02  0.36820930856E+02  0.00000000000E+00 0. -1.
         11    1    4    4    0    0  0.29919278675E+01 -0.91935913493E+01  0.18536426248E+02  0.20906287394E+02  0.51100000000E-03 0. -1.
        -11    1    4    4    0    0 -0.69115476519E+01 -0.16243257126E+01  0.83991207098E+01  0.10997870427E+02  0.51100000000E-03 0.  1.
         12    1    4    4    0    0 -0.20287596516E+02 -0.74833553564E+01 -0.60823684009E+01  0.22462911324E+02  0.00000000000E+00 0. -1.
</event>
<event>
 8    1  0.1229038E-006  0.9118800E+02  0.7816164E-02  0.1184000E+00
        -11   -1    0    0    0    0  0.00000000000E+00  0.00000000000E+00  0.45593999997E+02  0.45594000000E+02  0.51100000000E-03 0.  1.
         11   -1    0    0    0    0 -0.00000000000E+00 -0.00000000000E+00 -0.45593999997E+02  0.45594000000E+02  0.51100000000E-03 0. -1.
         23    2    1    2    0    0 -0.24980018054E-15  0.00000000000E+00 -0.33306690739E-15  0.91188000000E+02  0.91188000000E+02 0.  0.
    9900012    2    3    3    0    0  0.95172950338E-01  0.36815212812E+02 -0.64052919593E+00  0.54367092489E+02  0.40000018947E+02 0.  0.
         12    1    3    3    0    0 -0.95172950338E-01 -0.36815212812E+02  0.64052919593E+00  0.36820907511E+02  0.00000000000E+00 0. -1.
         11    1    4    4    0    0 -0.93938545238E+01  0.17612227184E+02  0.94437489558E+01  0.22082106870E+02  0.51100000000E-03 0. -1.
        -11    1    4    4    0    0  0.47943521871E+01 -0.35995622786E+01  0.16444044242E+01  0.62166492312E+01  0.51100000000E-03 0.  1.
         12    1    4    4    0    0  0.46946752870E+01  0.22802547906E+02 -0.11728682576E+02  0.26068336388E+02  0.00000000000E+00 0. -1.
</event>
<event>
 8    1  0.1229038E-006  0.9118800E+02  0.7816164E-02  0.1184000E+00
        -11   -1    0    0    0    0  0.00000000000E+00  0.00000000000E+00  0.45593999997E+02  0.45594000000E+02  0.51100000000E-03 0.  1.
         11   -1    0    0    0    0 -0.00000000000E+00 -0.00000000000E+00 -0.45593999997E+02  0.45594000000E+02  0.51100000000E-03 0. -1.
         23    2    1    2    0    0 -0.71054273576E-14  0.00000000000E+00 -0.35527136788E-14  0.91188000000E+02  0.91188000000E+02 0.  0.
    9900012    2    3    3    0    0 -0.32092761313E+02 -0.69863555587E+01 -0.16644070057E+02  0.54367087997E+02  0.40000008706E+02 0.  0.
        -12    1    3    3    0    0  0.32092761313E+02  0.69863555587E+01  0.16644070057E+02  0.36820912003E+02  0.00000000000E+00 0.  1.
         11    1    4    4    0    0 -0.29609936532E+02 -0.85981359297E+01 -0.32744239252E+01  0.31006420870E+02  0.51100000000E-03 0. -1.
        -11    1    4    4    0    0 -0.59796577689E+01 -0.66956326710E+01 -0.10685906037E+02  0.13956231296E+02  0.51100000000E-03 0.  1.
        -12    1    4    4    0    0  0.34968329873E+01  0.83074130420E+01 -0.26837400947E+01  0.94044358304E+01  0.00000000000E+00 0.  1.
</event>
<event>
 8    1  0.1229038E-006  0.9118800E+02  0.7816164E-02  0.1184000E+00
        -11   -1    0    0    0    0  0.00000000000E+00  0.00000000000E+00  0.45593999997E+02  0.45594000000E+02  0.51100000000E-03 0. -1.
         11   -1    0    0    0    0 -0.00000000000E+00 -0.00000000000E+00 -0.45593999997E+02  0.45594000000E+02  0.51100000000E-03 0.  1.
         23    2    1    2    0    0  0.00000000000E+00  0.22204460493E-15  0.99920072216E-15  0.91188000000E+02  0.91188000000E+02 0.  0.
    9900012    2    3    3    0    0  0.36786165075E+02  0.14922039622E+01  0.57505504248E+00  0.54367091512E+02  0.40000016719E+02 0.  0.
        -12    1    3    3    0    0 -0.36786165075E+02 -0.14922039622E+01 -0.57505504248E+00  0.36820908488E+02  0.00000000000E+00 0.  1.
         11    1    4    4    0    0  0.18774583240E+02 -0.54147233045E+00  0.30488714134E+01  0.19028236526E+02  0.51100000000E-03 0. -1.
        -11    1    4    4    0    0  0.14286517272E+01 -0.38423380483E+01  0.11921617505E+02  0.12606727237E+02  0.51100000000E-03 0.  1.
        -12    1    4    4    0    0  0.16582930108E+02  0.58760143410E+01 -0.14395433876E+02  0.22732127748E+02  0.00000000000E+00 0.  1.
</event>
<event>
 8    1  0.1229038E-006  0.9118800E+02  0.7816164E-02  0.1184000E+00
        -11   -1    0    0    0    0  0.00000000000E+00  0.00000000000E+00  0.45593999997E+02  0.45594000000E+02  0.51100000000E-03 0.  1.
         11   -1    0    0    0    0 -0.00000000000E+00 -0.00000000000E+00 -0.45593999997E+02  0.45594000000E+02  0.51100000000E-03 0. -1.
         23    2    1    2    0    0 -0.88817841970E-15  0.00000000000E+00  0.00000000000E+00  0.91188000000E+02  0.91188000000E+02 0.  0.
    9900012    2    3    3    0    0  0.52341019419E+01 -0.15137339139E+02 -0.33154873423E+02  0.54367075364E+02  0.39999979908E+02 0.  0.
        -12    1    3    3    0    0 -0.52341019419E+01  0.15137339139E+02  0.33154873423E+02  0.36820924636E+02  0.00000000000E+00 0.  1.
         11    1    4    4    0    0  0.18942695980E+02 -0.13449749717E+02 -0.22180225966E+02  0.32119836902E+02  0.51100000000E-03 0. -1.
        -11    1    4    4    0    0  0.38620736614E-01  0.42691360038E+01 -0.34074658074E+01  0.54624021519E+01  0.51100000000E-03 0.  1.
        -12    1    4    4    0    0 -0.13747214774E+02 -0.59567254261E+01 -0.75671816494E+01  0.16784836310E+02  0.00000000000E+00 0.  1.
</event>
<event>
 8    1  0.1229038E-006  0.9118800E+02  0.7816164E-02  0.1184000E+00
        -11   -1    0    0    0    0  0.00000000000E+00  0.00000000000E+00  0.45593999997E+02  0.45594000000E+02  0.51100000000E-03 0.  1.
         11   -1    0    0    0    0 -0.00000000000E+00 -0.00000000000E+00 -0.45593999997E+02  0.45594000000E+02  0.51100000000E-03 0. -1.
         23    2    1    2    0    0  0.00000000000E+00  0.00000000000E+00  0.88817841970E-15  0.91188000000E+02  0.91188000000E+02 0.  0.
    9900012    2    3    3    0    0 -0.88917954682E+01 -0.35129137235E+02  0.65314123469E+01  0.54367086693E+02  0.40000005735E+02 0.  0.
         12    1    3    3    0    0  0.88917954682E+01  0.35129137235E+02 -0.65314123469E+01  0.36820913307E+02  0.00000000000E+00 0. -1.
         11    1    4    4    0    0  0.13713605154E+01 -0.19789654004E+02  0.12475419457E+02  0.23433888413E+02  0.51100000000E-03 0.  1.
        -11    1    4    4    0    0 -0.47776568723E+01  0.56824018406E+01 -0.54361038694E+01  0.92014630036E+01  0.51100000000E-03 0. -1.
        -12    1    4    4    0    0 -0.54854991112E+01 -0.21021885071E+02 -0.50790324054E+00  0.21731735277E+02  0.00000000000E+00 0.  1.
</event>
<event>
 8    1  0.1229038E-006  0.9118800E+02  0.7816164E-02  0.1184000E+00
        -11   -1    0    0    0    0  0.00000000000E+00  0.00000000000E+00  0.45593999997E+02  0.45594000000E+02  0.51100000000E-03 0.  1.
         11   -1    0    0    0    0 -0.00000000000E+00 -0.00000000000E+00 -0.45593999997E+02  0.45594000000E+02  0.51100000000E-03 0. -1.
         23    2    1    2    0    0  0.00000000000E+00  0.00000000000E+00  0.00000000000E+00  0.91188000000E+02  0.91188000000E+02 0.  0.
    9900012    2    3    3    0    0 -0.21808078832E+02 -0.13297561486E+02 -0.26521074973E+02  0.54367016016E+02  0.39999844612E+02 0.  0.
         12    1    3    3    0    0  0.21808078832E+02  0.13297561486E+02  0.26521074973E+02  0.36820983984E+02  0.00000000000E+00 0. -1.
         11    1    4    4    0    0 -0.78274970207E+00 -0.35477087803E+01 -0.24832397384E+02  0.25096750682E+02  0.51100000000E-03 0. -1.
        -11    1    4    4    0    0 -0.23078235230E+02 -0.49522032312E+01 -0.32429016161E+01  0.23825315724E+02  0.51100000000E-03 0.  1.
         12    1    4    4    0    0  0.20529061003E+01 -0.47976494743E+01  0.15542240275E+01  0.54449496107E+01  0.00000000000E+00 0. -1.
</event>
<event>
 8    1  0.1229038E-006  0.9118800E+02  0.7816164E-02  0.1184000E+00
        -11   -1    0    0    0    0  0.00000000000E+00  0.00000000000E+00  0.45593999997E+02  0.45594000000E+02  0.51100000000E-03 0.  1.
         11   -1    0    0    0    0 -0.00000000000E+00 -0.00000000000E+00 -0.45593999997E+02  0.45594000000E+02  0.51100000000E-03 0. -1.
         23    2    1    2    0    0 -0.17763568394E-14  0.00000000000E+00  0.00000000000E+00  0.91188000000E+02  0.91188000000E+02 0.  0.
    9900012    2    3    3    0    0 -0.13129561771E+02 -0.49302975641E+01 -0.34045354614E+02  0.54367090218E+02  0.40000013771E+02 0.  0.
        -12    1    3    3    0    0  0.13129561771E+02  0.49302975641E+01  0.34045354614E+02  0.36820909782E+02  0.00000000000E+00 0.  1.
         11    1    4    4    0    0  0.29334728615E+01 -0.10446858612E+01 -0.15765382400E+02  0.16069969324E+02  0.51100000000E-03 0. -1.
        -11    1    4    4    0    0  0.82908716625E+01 -0.34261960045E+01 -0.26448595620E+01  0.93526816662E+01  0.51100000000E-03 0.  1.
         12    1    4    4    0    0 -0.24353906295E+02 -0.45941569849E+00 -0.15635112651E+02  0.28944439228E+02  0.00000000000E+00 0. -1.
</event>
<event>
 8    1  0.1229038E-006  0.9118800E+02  0.7816164E-02  0.1184000E+00
        -11   -1    0    0    0    0  0.00000000000E+00  0.00000000000E+00  0.45593999997E+02  0.45594000000E+02  0.51100000000E-03 0. -1.
         11   -1    0    0    0    0 -0.00000000000E+00 -0.00000000000E+00 -0.45593999997E+02  0.45594000000E+02  0.51100000000E-03 0.  1.
         23    2    1    2    0    0  0.71054273576E-14  0.77715611724E-15  0.00000000000E+00  0.91188000000E+02  0.91188000000E+02 0.  0.
    9900012    2    3    3    0    0 -0.32860449673E+02  0.20216839480E+00 -0.16611156447E+02  0.54367074655E+02  0.39999978292E+02 0.  0.
        -12    1    3    3    0    0  0.32860449673E+02 -0.20216839480E+00  0.16611156447E+02  0.36820925345E+02  0.00000000000E+00 0.  1.
         11    1    4    4    0    0 -0.13117551704E+02 -0.15433483018E+02 -0.10144119465E+02  0.22653161386E+02  0.51100000000E-03 0. -1.
        -11    1    4    4    0    0 -0.14040405746E+01  0.26896636386E+01  0.54955006619E+01  0.62774316571E+01  0.51100000000E-03 0.  1.
         12    1    4    4    0    0 -0.18338857394E+02  0.12945987774E+02 -0.11962537643E+02  0.25436481613E+02  0.00000000000E+00 0. -1.
</event>
<event>
 8    1  0.1229038E-006  0.9118800E+02  0.7816164E-02  0.1184000E+00
        -11   -1    0    0    0    0  0.00000000000E+00  0.00000000000E+00  0.45593999997E+02  0.45594000000E+02  0.51100000000E-03 0. -1.
         11   -1    0    0    0    0 -0.00000000000E+00 -0.00000000000E+00 -0.45593999997E+02  0.45594000000E+02  0.51100000000E-03 0.  1.
         23    2    1    2    0    0  0.00000000000E+00 -0.35527136788E-14  0.00000000000E+00  0.91188000000E+02  0.91188000000E+02 0.  0.
    9900012    2    3    3    0    0 -0.18487695986E+02  0.17491566729E+02  0.26608838801E+02  0.54367080514E+02  0.39999991647E+02 0.  0.
        -12    1    3    3    0    0  0.18487695986E+02 -0.17491566729E+02 -0.26608838801E+02  0.36820919486E+02  0.00000000000E+00 0.  1.
         11    1    4    4    0    0 -0.16467623513E+02  0.20060559677E+02  0.15473955763E+02  0.30216750089E+02  0.51100000000E-03 0. -1.
        -11    1    4    4    0    0  0.46537536412E+01  0.72095547345E+01  0.11398954828E+01  0.86564695110E+01  0.51100000000E-03 0.  1.
         12    1    4    4    0    0 -0.66738261138E+01 -0.97785476829E+01  0.99949875552E+01  0.15493860914E+02  0.00000000000E+00 0. -1.
</event>
<event>
 8    1  0.1229038E-006  0.9118800E+02  0.7816164E-02  0.1184000E+00
        -11   -1    0    0    0    0  0.00000000000E+00  0.00000000000E+00  0.45593999997E+02  0.45594000000E+02  0.51100000000E-03 0. -1.
         11   -1    0    0    0    0 -0.00000000000E+00 -0.00000000000E+00 -0.45593999997E+02  0.45594000000E+02  0.51100000000E-03 0.  1.
         23    2    1    2    0    0 -0.35527136788E-14 -0.44408920985E-15 -0.35527136788E-14  0.91188000000E+02  0.91188000000E+02 0.  0.
    9900012    2    3    3    0    0 -0.25562191633E+02  0.48944422444E+00 -0.26497446761E+02  0.54367083640E+02  0.39999998774E+02 0.  0.
         12    1    3    3    0    0  0.25562191633E+02 -0.48944422444E+00  0.26497446761E+02  0.36820916360E+02  0.00000000000E+00 0. -1.
         11    1    4    4    0    0  0.24654304427E+01  0.73017715732E+01 -0.20385471054E+02  0.21793614793E+02  0.51100000000E-03 0. -1.
        -11    1    4    4    0    0 -0.76991795649E+01  0.26100986928E+01  0.25972300430E+01  0.85343766800E+01  0.51100000000E-03 0.  1.
        -12    1    4    4    0    0 -0.20328442511E+02 -0.94224260416E+01 -0.87092057491E+01  0.24039092167E+02  0.00000000000E+00 0.  1.
</event>
<event>
 8    1  0.1229038E-006  0.9118800E+02  0.7816164E-02  0.1184000E+00
        -11   -1    0    0    0    0  0.00000000000E+00  0.00000000000E+00  0.45593999997E+02  0.45594000000E+02  0.51100000000E-03 0. -1.
         11   -1    0    0    0    0 -0.00000000000E+00 -0.00000000000E+00 -0.45593999997E+02  0.45594000000E+02  0.51100000000E-03 0.  1.
         23    2    1    2    0    0  0.00000000000E+00  0.00000000000E+00 -0.53290705182E-14  0.91188000000E+02  0.91188000000E+02 0.  0.
    9900012    2    3    3    0    0 -0.34297803419E+02  0.37722911275E+01  0.12853377993E+02  0.54367097980E+02  0.40000031464E+02 0.  0.
        -12    1    3    3    0    0  0.34297803419E+02 -0.37722911275E+01 -0.12853377993E+02  0.36820902020E+02  0.00000000000E+00 0.  1.
         11    1    4    4    0    0 -0.79310328498E+01  0.92504247679E+01 -0.54689070296E+01  0.13355919467E+02  0.51100000000E-03 0. -1.
        -11    1    4    4    0    0 -0.74379674580E+01 -0.91092652972E+01 -0.31326297264E+01  0.12170268831E+02  0.51100000000E-03 0.  1.
         12    1    4    4    0    0 -0.18928803112E+02  0.36311316568E+01  0.21454914749E+02  0.28840909681E+02  0.00000000000E+00 0. -1.
</event>
<event>
 8    1  0.1229038E-006  0.9118800E+02  0.7816164E-02  0.1184000E+00
        -11   -1    0    0    0    0  0.00000000000E+00  0.00000000000E+00  0.45593999997E+02  0.45594000000E+02  0.51100000000E-03 0.  1.
         11   -1    0    0    0    0 -0.00000000000E+00 -0.00000000000E+00 -0.45593999997E+02  0.45594000000E+02  0.51100000000E-03 0. -1.
         23    2    1    2    0    0  0.00000000000E+00  0.35527136788E-14  0.35527136788E-14  0.91188000000E+02  0.91188000000E+02 0.  0.
    9900012    2    3    3    0    0  0.21313350726E+02  0.16172429753E+02  0.25297694679E+02  0.54367085300E+02  0.40000002558E+02 0.  0.
         12    1    3    3    0    0 -0.21313350726E+02 -0.16172429753E+02 -0.25297694679E+02  0.36820914700E+02  0.00000000000E+00 0. -1.
         11    1    4    4    0    0 -0.36802083348E+01  0.59964846968E+01 -0.25149792960E+00  0.70402424373E+01  0.51100000000E-03 0. -1.
        -11    1    4    4    0    0  0.23943844796E+02  0.15440157427E+02  0.29230267587E+02  0.40818068406E+02  0.51100000000E-03 0.  1.
         12    1    4    4    0    0  0.10497142655E+01 -0.52642123709E+01 -0.36810749781E+01  0.65087744560E+01  0.00000000000E+00 0. -1.
</event>
<event>
 8    1  0.1229038E-006  0.9118800E+02  0.7816164E-02  0.1184000E+00
        -11   -1    0    0    0    0  0.00000000000E+00  0.00000000000E+00  0.45593999997E+02  0.45594000000E+02  0.51100000000E-03 0. -1.
         11   -1    0    0    0    0 -0.00000000000E+00 -0.00000000000E+00 -0.45593999997E+02  0.45594000000E+02  0.51100000000E-03 0.  1.
         23    2    1    2    0    0  0.00000000000E+00  0.35527136788E-14  0.00000000000E+00  0.91188000000E+02  0.91188000000E+02 0.  0.
    9900012    2    3    3    0    0  0.39517960611E+01 -0.30885325755E+02  0.19653494579E+02  0.54367083550E+02  0.39999998568E+02 0.  0.
        -12    1    3    3    0    0 -0.39517960611E+01  0.30885325755E+02 -0.19653494579E+02  0.36820916450E+02  0.00000000000E+00 0.  1.
         11    1    4    4    0    0  0.52854633841E+00  0.15119681155E+01  0.19044684433E+02  0.19111918120E+02  0.51100000000E-03 0. -1.
        -11    1    4    4    0    0 -0.46348272623E+01 -0.56378743557E+01  0.36926004825E+00  0.73077769702E+01  0.51100000000E-03 0.  1.
         12    1    4    4    0    0  0.80580769849E+01 -0.26759419515E+02  0.23955009749E+00  0.27947388459E+02  0.00000000000E+00 0. -1.
</event>
<event>
 8    1  0.1229038E-006  0.9118800E+02  0.7816164E-02  0.1184000E+00
        -11   -1    0    0    0    0  0.00000000000E+00  0.00000000000E+00  0.45593999997E+02  0.45594000000E+02  0.51100000000E-03 0.  1.
         11   -1    0    0    0    0 -0.00000000000E+00 -0.00000000000E+00 -0.45593999997E+02  0.45594000000E+02  0.51100000000E-03 0. -1.
         23    2    1    2    0    0  0.00000000000E+00  0.00000000000E+00  0.00000000000E+00  0.91188000000E+02  0.91188000000E+02 0.  0.
    9900012    2    3    3    0    0  0.90520103341E+01  0.33221141144E+02  0.13045978644E+02  0.54367072950E+02  0.39999974405E+02 0.  0.
         12    1    3    3    0    0 -0.90520103341E+01 -0.33221141144E+02 -0.13045978644E+02  0.36820927050E+02  0.00000000000E+00 0. -1.
         11    1    4    4    0    0  0.10355295506E+02  0.15031014552E+02  0.21506003713E+02  0.28207653916E+02  0.51100000000E-03 0. -1.
        -11    1    4    4    0    0 -0.23387221464E+01  0.17060513459E+02  0.34353080635E+00  0.17223494257E+02  0.51100000000E-03 0.  1.
         12    1    4    4    0    0  0.10354369748E+01  0.11296131334E+01 -0.88035558757E+01  0.89359247768E+01  0.00000000000E+00 0. -1.
</event>
<event>
 8    1  0.1229038E-006  0.9118800E+02  0.7816164E-02  0.1184000E+00
        -11   -1    0    0    0    0  0.00000000000E+00  0.00000000000E+00  0.45593999997E+02  0.45594000000E+02  0.51100000000E-03 0. -1.
         11   -1    0    0    0    0 -0.00000000000E+00 -0.00000000000E+00 -0.45593999997E+02  0.45594000000E+02  0.51100000000E-03 0.  1.
         23    2    1    2    0    0 -0.88817841970E-15  0.44408920985E-15 -0.71054273576E-14  0.91188000000E+02  0.91188000000E+02 0.  0.
    9900012    2    3    3    0    0 -0.75899918524E+01  0.36859820122E+01 -0.35841105914E+02  0.54367091363E+02  0.40000016380E+02 0.  0.
         12    1    3    3    0    0  0.75899918524E+01 -0.36859820122E+01  0.35841105914E+02  0.36820908637E+02  0.00000000000E+00 0. -1.
         11    1    4    4    0    0 -0.75432223915E+01  0.62804141324E+00  0.70938281941E+01  0.10373863252E+02  0.51100000000E-03 0. -1.
        -11    1    4    4    0    0  0.32857504949E+01  0.18185241054E+00 -0.32521941947E+02  0.32688009039E+02  0.51100000000E-03 0.  1.
         12    1    4    4    0    0 -0.33325199557E+01  0.28760881884E+01 -0.10412992161E+02  0.11305219072E+02  0.00000000000E+00 0. -1.
</event>
<event>
 8    1  0.1229038E-006  0.9118800E+02  0.7816164E-02  0.1184000E+00
        -11   -1    0    0    0    0  0.00000000000E+00  0.00000000000E+00  0.45593999997E+02  0.45594000000E+02  0.51100000000E-03 0. -1.
         11   -1    0    0    0    0 -0.00000000000E+00 -0.00000000000E+00 -0.45593999997E+02  0.45594000000E+02  0.51100000000E-03 0.  1.
         23    2    1    2    0    0 -0.35527136788E-14  0.00000000000E+00 -0.35527136788E-14  0.91188000000E+02  0.91188000000E+02 0.  0.
    9900012    2    3    3    0    0  0.21812365897E+02  0.55135261188E+01 -0.29147932963E+02  0.54367078334E+02  0.39999986678E+02 0.  0.
         12    1    3    3    0    0 -0.21812365897E+02 -0.55135261188E+01  0.29147932963E+02  0.36820921666E+02  0.00000000000E+00 0. -1.
         11    1    4    4    0    0 -0.52002605993E+01  0.62624317805E+01 -0.10122221944E+02  0.12989231673E+02  0.51100000000E-03 0. -1.
        -11    1    4    4    0    0  0.60934547554E+01  0.85328257071E+01 -0.14748412204E+02  0.18095716847E+02  0.51100000000E-03 0.  1.
         12    1    4    4    0    0  0.20919171741E+02 -0.92817313688E+01 -0.42772988155E+01  0.23282129814E+02  0.00000000000E+00 0. -1.
</event>
<event>
 8    1  0.1229038E-006  0.9118800E+02  0.7816164E-02  0.1184000E+00
        -11   -1    0    0    0    0  0.00000000000E+00  0.00000000000E+00  0.45593999997E+02  0.45594000000E+02  0.51100000000E-03 0.  1.
         11   -1    0    0    0    0 -0.00000000000E+00 -0.00000000000E+00 -0.45593999997E+02  0.45594000000E+02  0.51100000000E-03 0. -1.
         23    2    1    2    0    0  0.13322676296E-14  0.00000000000E+00  0.71054273576E-14  0.91188000000E+02  0.91188000000E+02 0.  0.
    9900012    2    3    3    0    0 -0.38994518420E+01  0.31392191300E+02 -0.18844212797E+02  0.54367085356E+02  0.40000002686E+02 0.  0.
         12    1    3    3    0    0  0.38994518420E+01 -0.31392191300E+02  0.18844212797E+02  0.36820914644E+02  0.00000000000E+00 0. -1.
         11    1    4    4    0    0  0.11080999365E+02  0.23152853050E+01 -0.10448013307E+02  0.15404871804E+02  0.51100000000E-03 0. -1.
        -11    1    4    4    0    0  0.27275091133E+01  0.33201649518E+01  0.34759550469E+01  0.55267589978E+01  0.51100000000E-03 0.  1.
        -12    1    4    4    0    0 -0.17707960321E+02  0.25756741043E+02 -0.11872154537E+02  0.33435454554E+02  0.00000000000E+00 0.  1.
</event>
<event>
 8    1  0.1229038E-006  0.9118800E+02  0.7816164E-02  0.1184000E+00
        -11   -1    0    0    0    0  0.00000000000E+00  0.00000000000E+00  0.45593999997E+02  0.45594000000E+02  0.51100000000E-03 0. -1.
         11   -1    0    0    0    0 -0.00000000000E+00 -0.00000000000E+00 -0.45593999997E+02  0.45594000000E+02  0.51100000000E-03 0.  1.
         23    2    1    2    0    0  0.00000000000E+00  0.76327832943E-16  0.35527136788E-14  0.91188000000E+02  0.91188000000E+02 0.  0.
    9900012    2    3    3    0    0 -0.30253551735E+02  0.42400458600E-01  0.20988082243E+02  0.54367098508E+02  0.40000032670E+02 0.  0.
        -12    1    3    3    0    0  0.30253551735E+02 -0.42400458600E-01 -0.20988082243E+02  0.36820901492E+02  0.00000000000E+00 0.  1.
         11    1    4    4    0    0  0.56859397091E+00 -0.77062483949E+01  0.48828216892E+01  0.91406515816E+01  0.51100000000E-03 0. -1.
        -11    1    4    4    0    0 -0.63698848475E+01  0.11941260372E+02 -0.30614628385E+01  0.13875939147E+02  0.51100000000E-03 0.  1.
        -12    1    4    4    0    0 -0.24452260859E+02 -0.41926115182E+01  0.19166723393E+02  0.31350507780E+02  0.00000000000E+00 0.  1.
</event>
<event>
 8    1  0.1229038E-006  0.9118800E+02  0.7816164E-02  0.1184000E+00
        -11   -1    0    0    0    0  0.00000000000E+00  0.00000000000E+00  0.45593999997E+02  0.45594000000E+02  0.51100000000E-03 0.  1.
         11   -1    0    0    0    0 -0.00000000000E+00 -0.00000000000E+00 -0.45593999997E+02  0.45594000000E+02  0.51100000000E-03 0. -1.
         23    2    1    2    0    0  0.00000000000E+00  0.00000000000E+00 -0.17763568394E-14  0.91188000000E+02  0.91188000000E+02 0.  0.
    9900012    2    3    3    0    0 -0.91465696157E+01 -0.34556262592E+02 -0.88306799765E+01  0.54367137315E+02  0.40000121136E+02 0.  0.
        -12    1    3    3    0    0  0.91465696157E+01  0.34556262592E+02  0.88306799765E+01  0.36820862685E+02  0.00000000000E+00 0.  1.
         11    1    4    4    0    0 -0.10166189641E+02 -0.13032196413E+02 -0.25421173489E+01  0.16722796298E+02  0.51100000000E-03 0. -1.
        -11    1    4    4    0    0 -0.12374157556E+02 -0.14361609046E+02  0.39010045676E+01  0.19354416202E+02  0.51100000000E-03 0.  1.
         12    1    4    4    0    0  0.13393777582E+02 -0.71624571327E+01 -0.10189567195E+02  0.18289924814E+02  0.00000000000E+00 0. -1.
</event>
<event>
 8    1  0.1229038E-006  0.9118800E+02  0.7816164E-02  0.1184000E+00
        -11   -1    0    0    0    0  0.00000000000E+00  0.00000000000E+00  0.45593999997E+02  0.45594000000E+02  0.51100000000E-03 0.  1.
         11   -1    0    0    0    0 -0.00000000000E+00 -0.00000000000E+00 -0.45593999997E+02  0.45594000000E+02  0.51100000000E-03 0. -1.
         23    2    1    2    0    0  0.00000000000E+00  0.00000000000E+00 -0.35527136788E-14  0.91188000000E+02  0.91188000000E+02 0.  0.
    9900012    2    3    3    0    0 -0.27772695484E+02  0.52924260750E+01  0.23589139438E+02  0.54367083558E+02  0.39999998587E+02 0.  0.
         12    1    3    3    0    0  0.27772695484E+02 -0.52924260750E+01 -0.23589139438E+02  0.36820916442E+02  0.00000000000E+00 0. -1.
         11    1    4    4    0    0 -0.39149994635E+00  0.85803566087E+01  0.87069830861E+01  0.12230590602E+02  0.51100000000E-03 0. -1.
        -11    1    4    4    0    0 -0.18780785841E+02  0.85043645909E+01  0.17817394708E+02  0.27248884167E+02  0.51100000000E-03 0.  1.
         12    1    4    4    0    0 -0.86004096971E+01 -0.11792295125E+02 -0.29352383558E+01  0.14887608790E+02  0.00000000000E+00 0. -1.
</event>
<event>
 8    1  0.1229038E-006  0.9118800E+02  0.7816164E-02  0.1184000E+00
        -11   -1    0    0    0    0  0.00000000000E+00  0.00000000000E+00  0.45593999997E+02  0.45594000000E+02  0.51100000000E-03 0.  1.
         11   -1    0    0    0    0 -0.00000000000E+00 -0.00000000000E+00 -0.45593999997E+02  0.45594000000E+02  0.51100000000E-03 0. -1.
         23    2    1    2    0    0  0.00000000000E+00  0.00000000000E+00  0.53290705182E-14  0.91188000000E+02  0.91188000000E+02 0.  0.
    9900012    2    3    3    0    0 -0.32085609424E+02 -0.11455915228E+02 -0.13966495985E+02  0.54366982416E+02  0.39999768012E+02 0.  0.
        -12    1    3    3    0    0  0.32085609424E+02  0.11455915228E+02  0.13966495985E+02  0.36821017584E+02  0.00000000000E+00 0.  1.
         11    1    4    4    0    0 -0.11881927322E+02 -0.37566687416E+01  0.92080352727E+01  0.15494536804E+02  0.51100000000E-03 0. -1.
        -11    1    4    4    0    0 -0.11674621174E+02 -0.11842492893E+02 -0.24169966117E+02  0.29338177855E+02  0.51100000000E-03 0.  1.
         12    1    4    4    0    0 -0.85290609281E+01  0.41432464067E+01  0.99543485877E+00  0.95342677569E+01  0.00000000000E+00 0. -1.
</event>
<event>
 8    1  0.1229038E-006  0.9118800E+02  0.7816164E-02  0.1184000E+00
        -11   -1    0    0    0    0  0.00000000000E+00  0.00000000000E+00  0.45593999997E+02  0.45594000000E+02  0.51100000000E-03 0.  1.
         11   -1    0    0    0    0 -0.00000000000E+00 -0.00000000000E+00 -0.45593999997E+02  0.45594000000E+02  0.51100000000E-03 0. -1.
         23    2    1    2    0    0  0.00000000000E+00  0.88817841970E-15  0.00000000000E+00  0.91188000000E+02  0.91188000000E+02 0.  0.
    9900012    2    3    3    0    0  0.11266754180E+02  0.43307438281E+01  0.34786270891E+02  0.54367085640E+02  0.40000003333E+02 0.  0.
         12    1    3    3    0    0 -0.11266754180E+02 -0.43307438281E+01 -0.34786270891E+02  0.36820914360E+02  0.00000000000E+00 0. -1.
         11    1    4    4    0    0  0.82582964124E+01  0.15765717135E+02  0.16641874790E+02  0.24366150561E+02  0.51100000000E-03 0. -1.
        -11    1    4    4    0    0 -0.88267098115E+00  0.22369178793E+01  0.15320799655E+02  0.15508378767E+02  0.51100000000E-03 0.  1.
         12    1    4    4    0    0  0.38911287489E+01 -0.13671891186E+02  0.28235964456E+01  0.14492556311E+02  0.00000000000E+00 0. -1.
</event>
<event>
 8    1  0.1229038E-006  0.9118800E+02  0.7816164E-02  0.1184000E+00
        -11   -1    0    0    0    0  0.00000000000E+00  0.00000000000E+00  0.45593999997E+02  0.45594000000E+02  0.51100000000E-03 0.  1.
         11   -1    0    0    0    0 -0.00000000000E+00 -0.00000000000E+00 -0.45593999997E+02  0.45594000000E+02  0.51100000000E-03 0. -1.
         23    2    1    2    0    0  0.00000000000E+00 -0.35527136788E-14  0.00000000000E+00  0.91188000000E+02  0.91188000000E+02 0.  0.
    9900012    2    3    3    0    0  0.26193252544E+02  0.23923677352E+02  0.98667641390E+01  0.54367056891E+02  0.39999937793E+02 0.  0.
         12    1    3    3    0    0 -0.26193252544E+02 -0.23923677352E+02 -0.98667641390E+01  0.36820943109E+02  0.00000000000E+00 0. -1.
         11    1    4    4    0    0  0.19367975276E-01  0.87296243097E+00 -0.74622579634E+01  0.75131706155E+01  0.51100000000E-03 0. -1.
        -11    1    4    4    0    0  0.62479143003E+01  0.21586891712E+02  0.39734738304E+01  0.22821455288E+02  0.51100000000E-03 0.  1.
        -12    1    4    4    0    0  0.19925970268E+02  0.14638232092E+01  0.13355548272E+02  0.24032430987E+02  0.00000000000E+00 0.  1.
</event>
<event>
 8    1  0.1229038E-006  0.9118800E+02  0.7816164E-02  0.1184000E+00
        -11   -1    0    0    0    0  0.00000000000E+00  0.00000000000E+00  0.45593999997E+02  0.45594000000E+02  0.51100000000E-03 0.  1.
         11   -1    0    0    0    0 -0.00000000000E+00 -0.00000000000E+00 -0.45593999997E+02  0.45594000000E+02  0.51100000000E-03 0. -1.
         23    2    1    2    0    0 -0.71054273576E-14  0.26645352591E-14  0.35527136788E-14  0.91188000000E+02  0.91188000000E+02 0.  0.
    9900012    2    3    3    0    0 -0.28059741814E+02 -0.75241697718E+01  0.22623368745E+02  0.54367094867E+02  0.40000024369E+02 0.  0.
         12    1    3    3    0    0  0.28059741814E+02  0.75241697718E+01 -0.22623368745E+02  0.36820905133E+02  0.00000000000E+00 0. -1.
         11    1    4    4    0    0 -0.27751454595E+01  0.64026826334E+01  0.28713108964E+01  0.75458732928E+01  0.51100000000E-03 0. -1.
        -11    1    4    4    0    0 -0.29124450041E+02 -0.18369665003E+02  0.10749110844E+02  0.36072448859E+02  0.51100000000E-03 0.  1.
         12    1    4    4    0    0  0.38398536868E+01  0.44428125976E+01  0.90029470052E+01  0.10748772716E+02  0.00000000000E+00 0. -1.
</event>
<event>
 8    1  0.1229038E-006  0.9118800E+02  0.7816164E-02  0.1184000E+00
        -11   -1    0    0    0    0  0.00000000000E+00  0.00000000000E+00  0.45593999997E+02  0.45594000000E+02  0.51100000000E-03 0.  1.
         11   -1    0    0    0    0 -0.00000000000E+00 -0.00000000000E+00 -0.45593999997E+02  0.45594000000E+02  0.51100000000E-03 0. -1.
         23    2    1    2    0    0  0.00000000000E+00  0.00000000000E+00  0.00000000000E+00  0.91188000000E+02  0.91188000000E+02 0.  0.
    9900012    2    3    3    0    0 -0.90333266815E+01 -0.35072527112E+02  0.66401573374E+01  0.54367152122E+02  0.40000154893E+02 0.  0.
         12    1    3    3    0    0  0.90333266815E+01  0.35072527112E+02 -0.66401573374E+01  0.36820847878E+02  0.00000000000E+00 0. -1.
         11    1    4    4    0    0  0.97944969233E+00  0.26015981527E+00  0.70267463326E+00  0.12331896572E+01  0.51100000000E-03 0. -1.
        -11    1    4    4    0    0 -0.91691795269E+01 -0.37008455108E+02  0.17120351432E+02  0.41794808722E+02  0.51100000000E-03 0.  1.
        -12    1    4    4    0    0 -0.84359684698E+00  0.16757681804E+01 -0.11182868728E+02  0.11339153743E+02  0.00000000000E+00 0.  1.
</event>
<event>
 8    1  0.1229038E-006  0.9118800E+02  0.7816164E-02  0.1184000E+00
        -11   -1    0    0    0    0  0.00000000000E+00  0.00000000000E+00  0.45593999997E+02  0.45594000000E+02  0.51100000000E-03 0. -1.
         11   -1    0    0    0    0 -0.00000000000E+00 -0.00000000000E+00 -0.45593999997E+02  0.45594000000E+02  0.51100000000E-03 0.  1.
         23    2    1    2    0    0  0.00000000000E+00  0.00000000000E+00  0.00000000000E+00  0.91188000000E+02  0.91188000000E+02 0.  0.
    9900012    2    3    3    0    0  0.47812808311E+01 -0.58467024429E+01 -0.36037957841E+02  0.54367095867E+02  0.40000026648E+02 0.  0.
         12    1    3    3    0    0 -0.47812808311E+01  0.58467024429E+01  0.36037957841E+02  0.36820904133E+02  0.00000000000E+00 0. -1.
         11    1    4    4    0    0  0.54203687097E+01  0.84070157303E+01 -0.22592753884E+02  0.24708112812E+02  0.51100000000E-03 0. -1.
        -11    1    4    4    0    0 -0.16178096749E+01  0.39738149553E+00 -0.14817859874E+02  0.14911210269E+02  0.51100000000E-03 0.  1.
         12    1    4    4    0    0  0.97872179638E+00 -0.14651099669E+02  0.13726559171E+01  0.14747772785E+02  0.00000000000E+00 0. -1.
</event>
<event>
 8    1  0.1229038E-006  0.9118800E+02  0.7816164E-02  0.1184000E+00
        -11   -1    0    0    0    0  0.00000000000E+00  0.00000000000E+00  0.45593999997E+02  0.45594000000E+02  0.51100000000E-03 0.  1.
         11   -1    0    0    0    0 -0.00000000000E+00 -0.00000000000E+00 -0.45593999997E+02  0.45594000000E+02  0.51100000000E-03 0. -1.
         23    2    1    2    0    0 -0.88817841970E-15  0.44408920985E-15  0.00000000000E+00  0.91188000000E+02  0.91188000000E+02 0.  0.
    9900012    2    3    3    0    0  0.37624196290E+01 -0.14656925313E+01 -0.36598855338E+02  0.54367078392E+02  0.39999986809E+02 0.  0.
        -12    1    3    3    0    0 -0.37624196290E+01  0.14656925313E+01  0.36598855338E+02  0.36820921608E+02  0.00000000000E+00 0.  1.
         11    1    4    4    0    0 -0.45408717960E+01  0.49964575151E+01 -0.28855853430E+02  0.29635188236E+02  0.51100000000E-03 0. -1.
        -11    1    4    4    0    0 -0.57663638717E+01 -0.45691958642E+01 -0.75390085241E+01  0.10533999854E+02  0.51100000000E-03 0.  1.
        -12    1    4    4    0    0  0.14069655297E+02 -0.18929541822E+01 -0.20399338390E+00  0.14197890301E+02  0.00000000000E+00 0.  1.
</event>
<event>
 8    1  0.1229038E-006  0.9118800E+02  0.7816164E-02  0.1184000E+00
        -11   -1    0    0    0    0  0.00000000000E+00  0.00000000000E+00  0.45593999997E+02  0.45594000000E+02  0.51100000000E-03 0.  1.
         11   -1    0    0    0    0 -0.00000000000E+00 -0.00000000000E+00 -0.45593999997E+02  0.45594000000E+02  0.51100000000E-03 0. -1.
         23    2    1    2    0    0  0.00000000000E+00  0.17763568394E-14  0.00000000000E+00  0.91188000000E+02  0.91188000000E+02 0.  0.
    9900012    2    3    3    0    0  0.85196443469E+01  0.11737263894E+02  0.33844254167E+02  0.54367065144E+02  0.39999956609E+02 0.  0.
         12    1    3    3    0    0 -0.85196443469E+01 -0.11737263894E+02 -0.33844254167E+02  0.36820934856E+02  0.00000000000E+00 0. -1.
         11    1    4    4    0    0 -0.15968050833E+01 -0.18519252426E+01  0.28485907125E+02  0.28590668382E+02  0.51100000000E-03 0. -1.
        -11    1    4    4    0    0  0.41037667063E+01  0.17092809244E+02  0.64655227739E+01  0.18729869568E+02  0.51100000000E-03 0.  1.
         12    1    4    4    0    0  0.60126827239E+01 -0.35036201070E+01 -0.11071757315E+01  0.70465271939E+01  0.00000000000E+00 0. -1.
</event>
<event>
 8    1  0.1229038E-006  0.9118800E+02  0.7816164E-02  0.1184000E+00
        -11   -1    0    0    0    0  0.00000000000E+00  0.00000000000E+00  0.45593999997E+02  0.45594000000E+02  0.51100000000E-03 0.  1.
         11   -1    0    0    0    0 -0.00000000000E+00 -0.00000000000E+00 -0.45593999997E+02  0.45594000000E+02  0.51100000000E-03 0. -1.
         23    2    1    2    0    0  0.00000000000E+00 -0.35527136788E-14 -0.88817841970E-15  0.91188000000E+02  0.91188000000E+02 0.  0.
    9900012    2    3    3    0    0  0.19828923693E+02  0.30539952300E+02  0.54685726742E+01  0.54367079474E+02  0.39999989277E+02 0.  0.
         12    1    3    3    0    0 -0.19828923693E+02 -0.30539952300E+02 -0.54685726742E+01  0.36820920526E+02  0.00000000000E+00 0. -1.
         11    1    4    4    0    0  0.84325268038E+00 -0.31860043376E+01 -0.26914299518E+01  0.42550551311E+01  0.51100000000E-03 0. -1.
        -11    1    4    4    0    0  0.15022429554E+02  0.16200126940E+02 -0.10277658984E+02  0.24366940248E+02  0.51100000000E-03 0.  1.
        -12    1    4    4    0    0  0.39632414588E+01  0.17525829697E+02  0.18437661610E+02  0.25745084095E+02  0.00000000000E+00 0.  1.
</event>
<event>
 8    1  0.1229038E-006  0.9118800E+02  0.7816164E-02  0.1184000E+00
        -11   -1    0    0    0    0  0.00000000000E+00  0.00000000000E+00  0.45593999997E+02  0.45594000000E+02  0.51100000000E-03 0. -1.
         11   -1    0    0    0    0 -0.00000000000E+00 -0.00000000000E+00 -0.45593999997E+02  0.45594000000E+02  0.51100000000E-03 0.  1.
         23    2    1    2    0    0 -0.35527136788E-14 -0.35527136788E-14  0.35527136788E-14  0.91188000000E+02  0.91188000000E+02 0.  0.
    9900012    2    3    3    0    0  0.13526319220E+02  0.31503489163E+02 -0.13429428030E+02  0.54367072822E+02  0.39999974112E+02 0.  0.
         12    1    3    3    0    0 -0.13526319220E+02 -0.31503489163E+02  0.13429428030E+02  0.36820927178E+02  0.00000000000E+00 0. -1.
         11    1    4    4    0    0  0.18342641774E+02  0.43427041919E+01 -0.12734363180E+02  0.22748089871E+02  0.51100000000E-03 0. -1.
        -11    1    4    4    0    0  0.43999240204E+01  0.28134711080E+01 -0.19010941556E+01  0.55577972534E+01  0.51100000000E-03 0.  1.
        -12    1    4    4    0    0 -0.92162465746E+01  0.24347313863E+02  0.12060293053E+01  0.26061185697E+02  0.00000000000E+00 0.  1.
</event>
<event>
 8    1  0.1229038E-006  0.9118800E+02  0.7816164E-02  0.1184000E+00
        -11   -1    0    0    0    0  0.00000000000E+00  0.00000000000E+00  0.45593999997E+02  0.45594000000E+02  0.51100000000E-03 0. -1.
         11   -1    0    0    0    0 -0.00000000000E+00 -0.00000000000E+00 -0.45593999997E+02  0.45594000000E+02  0.51100000000E-03 0.  1.
         23    2    1    2    0    0  0.71054273576E-14  0.35527136788E-14  0.35527136788E-14  0.91188000000E+02  0.91188000000E+02 0.  0.
    9900012    2    3    3    0    0 -0.24268475434E+02  0.24704328962E+02 -0.12510628826E+02  0.54367101003E+02  0.40000038355E+02 0.  0.
        -12    1    3    3    0    0  0.24268475434E+02 -0.24704328962E+02  0.12510628826E+02  0.36820898997E+02  0.00000000000E+00 0.  1.
         11    1    4    4    0    0 -0.28386329017E+02  0.20800363051E+02 -0.12252287050E+02  0.37263350847E+02  0.51100000000E-03 0. -1.
        -11    1    4    4    0    0  0.13506948204E+00  0.93909288692E+01  0.26010023225E+01  0.97454092851E+01  0.51100000000E-03 0.  1.
        -12    1    4    4    0    0  0.39827841006E+01 -0.54869629582E+01 -0.28593440984E+01  0.73583408708E+01  0.00000000000E+00 0.  1.
</event>
<event>
 8    1  0.1229038E-006  0.9118800E+02  0.7816164E-02  0.1184000E+00
        -11   -1    0    0    0    0  0.00000000000E+00  0.00000000000E+00  0.45593999997E+02  0.45594000000E+02  0.51100000000E-03 0.  1.
         11   -1    0    0    0    0 -0.00000000000E+00 -0.00000000000E+00 -0.45593999997E+02  0.45594000000E+02  0.51100000000E-03 0. -1.
         23    2    1    2    0    0  0.00000000000E+00 -0.88817841970E-15  0.00000000000E+00  0.91188000000E+02  0.91188000000E+02 0.  0.
    9900012    2    3    3    0    0  0.11222764346E+02 -0.72094279976E+01 -0.34319878887E+02  0.54367076893E+02  0.39999983394E+02 0.  0.
        -12    1    3    3    0    0 -0.11222764346E+02  0.72094279976E+01  0.34319878887E+02  0.36820923107E+02  0.00000000000E+00 0.  1.
         11    1    4    4    0    0 -0.63382033343E+01 -0.34668995084E+01 -0.92107456877E+01  0.11705983517E+02  0.51100000000E-03 0. -1.
        -11    1    4    4    0    0 -0.79070673343E+01 -0.24843301986E+01 -0.27068179707E+01  0.87189720812E+01  0.51100000000E-03 0.  1.
         12    1    4    4    0    0  0.25468035014E+02 -0.12581982906E+01 -0.22402315229E+02  0.33942121295E+02  0.00000000000E+00 0. -1.
</event>
<event>
 8    1  0.1229038E-006  0.9118800E+02  0.7816164E-02  0.1184000E+00
        -11   -1    0    0    0    0  0.00000000000E+00  0.00000000000E+00  0.45593999997E+02  0.45594000000E+02  0.51100000000E-03 0. -1.
         11   -1    0    0    0    0 -0.00000000000E+00 -0.00000000000E+00 -0.45593999997E+02  0.45594000000E+02  0.51100000000E-03 0.  1.
         23    2    1    2    0    0  0.00000000000E+00  0.00000000000E+00  0.00000000000E+00  0.91188000000E+02  0.91188000000E+02 0.  0.
    9900012    2    3    3    0    0  0.22776697007E+02  0.27577185297E+02  0.87465502769E+01  0.54367065504E+02  0.39999957429E+02 0.  0.
         12    1    3    3    0    0 -0.22776697007E+02 -0.27577185297E+02 -0.87465502769E+01  0.36820934496E+02  0.00000000000E+00 0. -1.
         11    1    4    4    0    0  0.18745452820E+02 -0.31389013451E+00  0.19580809388E+01  0.18850055959E+02  0.51100000000E-03 0. -1.
        -11    1    4    4    0    0  0.93012710058E+01  0.11908340369E+02  0.10349942578E+02  0.18315117371E+02  0.51100000000E-03 0.  1.
         12    1    4    4    0    0 -0.52700268187E+01  0.15982735062E+02 -0.35614732397E+01  0.17201892174E+02  0.00000000000E+00 0. -1.
</event>
<event>
 8    1  0.1229038E-006  0.9118800E+02  0.7816164E-02  0.1184000E+00
        -11   -1    0    0    0    0  0.00000000000E+00  0.00000000000E+00  0.45593999997E+02  0.45594000000E+02  0.51100000000E-03 0.  1.
         11   -1    0    0    0    0 -0.00000000000E+00 -0.00000000000E+00 -0.45593999997E+02  0.45594000000E+02  0.51100000000E-03 0. -1.
         23    2    1    2    0    0  0.00000000000E+00 -0.35527136788E-14  0.00000000000E+00  0.91188000000E+02  0.91188000000E+02 0.  0.
    9900012    2    3    3    0    0 -0.95765108712E+01 -0.29874478759E+02 -0.19276627757E+02  0.54367049180E+02  0.39999920216E+02 0.  0.
        -12    1    3    3    0    0  0.95765108712E+01  0.29874478759E+02  0.19276627757E+02  0.36820950820E+02  0.00000000000E+00 0.  1.
         11    1    4    4    0    0 -0.50371649421E+01  0.16442876548E+00 -0.72315093681E+01  0.88144651270E+01  0.51100000000E-03 0. -1.
        -11    1    4    4    0    0 -0.28819515644E+01 -0.36811806768E+02 -0.10781295583E+02  0.38466233206E+02  0.51100000000E-03 0.  1.
        -12    1    4    4    0    0 -0.16573943647E+01  0.67728992435E+01 -0.12638228054E+01  0.70863508469E+01  0.00000000000E+00 0.  1.
</event>
<event>
 8    1  0.1229038E-006  0.9118800E+02  0.7816164E-02  0.1184000E+00
        -11   -1    0    0    0    0  0.00000000000E+00  0.00000000000E+00  0.45593999997E+02  0.45594000000E+02  0.51100000000E-03 0.  1.
         11   -1    0    0    0    0 -0.00000000000E+00 -0.00000000000E+00 -0.45593999997E+02  0.45594000000E+02  0.51100000000E-03 0. -1.
         23    2    1    2    0    0  0.26645352591E-14  0.71054273576E-14  0.17763568394E-14  0.91188000000E+02  0.91188000000E+02 0.  0.
    9900012    2    3    3    0    0  0.72114310298E+01  0.35185645787E+02 -0.81093534187E+01  0.54366864496E+02  0.39999499189E+02 0.  0.
        -12    1    3    3    0    0 -0.72114310298E+01 -0.35185645787E+02  0.81093534187E+01  0.36821135504E+02  0.00000000000E+00 0.  1.
         11    1    4    4    0    0 -0.46954072942E+01  0.18986619972E+02 -0.19063735421E+02  0.27312352446E+02  0.51100000000E-03 0. -1.
        -11    1    4    4    0    0  0.25015547383E+01 -0.24910290416E+01  0.31242385725E+01  0.47142198415E+01  0.51100000000E-03 0.  1.
         12    1    4    4    0    0  0.94052835857E+01  0.18690054856E+02  0.78301434303E+01  0.22340292209E+02  0.00000000000E+00 0. -1.
</event>
<event>
 8    1  0.1229038E-006  0.9118800E+02  0.7816164E-02  0.1184000E+00
        -11   -1    0    0    0    0  0.00000000000E+00  0.00000000000E+00  0.45593999997E+02  0.45594000000E+02  0.51100000000E-03 0. -1.
         11   -1    0    0    0    0 -0.00000000000E+00 -0.00000000000E+00 -0.45593999997E+02  0.45594000000E+02  0.51100000000E-03 0.  1.
         23    2    1    2    0    0  0.00000000000E+00  0.35527136788E-14  0.00000000000E+00  0.91188000000E+02  0.91188000000E+02 0.  0.
    9900012    2    3    3    0    0  0.24857467695E+02 -0.21640214776E+02  0.16419118816E+02  0.54367081238E+02  0.39999993299E+02 0.  0.
        -12    1    3    3    0    0 -0.24857467695E+02  0.21640214776E+02 -0.16419118816E+02  0.36820918762E+02  0.00000000000E+00 0.  1.
         11    1    4    4    0    0  0.10017259352E+02 -0.58159492948E+00  0.12678276315E+02  0.16168562959E+02  0.51100000000E-03 0. -1.
        -11    1    4    4    0    0  0.96641053225E+01  0.39076466014E+01 -0.45686885663E+01  0.11381456371E+02  0.51100000000E-03 0.  1.
        -12    1    4    4    0    0  0.51761030204E+01 -0.24966266448E+02  0.83095310678E+01  0.26817061908E+02  0.00000000000E+00 0.  1.
</event>
<event>
 8    1  0.1229038E-006  0.9118800E+02  0.7816164E-02  0.1184000E+00
        -11   -1    0    0    0    0  0.00000000000E+00  0.00000000000E+00  0.45593999997E+02  0.45594000000E+02  0.51100000000E-03 0. -1.
         11   -1    0    0    0    0 -0.00000000000E+00 -0.00000000000E+00 -0.45593999997E+02  0.45594000000E+02  0.51100000000E-03 0.  1.
         23    2    1    2    0    0  0.88817841970E-15 -0.71054273576E-14  0.17763568394E-14  0.91188000000E+02  0.91188000000E+02 0.  0.
    9900012    2    3    3    0    0 -0.45590361975E+01 -0.35494629534E+02  0.86676375705E+01  0.54367061964E+02  0.39999949359E+02 0.  0.
        -12    1    3    3    0    0  0.45590361975E+01  0.35494629534E+02 -0.86676375705E+01  0.36820938036E+02  0.00000000000E+00 0.  1.
         11    1    4    4    0    0  0.48842870989E+01  0.14447098398E+01  0.23290581992E+01  0.56007106105E+01  0.51100000000E-03 0.  1.
        -11    1    4    4    0    0 -0.16323454783E+02 -0.73359712491E+01  0.35643481400E+01  0.18247636234E+02  0.51100000000E-03 0. -1.
         12    1    4    4    0    0  0.68801314861E+01 -0.29603368125E+02  0.27742312313E+01  0.30518715119E+02  0.00000000000E+00 0. -1.
</event>
<event>
 8    1  0.1229038E-006  0.9118800E+02  0.7816164E-02  0.1184000E+00
        -11   -1    0    0    0    0  0.00000000000E+00  0.00000000000E+00  0.45593999997E+02  0.45594000000E+02  0.51100000000E-03 0.  1.
         11   -1    0    0    0    0 -0.00000000000E+00 -0.00000000000E+00 -0.45593999997E+02  0.45594000000E+02  0.51100000000E-03 0. -1.
         23    2    1    2    0    0  0.00000000000E+00 -0.17763568394E-14  0.35527136788E-14  0.91188000000E+02  0.91188000000E+02 0.  0.
    9900012    2    3    3    0    0  0.28538331434E+02  0.47960311426E+01  0.22767149690E+02  0.54367063282E+02  0.39999952365E+02 0.  0.
         12    1    3    3    0    0 -0.28538331434E+02 -0.47960311426E+01 -0.22767149690E+02  0.36820936718E+02  0.00000000000E+00 0. -1.
         11    1    4    4    0    0 -0.15713986614E+01 -0.53403766223E+01  0.30470603500E+01  0.63461400283E+01  0.51100000000E-03 0. -1.
        -11    1    4    4    0    0  0.31492459009E+02  0.56342993534E+01  0.25250633308E+02  0.40756775956E+02  0.51100000000E-03 0.  1.
         12    1    4    4    0    0 -0.13827289136E+01  0.45021084115E+01 -0.55305439671E+01  0.72641472982E+01  0.00000000000E+00 0. -1.
</event>
<event>
 8    1  0.1229038E-006  0.9118800E+02  0.7816164E-02  0.1184000E+00
        -11   -1    0    0    0    0  0.00000000000E+00  0.00000000000E+00  0.45593999997E+02  0.45594000000E+02  0.51100000000E-03 0. -1.
         11   -1    0    0    0    0 -0.00000000000E+00 -0.00000000000E+00 -0.45593999997E+02  0.45594000000E+02  0.51100000000E-03 0.  1.
         23    2    1    2    0    0  0.00000000000E+00 -0.66613381478E-15  0.00000000000E+00  0.91188000000E+02  0.91188000000E+02 0.  0.
    9900012    2    3    3    0    0 -0.29806296124E+02 -0.69956410261E+00 -0.21607297259E+02  0.54367082393E+02  0.39999995931E+02 0.  0.
         12    1    3    3    0    0  0.29806296124E+02  0.69956410261E+00  0.21607297259E+02  0.36820917607E+02  0.00000000000E+00 0. -1.
         11    1    4    4    0    0 -0.30416771521E+01  0.13228114446E+02  0.11845048857E+01  0.13624898671E+02  0.51100000000E-03 0. -1.
        -11    1    4    4    0    0 -0.10585527559E+01  0.73216251777E+00  0.18360604603E+01  0.22422564894E+01  0.51100000000E-03 0.  1.
        -12    1    4    4    0    0 -0.25706066216E+02 -0.14659841067E+02 -0.24627862605E+02  0.38499927233E+02  0.00000000000E+00 0.  1.
</event>
<event>
 8    1  0.1229038E-006  0.9118800E+02  0.7816164E-02  0.1184000E+00
        -11   -1    0    0    0    0  0.00000000000E+00  0.00000000000E+00  0.45593999997E+02  0.45594000000E+02  0.51100000000E-03 0. -1.
         11   -1    0    0    0    0 -0.00000000000E+00 -0.00000000000E+00 -0.45593999997E+02  0.45594000000E+02  0.51100000000E-03 0.  1.
         23    2    1    2    0    0  0.00000000000E+00  0.00000000000E+00  0.44408920985E-15  0.91188000000E+02  0.91188000000E+02 0.  0.
    9900012    2    3    3    0    0  0.33467605257E+02  0.15244176243E+02  0.18204990300E+01  0.54367085730E+02  0.40000003538E+02 0.  0.
         12    1    3    3    0    0 -0.33467605257E+02 -0.15244176243E+02 -0.18204990300E+01  0.36820914270E+02  0.00000000000E+00 0. -1.
         11    1    4    4    0    0  0.24480695852E+02 -0.23939482183E+01  0.73578339534E+01  0.25674368117E+02  0.51100000000E-03 0. -1.
        -11    1    4    4    0    0  0.10054295323E+02  0.10064254419E+02  0.55101709807E+01  0.15255820395E+02  0.51100000000E-03 0.  1.
         12    1    4    4    0    0 -0.10673859178E+01  0.75738700428E+01 -0.11047505904E+02  0.13436897217E+02  0.00000000000E+00 0. -1.
</event>
<event>
 8    1  0.1229038E-006  0.9118800E+02  0.7816164E-02  0.1184000E+00
        -11   -1    0    0    0    0  0.00000000000E+00  0.00000000000E+00  0.45593999997E+02  0.45594000000E+02  0.51100000000E-03 0. -1.
         11   -1    0    0    0    0 -0.00000000000E+00 -0.00000000000E+00 -0.45593999997E+02  0.45594000000E+02  0.51100000000E-03 0.  1.
         23    2    1    2    0    0  0.22204460493E-14  0.35527136788E-14  0.00000000000E+00  0.91188000000E+02  0.91188000000E+02 0.  0.
    9900012    2    3    3    0    0  0.29501546944E+01  0.20792759206E+02 -0.30244643110E+02  0.54367072731E+02  0.39999973905E+02 0.  0.
         12    1    3    3    0    0 -0.29501546944E+01 -0.20792759206E+02  0.30244643110E+02  0.36820927269E+02  0.00000000000E+00 0. -1.
         11    1    4    4    0    0 -0.64847471295E+01  0.30135102933E+01 -0.10647289825E+02  0.12825676220E+02  0.51100000000E-03 0. -1.
        -11    1    4    4    0    0 -0.79348349811E+01  0.19756038626E+01  0.32296911433E+01  0.87917871870E+01  0.51100000000E-03 0.  1.
        -12    1    4    4    0    0  0.17369736805E+02  0.15803645050E+02 -0.22827044428E+02  0.32749609324E+02  0.00000000000E+00 0.  1.
</event>
<event>
 8    1  0.1229038E-006  0.9118800E+02  0.7816164E-02  0.1184000E+00
        -11   -1    0    0    0    0  0.00000000000E+00  0.00000000000E+00  0.45593999997E+02  0.45594000000E+02  0.51100000000E-03 0. -1.
         11   -1    0    0    0    0 -0.00000000000E+00 -0.00000000000E+00 -0.45593999997E+02  0.45594000000E+02  0.51100000000E-03 0.  1.
         23    2    1    2    0    0 -0.35527136788E-14  0.00000000000E+00 -0.18873791419E-14  0.91188000000E+02  0.91188000000E+02 0.  0.
    9900012    2    3    3    0    0 -0.27348957492E+02 -0.24645359250E+02 -0.65001131073E+00  0.54367058633E+02  0.39999941765E+02 0.  0.
        -12    1    3    3    0    0  0.27348957492E+02  0.24645359250E+02  0.65001131073E+00  0.36820941367E+02  0.00000000000E+00 0.  1.
         11    1    4    4    0    0 -0.11812747843E+02 -0.98984696959E+01 -0.89270675456E+01  0.17810481441E+02  0.51100000000E-03 0. -1.
        -11    1    4    4    0    0 -0.25224995166E-01  0.48184687658E+01 -0.60779159968E+01  0.77562452690E+01  0.51100000000E-03 0.  1.
         12    1    4    4    0    0 -0.15510984654E+02 -0.19565358320E+02  0.14354972232E+02  0.28800331923E+02  0.00000000000E+00 0. -1.
</event>
<event>
 8    1  0.1229038E-006  0.9118800E+02  0.7816164E-02  0.1184000E+00
        -11   -1    0    0    0    0  0.00000000000E+00  0.00000000000E+00  0.45593999997E+02  0.45594000000E+02  0.51100000000E-03 0.  1.
         11   -1    0    0    0    0 -0.00000000000E+00 -0.00000000000E+00 -0.45593999997E+02  0.45594000000E+02  0.51100000000E-03 0. -1.
         23    2    1    2    0    0 -0.35527136788E-14 -0.17763568394E-14 -0.71054273576E-14  0.91188000000E+02  0.91188000000E+02 0.  0.
    9900012    2    3    3    0    0  0.11502582038E+02  0.49318844029E+01  0.34628718200E+02  0.54367068433E+02  0.39999964107E+02 0.  0.
         12    1    3    3    0    0 -0.11502582038E+02 -0.49318844029E+01 -0.34628718200E+02  0.36820931567E+02  0.00000000000E+00 0. -1.
         11    1    4    4    0    0  0.68504605056E+01  0.41180736158E+01  0.19052402971E+02  0.20661108361E+02  0.51100000000E-03 0. -1.
        -11    1    4    4    0    0  0.88833876910E+01  0.13641570505E+02  0.71068681538E+01  0.17762730587E+02  0.51100000000E-03 0.  1.
         12    1    4    4    0    0 -0.42312661588E+01 -0.12827759717E+02  0.84694470745E+01  0.15943229485E+02  0.00000000000E+00 0. -1.
</event>
<event>
 8    1  0.1229038E-006  0.9118800E+02  0.7816164E-02  0.1184000E+00
        -11   -1    0    0    0    0  0.00000000000E+00  0.00000000000E+00  0.45593999997E+02  0.45594000000E+02  0.51100000000E-03 0.  1.
         11   -1    0    0    0    0 -0.00000000000E+00 -0.00000000000E+00 -0.45593999997E+02  0.45594000000E+02  0.51100000000E-03 0. -1.
         23    2    1    2    0    0  0.88817841970E-15  0.00000000000E+00  0.71054273576E-14  0.91188000000E+02  0.91188000000E+02 0.  0.
    9900012    2    3    3    0    0 -0.30406001299E+01 -0.70367466270E+01 -0.36014139588E+02  0.54367091504E+02  0.40000016702E+02 0.  0.
        -12    1    3    3    0    0  0.30406001299E+01  0.70367466270E+01  0.36014139588E+02  0.36820908496E+02  0.00000000000E+00 0.  1.
         11    1    4    4    0    0 -0.97923503375E+01 -0.59257528289E+01 -0.27166420127E+02  0.29479129134E+02  0.51100000000E-03 0. -1.
        -11    1    4    4    0    0 -0.64639879535E+00  0.59705574563E+01 -0.12618491736E+02  0.13974681452E+02  0.51100000000E-03 0.  1.
        -12    1    4    4    0    0  0.73981490030E+01 -0.70815512544E+01  0.37707722753E+01  0.10913280918E+02  0.00000000000E+00 0.  1.
</event>
<event>
 8    1  0.1229038E-006  0.9118800E+02  0.7816164E-02  0.1184000E+00
        -11   -1    0    0    0    0  0.00000000000E+00  0.00000000000E+00  0.45593999997E+02  0.45594000000E+02  0.51100000000E-03 0. -1.
         11   -1    0    0    0    0 -0.00000000000E+00 -0.00000000000E+00 -0.45593999997E+02  0.45594000000E+02  0.51100000000E-03 0.  1.
         23    2    1    2    0    0  0.17763568394E-14  0.00000000000E+00  0.00000000000E+00  0.91188000000E+02  0.91188000000E+02 0.  0.
    9900012    2    3    3    0    0 -0.13397767456E+02 -0.11026240101E+02  0.32476163779E+02  0.54367090759E+02  0.40000015002E+02 0.  0.
        -12    1    3    3    0    0  0.13397767456E+02  0.11026240101E+02 -0.32476163779E+02  0.36820909241E+02  0.00000000000E+00 0.  1.
         11    1    4    4    0    0  0.19917679925E-01  0.57119786894E+01  0.88206982256E+01  0.10508654277E+02  0.51100000000E-03 0. -1.
        -11    1    4    4    0    0 -0.22372104763E+02 -0.15738213597E+02  0.20939183214E+02  0.34447813177E+02  0.51100000000E-03 0.  1.
        -12    1    4    4    0    0  0.89544196268E+01 -0.10000051938E+01  0.27162823391E+01  0.94106233048E+01  0.00000000000E+00 0.  1.
</event>
<event>
 8    1  0.1229038E-006  0.9118800E+02  0.7816164E-02  0.1184000E+00
        -11   -1    0    0    0    0  0.00000000000E+00  0.00000000000E+00  0.45593999997E+02  0.45594000000E+02  0.51100000000E-03 0.  1.
         11   -1    0    0    0    0 -0.00000000000E+00 -0.00000000000E+00 -0.45593999997E+02  0.45594000000E+02  0.51100000000E-03 0. -1.
         23    2    1    2    0    0 -0.35527136788E-14  0.00000000000E+00  0.13322676296E-14  0.91188000000E+02  0.91188000000E+02 0.  0.
    9900012    2    3    3    0    0 -0.19768478599E+02 -0.30849197803E+02 -0.36488124370E+01  0.54367087689E+02  0.40000008006E+02 0.  0.
        -12    1    3    3    0    0  0.19768478599E+02  0.30849197803E+02  0.36488124370E+01  0.36820912311E+02  0.00000000000E+00 0.  1.
         11    1    4    4    0    0 -0.20577902135E+02 -0.19140789571E+02 -0.18722322730E+02  0.33768998361E+02  0.51100000000E-03 0. -1.
        -11    1    4    4    0    0 -0.31399295530E+01 -0.80678442173E+01  0.89307194879E+01  0.12438127622E+02  0.51100000000E-03 0.  1.
         12    1    4    4    0    0  0.39493530888E+01 -0.36405640148E+01  0.61427908054E+01  0.81599617061E+01  0.00000000000E+00 0. -1.
</event>
<event>
 8    1  0.1229038E-006  0.9118800E+02  0.7816164E-02  0.1184000E+00
        -11   -1    0    0    0    0  0.00000000000E+00  0.00000000000E+00  0.45593999997E+02  0.45594000000E+02  0.51100000000E-03 0.  1.
         11   -1    0    0    0    0 -0.00000000000E+00 -0.00000000000E+00 -0.45593999997E+02  0.45594000000E+02  0.51100000000E-03 0. -1.
         23    2    1    2    0    0 -0.35527136788E-14  0.88817841970E-15  0.71054273576E-14  0.91188000000E+02  0.91188000000E+02 0.  0.
    9900012    2    3    3    0    0  0.18703542023E+02  0.56049776191E+01 -0.31217651455E+02  0.54367081751E+02  0.39999994469E+02 0.  0.
        -12    1    3    3    0    0 -0.18703542023E+02 -0.56049776191E+01  0.31217651455E+02  0.36820918249E+02  0.00000000000E+00 0.  1.
         11    1    4    4    0    0  0.86659058149E+01  0.11020049344E+02 -0.40210033595E+01  0.14584508200E+02  0.51100000000E-03 0. -1.
        -11    1    4    4    0    0 -0.78598523307E+01  0.31955062865E+01 -0.44341530560E+01  0.95734138463E+01  0.51100000000E-03 0.  1.
         12    1    4    4    0    0  0.17897488539E+02 -0.86105780119E+01 -0.22762495039E+02  0.30209159705E+02  0.00000000000E+00 0. -1.
</event>
<event>
 8    1  0.1229038E-006  0.9118800E+02  0.7816164E-02  0.1184000E+00
        -11   -1    0    0    0    0  0.00000000000E+00  0.00000000000E+00  0.45593999997E+02  0.45594000000E+02  0.51100000000E-03 0. -1.
         11   -1    0    0    0    0 -0.00000000000E+00 -0.00000000000E+00 -0.45593999997E+02  0.45594000000E+02  0.51100000000E-03 0.  1.
         23    2    1    2    0    0  0.00000000000E+00  0.35527136788E-14  0.00000000000E+00  0.91188000000E+02  0.91188000000E+02 0.  0.
    9900012    2    3    3    0    0  0.16710963209E+02  0.26764683278E+02  0.18978234252E+02  0.54367110037E+02  0.40000058952E+02 0.  0.
        -12    1    3    3    0    0 -0.16710963209E+02 -0.26764683278E+02 -0.18978234252E+02  0.36820889963E+02  0.00000000000E+00 0.  1.
         11    1    4    4    0    0  0.12256070562E+02  0.50153601044E+01  0.32810353928E+01  0.13642957748E+02  0.51100000000E-03 0. -1.
        -11    1    4    4    0    0  0.72617439623E-01  0.13020891584E+02 -0.78690700563E+01  0.15214176111E+02  0.51100000000E-03 0.  1.
         12    1    4    4    0    0  0.43822752074E+01  0.87284315896E+01  0.23566268916E+02  0.25509976178E+02  0.00000000000E+00 0. -1.
</event>
<event>
 8    1  0.1229038E-006  0.9118800E+02  0.7816164E-02  0.1184000E+00
        -11   -1    0    0    0    0  0.00000000000E+00  0.00000000000E+00  0.45593999997E+02  0.45594000000E+02  0.51100000000E-03 0. -1.
         11   -1    0    0    0    0 -0.00000000000E+00 -0.00000000000E+00 -0.45593999997E+02  0.45594000000E+02  0.51100000000E-03 0.  1.
         23    2    1    2    0    0  0.00000000000E+00 -0.35527136788E-14  0.00000000000E+00  0.91188000000E+02  0.91188000000E+02 0.  0.
    9900012    2    3    3    0    0 -0.16288147210E+02  0.28259951789E+02 -0.17083642825E+02  0.54367089272E+02  0.40000011613E+02 0.  0.
         12    1    3    3    0    0  0.16288147210E+02 -0.28259951789E+02  0.17083642825E+02  0.36820910728E+02  0.00000000000E+00 0. -1.
         11    1    4    4    0    0 -0.12530027551E+01  0.94632869262E+01  0.26638443603E+01  0.99105944518E+01  0.51100000000E-03 0. -1.
        -11    1    4    4    0    0 -0.21292155965E+02  0.21154598725E+02 -0.82028670294E+01  0.31115269252E+02  0.51100000000E-03 0.  1.
        -12    1    4    4    0    0  0.62570115100E+01 -0.23579338613E+01 -0.11544620156E+02  0.13341225568E+02  0.00000000000E+00 0.  1.
</event>
<event>
 8    1  0.1229038E-006  0.9118800E+02  0.7816164E-02  0.1184000E+00
        -11   -1    0    0    0    0  0.00000000000E+00  0.00000000000E+00  0.45593999997E+02  0.45594000000E+02  0.51100000000E-03 0. -1.
         11   -1    0    0    0    0 -0.00000000000E+00 -0.00000000000E+00 -0.45593999997E+02  0.45594000000E+02  0.51100000000E-03 0.  1.
         23    2    1    2    0    0  0.00000000000E+00 -0.71054273576E-14 -0.44408920985E-15  0.91188000000E+02  0.91188000000E+02 0.  0.
    9900012    2    3    3    0    0 -0.11074342748E+02 -0.35093322391E+02 -0.12638907783E+01  0.54367085242E+02  0.40000002426E+02 0.  0.
         12    1    3    3    0    0  0.11074342748E+02  0.35093322391E+02  0.12638907783E+01  0.36820914758E+02  0.00000000000E+00 0. -1.
         11    1    4    4    0    0  0.31315715992E+01 -0.19313731059E+02 -0.17439851841E+02  0.26210215196E+02  0.51100000000E-03 0.  1.
        -11    1    4    4    0    0 -0.13494513398E+02 -0.90760743209E+01  0.10642928609E+02  0.19435764625E+02  0.51100000000E-03 0. -1.
        -12    1    4    4    0    0 -0.71140094865E+00 -0.67035170107E+01  0.55330324541E+01  0.87211054208E+01  0.00000000000E+00 0.  1.
</event>
<event>
 8    1  0.1229038E-006  0.9118800E+02  0.7816164E-02  0.1184000E+00
        -11   -1    0    0    0    0  0.00000000000E+00  0.00000000000E+00  0.45593999997E+02  0.45594000000E+02  0.51100000000E-03 0. -1.
         11   -1    0    0    0    0 -0.00000000000E+00 -0.00000000000E+00 -0.45593999997E+02  0.45594000000E+02  0.51100000000E-03 0.  1.
         23    2    1    2    0    0  0.00000000000E+00 -0.35527136788E-14  0.00000000000E+00  0.91188000000E+02  0.91188000000E+02 0.  0.
    9900012    2    3    3    0    0 -0.12778117769E+02  0.20430594056E+02  0.27840449420E+02  0.54367080795E+02  0.39999992289E+02 0.  0.
        -12    1    3    3    0    0  0.12778117769E+02 -0.20430594056E+02 -0.27840449420E+02  0.36820919205E+02  0.00000000000E+00 0.  1.
         11    1    4    4    0    0  0.16743016456E+01  0.14961899098E+01  0.87753200835E+01  0.90580413487E+01  0.51100000000E-03 0. -1.
        -11    1    4    4    0    0 -0.36847813876E+01  0.16487922415E+02 -0.59928237335E+01  0.17926046302E+02  0.51100000000E-03 0.  1.
         12    1    4    4    0    0 -0.10767638027E+02  0.24464817313E+01  0.25057953070E+02  0.27382993145E+02  0.00000000000E+00 0. -1.
</event>
<event>
 8    1  0.1229038E-006  0.9118800E+02  0.7816164E-02  0.1184000E+00
        -11   -1    0    0    0    0  0.00000000000E+00  0.00000000000E+00  0.45593999997E+02  0.45594000000E+02  0.51100000000E-03 0. -1.
         11   -1    0    0    0    0 -0.00000000000E+00 -0.00000000000E+00 -0.45593999997E+02  0.45594000000E+02  0.51100000000E-03 0.  1.
         23    2    1    2    0    0  0.00000000000E+00  0.00000000000E+00  0.00000000000E+00  0.91188000000E+02  0.91188000000E+02 0.  0.
    9900012    2    3    3    0    0  0.21351597279E+02 -0.24996122610E+02  0.16585623425E+02  0.54367085341E+02  0.40000002652E+02 0.  0.
        -12    1    3    3    0    0 -0.21351597279E+02  0.24996122610E+02 -0.16585623425E+02  0.36820914659E+02  0.00000000000E+00 0.  1.
         11    1    4    4    0    0  0.23327756448E+02 -0.13640021886E+02  0.31105893604E+01  0.27201290124E+02  0.51100000000E-03 0. -1.
        -11    1    4    4    0    0  0.17636314694E+01 -0.15630783880E+02  0.14501002298E+02  0.21394178380E+02  0.51100000000E-03 0.  1.
        -12    1    4    4    0    0 -0.37397906380E+01  0.42746831557E+01 -0.10259682337E+01  0.57716168371E+01  0.00000000000E+00 0.  1.
</event>
<event>
 8    1  0.1229038E-006  0.9118800E+02  0.7816164E-02  0.1184000E+00
        -11   -1    0    0    0    0  0.00000000000E+00  0.00000000000E+00  0.45593999997E+02  0.45594000000E+02  0.51100000000E-03 0. -1.
         11   -1    0    0    0    0 -0.00000000000E+00 -0.00000000000E+00 -0.45593999997E+02  0.45594000000E+02  0.51100000000E-03 0.  1.
         23    2    1    2    0    0  0.00000000000E+00  0.00000000000E+00  0.35527136788E-14  0.91188000000E+02  0.91188000000E+02 0.  0.
    9900012    2    3    3    0    0  0.22617646856E+02  0.13513335486E+02 -0.25721690909E+02  0.54367169367E+02  0.40000194207E+02 0.  0.
         12    1    3    3    0    0 -0.22617646856E+02 -0.13513335486E+02  0.25721690909E+02  0.36820830633E+02  0.00000000000E+00 0. -1.
         11    1    4    4    0    0  0.25640596492E+02  0.76272829793E+01 -0.17206670116E+02  0.31806998142E+02  0.51100000000E-03 0. -1.
        -11    1    4    4    0    0  0.70043067793E+01  0.51261998644E+01 -0.89855910735E+01  0.12493161558E+02  0.51100000000E-03 0.  1.
         12    1    4    4    0    0 -0.10027256415E+02  0.75985264232E+00  0.47057028021E+00  0.10067009667E+02  0.00000000000E+00 0. -1.
</event>
<event>
 8    1  0.1229038E-006  0.9118800E+02  0.7816164E-02  0.1184000E+00
        -11   -1    0    0    0    0  0.00000000000E+00  0.00000000000E+00  0.45593999997E+02  0.45594000000E+02  0.51100000000E-03 0.  1.
         11   -1    0    0    0    0 -0.00000000000E+00 -0.00000000000E+00 -0.45593999997E+02  0.45594000000E+02  0.51100000000E-03 0. -1.
         23    2    1    2    0    0  0.00000000000E+00  0.00000000000E+00  0.00000000000E+00  0.91188000000E+02  0.91188000000E+02 0.  0.
    9900012    2    3    3    0    0 -0.35099191162E+02 -0.84009635548E+01 -0.72973099007E+01  0.54367080122E+02  0.39999990754E+02 0.  0.
        -12    1    3    3    0    0  0.35099191162E+02  0.84009635548E+01  0.72973099007E+01  0.36820919878E+02  0.00000000000E+00 0.  1.
         11    1    4    4    0    0 -0.88421295216E+01 -0.10202683457E+01  0.80340902750E+01  0.11990446563E+02  0.51100000000E-03 0. -1.
        -11    1    4    4    0    0 -0.61287438643E+00 -0.99208478654E+01  0.34145735498E+01  0.10509907239E+02  0.51100000000E-03 0.  1.
         12    1    4    4    0    0 -0.25644187254E+02  0.25401526563E+01 -0.18745973726E+02  0.31866726320E+02  0.00000000000E+00 0. -1.
</event>
<event>
 8    1  0.1229038E-006  0.9118800E+02  0.7816164E-02  0.1184000E+00
        -11   -1    0    0    0    0  0.00000000000E+00  0.00000000000E+00  0.45593999997E+02  0.45594000000E+02  0.51100000000E-03 0.  1.
         11   -1    0    0    0    0 -0.00000000000E+00 -0.00000000000E+00 -0.45593999997E+02  0.45594000000E+02  0.51100000000E-03 0. -1.
         23    2    1    2    0    0  0.00000000000E+00  0.00000000000E+00 -0.35527136788E-14  0.91188000000E+02  0.91188000000E+02 0.  0.
    9900012    2    3    3    0    0  0.14025234888E+02  0.25184012658E+02 -0.22909359858E+02  0.54367075564E+02  0.39999980363E+02 0.  0.
        -12    1    3    3    0    0 -0.14025234888E+02 -0.25184012658E+02  0.22909359858E+02  0.36820924436E+02  0.00000000000E+00 0.  1.
         11    1    4    4    0    0  0.80675462651E+01  0.19856174173E+02 -0.21488373072E+02  0.30349680938E+02  0.51100000000E-03 0. -1.
        -11    1    4    4    0    0  0.91602194085E+01  0.12630253538E+02 -0.30016153223E+01  0.15888442934E+02  0.51100000000E-03 0.  1.
         12    1    4    4    0    0 -0.32025307859E+01 -0.73024150532E+01  0.15806285359E+01  0.81289516921E+01  0.00000000000E+00 0. -1.
</event>
<event>
 8    1  0.1229038E-006  0.9118800E+02  0.7816164E-02  0.1184000E+00
        -11   -1    0    0    0    0  0.00000000000E+00  0.00000000000E+00  0.45593999997E+02  0.45594000000E+02  0.51100000000E-03 0. -1.
         11   -1    0    0    0    0 -0.00000000000E+00 -0.00000000000E+00 -0.45593999997E+02  0.45594000000E+02  0.51100000000E-03 0.  1.
         23    2    1    2    0    0  0.00000000000E+00 -0.35527136788E-14  0.35527136788E-14  0.91188000000E+02  0.91188000000E+02 0.  0.
    9900012    2    3    3    0    0 -0.20841754406E+02  0.18325938974E+02 -0.24198331901E+02  0.54367108745E+02  0.40000056006E+02 0.  0.
         12    1    3    3    0    0  0.20841754406E+02 -0.18325938974E+02  0.24198331901E+02  0.36820891255E+02  0.00000000000E+00 0. -1.
         11    1    4    4    0    0 -0.58569507118E+01 -0.13349396022E+01 -0.92793493355E+01  0.11054060780E+02  0.51100000000E-03 0. -1.
        -11    1    4    4    0    0 -0.53716278298E+01 -0.12340461627E+01  0.87297606710E+01  0.10324048484E+02  0.51100000000E-03 0.  1.
        -12    1    4    4    0    0 -0.96131758647E+01  0.20894924738E+02 -0.23648743237E+02  0.32988999480E+02  0.00000000000E+00 0.  1.
</event>
<event>
 8    1  0.1229038E-006  0.9118800E+02  0.7816164E-02  0.1184000E+00
        -11   -1    0    0    0    0  0.00000000000E+00  0.00000000000E+00  0.45593999997E+02  0.45594000000E+02  0.51100000000E-03 0. -1.
         11   -1    0    0    0    0 -0.00000000000E+00 -0.00000000000E+00 -0.45593999997E+02  0.45594000000E+02  0.51100000000E-03 0.  1.
         23    2    1    2    0    0  0.00000000000E+00  0.35527136788E-14  0.35527136788E-14  0.91188000000E+02  0.91188000000E+02 0.  0.
    9900012    2    3    3    0    0  0.23186949603E+02  0.19966890526E+02 -0.20480923585E+02  0.54367087735E+02  0.40000008109E+02 0.  0.
         12    1    3    3    0    0 -0.23186949603E+02 -0.19966890526E+02  0.20480923585E+02  0.36820912265E+02  0.00000000000E+00 0. -1.
         11    1    4    4    0    0  0.80009821532E+00 -0.72737820997E+01 -0.94981033218E+01  0.11990080490E+02  0.51100000000E-03 0. -1.
        -11    1    4    4    0    0  0.20481896857E+02  0.18687109833E+02 -0.16265539369E+02  0.32144734312E+02  0.51100000000E-03 0.  1.
         12    1    4    4    0    0  0.19049545309E+01  0.85535627924E+01  0.52827191060E+01  0.10232272932E+02  0.00000000000E+00 0. -1.
</event>
<event>
 8    1  0.1229038E-006  0.9118800E+02  0.7816164E-02  0.1184000E+00
        -11   -1    0    0    0    0  0.00000000000E+00  0.00000000000E+00  0.45593999997E+02  0.45594000000E+02  0.51100000000E-03 0.  1.
         11   -1    0    0    0    0 -0.00000000000E+00 -0.00000000000E+00 -0.45593999997E+02  0.45594000000E+02  0.51100000000E-03 0. -1.
         23    2    1    2    0    0  0.17763568394E-14  0.00000000000E+00  0.35527136788E-14  0.91188000000E+02  0.91188000000E+02 0.  0.
    9900012    2    3    3    0    0 -0.13258286802E+02  0.21654976069E+02  0.26665692339E+02  0.54367091464E+02  0.40000016611E+02 0.  0.
         12    1    3    3    0    0  0.13258286802E+02 -0.21654976069E+02 -0.26665692339E+02  0.36820908536E+02  0.00000000000E+00 0. -1.
         11    1    4    4    0    0 -0.10889963537E+02  0.31933170188E+01  0.41706523735E+01  0.12090612925E+02  0.51100000000E-03 0.  1.
        -11    1    4    4    0    0  0.79898529414E+01 -0.51893774147E+01  0.91601515529E+01  0.13216495932E+02  0.51100000000E-03 0. -1.
        -12    1    4    4    0    0 -0.10358176206E+02  0.23651036465E+02  0.13334888413E+02  0.29059982608E+02  0.00000000000E+00 0.  1.
</event>
<event>
 8    1  0.1229038E-006  0.9118800E+02  0.7816164E-02  0.1184000E+00
        -11   -1    0    0    0    0  0.00000000000E+00  0.00000000000E+00  0.45593999997E+02  0.45594000000E+02  0.51100000000E-03 0.  1.
         11   -1    0    0    0    0 -0.00000000000E+00 -0.00000000000E+00 -0.45593999997E+02  0.45594000000E+02  0.51100000000E-03 0. -1.
         23    2    1    2    0    0  0.35527136788E-14  0.35527136788E-14  0.00000000000E+00  0.91188000000E+02  0.91188000000E+02 0.  0.
    9900012    2    3    3    0    0  0.22323482916E+02 -0.23279817792E+02  0.17762120051E+02  0.54367072328E+02  0.39999972985E+02 0.  0.
         12    1    3    3    0    0 -0.22323482916E+02  0.23279817792E+02 -0.17762120051E+02  0.36820927672E+02  0.00000000000E+00 0. -1.
         11    1    4    4    0    0  0.11989901047E+02 -0.59550755323E+01 -0.31840960329E+01  0.13760781937E+02  0.51100000000E-03 0.  1.
        -11    1    4    4    0    0 -0.30613261361E+01 -0.44150530603E+01 -0.58773902878E+01  0.79629220826E+01  0.51100000000E-03 0. -1.
        -12    1    4    4    0    0  0.13394908006E+02 -0.12909689200E+02  0.26823606372E+02  0.32643368308E+02  0.00000000000E+00 0.  1.
</event>
<event>
 8    1  0.1229038E-006  0.9118800E+02  0.7816164E-02  0.1184000E+00
        -11   -1    0    0    0    0  0.00000000000E+00  0.00000000000E+00  0.45593999997E+02  0.45594000000E+02  0.51100000000E-03 0.  1.
         11   -1    0    0    0    0 -0.00000000000E+00 -0.00000000000E+00 -0.45593999997E+02  0.45594000000E+02  0.51100000000E-03 0. -1.
         23    2    1    2    0    0 -0.35527136788E-14  0.00000000000E+00  0.00000000000E+00  0.91188000000E+02  0.91188000000E+02 0.  0.
    9900012    2    3    3    0    0  0.22823944018E+02 -0.15262650515E+02  0.24533625154E+02  0.54367086317E+02  0.40000004877E+02 0.  0.
        -12    1    3    3    0    0 -0.22823944018E+02  0.15262650515E+02 -0.24533625154E+02  0.36820913683E+02  0.00000000000E+00 0.  1.
         11    1    4    4    0    0  0.78481233252E+01 -0.24363459270E+00 -0.71927938681E+01  0.10648412155E+02  0.51100000000E-03 0. -1.
        -11    1    4    4    0    0  0.12747410170E+02 -0.12879799307E+02  0.80284639488E+01  0.19820240409E+02  0.51100000000E-03 0.  1.
         12    1    4    4    0    0  0.22284105227E+01 -0.21392166152E+01  0.23697955073E+02  0.23898433753E+02  0.00000000000E+00 0. -1.
</event>
<event>
 8    1  0.1229038E-006  0.9118800E+02  0.7816164E-02  0.1184000E+00
        -11   -1    0    0    0    0  0.00000000000E+00  0.00000000000E+00  0.45593999997E+02  0.45594000000E+02  0.51100000000E-03 0.  1.
         11   -1    0    0    0    0 -0.00000000000E+00 -0.00000000000E+00 -0.45593999997E+02  0.45594000000E+02  0.51100000000E-03 0. -1.
         23    2    1    2    0    0 -0.17763568394E-14  0.00000000000E+00  0.17763568394E-14  0.91188000000E+02  0.91188000000E+02 0.  0.
    9900012    2    3    3    0    0 -0.91169728479E+01 -0.33495013953E+02  0.12277810880E+02  0.54367084835E+02  0.40000001498E+02 0.  0.
        -12    1    3    3    0    0  0.91169728479E+01  0.33495013953E+02 -0.12277810880E+02  0.36820915165E+02  0.00000000000E+00 0.  1.
         11    1    4    4    0    0 -0.15023344940E+01 -0.65558362294E+01 -0.10154638103E+02  0.12180011201E+02  0.51100000000E-03 0. -1.
        -11    1    4    4    0    0  0.26502934335E+01 -0.24260122046E+02  0.11586154925E+02  0.27015117308E+02  0.51100000000E-03 0.  1.
         12    1    4    4    0    0 -0.10264931787E+02 -0.26790556769E+01  0.10846294059E+02  0.15171956325E+02  0.00000000000E+00 0. -1.
</event>
<event>
 8    1  0.1229038E-006  0.9118800E+02  0.7816164E-02  0.1184000E+00
        -11   -1    0    0    0    0  0.00000000000E+00  0.00000000000E+00  0.45593999997E+02  0.45594000000E+02  0.51100000000E-03 0.  1.
         11   -1    0    0    0    0 -0.00000000000E+00 -0.00000000000E+00 -0.45593999997E+02  0.45594000000E+02  0.51100000000E-03 0. -1.
         23    2    1    2    0    0  0.00000000000E+00  0.22204460493E-15  0.00000000000E+00  0.91188000000E+02  0.91188000000E+02 0.  0.
    9900012    2    3    3    0    0  0.28742774882E+02  0.13046516572E+01 -0.22976737758E+02  0.54367086080E+02  0.40000004337E+02 0.  0.
        -12    1    3    3    0    0 -0.28742774882E+02 -0.13046516572E+01  0.22976737758E+02  0.36820913920E+02  0.00000000000E+00 0.  1.
         11    1    4    4    0    0  0.28540995195E+02  0.15040800415E+02 -0.12475109617E+02  0.34589629141E+02  0.51100000000E-03 0. -1.
        -11    1    4    4    0    0  0.35096994637E+01 -0.34680037619E+01 -0.32131012928E+00  0.49445202880E+01  0.51100000000E-03 0.  1.
         12    1    4    4    0    0 -0.33079197766E+01 -0.10268144996E+02 -0.10180318011E+02  0.14832936652E+02  0.00000000000E+00 0. -1.
</event>
<event>
 8    1  0.1229038E-006  0.9118800E+02  0.7816164E-02  0.1184000E+00
        -11   -1    0    0    0    0  0.00000000000E+00  0.00000000000E+00  0.45593999997E+02  0.45594000000E+02  0.51100000000E-03 0. -1.
         11   -1    0    0    0    0 -0.00000000000E+00 -0.00000000000E+00 -0.45593999997E+02  0.45594000000E+02  0.51100000000E-03 0.  1.
         23    2    1    2    0    0 -0.35527136788E-14  0.00000000000E+00  0.00000000000E+00  0.91188000000E+02  0.91188000000E+02 0.  0.
    9900012    2    3    3    0    0 -0.21852222526E+02 -0.19343106015E+02  0.22452290240E+02  0.54367072300E+02  0.39999972923E+02 0.  0.
        -12    1    3    3    0    0  0.21852222526E+02  0.19343106015E+02 -0.22452290240E+02  0.36820927700E+02  0.00000000000E+00 0.  1.
         11    1    4    4    0    0 -0.45029970056E+00  0.19964241549E+01 -0.70887088201E+01  0.73782296131E+01  0.51100000000E-03 0. -1.
        -11    1    4    4    0    0 -0.16323048540E+02 -0.63279238840E+01  0.24969309970E+02  0.30495097556E+02  0.51100000000E-03 0.  1.
         12    1    4    4    0    0 -0.50788742854E+01 -0.15011606286E+02  0.45716890904E+01  0.16493745131E+02  0.00000000000E+00 0. -1.
</event>
<event>
 8    1  0.1229038E-006  0.9118800E+02  0.7816164E-02  0.1184000E+00
        -11   -1    0    0    0    0  0.00000000000E+00  0.00000000000E+00  0.45593999997E+02  0.45594000000E+02  0.51100000000E-03 0. -1.
         11   -1    0    0    0    0 -0.00000000000E+00 -0.00000000000E+00 -0.45593999997E+02  0.45594000000E+02  0.51100000000E-03 0.  1.
         23    2    1    2    0    0 -0.35527136788E-14  0.00000000000E+00 -0.17763568394E-14  0.91188000000E+02  0.91188000000E+02 0.  0.
    9900012    2    3    3    0    0 -0.26198996046E+02  0.22747668762E+02 -0.12326244801E+02  0.54367080147E+02  0.39999990811E+02 0.  0.
         12    1    3    3    0    0  0.26198996046E+02 -0.22747668762E+02  0.12326244801E+02  0.36820919853E+02  0.00000000000E+00 0. -1.
         11    1    4    4    0    0 -0.18542750461E+02  0.83320501059E+01 -0.64247809172E+01  0.21319813876E+02  0.51100000000E-03 0. -1.
        -11    1    4    4    0    0 -0.64557288813E+01  0.20095455642E+02 -0.12282533169E+02  0.24420573175E+02  0.51100000000E-03 0.  1.
        -12    1    4    4    0    0 -0.12005167040E+01 -0.56798369862E+01  0.63810692856E+01  0.86266930961E+01  0.00000000000E+00 0.  1.
</event>
<event>
 8    1  0.1229038E-006  0.9118800E+02  0.7816164E-02  0.1184000E+00
        -11   -1    0    0    0    0  0.00000000000E+00  0.00000000000E+00  0.45593999997E+02  0.45594000000E+02  0.51100000000E-03 0.  1.
         11   -1    0    0    0    0 -0.00000000000E+00 -0.00000000000E+00 -0.45593999997E+02  0.45594000000E+02  0.51100000000E-03 0. -1.
         23    2    1    2    0    0  0.35527136788E-14 -0.71054273576E-14  0.00000000000E+00  0.91188000000E+02  0.91188000000E+02 0.  0.
    9900012    2    3    3    0    0 -0.24707448713E+02  0.20187371127E+02  0.18379067646E+02  0.54367107799E+02  0.40000053850E+02 0.  0.
         12    1    3    3    0    0  0.24707448713E+02 -0.20187371127E+02 -0.18379067646E+02  0.36820892201E+02  0.00000000000E+00 0. -1.
         11    1    4    4    0    0 -0.14789931767E+02  0.72762178467E+01 -0.40826902448E+01  0.16980983120E+02  0.51100000000E-03 0. -1.
        -11    1    4    4    0    0 -0.57119900876E+01  0.82227967191E+01 -0.35499608997E+01  0.10622779264E+02  0.51100000000E-03 0.  1.
        -12    1    4    4    0    0 -0.42055268581E+01  0.46883565614E+01  0.26011718790E+02  0.26763345415E+02  0.00000000000E+00 0.  1.
</event>
<event>
 8    1  0.1229038E-006  0.9118800E+02  0.7816164E-02  0.1184000E+00
        -11   -1    0    0    0    0  0.00000000000E+00  0.00000000000E+00  0.45593999997E+02  0.45594000000E+02  0.51100000000E-03 0.  1.
         11   -1    0    0    0    0 -0.00000000000E+00 -0.00000000000E+00 -0.45593999997E+02  0.45594000000E+02  0.51100000000E-03 0. -1.
         23    2    1    2    0    0  0.17763568394E-14  0.00000000000E+00  0.00000000000E+00  0.91188000000E+02  0.91188000000E+02 0.  0.
    9900012    2    3    3    0    0  0.70404780048E+01  0.33094341704E+02 -0.14524980008E+02  0.54367097952E+02  0.40000031402E+02 0.  0.
        -12    1    3    3    0    0 -0.70404780048E+01 -0.33094341704E+02  0.14524980008E+02  0.36820902048E+02  0.00000000000E+00 0.  1.
         11    1    4    4    0    0  0.12525931157E+02  0.18496918371E+02 -0.78105008814E+00  0.22352739878E+02  0.51100000000E-03 0.  1.
        -11    1    4    4    0    0 -0.34715700100E+01  0.21104206301E+02 -0.13305826855E+02  0.25188972796E+02  0.51100000000E-03 0. -1.
         12    1    4    4    0    0 -0.20138831423E+01 -0.65067829678E+01 -0.43810306460E+00  0.68253852782E+01  0.00000000000E+00 0. -1.
</event>
<event>
 8    1  0.1229038E-006  0.9118800E+02  0.7816164E-02  0.1184000E+00
        -11   -1    0    0    0    0  0.00000000000E+00  0.00000000000E+00  0.45593999997E+02  0.45594000000E+02  0.51100000000E-03 0.  1.
         11   -1    0    0    0    0 -0.00000000000E+00 -0.00000000000E+00 -0.45593999997E+02  0.45594000000E+02  0.51100000000E-03 0. -1.
         23    2    1    2    0    0  0.00000000000E+00 -0.17763568394E-14  0.00000000000E+00  0.91188000000E+02  0.91188000000E+02 0.  0.
    9900012    2    3    3    0    0  0.25445727784E+02  0.13149402314E+02 -0.23138440596E+02  0.54367091851E+02  0.40000017493E+02 0.  0.
        -12    1    3    3    0    0 -0.25445727784E+02 -0.13149402314E+02  0.23138440596E+02  0.36820908149E+02  0.00000000000E+00 0.  1.
         11    1    4    4    0    0  0.32222803360E+01  0.18100762274E+02 -0.23499048761E+02  0.29836654947E+02  0.51100000000E-03 0. -1.
        -11    1    4    4    0    0  0.23987336133E+01  0.12983675087E+00  0.30571205633E+01  0.38880286688E+01  0.51100000000E-03 0.  1.
         12    1    4    4    0    0  0.19824713835E+02 -0.50811967111E+01 -0.26965123980E+01  0.20642408236E+02  0.00000000000E+00 0. -1.
</event>
<event>
 8    1  0.1229038E-006  0.9118800E+02  0.7816164E-02  0.1184000E+00
        -11   -1    0    0    0    0  0.00000000000E+00  0.00000000000E+00  0.45593999997E+02  0.45594000000E+02  0.51100000000E-03 0.  1.
         11   -1    0    0    0    0 -0.00000000000E+00 -0.00000000000E+00 -0.45593999997E+02  0.45594000000E+02  0.51100000000E-03 0. -1.
         23    2    1    2    0    0  0.00000000000E+00 -0.44408920985E-15 -0.35527136788E-14  0.91188000000E+02  0.91188000000E+02 0.  0.
    9900012    2    3    3    0    0  0.26118199894E+02  0.22250721336E+01 -0.25858590148E+02  0.54367109243E+02  0.40000057141E+02 0.  0.
        -12    1    3    3    0    0 -0.26118199894E+02 -0.22250721336E+01  0.25858590148E+02  0.36820890757E+02  0.00000000000E+00 0.  1.
         11    1    4    4    0    0  0.30166647374E+02  0.84801898953E+01 -0.27783663477E+02  0.41879257287E+02  0.51100000000E-03 0. -1.
        -11    1    4    4    0    0  0.63735270062E+00  0.10685770985E+01  0.34438871007E+01  0.36617528732E+01  0.51100000000E-03 0.  1.
        -12    1    4    4    0    0 -0.46858001805E+01 -0.73236948602E+01 -0.15188137717E+01  0.88260990823E+01  0.00000000000E+00 0.  1.
</event>
<event>
 8    1  0.1229038E-006  0.9118800E+02  0.7816164E-02  0.1184000E+00
        -11   -1    0    0    0    0  0.00000000000E+00  0.00000000000E+00  0.45593999997E+02  0.45594000000E+02  0.51100000000E-03 0. -1.
         11   -1    0    0    0    0 -0.00000000000E+00 -0.00000000000E+00 -0.45593999997E+02  0.45594000000E+02  0.51100000000E-03 0.  1.
         23    2    1    2    0    0  0.00000000000E+00  0.00000000000E+00  0.35527136788E-14  0.91188000000E+02  0.91188000000E+02 0.  0.
    9900012    2    3    3    0    0  0.11500164486E+02 -0.17996911311E+02 -0.29993982376E+02  0.54367060595E+02  0.39999946238E+02 0.  0.
         12    1    3    3    0    0 -0.11500164486E+02  0.17996911311E+02  0.29993982376E+02  0.36820939405E+02  0.00000000000E+00 0. -1.
         11    1    4    4    0    0  0.93139745742E+01 -0.18355829648E+01 -0.17439695153E+02  0.19856043274E+02  0.51100000000E-03 0. -1.
        -11    1    4    4    0    0 -0.90354130057E+01 -0.16559212339E+02 -0.13568231984E+02  0.23236676202E+02  0.51100000000E-03 0.  1.
         12    1    4    4    0    0  0.11221602917E+02  0.39788399303E+00  0.10139447614E+01  0.11274341120E+02  0.00000000000E+00 0. -1.
</event>
<event>
 8    1  0.1229038E-006  0.9118800E+02  0.7816164E-02  0.1184000E+00
        -11   -1    0    0    0    0  0.00000000000E+00  0.00000000000E+00  0.45593999997E+02  0.45594000000E+02  0.51100000000E-03 0. -1.
         11   -1    0    0    0    0 -0.00000000000E+00 -0.00000000000E+00 -0.45593999997E+02  0.45594000000E+02  0.51100000000E-03 0.  1.
         23    2    1    2    0    0  0.53290705182E-14 -0.71054273576E-14  0.00000000000E+00  0.91188000000E+02  0.91188000000E+02 0.  0.
    9900012    2    3    3    0    0  0.13707276148E+02 -0.28789706625E+02 -0.18413130053E+02  0.54367082232E+02  0.39999995564E+02 0.  0.
         12    1    3    3    0    0 -0.13707276148E+02  0.28789706625E+02  0.18413130053E+02  0.36820917768E+02  0.00000000000E+00 0. -1.
         11    1    4    4    0    0 -0.60926114279E+01  0.73895947282E+00 -0.64230881463E+01  0.88838075570E+01  0.51100000000E-03 0. -1.
        -11    1    4    4    0    0  0.13873795425E+02 -0.70930278542E+01 -0.15542026736E+02  0.22007904012E+02  0.51100000000E-03 0.  1.
         12    1    4    4    0    0  0.59260921504E+01 -0.22435638243E+02  0.35519848295E+01  0.23475370663E+02  0.00000000000E+00 0. -1.
</event>
<event>
 8    1  0.1229038E-006  0.9118800E+02  0.7816164E-02  0.1184000E+00
        -11   -1    0    0    0    0  0.00000000000E+00  0.00000000000E+00  0.45593999997E+02  0.45594000000E+02  0.51100000000E-03 0. -1.
         11   -1    0    0    0    0 -0.00000000000E+00 -0.00000000000E+00 -0.45593999997E+02  0.45594000000E+02  0.51100000000E-03 0.  1.
         23    2    1    2    0    0  0.00000000000E+00  0.35527136788E-14  0.00000000000E+00  0.91188000000E+02  0.91188000000E+02 0.  0.
    9900012    2    3    3    0    0  0.34111954639E+02  0.11924181100E+02 -0.70689059037E+01  0.54367068794E+02  0.39999964931E+02 0.  0.
         12    1    3    3    0    0 -0.34111954639E+02 -0.11924181100E+02  0.70689059037E+01  0.36820931206E+02  0.00000000000E+00 0. -1.
         11    1    4    4    0    0  0.42623996585E+01 -0.65540642093E+01  0.89931573686E+01  0.11916404165E+02  0.51100000000E-03 0. -1.
        -11    1    4    4    0    0  0.21394639860E+01 -0.24257259345E+01 -0.51203379380E+01  0.60563448809E+01  0.51100000000E-03 0.  1.
        -12    1    4    4    0    0  0.27710090994E+02  0.20903971244E+02 -0.10941725334E+02  0.36394319748E+02  0.00000000000E+00 0.  1.
</event>
<event>
 8    1  0.1229038E-006  0.9118800E+02  0.7816164E-02  0.1184000E+00
        -11   -1    0    0    0    0  0.00000000000E+00  0.00000000000E+00  0.45593999997E+02  0.45594000000E+02  0.51100000000E-03 0.  1.
         11   -1    0    0    0    0 -0.00000000000E+00 -0.00000000000E+00 -0.45593999997E+02  0.45594000000E+02  0.51100000000E-03 0. -1.
         23    2    1    2    0    0  0.00000000000E+00  0.35527136788E-14  0.22204460493E-14  0.91188000000E+02  0.91188000000E+02 0.  0.
    9900012    2    3    3    0    0  0.30427366997E+02  0.20540121364E+02  0.28388128506E+01  0.54367080587E+02  0.39999991814E+02 0.  0.
        -12    1    3    3    0    0 -0.30427366997E+02 -0.20540121364E+02 -0.28388128506E+01  0.36820919413E+02  0.00000000000E+00 0.  1.
         11    1    4    4    0    0  0.29463719988E+02  0.22369039688E+02 -0.69155134766E+01  0.37633881795E+02  0.51100000000E-03 0. -1.
        -11    1    4    4    0    0 -0.38179168319E+01  0.26667675752E+01  0.89914080641E+01  0.10125885515E+02  0.51100000000E-03 0.  1.
         12    1    4    4    0    0  0.47815638408E+01 -0.44956858983E+01  0.76291826308E+00  0.66073132767E+01  0.00000000000E+00 0. -1.
</event>
<event>
 8    1  0.1229038E-006  0.9118800E+02  0.7816164E-02  0.1184000E+00
        -11   -1    0    0    0    0  0.00000000000E+00  0.00000000000E+00  0.45593999997E+02  0.45594000000E+02  0.51100000000E-03 0. -1.
         11   -1    0    0    0    0 -0.00000000000E+00 -0.00000000000E+00 -0.45593999997E+02  0.45594000000E+02  0.51100000000E-03 0.  1.
         23    2    1    2    0    0  0.00000000000E+00  0.17763568394E-14  0.00000000000E+00  0.91188000000E+02  0.91188000000E+02 0.  0.
    9900012    2    3    3    0    0  0.12821585365E+02  0.11651175867E+02 -0.32490307414E+02  0.54367312524E+02  0.40000520557E+02 0.  0.
         12    1    3    3    0    0 -0.12821585365E+02 -0.11651175867E+02  0.32490307414E+02  0.36820687476E+02  0.00000000000E+00 0. -1.
         11    1    4    4    0    0  0.19736838833E+02  0.95624632569E+01 -0.37282900576E+01  0.22245980709E+02  0.51100000000E-03 0. -1.
        -11    1    4    4    0    0  0.71894829993E+00  0.52752330777E+01 -0.16434640625E+02  0.17275485042E+02  0.51100000000E-03 0.  1.
         12    1    4    4    0    0 -0.76342017687E+01 -0.31865204677E+01 -0.12327376732E+02  0.14845846773E+02  0.00000000000E+00 0. -1.
</event>
<event>
 8    1  0.1229038E-006  0.9118800E+02  0.7816164E-02  0.1184000E+00
        -11   -1    0    0    0    0  0.00000000000E+00  0.00000000000E+00  0.45593999997E+02  0.45594000000E+02  0.51100000000E-03 0.  1.
         11   -1    0    0    0    0 -0.00000000000E+00 -0.00000000000E+00 -0.45593999997E+02  0.45594000000E+02  0.51100000000E-03 0. -1.
         23    2    1    2    0    0  0.00000000000E+00  0.00000000000E+00  0.00000000000E+00  0.91188000000E+02  0.91188000000E+02 0.  0.
    9900012    2    3    3    0    0 -0.30083792161E+02 -0.13035062218E+02 -0.16758095149E+02  0.54367066405E+02  0.39999959483E+02 0.  0.
        -12    1    3    3    0    0  0.30083792161E+02  0.13035062218E+02  0.16758095149E+02  0.36820933595E+02  0.00000000000E+00 0.  1.
         11    1    4    4    0    0  0.72728193897E+01 -0.17921178568E+00 -0.32344154461E+01  0.79616243492E+01  0.51100000000E-03 0. -1.
        -11    1    4    4    0    0 -0.18049880088E+02  0.22193188647E+01 -0.12151434989E+02  0.21871920811E+02  0.51100000000E-03 0.  1.
        -12    1    4    4    0    0 -0.19306731462E+02 -0.15075169297E+02 -0.13722447132E+01  0.24533521244E+02  0.00000000000E+00 0.  1.
</event>
<event>
 8    1  0.1229038E-006  0.9118800E+02  0.7816164E-02  0.1184000E+00
        -11   -1    0    0    0    0  0.00000000000E+00  0.00000000000E+00  0.45593999997E+02  0.45594000000E+02  0.51100000000E-03 0.  1.
         11   -1    0    0    0    0 -0.00000000000E+00 -0.00000000000E+00 -0.45593999997E+02  0.45594000000E+02  0.51100000000E-03 0. -1.
         23    2    1    2    0    0  0.00000000000E+00  0.00000000000E+00  0.00000000000E+00  0.91188000000E+02  0.91188000000E+02 0.  0.
    9900012    2    3    3    0    0  0.86180036755E+01  0.15485859047E+02 -0.32275345107E+02  0.54367085840E+02  0.40000003790E+02 0.  0.
        -12    1    3    3    0    0 -0.86180036755E+01 -0.15485859047E+02  0.32275345107E+02  0.36820914160E+02  0.00000000000E+00 0.  1.
         11    1    4    4    0    0  0.10544185219E+02 -0.73355732266E+00 -0.19791701022E+02  0.22437231957E+02  0.51100000000E-03 0. -1.
        -11    1    4    4    0    0  0.54156054578E+01 -0.11132026884E+01  0.40681720560E+01  0.68642571950E+01  0.51100000000E-03 0.  1.
         12    1    4    4    0    0 -0.73417870017E+01  0.17332619058E+02 -0.16551816142E+02  0.25065596689E+02  0.00000000000E+00 0. -1.
</event>
<event>
 8    1  0.1229038E-006  0.9118800E+02  0.7816164E-02  0.1184000E+00
        -11   -1    0    0    0    0  0.00000000000E+00  0.00000000000E+00  0.45593999997E+02  0.45594000000E+02  0.51100000000E-03 0.  1.
         11   -1    0    0    0    0 -0.00000000000E+00 -0.00000000000E+00 -0.45593999997E+02  0.45594000000E+02  0.51100000000E-03 0. -1.
         23    2    1    2    0    0  0.17763568394E-14 -0.17763568394E-14  0.00000000000E+00  0.91188000000E+02  0.91188000000E+02 0.  0.
    9900012    2    3    3    0    0 -0.13081493360E+02  0.10856261391E+02 -0.32661840852E+02  0.54367085729E+02  0.40000003536E+02 0.  0.
        -12    1    3    3    0    0  0.13081493360E+02 -0.10856261391E+02  0.32661840852E+02  0.36820914271E+02  0.00000000000E+00 0.  1.
         11    1    4    4    0    0  0.14723983337E+01  0.16808461313E+01 -0.69845977697E-01  0.22356384529E+01  0.51100000000E-03 0. -1.
        -11    1    4    4    0    0  0.24707463863E+01  0.23379502526E+01  0.73932147257E+01  0.81381953363E+01  0.51100000000E-03 0.  1.
         12    1    4    4    0    0 -0.17024638080E+02  0.68374650074E+01 -0.39985209600E+02  0.43993251940E+02  0.00000000000E+00 0. -1.
</event>
<event>
 8    1  0.1229038E-006  0.9118800E+02  0.7816164E-02  0.1184000E+00
        -11   -1    0    0    0    0  0.00000000000E+00  0.00000000000E+00  0.45593999997E+02  0.45594000000E+02  0.51100000000E-03 0.  1.
         11   -1    0    0    0    0 -0.00000000000E+00 -0.00000000000E+00 -0.45593999997E+02  0.45594000000E+02  0.51100000000E-03 0. -1.
         23    2    1    2    0    0  0.00000000000E+00  0.17763568394E-14  0.00000000000E+00  0.91188000000E+02  0.91188000000E+02 0.  0.
    9900012    2    3    3    0    0  0.29672493350E+02  0.66998590923E+01  0.20746919058E+02  0.54367087140E+02  0.40000006753E+02 0.  0.
         12    1    3    3    0    0 -0.29672493350E+02 -0.66998590923E+01 -0.20746919058E+02  0.36820912860E+02  0.00000000000E+00 0. -1.
         11    1    4    4    0    0  0.51938843468E+00 -0.85260267575E+01 -0.30547403685E+01  0.90716225448E+01  0.51100000000E-03 0. -1.
        -11    1    4    4    0    0  0.98119961135E+01  0.16385525547E+02  0.10518669456E+02  0.21803741022E+02  0.51100000000E-03 0.  1.
        -12    1    4    4    0    0  0.19341108801E+02 -0.11596396969E+01  0.13282989970E+02  0.23491723573E+02  0.00000000000E+00 0.  1.
</event>
<event>
 8    1  0.1229038E-006  0.9118800E+02  0.7816164E-02  0.1184000E+00
        -11   -1    0    0    0    0  0.00000000000E+00  0.00000000000E+00  0.45593999997E+02  0.45594000000E+02  0.51100000000E-03 0. -1.
         11   -1    0    0    0    0 -0.00000000000E+00 -0.00000000000E+00 -0.45593999997E+02  0.45594000000E+02  0.51100000000E-03 0.  1.
         23    2    1    2    0    0  0.35527136788E-14  0.71054273576E-14  0.00000000000E+00  0.91188000000E+02  0.91188000000E+02 0.  0.
    9900012    2    3    3    0    0 -0.23271199596E+02 -0.22489913531E+02 -0.17562309774E+02  0.54367086569E+02  0.40000005452E+02 0.  0.
        -12    1    3    3    0    0  0.23271199596E+02  0.22489913531E+02  0.17562309774E+02  0.36820913431E+02  0.00000000000E+00 0.  1.
         11    1    4    4    0    0 -0.32840762675E+01 -0.16530852847E+02 -0.83511910446E+01  0.18809482845E+02  0.51100000000E-03 0. -1.
        -11    1    4    4    0    0  0.54488781505E+01 -0.54624075181E+01 -0.62805122401E+01  0.99485176409E+01  0.51100000000E-03 0.  1.
        -12    1    4    4    0    0 -0.25436001479E+02 -0.49665316586E+00 -0.29306064898E+01  0.25609086083E+02  0.00000000000E+00 0.  1.
</event>
<event>
 8    1  0.1229038E-006  0.9118800E+02  0.7816164E-02  0.1184000E+00
        -11   -1    0    0    0    0  0.00000000000E+00  0.00000000000E+00  0.45593999997E+02  0.45594000000E+02  0.51100000000E-03 0.  1.
         11   -1    0    0    0    0 -0.00000000000E+00 -0.00000000000E+00 -0.45593999997E+02  0.45594000000E+02  0.51100000000E-03 0. -1.
         23    2    1    2    0    0  0.00000000000E+00  0.88817841970E-15  0.00000000000E+00  0.91188000000E+02  0.91188000000E+02 0.  0.
    9900012    2    3    3    0    0  0.44999483333E+01 -0.22195421835E+01  0.36477445775E+02  0.54367082673E+02  0.39999996571E+02 0.  0.
         12    1    3    3    0    0 -0.44999483333E+01  0.22195421835E+01 -0.36477445775E+02  0.36820917327E+02  0.00000000000E+00 0. -1.
         11    1    4    4    0    0 -0.57673459402E+01  0.45713726484E+01  0.31269266950E+01  0.79960864115E+01  0.51100000000E-03 0. -1.
        -11    1    4    4    0    0  0.38686509395E+01  0.72914187001E+01  0.29216687276E+02  0.30360271119E+02  0.51100000000E-03 0.  1.
        -12    1    4    4    0    0  0.63986433340E+01 -0.14082333532E+02  0.41338318035E+01  0.16010725143E+02  0.00000000000E+00 0.  1.
</event>
<event>
 8    1  0.1229038E-006  0.9118800E+02  0.7816164E-02  0.1184000E+00
        -11   -1    0    0    0    0  0.00000000000E+00  0.00000000000E+00  0.45593999997E+02  0.45594000000E+02  0.51100000000E-03 0.  1.
         11   -1    0    0    0    0 -0.00000000000E+00 -0.00000000000E+00 -0.45593999997E+02  0.45594000000E+02  0.51100000000E-03 0. -1.
         23    2    1    2    0    0  0.00000000000E+00 -0.17763568394E-14  0.00000000000E+00  0.91188000000E+02  0.91188000000E+02 0.  0.
    9900012    2    3    3    0    0  0.31083595396E+02 -0.97347142447E+01 -0.17170471529E+02  0.54367086694E+02  0.40000005737E+02 0.  0.
        -12    1    3    3    0    0 -0.31083595396E+02  0.97347142447E+01  0.17170471529E+02  0.36820913306E+02  0.00000000000E+00 0.  1.
         11    1    4    4    0    0  0.15283583611E+02 -0.13964194418E+02 -0.24485177401E+02  0.32064163272E+02  0.51100000000E-03 0. -1.
        -11    1    4    4    0    0  0.38680245596E+01 -0.30967813143E+01  0.66400212353E+01  0.82850196601E+01  0.51100000000E-03 0.  1.
         12    1    4    4    0    0  0.11931987225E+02  0.73262614873E+01  0.67468463686E+00  0.14017903762E+02  0.00000000000E+00 0. -1.
</event>
<event>
 8    1  0.1229038E-006  0.9118800E+02  0.7816164E-02  0.1184000E+00
        -11   -1    0    0    0    0  0.00000000000E+00  0.00000000000E+00  0.45593999997E+02  0.45594000000E+02  0.51100000000E-03 0. -1.
         11   -1    0    0    0    0 -0.00000000000E+00 -0.00000000000E+00 -0.45593999997E+02  0.45594000000E+02  0.51100000000E-03 0.  1.
         23    2    1    2    0    0  0.35527136788E-14  0.00000000000E+00  0.00000000000E+00  0.91188000000E+02  0.91188000000E+02 0.  0.
    9900012    2    3    3    0    0  0.26266061788E+02  0.11813481673E+02  0.22941569005E+02  0.54367082854E+02  0.39999996982E+02 0.  0.
        -12    1    3    3    0    0 -0.26266061788E+02 -0.11813481673E+02 -0.22941569005E+02  0.36820917146E+02  0.00000000000E+00 0.  1.
         11    1    4    4    0    0  0.27458561549E+01 -0.26888453859E+01  0.15735839358E+02  0.16198341153E+02  0.51100000000E-03 0. -1.
        -11    1    4    4    0    0  0.17361986915E+02  0.14695369688E+02  0.15726712192E+02  0.27653606573E+02  0.51100000000E-03 0.  1.
        -12    1    4    4    0    0  0.61582187180E+01 -0.19304262898E+00 -0.85209825449E+01  0.10515135128E+02  0.00000000000E+00 0.  1.
</event>
<event>
 8    1  0.1229038E-006  0.9118800E+02  0.7816164E-02  0.1184000E+00
        -11   -1    0    0    0    0  0.00000000000E+00  0.00000000000E+00  0.45593999997E+02  0.45594000000E+02  0.51100000000E-03 0. -1.
         11   -1    0    0    0    0 -0.00000000000E+00 -0.00000000000E+00 -0.45593999997E+02  0.45594000000E+02  0.51100000000E-03 0.  1.
         23    2    1    2    0    0  0.00000000000E+00  0.00000000000E+00  0.00000000000E+00  0.91188000000E+02  0.91188000000E+02 0.  0.
    9900012    2    3    3    0    0  0.30451596055E+02  0.18758723863E+02  0.87517005173E+01  0.54367059148E+02  0.39999942941E+02 0.  0.
         12    1    3    3    0    0 -0.30451596055E+02 -0.18758723863E+02 -0.87517005173E+01  0.36820940852E+02  0.00000000000E+00 0. -1.
         11    1    4    4    0    0  0.26689320306E+00  0.14285510098E+02 -0.24558081184E+01  0.14497517874E+02  0.51100000000E-03 0. -1.
        -11    1    4    4    0    0  0.68546994512E+01  0.10303567738E+02  0.97913223795E+01  0.15780380442E+02  0.51100000000E-03 0.  1.
        -12    1    4    4    0    0  0.23330003400E+02 -0.58303539722E+01  0.14161862562E+01  0.24089160833E+02  0.00000000000E+00 0.  1.
</event>
<event>
 8    1  0.1229038E-006  0.9118800E+02  0.7816164E-02  0.1184000E+00
        -11   -1    0    0    0    0  0.00000000000E+00  0.00000000000E+00  0.45593999997E+02  0.45594000000E+02  0.51100000000E-03 0. -1.
         11   -1    0    0    0    0 -0.00000000000E+00 -0.00000000000E+00 -0.45593999997E+02  0.45594000000E+02  0.51100000000E-03 0.  1.
         23    2    1    2    0    0  0.00000000000E+00  0.00000000000E+00  0.00000000000E+00  0.91188000000E+02  0.91188000000E+02 0.  0.
    9900012    2    3    3    0    0 -0.14755090243E+02 -0.24094118070E+02 -0.23612295391E+02  0.54367086007E+02  0.40000004170E+02 0.  0.
         12    1    3    3    0    0  0.14755090243E+02  0.24094118070E+02  0.23612295391E+02  0.36820913993E+02  0.00000000000E+00 0. -1.
         11    1    4    4    0    0  0.40385988223E+01 -0.49747879035E+00 -0.24287243388E+01  0.47388255686E+01  0.51100000000E-03 0. -1.
        -11    1    4    4    0    0 -0.43938877230E+01 -0.29119114112E+02 -0.14369818343E+02  0.32767678213E+02  0.51100000000E-03 0.  1.
        -12    1    4    4    0    0 -0.14399801343E+02  0.55224748330E+01 -0.68137527090E+01  0.16860582225E+02  0.00000000000E+00 0.  1.
</event>
<event>
 8    1  0.1229038E-006  0.9118800E+02  0.7816164E-02  0.1184000E+00
        -11   -1    0    0    0    0  0.00000000000E+00  0.00000000000E+00  0.45593999997E+02  0.45594000000E+02  0.51100000000E-03 0. -1.
         11   -1    0    0    0    0 -0.00000000000E+00 -0.00000000000E+00 -0.45593999997E+02  0.45594000000E+02  0.51100000000E-03 0.  1.
         23    2    1    2    0    0  0.00000000000E+00 -0.35527136788E-14  0.00000000000E+00  0.91188000000E+02  0.91188000000E+02 0.  0.
    9900012    2    3    3    0    0  0.20384056540E+02  0.30216607524E+02  0.52179262708E+01  0.54367083582E+02  0.39999998641E+02 0.  0.
         12    1    3    3    0    0 -0.20384056540E+02 -0.30216607524E+02 -0.52179262708E+01  0.36820916418E+02  0.00000000000E+00 0. -1.
         11    1    4    4    0    0  0.11994734199E+02 -0.16854708542E+01 -0.28362015248E+01  0.12440196938E+02  0.51100000000E-03 0. -1.
        -11    1    4    4    0    0  0.13470185145E+02  0.27735381760E+02  0.13240265126E+02  0.33555951932E+02  0.51100000000E-03 0.  1.
        -12    1    4    4    0    0 -0.50808628031E+01  0.41666966183E+01 -0.51861373305E+01  0.83709347115E+01  0.00000000000E+00 0.  1.
</event>
<event>
 8    1  0.1229038E-006  0.9118800E+02  0.7816164E-02  0.1184000E+00
        -11   -1    0    0    0    0  0.00000000000E+00  0.00000000000E+00  0.45593999997E+02  0.45594000000E+02  0.51100000000E-03 0.  1.
         11   -1    0    0    0    0 -0.00000000000E+00 -0.00000000000E+00 -0.45593999997E+02  0.45594000000E+02  0.51100000000E-03 0. -1.
         23    2    1    2    0    0 -0.35527136788E-14  0.35527136788E-14  0.88817841970E-15  0.91188000000E+02  0.91188000000E+02 0.  0.
    9900012    2    3    3    0    0  0.30468946164E+02 -0.20169085197E+02 -0.45421387375E+01  0.54367086074E+02  0.40000004323E+02 0.  0.
        -12    1    3    3    0    0 -0.30468946164E+02  0.20169085197E+02  0.45421387375E+01  0.36820913926E+02  0.00000000000E+00 0.  1.
         11    1    4    4    0    0 -0.12570904472E+01 -0.28163039829E+01  0.74984800602E+00  0.31739749226E+01  0.51100000000E-03 0. -1.
        -11    1    4    4    0    0  0.27358391339E+01  0.69033479742E+01  0.81957578365E+01  0.11059451876E+02  0.51100000000E-03 0.  1.
         12    1    4    4    0    0  0.28990197477E+02 -0.24256129189E+02 -0.13487744580E+02  0.40133659275E+02  0.00000000000E+00 0. -1.
</event>
<event>
 8    1  0.1229038E-006  0.9118800E+02  0.7816164E-02  0.1184000E+00
        -11   -1    0    0    0    0  0.00000000000E+00  0.00000000000E+00  0.45593999997E+02  0.45594000000E+02  0.51100000000E-03 0. -1.
         11   -1    0    0    0    0 -0.00000000000E+00 -0.00000000000E+00 -0.45593999997E+02  0.45594000000E+02  0.51100000000E-03 0.  1.
         23    2    1    2    0    0  0.00000000000E+00  0.00000000000E+00  0.88817841970E-15  0.91188000000E+02  0.91188000000E+02 0.  0.
    9900012    2    3    3    0    0 -0.30027140114E+00  0.36631154499E+02  0.37212300756E+01  0.54367092948E+02  0.40000019993E+02 0.  0.
        -12    1    3    3    0    0  0.30027140114E+00 -0.36631154499E+02 -0.37212300756E+01  0.36820907052E+02  0.00000000000E+00 0.  1.
         11    1    4    4    0    0 -0.25147719802E+01  0.22201152733E+02  0.15927886531E+02  0.27439257104E+02  0.51100000000E-03 0. -1.
        -11    1    4    4    0    0  0.29759493273E+01  0.53069300129E+01  0.47089773536E+01  0.76937798602E+01  0.51100000000E-03 0.  1.
        -12    1    4    4    0    0 -0.76144874827E+00  0.91230717538E+01 -0.16915633809E+02  0.19234055984E+02  0.00000000000E+00 0.  1.
</event>
<event>
 8    1  0.1229038E-006  0.9118800E+02  0.7816164E-02  0.1184000E+00
        -11   -1    0    0    0    0  0.00000000000E+00  0.00000000000E+00  0.45593999997E+02  0.45594000000E+02  0.51100000000E-03 0.  1.
         11   -1    0    0    0    0 -0.00000000000E+00 -0.00000000000E+00 -0.45593999997E+02  0.45594000000E+02  0.51100000000E-03 0. -1.
         23    2    1    2    0    0  0.17763568394E-14  0.11102230246E-15  0.71054273576E-14  0.91188000000E+02  0.91188000000E+02 0.  0.
    9900012    2    3    3    0    0  0.77391087869E+01 -0.76396297162E+00  0.35990206198E+02  0.54367185418E+02  0.40000230798E+02 0.  0.
         12    1    3    3    0    0 -0.77391087869E+01  0.76396297162E+00 -0.35990206198E+02  0.36820814582E+02  0.00000000000E+00 0. -1.
         11    1    4    4    0    0 -0.16646628235E+01 -0.72073532403E+00  0.45466825419E+01  0.48951898964E+01  0.51100000000E-03 0. -1.
        -11    1    4    4    0    0 -0.52671815697E+01  0.49074255577E+01  0.33124059610E+02  0.33897335479E+02  0.51100000000E-03 0.  1.
         12    1    4    4    0    0  0.14670953180E+02 -0.49506532053E+01 -0.16805359530E+01  0.15574660043E+02  0.00000000000E+00 0. -1.
</event>
<event>
 8    1  0.1229038E-006  0.9118800E+02  0.7816164E-02  0.1184000E+00
        -11   -1    0    0    0    0  0.00000000000E+00  0.00000000000E+00  0.45593999997E+02  0.45594000000E+02  0.51100000000E-03 0.  1.
         11   -1    0    0    0    0 -0.00000000000E+00 -0.00000000000E+00 -0.45593999997E+02  0.45594000000E+02  0.51100000000E-03 0. -1.
         23    2    1    2    0    0  0.00000000000E+00 -0.35527136788E-14  0.00000000000E+00  0.91188000000E+02  0.91188000000E+02 0.  0.
    9900012    2    3    3    0    0 -0.10922313651E+02  0.24760987911E+02  0.24967482105E+02  0.54367100765E+02  0.40000037813E+02 0.  0.
        -12    1    3    3    0    0  0.10922313651E+02 -0.24760987911E+02 -0.24967482105E+02  0.36820899235E+02  0.00000000000E+00 0.  1.
         11    1    4    4    0    0 -0.13000303565E+02  0.12686354212E+01  0.13893930719E+02  0.19069835860E+02  0.51100000000E-03 0. -1.
        -11    1    4    4    0    0  0.11472158848E+00 -0.48853533582E+01  0.29761724393E+01  0.57216641921E+01  0.51100000000E-03 0.  1.
         12    1    4    4    0    0  0.19632683256E+01  0.28377705848E+02  0.80973789464E+01  0.29575600713E+02  0.00000000000E+00 0. -1.
</event>
<event>
 8    1  0.1229038E-006  0.9118800E+02  0.7816164E-02  0.1184000E+00
        -11   -1    0    0    0    0  0.00000000000E+00  0.00000000000E+00  0.45593999997E+02  0.45594000000E+02  0.51100000000E-03 0.  1.
         11   -1    0    0    0    0 -0.00000000000E+00 -0.00000000000E+00 -0.45593999997E+02  0.45594000000E+02  0.51100000000E-03 0. -1.
         23    2    1    2    0    0 -0.35527136788E-14  0.00000000000E+00 -0.88817841970E-15  0.91188000000E+02  0.91188000000E+02 0.  0.
    9900012    2    3    3    0    0  0.25800570225E+02 -0.25333886974E+02 -0.69502555759E+01  0.54367064301E+02  0.39999954687E+02 0.  0.
        -12    1    3    3    0    0 -0.25800570225E+02  0.25333886974E+02  0.69502555759E+01  0.36820935699E+02  0.00000000000E+00 0.  1.
         11    1    4    4    0    0  0.87878004964E+01 -0.14961639435E+02 -0.15459145071E+02  0.23239218118E+02  0.51100000000E-03 0. -1.
        -11    1    4    4    0    0 -0.44242608590E+01 -0.34478223800E+01 -0.23963325746E+01  0.60995059949E+01  0.51100000000E-03 0.  1.
         12    1    4    4    0    0  0.21437030588E+02 -0.69244251594E+01  0.10905222069E+02  0.25028340188E+02  0.00000000000E+00 0. -1.
</event>
<event>
 8    1  0.1229038E-006  0.9118800E+02  0.7816164E-02  0.1184000E+00
        -11   -1    0    0    0    0  0.00000000000E+00  0.00000000000E+00  0.45593999997E+02  0.45594000000E+02  0.51100000000E-03 0. -1.
         11   -1    0    0    0    0 -0.00000000000E+00 -0.00000000000E+00 -0.45593999997E+02  0.45594000000E+02  0.51100000000E-03 0.  1.
         23    2    1    2    0    0  0.00000000000E+00  0.00000000000E+00 -0.35527136788E-14  0.91188000000E+02  0.91188000000E+02 0.  0.
    9900012    2    3    3    0    0  0.43244309469E+01  0.18154965990E+02 -0.31740766805E+02  0.54367085149E+02  0.40000002213E+02 0.  0.
         12    1    3    3    0    0 -0.43244309469E+01 -0.18154965990E+02  0.31740766805E+02  0.36820914851E+02  0.00000000000E+00 0. -1.
         11    1    4    4    0    0 -0.11849736409E+02 -0.12011967474E+01 -0.10035567707E+02  0.15574714959E+02  0.51100000000E-03 0. -1.
        -11    1    4    4    0    0  0.15056396942E+02  0.13477426156E+02 -0.24852625850E+02  0.32031064868E+02  0.51100000000E-03 0.  1.
        -12    1    4    4    0    0  0.11177704141E+01  0.58787365817E+01  0.31474267517E+01  0.67613053216E+01  0.00000000000E+00 0.  1.
</event>
<event>
 8    1  0.1229038E-006  0.9118800E+02  0.7816164E-02  0.1184000E+00
        -11   -1    0    0    0    0  0.00000000000E+00  0.00000000000E+00  0.45593999997E+02  0.45594000000E+02  0.51100000000E-03 0. -1.
         11   -1    0    0    0    0 -0.00000000000E+00 -0.00000000000E+00 -0.45593999997E+02  0.45594000000E+02  0.51100000000E-03 0.  1.
         23    2    1    2    0    0  0.00000000000E+00  0.88817841970E-15  0.88817841970E-15  0.91188000000E+02  0.91188000000E+02 0.  0.
    9900012    2    3    3    0    0 -0.36275976722E+02 -0.60575174105E+01 -0.17720556947E+01  0.54367079510E+02  0.39999989359E+02 0.  0.
         12    1    3    3    0    0  0.36275976722E+02  0.60575174105E+01  0.17720556947E+01  0.36820920490E+02  0.00000000000E+00 0. -1.
         11    1    4    4    0    0 -0.62947178875E+01  0.92060110116E+01  0.77394815319E+01  0.13574744442E+02  0.51100000000E-03 0. -1.
        -11    1    4    4    0    0 -0.73527986844E+01  0.53078104820E+01 -0.26941927499E+01  0.94601889749E+01  0.51100000000E-03 0.  1.
        -12    1    4    4    0    0 -0.22628460150E+02 -0.20571338904E+02 -0.68173444767E+01  0.31332146093E+02  0.00000000000E+00 0.  1.
</event>
<event>
 8    1  0.1229038E-006  0.9118800E+02  0.7816164E-02  0.1184000E+00
        -11   -1    0    0    0    0  0.00000000000E+00  0.00000000000E+00  0.45593999997E+02  0.45594000000E+02  0.51100000000E-03 0. -1.
         11   -1    0    0    0    0 -0.00000000000E+00 -0.00000000000E+00 -0.45593999997E+02  0.45594000000E+02  0.51100000000E-03 0.  1.
         23    2    1    2    0    0  0.00000000000E+00  0.00000000000E+00  0.00000000000E+00  0.91188000000E+02  0.91188000000E+02 0.  0.
    9900012    2    3    3    0    0 -0.19428029689E+02 -0.24936622434E+02 -0.18881119358E+02  0.54367080074E+02  0.39999990645E+02 0.  0.
         12    1    3    3    0    0  0.19428029689E+02  0.24936622434E+02  0.18881119358E+02  0.36820919926E+02  0.00000000000E+00 0. -1.
         11    1    4    4    0    0 -0.80276018543E+01 -0.28302461795E-02  0.69686276169E+01  0.10630341982E+02  0.51100000000E-03 0.  1.
        -11    1    4    4    0    0 -0.10246715818E+02 -0.18169346841E+02 -0.45379785822E+01  0.21347449486E+02  0.51100000000E-03 0. -1.
        -12    1    4    4    0    0 -0.11537120168E+01 -0.67644453460E+01 -0.21311768392E+02  0.22389288606E+02  0.00000000000E+00 0.  1.
</event>
<event>
 8    1  0.1229038E-006  0.9118800E+02  0.7816164E-02  0.1184000E+00
        -11   -1    0    0    0    0  0.00000000000E+00  0.00000000000E+00  0.45593999997E+02  0.45594000000E+02  0.51100000000E-03 0. -1.
         11   -1    0    0    0    0 -0.00000000000E+00 -0.00000000000E+00 -0.45593999997E+02  0.45594000000E+02  0.51100000000E-03 0.  1.
         23    2    1    2    0    0  0.00000000000E+00  0.00000000000E+00  0.35527136788E-14  0.91188000000E+02  0.91188000000E+02 0.  0.
    9900012    2    3    3    0    0  0.28556565888E+02 -0.81369727478E+01 -0.21773658926E+02  0.54367081980E+02  0.39999994989E+02 0.  0.
         12    1    3    3    0    0 -0.28556565888E+02  0.81369727478E+01  0.21773658926E+02  0.36820918020E+02  0.00000000000E+00 0. -1.
         11    1    4    4    0    0  0.11153847657E+00 -0.11040746553E+02 -0.16772982630E+02  0.20080923082E+02  0.51100000000E-03 0. -1.
        -11    1    4    4    0    0  0.20845332582E+02  0.10235164547E+02 -0.19999664671E+01  0.23308503811E+02  0.51100000000E-03 0.  1.
         12    1    4    4    0    0  0.75996948297E+01 -0.73313907424E+01 -0.30007098294E+01  0.10977655087E+02  0.00000000000E+00 0. -1.
</event>
<event>
 8    1  0.1229038E-006  0.9118800E+02  0.7816164E-02  0.1184000E+00
        -11   -1    0    0    0    0  0.00000000000E+00  0.00000000000E+00  0.45593999997E+02  0.45594000000E+02  0.51100000000E-03 0.  1.
         11   -1    0    0    0    0 -0.00000000000E+00 -0.00000000000E+00 -0.45593999997E+02  0.45594000000E+02  0.51100000000E-03 0. -1.
         23    2    1    2    0    0  0.22204460493E-15 -0.35527136788E-14  0.71054273576E-14  0.91188000000E+02  0.91188000000E+02 0.  0.
    9900012    2    3    3    0    0  0.11217491383E+01  0.19314719112E+02 -0.31328306290E+02  0.54367089222E+02  0.40000011500E+02 0.  0.
        -12    1    3    3    0    0 -0.11217491383E+01 -0.19314719112E+02  0.31328306290E+02  0.36820910778E+02  0.00000000000E+00 0.  1.
         11    1    4    4    0    0 -0.28874636372E+01  0.18272512630E+02 -0.68444416927E+00  0.18511905038E+02  0.51100000000E-03 0. -1.
        -11    1    4    4    0    0 -0.68398819417E+01 -0.26566473816E+00 -0.69095852615E+01  0.97260953870E+01  0.51100000000E-03 0.  1.
         12    1    4    4    0    0  0.10849094717E+02  0.13078712199E+01 -0.23734276859E+02  0.26129088797E+02  0.00000000000E+00 0. -1.
</event>
<event>
 8    1  0.1229038E-006  0.9118800E+02  0.7816164E-02  0.1184000E+00
        -11   -1    0    0    0    0  0.00000000000E+00  0.00000000000E+00  0.45593999997E+02  0.45594000000E+02  0.51100000000E-03 0. -1.
         11   -1    0    0    0    0 -0.00000000000E+00 -0.00000000000E+00 -0.45593999997E+02  0.45594000000E+02  0.51100000000E-03 0.  1.
         23    2    1    2    0    0 -0.35527136788E-14 -0.35527136788E-14  0.00000000000E+00  0.91188000000E+02  0.91188000000E+02 0.  0.
    9900012    2    3    3    0    0  0.31791978634E+02  0.18266750786E+02 -0.33728423950E+01  0.54367079919E+02  0.39999990292E+02 0.  0.
        -12    1    3    3    0    0 -0.31791978634E+02 -0.18266750786E+02  0.33728423950E+01  0.36820920081E+02  0.00000000000E+00 0.  1.
         11    1    4    4    0    0  0.30328912773E+02  0.24010746795E+02 -0.45619137977E+01  0.38950866093E+02  0.51100000000E-03 0. -1.
        -11    1    4    4    0    0 -0.33459252806E+00 -0.28408890845E+01 -0.64460920520E+01  0.70522837403E+01  0.51100000000E-03 0.  1.
        -12    1    4    4    0    0  0.17976583892E+01 -0.29031069246E+01  0.76351634546E+01  0.83639300857E+01  0.00000000000E+00 0.  1.
</event>
<event>
 8    1  0.1229038E-006  0.9118800E+02  0.7816164E-02  0.1184000E+00
        -11   -1    0    0    0    0  0.00000000000E+00  0.00000000000E+00  0.45593999997E+02  0.45594000000E+02  0.51100000000E-03 0.  1.
         11   -1    0    0    0    0 -0.00000000000E+00 -0.00000000000E+00 -0.45593999997E+02  0.45594000000E+02  0.51100000000E-03 0. -1.
         23    2    1    2    0    0  0.00000000000E+00  0.17763568394E-14  0.00000000000E+00  0.91188000000E+02  0.91188000000E+02 0.  0.
    9900012    2    3    3    0    0  0.26043070305E+01  0.14050333323E+02  0.33935038309E+02  0.54367067005E+02  0.39999960850E+02 0.  0.
         12    1    3    3    0    0 -0.26043070305E+01 -0.14050333323E+02 -0.33935038309E+02  0.36820932995E+02  0.00000000000E+00 0. -1.
         11    1    4    4    0    0 -0.11899721520E+02  0.11625242461E+02  0.27662389562E+01  0.16864213968E+02  0.51100000000E-03 0. -1.
        -11    1    4    4    0    0  0.98484056167E+01  0.84932526840E+01  0.17027532527E+02  0.21425762497E+02  0.51100000000E-03 0.  1.
         12    1    4    4    0    0  0.46556229339E+01 -0.60681618215E+01  0.14141266826E+02  0.16077090540E+02  0.00000000000E+00 0. -1.
</event>
<event>
 8    1  0.1229038E-006  0.9118800E+02  0.7816164E-02  0.1184000E+00
        -11   -1    0    0    0    0  0.00000000000E+00  0.00000000000E+00  0.45593999997E+02  0.45594000000E+02  0.51100000000E-03 0. -1.
         11   -1    0    0    0    0 -0.00000000000E+00 -0.00000000000E+00 -0.45593999997E+02  0.45594000000E+02  0.51100000000E-03 0.  1.
         23    2    1    2    0    0 -0.35527136788E-14  0.00000000000E+00  0.00000000000E+00  0.91188000000E+02  0.91188000000E+02 0.  0.
    9900012    2    3    3    0    0 -0.23943376717E+02 -0.14908737023E+02  0.23669034778E+02  0.54367096486E+02  0.40000028059E+02 0.  0.
        -12    1    3    3    0    0  0.23943376717E+02  0.14908737023E+02 -0.23669034778E+02  0.36820903514E+02  0.00000000000E+00 0.  1.
         11    1    4    4    0    0 -0.30271751539E+01  0.10036118726E+02  0.44129573082E+01  0.11373726784E+02  0.51100000000E-03 0. -1.
        -11    1    4    4    0    0 -0.39602532131E+01  0.27571417120E+01  0.65080608069E+01  0.81018696397E+01  0.51100000000E-03 0.  1.
        -12    1    4    4    0    0 -0.16955948350E+02 -0.27701997461E+02  0.12748016663E+02  0.34891500063E+02  0.00000000000E+00 0.  1.
</event>
<event>
 8    1  0.1229038E-006  0.9118800E+02  0.7816164E-02  0.1184000E+00
        -11   -1    0    0    0    0  0.00000000000E+00  0.00000000000E+00  0.45593999997E+02  0.45594000000E+02  0.51100000000E-03 0. -1.
         11   -1    0    0    0    0 -0.00000000000E+00 -0.00000000000E+00 -0.45593999997E+02  0.45594000000E+02  0.51100000000E-03 0.  1.
         23    2    1    2    0    0 -0.35527136788E-14 -0.35527136788E-14 -0.17763568394E-14  0.91188000000E+02  0.91188000000E+02 0.  0.
    9900012    2    3    3    0    0  0.18820374729E+02  0.29179916742E+02  0.12251709750E+02  0.54367103245E+02  0.40000043468E+02 0.  0.
        -12    1    3    3    0    0 -0.18820374729E+02 -0.29179916742E+02 -0.12251709750E+02  0.36820896755E+02  0.00000000000E+00 0.  1.
         11    1    4    4    0    0  0.18269012230E+01  0.20991405642E+02  0.14647476168E+02  0.25661746575E+02  0.51100000000E-03 0. -1.
        -11    1    4    4    0    0  0.11326036502E+02 -0.45735975414E+01  0.46435281124E+01  0.13067488317E+02  0.51100000000E-03 0.  1.
         12    1    4    4    0    0  0.56674370039E+01  0.12762108641E+02 -0.70392945303E+01  0.15637868354E+02  0.00000000000E+00 0. -1.
</event>
<event>
 8    1  0.1229038E-006  0.9118800E+02  0.7816164E-02  0.1184000E+00
        -11   -1    0    0    0    0  0.00000000000E+00  0.00000000000E+00  0.45593999997E+02  0.45594000000E+02  0.51100000000E-03 0.  1.
         11   -1    0    0    0    0 -0.00000000000E+00 -0.00000000000E+00 -0.45593999997E+02  0.45594000000E+02  0.51100000000E-03 0. -1.
         23    2    1    2    0    0  0.71054273576E-14 -0.88817841970E-15  0.00000000000E+00  0.91188000000E+02  0.91188000000E+02 0.  0.
    9900012    2    3    3    0    0 -0.35315274074E+02 -0.24343976498E+01 -0.10133227932E+02  0.54367120283E+02  0.40000082308E+02 0.  0.
        -12    1    3    3    0    0  0.35315274074E+02  0.24343976498E+01  0.10133227932E+02  0.36820879717E+02  0.00000000000E+00 0.  1.
         11    1    4    4    0    0 -0.97509144178E+01 -0.10132035785E+02 -0.46603857629E+01  0.14814103984E+02  0.51100000000E-03 0. -1.
        -11    1    4    4    0    0 -0.24844795745E+02  0.66104387021E+01  0.72907862473E+01  0.26722974007E+02  0.51100000000E-03 0.  1.
         12    1    4    4    0    0 -0.71956391117E+00  0.10871994332E+01 -0.12763628417E+02  0.12830042291E+02  0.00000000000E+00 0. -1.
</event>
<event>
 8    1  0.1229038E-006  0.9118800E+02  0.7816164E-02  0.1184000E+00
        -11   -1    0    0    0    0  0.00000000000E+00  0.00000000000E+00  0.45593999997E+02  0.45594000000E+02  0.51100000000E-03 0.  1.
         11   -1    0    0    0    0 -0.00000000000E+00 -0.00000000000E+00 -0.45593999997E+02  0.45594000000E+02  0.51100000000E-03 0. -1.
         23    2    1    2    0    0  0.00000000000E+00 -0.44408920985E-15  0.00000000000E+00  0.91188000000E+02  0.91188000000E+02 0.  0.
    9900012    2    3    3    0    0 -0.64166717902E+01  0.25039315242E+01 -0.36170950417E+02  0.54367068398E+02  0.39999964027E+02 0.  0.
        -12    1    3    3    0    0  0.64166717902E+01 -0.25039315242E+01  0.36170950417E+02  0.36820931602E+02  0.00000000000E+00 0.  1.
         11    1    4    4    0    0  0.35827809160E+00  0.10285220526E+02 -0.38285954570E+02  0.39645030484E+02  0.51100000000E-03 0. -1.
        -11    1    4    4    0    0  0.26360544062E+01 -0.26545506245E+01 -0.24275240093E+00  0.37489132879E+01  0.51100000000E-03 0.  1.
         12    1    4    4    0    0 -0.94110042880E+01 -0.51267383771E+01  0.23577565539E+01  0.10973124626E+02  0.00000000000E+00 0. -1.
</event>
<event>
 8    1  0.1229038E-006  0.9118800E+02  0.7816164E-02  0.1184000E+00
        -11   -1    0    0    0    0  0.00000000000E+00  0.00000000000E+00  0.45593999997E+02  0.45594000000E+02  0.51100000000E-03 0.  1.
         11   -1    0    0    0    0 -0.00000000000E+00 -0.00000000000E+00 -0.45593999997E+02  0.45594000000E+02  0.51100000000E-03 0. -1.
         23    2    1    2    0    0 -0.88817841970E-15  0.88817841970E-15  0.00000000000E+00  0.91188000000E+02  0.91188000000E+02 0.  0.
    9900012    2    3    3    0    0 -0.29189433234E+01 -0.48522417477E+01  0.36382730742E+02  0.54367250736E+02  0.40000379701E+02 0.  0.
         12    1    3    3    0    0  0.29189433234E+01  0.48522417477E+01 -0.36382730742E+02  0.36820749264E+02  0.00000000000E+00 0. -1.
         11    1    4    4    0    0  0.90039907599E+01  0.71549053188E+01  0.26260749521E+02  0.28668649871E+02  0.51100000000E-03 0. -1.
        -11    1    4    4    0    0 -0.11695856766E+02 -0.74727162046E+00  0.21875527112E+01  0.11922116737E+02  0.51100000000E-03 0.  1.
         12    1    4    4    0    0 -0.22707731779E+00 -0.11259875446E+02  0.79344285097E+01  0.13776484129E+02  0.00000000000E+00 0. -1.
</event>
<event>
 8    1  0.1229038E-006  0.9118800E+02  0.7816164E-02  0.1184000E+00
        -11   -1    0    0    0    0  0.00000000000E+00  0.00000000000E+00  0.45593999997E+02  0.45594000000E+02  0.51100000000E-03 0.  1.
         11   -1    0    0    0    0 -0.00000000000E+00 -0.00000000000E+00 -0.45593999997E+02  0.45594000000E+02  0.51100000000E-03 0. -1.
         23    2    1    2    0    0 -0.35527136788E-14  0.88817841970E-15 -0.71054273576E-14  0.91188000000E+02  0.91188000000E+02 0.  0.
    9900012    2    3    3    0    0 -0.23866115524E+02  0.60602536933E+01 -0.27375994299E+02  0.54367310044E+02  0.40000514903E+02 0.  0.
        -12    1    3    3    0    0  0.23866115524E+02 -0.60602536933E+01  0.27375994299E+02  0.36820689956E+02  0.00000000000E+00 0.  1.
         11    1    4    4    0    0 -0.16016236802E+02  0.96170105834E+01 -0.25060459997E+02  0.31257533322E+02  0.51100000000E-03 0. -1.
        -11    1    4    4    0    0 -0.17743563681E+01 -0.31826794394E+01  0.93041630436E+01  0.99922589607E+01  0.51100000000E-03 0.  1.
        -12    1    4    4    0    0 -0.60755223538E+01 -0.37407745065E+00 -0.11619697345E+02  0.13117517760E+02  0.00000000000E+00 0.  1.
</event>
<event>
 8    1  0.1229038E-006  0.9118800E+02  0.7816164E-02  0.1184000E+00
        -11   -1    0    0    0    0  0.00000000000E+00  0.00000000000E+00  0.45593999997E+02  0.45594000000E+02  0.51100000000E-03 0.  1.
         11   -1    0    0    0    0 -0.00000000000E+00 -0.00000000000E+00 -0.45593999997E+02  0.45594000000E+02  0.51100000000E-03 0. -1.
         23    2    1    2    0    0  0.00000000000E+00 -0.35527136788E-14  0.17763568394E-14  0.91188000000E+02  0.91188000000E+02 0.  0.
    9900012    2    3    3    0    0 -0.29584113267E+02  0.16864855284E+02 -0.14004864683E+02  0.54367091044E+02  0.40000015652E+02 0.  0.
        -12    1    3    3    0    0  0.29584113267E+02 -0.16864855284E+02  0.14004864683E+02  0.36820908956E+02  0.00000000000E+00 0.  1.
         11    1    4    4    0    0 -0.34056067957E+02  0.11615668175E+02 -0.14547001432E+02  0.38811786390E+02  0.51100000000E-03 0. -1.
        -11    1    4    4    0    0  0.12681386576E+01 -0.86578733391E-01 -0.62295997879E+01  0.63579544911E+01  0.51100000000E-03 0.  1.
        -12    1    4    4    0    0  0.32038160326E+01  0.53357658428E+01  0.67717365361E+01  0.91973501627E+01  0.00000000000E+00 0.  1.
</event>
<event>
 8    1  0.1229038E-006  0.9118800E+02  0.7816164E-02  0.1184000E+00
        -11   -1    0    0    0    0  0.00000000000E+00  0.00000000000E+00  0.45593999997E+02  0.45594000000E+02  0.51100000000E-03 0.  1.
         11   -1    0    0    0    0 -0.00000000000E+00 -0.00000000000E+00 -0.45593999997E+02  0.45594000000E+02  0.51100000000E-03 0. -1.
         23    2    1    2    0    0 -0.44408920985E-15  0.71054273576E-14  0.17763568394E-14  0.91188000000E+02  0.91188000000E+02 0.  0.
    9900012    2    3    3    0    0 -0.65393561773E+00  0.35655331169E+02  0.91678591439E+01  0.54367083202E+02  0.39999997776E+02 0.  0.
         12    1    3    3    0    0  0.65393561773E+00 -0.35655331169E+02 -0.91678591439E+01  0.36820916798E+02  0.00000000000E+00 0. -1.
         11    1    4    4    0    0  0.69670557510E+00  0.17616667858E+01  0.71644054286E+01  0.74106392389E+01  0.51100000000E-03 0. -1.
        -11    1    4    4    0    0  0.14096438030E+02  0.25977462429E+02  0.11446928167E+01  0.29577836994E+02  0.51100000000E-03 0.  1.
         12    1    4    4    0    0 -0.15447079223E+02  0.79162019542E+01  0.85876089860E+00  0.17378606969E+02  0.00000000000E+00 0. -1.
</event>
<event>
 8    1  0.1229038E-006  0.9118800E+02  0.7816164E-02  0.1184000E+00
        -11   -1    0    0    0    0  0.00000000000E+00  0.00000000000E+00  0.45593999997E+02  0.45594000000E+02  0.51100000000E-03 0. -1.
         11   -1    0    0    0    0 -0.00000000000E+00 -0.00000000000E+00 -0.45593999997E+02  0.45594000000E+02  0.51100000000E-03 0.  1.
         23    2    1    2    0    0 -0.35527136788E-14  0.17763568394E-14 -0.35527136788E-14  0.91188000000E+02  0.91188000000E+02 0.  0.
    9900012    2    3    3    0    0  0.13453291669E+02 -0.14718874319E+02  0.30953782936E+02  0.54367177141E+02  0.40000211927E+02 0.  0.
        -12    1    3    3    0    0 -0.13453291669E+02  0.14718874319E+02 -0.30953782936E+02  0.36820822859E+02  0.00000000000E+00 0.  1.
         11    1    4    4    0    0  0.19714288112E+02  0.36930486954E+01  0.19738743701E+02  0.28140891379E+02  0.51100000000E-03 0. -1.
        -11    1    4    4    0    0 -0.99769157251E+01 -0.17004027467E+02  0.89368967021E+01  0.21645875367E+02  0.51100000000E-03 0.  1.
        -12    1    4    4    0    0  0.37159192820E+01 -0.14078955474E+01  0.22781425334E+01  0.45804103949E+01  0.00000000000E+00 0.  1.
</event>
<event>
 8    1  0.1229038E-006  0.9118800E+02  0.7816164E-02  0.1184000E+00
        -11   -1    0    0    0    0  0.00000000000E+00  0.00000000000E+00  0.45593999997E+02  0.45594000000E+02  0.51100000000E-03 0.  1.
         11   -1    0    0    0    0 -0.00000000000E+00 -0.00000000000E+00 -0.45593999997E+02  0.45594000000E+02  0.51100000000E-03 0. -1.
         23    2    1    2    0    0 -0.71054273576E-14  0.00000000000E+00  0.00000000000E+00  0.91188000000E+02  0.91188000000E+02 0.  0.
    9900012    2    3    3    0    0 -0.19804152494E+02 -0.17167051325E+02 -0.25862450998E+02  0.54367102689E+02  0.40000042199E+02 0.  0.
        -12    1    3    3    0    0  0.19804152494E+02  0.17167051325E+02  0.25862450998E+02  0.36820897311E+02  0.00000000000E+00 0.  1.
         11    1    4    4    0    0 -0.14068391762E+02  0.54298140825E+01 -0.44958161343E+01  0.15735783765E+02  0.51100000000E-03 0.  1.
        -11    1    4    4    0    0 -0.87290442544E+00  0.41969442903E+01 -0.59665774036E+01  0.73468598521E+01  0.51100000000E-03 0. -1.
        -12    1    4    4    0    0 -0.48628563063E+01 -0.26793809698E+02 -0.15400057460E+02  0.31284459071E+02  0.00000000000E+00 0.  1.
</event>
<event>
 8    1  0.1229038E-006  0.9118800E+02  0.7816164E-02  0.1184000E+00
        -11   -1    0    0    0    0  0.00000000000E+00  0.00000000000E+00  0.45593999997E+02  0.45594000000E+02  0.51100000000E-03 0.  1.
         11   -1    0    0    0    0 -0.00000000000E+00 -0.00000000000E+00 -0.45593999997E+02  0.45594000000E+02  0.51100000000E-03 0. -1.
         23    2    1    2    0    0  0.00000000000E+00  0.00000000000E+00  0.00000000000E+00  0.91188000000E+02  0.91188000000E+02 0.  0.
    9900012    2    3    3    0    0  0.18052994909E+02  0.59626425602E+01  0.31532796658E+02  0.54367068500E+02  0.39999964258E+02 0.  0.
         12    1    3    3    0    0 -0.18052994909E+02 -0.59626425602E+01 -0.31532796658E+02  0.36820931500E+02  0.00000000000E+00 0. -1.
         11    1    4    4    0    0  0.10459483453E+02 -0.27561257872E+01 -0.75532587232E+01  0.13192753354E+02  0.51100000000E-03 0. -1.
        -11    1    4    4    0    0  0.51922418958E+01  0.49842946696E+01  0.32098439966E+02  0.32895477163E+02  0.51100000000E-03 0.  1.
        -12    1    4    4    0    0  0.24012695597E+01  0.37344736778E+01  0.69876154150E+01  0.82788379822E+01  0.00000000000E+00 0.  1.
</event>
<event>
 8    1  0.1229038E-006  0.9118800E+02  0.7816164E-02  0.1184000E+00
        -11   -1    0    0    0    0  0.00000000000E+00  0.00000000000E+00  0.45593999997E+02  0.45594000000E+02  0.51100000000E-03 0.  1.
         11   -1    0    0    0    0 -0.00000000000E+00 -0.00000000000E+00 -0.45593999997E+02  0.45594000000E+02  0.51100000000E-03 0. -1.
         23    2    1    2    0    0  0.17763568394E-14 -0.44408920985E-15  0.00000000000E+00  0.91188000000E+02  0.91188000000E+02 0.  0.
    9900012    2    3    3    0    0 -0.10229355637E+02 -0.25623884432E+01 -0.35278534034E+02  0.54367075040E+02  0.39999979169E+02 0.  0.
        -12    1    3    3    0    0  0.10229355637E+02  0.25623884432E+01  0.35278534034E+02  0.36820924960E+02  0.00000000000E+00 0.  1.
         11    1    4    4    0    0 -0.59098900470E+00 -0.12407755912E+02 -0.18372120663E+02  0.22177386967E+02  0.51100000000E-03 0. -1.
        -11    1    4    4    0    0 -0.16929180040E+02  0.10150979775E+02 -0.99386813242E+01  0.22100156424E+02  0.51100000000E-03 0.  1.
         12    1    4    4    0    0  0.72908134074E+01 -0.30561230676E+00 -0.69677320466E+01  0.10089531649E+02  0.00000000000E+00 0. -1.
</event>
<event>
 8    1  0.1229038E-006  0.9118800E+02  0.7816164E-02  0.1184000E+00
        -11   -1    0    0    0    0  0.00000000000E+00  0.00000000000E+00  0.45593999997E+02  0.45594000000E+02  0.51100000000E-03 0. -1.
         11   -1    0    0    0    0 -0.00000000000E+00 -0.00000000000E+00 -0.45593999997E+02  0.45594000000E+02  0.51100000000E-03 0.  1.
         23    2    1    2    0    0  0.35527136788E-14  0.00000000000E+00  0.13322676296E-14  0.91188000000E+02  0.91188000000E+02 0.  0.
    9900012    2    3    3    0    0  0.21934405302E+02  0.29506624692E+02 -0.20049492988E+01  0.54367097535E+02  0.40000030450E+02 0.  0.
        -12    1    3    3    0    0 -0.21934405302E+02 -0.29506624692E+02  0.20049492988E+01  0.36820902465E+02  0.00000000000E+00 0.  1.
         11    1    4    4    0    0 -0.37138924120E+01  0.31936068853E+01 -0.74006761748E+01  0.88748030903E+01  0.51100000000E-03 0. -1.
        -11    1    4    4    0    0  0.95804750518E+01  0.22904778567E+02 -0.59483910836E+01  0.25530329809E+02  0.51100000000E-03 0.  1.
         12    1    4    4    0    0  0.16067822662E+02  0.34082392394E+01  0.11344117960E+02  0.19961964635E+02  0.00000000000E+00 0. -1.
</event>
<event>
 8    1  0.1229038E-006  0.9118800E+02  0.7816164E-02  0.1184000E+00
        -11   -1    0    0    0    0  0.00000000000E+00  0.00000000000E+00  0.45593999997E+02  0.45594000000E+02  0.51100000000E-03 0.  1.
         11   -1    0    0    0    0 -0.00000000000E+00 -0.00000000000E+00 -0.45593999997E+02  0.45594000000E+02  0.51100000000E-03 0. -1.
         23    2    1    2    0    0  0.35527136788E-14  0.00000000000E+00  0.00000000000E+00  0.91188000000E+02  0.91188000000E+02 0.  0.
    9900012    2    3    3    0    0  0.23345170588E+02  0.11154609470E+02  0.26198453515E+02  0.54367064803E+02  0.39999955830E+02 0.  0.
         12    1    3    3    0    0 -0.23345170588E+02 -0.11154609470E+02 -0.26198453515E+02  0.36820935197E+02  0.00000000000E+00 0. -1.
         11    1    4    4    0    0  0.19633905502E+02  0.23750969966E+01 -0.21737930656E+01  0.19896148058E+02  0.51100000000E-03 0. -1.
        -11    1    4    4    0    0  0.10181716667E+01 -0.46168165720E+01  0.13356395036E+02  0.14168449366E+02  0.51100000000E-03 0.  1.
         12    1    4    4    0    0  0.26930934197E+01  0.13396329045E+02  0.15015851545E+02  0.20302467379E+02  0.00000000000E+00 0. -1.
</event>
<event>
 8    1  0.1229038E-006  0.9118800E+02  0.7816164E-02  0.1184000E+00
        -11   -1    0    0    0    0  0.00000000000E+00  0.00000000000E+00  0.45593999997E+02  0.45594000000E+02  0.51100000000E-03 0. -1.
         11   -1    0    0    0    0 -0.00000000000E+00 -0.00000000000E+00 -0.45593999997E+02  0.45594000000E+02  0.51100000000E-03 0.  1.
         23    2    1    2    0    0  0.00000000000E+00  0.22204460493E-15 -0.71054273576E-14  0.91188000000E+02  0.91188000000E+02 0.  0.
    9900012    2    3    3    0    0 -0.16051081092E+02 -0.13634655076E+01 -0.33110169707E+02  0.54367087730E+02  0.40000008097E+02 0.  0.
         12    1    3    3    0    0  0.16051081092E+02  0.13634655076E+01  0.33110169707E+02  0.36820912270E+02  0.00000000000E+00 0. -1.
         11    1    4    4    0    0 -0.36756843264E+01 -0.75661159286E+01 -0.31568317409E+01  0.89845618932E+01  0.51100000000E-03 0. -1.
        -11    1    4    4    0    0 -0.11532648027E+02  0.71313552864E+01 -0.36385149866E+02  0.38829593479E+02  0.51100000000E-03 0.  1.
        -12    1    4    4    0    0 -0.84274873852E+00 -0.92870486542E+00  0.64318118998E+01  0.65529323571E+01  0.00000000000E+00 0.  1.
</event>
<event>
 8    1  0.1229038E-006  0.9118800E+02  0.7816164E-02  0.1184000E+00
        -11   -1    0    0    0    0  0.00000000000E+00  0.00000000000E+00  0.45593999997E+02  0.45594000000E+02  0.51100000000E-03 0. -1.
         11   -1    0    0    0    0 -0.00000000000E+00 -0.00000000000E+00 -0.45593999997E+02  0.45594000000E+02  0.51100000000E-03 0.  1.
         23    2    1    2    0    0  0.00000000000E+00 -0.35527136788E-14  0.00000000000E+00  0.91188000000E+02  0.91188000000E+02 0.  0.
    9900012    2    3    3    0    0  0.20860459111E+02 -0.20107147566E+02  0.22722737385E+02  0.54367096537E+02  0.40000028176E+02 0.  0.
         12    1    3    3    0    0 -0.20860459111E+02  0.20107147566E+02 -0.22722737385E+02  0.36820903463E+02  0.00000000000E+00 0. -1.
         11    1    4    4    0    0 -0.10706597517E+01  0.77685511433E+01  0.52102200168E+01  0.94150460464E+01  0.51100000000E-03 0. -1.
        -11    1    4    4    0    0  0.35270852497E+00  0.10766740856E+01 -0.31510588180E+01  0.33485522731E+01  0.51100000000E-03 0.  1.
        -12    1    4    4    0    0  0.21578410338E+02 -0.28952372795E+02  0.20663576186E+02  0.41603498218E+02  0.00000000000E+00 0.  1.
</event>
<event>
 8    1  0.1229038E-006  0.9118800E+02  0.7816164E-02  0.1184000E+00
        -11   -1    0    0    0    0  0.00000000000E+00  0.00000000000E+00  0.45593999997E+02  0.45594000000E+02  0.51100000000E-03 0. -1.
         11   -1    0    0    0    0 -0.00000000000E+00 -0.00000000000E+00 -0.45593999997E+02  0.45594000000E+02  0.51100000000E-03 0.  1.
         23    2    1    2    0    0  0.00000000000E+00  0.00000000000E+00  0.00000000000E+00  0.91188000000E+02  0.91188000000E+02 0.  0.
    9900012    2    3    3    0    0 -0.22108027731E+02 -0.16138346503E+02 -0.24628620492E+02  0.54367081145E+02  0.39999993086E+02 0.  0.
         12    1    3    3    0    0  0.22108027731E+02  0.16138346503E+02  0.24628620492E+02  0.36820918855E+02  0.00000000000E+00 0. -1.
         11    1    4    4    0    0 -0.30852402519E+01  0.90404749506E+01 -0.14441932697E+02  0.17315262488E+02  0.51100000000E-03 0. -1.
        -11    1    4    4    0    0 -0.63056074248E+01 -0.16224718520E+02  0.16810300976E+01  0.17487939802E+02  0.51100000000E-03 0.  1.
        -12    1    4    4    0    0 -0.12717180054E+02 -0.89541029328E+01 -0.11867717893E+02  0.19563878855E+02  0.00000000000E+00 0.  1.
</event>
<event>
 8    1  0.1229038E-006  0.9118800E+02  0.7816164E-02  0.1184000E+00
        -11   -1    0    0    0    0  0.00000000000E+00  0.00000000000E+00  0.45593999997E+02  0.45594000000E+02  0.51100000000E-03 0.  1.
         11   -1    0    0    0    0 -0.00000000000E+00 -0.00000000000E+00 -0.45593999997E+02  0.45594000000E+02  0.51100000000E-03 0. -1.
         23    2    1    2    0    0  0.00000000000E+00 -0.35527136788E-14  0.00000000000E+00  0.91188000000E+02  0.91188000000E+02 0.  0.
    9900012    2    3    3    0    0  0.20525871085E+02 -0.19715211578E+02  0.23361920574E+02  0.54367078172E+02  0.39999986308E+02 0.  0.
        -12    1    3    3    0    0 -0.20525871085E+02  0.19715211578E+02 -0.23361920574E+02  0.36820921828E+02  0.00000000000E+00 0.  1.
         11    1    4    4    0    0  0.68969003037E+01 -0.42339824565E+01 -0.92651136601E+01  0.12301876793E+02  0.51100000000E-03 0. -1.
        -11    1    4    4    0    0  0.70934110201E+01  0.24159140230E+01  0.95563808056E+01  0.12144032890E+02  0.51100000000E-03 0.  1.
        -12    1    4    4    0    0  0.65355597616E+01 -0.17897143144E+02  0.23070653428E+02  0.29921168489E+02  0.00000000000E+00 0.  1.
</event>
<event>
 8    1  0.1229038E-006  0.9118800E+02  0.7816164E-02  0.1184000E+00
        -11   -1    0    0    0    0  0.00000000000E+00  0.00000000000E+00  0.45593999997E+02  0.45594000000E+02  0.51100000000E-03 0.  1.
         11   -1    0    0    0    0 -0.00000000000E+00 -0.00000000000E+00 -0.45593999997E+02  0.45594000000E+02  0.51100000000E-03 0. -1.
         23    2    1    2    0    0  0.71054273576E-14 -0.49960036108E-15  0.00000000000E+00  0.91188000000E+02  0.91188000000E+02 0.  0.
    9900012    2    3    3    0    0 -0.33636421936E+02 -0.49221134573E+00 -0.14970801937E+02  0.54367135489E+02  0.40000116975E+02 0.  0.
        -12    1    3    3    0    0  0.33636421936E+02  0.49221134573E+00  0.14970801937E+02  0.36820864511E+02  0.00000000000E+00 0.  1.
         11    1    4    4    0    0 -0.31848204550E+02 -0.18377198052E+01 -0.14784888747E+02  0.35160749177E+02  0.51100000000E-03 0. -1.
        -11    1    4    4    0    0  0.30073647441E+01 -0.80753657460E+01 -0.48652909515E+00  0.86309029340E+01  0.51100000000E-03 0.  1.
         12    1    4    4    0    0 -0.47955821298E+01  0.94208742054E+01  0.30061590486E+00  0.10575483378E+02  0.00000000000E+00 0. -1.
</event>
<event>
 8    1  0.1229038E-006  0.9118800E+02  0.7816164E-02  0.1184000E+00
        -11   -1    0    0    0    0  0.00000000000E+00  0.00000000000E+00  0.45593999997E+02  0.45594000000E+02  0.51100000000E-03 0. -1.
         11   -1    0    0    0    0 -0.00000000000E+00 -0.00000000000E+00 -0.45593999997E+02  0.45594000000E+02  0.51100000000E-03 0.  1.
         23    2    1    2    0    0  0.35527136788E-14  0.00000000000E+00  0.00000000000E+00  0.91188000000E+02  0.91188000000E+02 0.  0.
    9900012    2    3    3    0    0 -0.18353968447E+02  0.20789248261E+02 -0.24222273709E+02  0.54367088216E+02  0.40000009206E+02 0.  0.
         12    1    3    3    0    0  0.18353968447E+02 -0.20789248261E+02  0.24222273709E+02  0.36820911784E+02  0.00000000000E+00 0. -1.
         11    1    4    4    0    0 -0.94639934454E+01  0.39323651230E+01 -0.51113959685E+00  0.10261185669E+02  0.51100000000E-03 0. -1.
        -11    1    4    4    0    0 -0.20017728070E+02  0.14315993977E+02 -0.21052547859E+02  0.32386214540E+02  0.51100000000E-03 0.  1.
         12    1    4    4    0    0  0.11127753069E+02  0.25408891609E+01 -0.26585862529E+01  0.11719688006E+02  0.00000000000E+00 0. -1.
</event>
<event>
 8    1  0.1229038E-006  0.9118800E+02  0.7816164E-02  0.1184000E+00
        -11   -1    0    0    0    0  0.00000000000E+00  0.00000000000E+00  0.45593999997E+02  0.45594000000E+02  0.51100000000E-03 0.  1.
         11   -1    0    0    0    0 -0.00000000000E+00 -0.00000000000E+00 -0.45593999997E+02  0.45594000000E+02  0.51100000000E-03 0. -1.
         23    2    1    2    0    0  0.00000000000E+00  0.17763568394E-14  0.00000000000E+00  0.91188000000E+02  0.91188000000E+02 0.  0.
    9900012    2    3    3    0    0  0.99670386679E+01  0.10521385377E+02 -0.33848767114E+02  0.54367075987E+02  0.39999981327E+02 0.  0.
        -12    1    3    3    0    0 -0.99670386679E+01 -0.10521385377E+02  0.33848767114E+02  0.36820924013E+02  0.00000000000E+00 0.  1.
         11    1    4    4    0    0 -0.62107930292E+01  0.62766047681E+01 -0.20400019110E+02  0.22229046255E+02  0.51100000000E-03 0. -1.
        -11    1    4    4    0    0  0.97842413205E+01  0.12484498117E+02 -0.99335484814E+00  0.15892791623E+02  0.51100000000E-03 0.  1.
        -12    1    4    4    0    0  0.63935903767E+01 -0.82397175086E+01 -0.12455393156E+02  0.16245238108E+02  0.00000000000E+00 0.  1.
</event>
<event>
 8    1  0.1229038E-006  0.9118800E+02  0.7816164E-02  0.1184000E+00
        -11   -1    0    0    0    0  0.00000000000E+00  0.00000000000E+00  0.45593999997E+02  0.45594000000E+02  0.51100000000E-03 0.  1.
         11   -1    0    0    0    0 -0.00000000000E+00 -0.00000000000E+00 -0.45593999997E+02  0.45594000000E+02  0.51100000000E-03 0. -1.
         23    2    1    2    0    0 -0.35527136788E-14  0.00000000000E+00 -0.35527136788E-14  0.91188000000E+02  0.91188000000E+02 0.  0.
    9900012    2    3    3    0    0  0.25947409030E+02 -0.42227025564E+01  0.25781421452E+02  0.54367069209E+02  0.39999965876E+02 0.  0.
         12    1    3    3    0    0 -0.25947409030E+02  0.42227025564E+01 -0.25781421452E+02  0.36820930791E+02  0.00000000000E+00 0. -1.
         11    1    4    4    0    0 -0.17798159461E+01 -0.66382171288E+01 -0.12107942852E+01  0.69785166413E+01  0.51100000000E-03 0. -1.
        -11    1    4    4    0    0  0.32249834123E+02  0.14791991991E+00  0.17649192923E+02  0.36763673543E+02  0.51100000000E-03 0.  1.
        -12    1    4    4    0    0 -0.45226091466E+01  0.22675946525E+01  0.93430228136E+01  0.10624879025E+02  0.00000000000E+00 0.  1.
</event>
<event>
 8    1  0.1229038E-006  0.9118800E+02  0.7816164E-02  0.1184000E+00
        -11   -1    0    0    0    0  0.00000000000E+00  0.00000000000E+00  0.45593999997E+02  0.45594000000E+02  0.51100000000E-03 0. -1.
         11   -1    0    0    0    0 -0.00000000000E+00 -0.00000000000E+00 -0.45593999997E+02  0.45594000000E+02  0.51100000000E-03 0.  1.
         23    2    1    2    0    0  0.00000000000E+00  0.17763568394E-14  0.17763568394E-14  0.91188000000E+02  0.91188000000E+02 0.  0.
    9900012    2    3    3    0    0 -0.33041112591E+02 -0.14199721195E+02 -0.79014153711E+01  0.54367087896E+02  0.40000008476E+02 0.  0.
        -12    1    3    3    0    0  0.33041112591E+02  0.14199721195E+02  0.79014153711E+01  0.36820912104E+02  0.00000000000E+00 0.  1.
         11    1    4    4    0    0  0.41907867685E+01 -0.62915702696E+01 -0.18709807692E+01  0.77876260501E+01  0.51100000000E-03 0. -1.
        -11    1    4    4    0    0 -0.11127096067E+02  0.10699989810E+01 -0.13934955348E+02  0.17864493990E+02  0.51100000000E-03 0.  1.
         12    1    4    4    0    0 -0.26104803293E+02 -0.89781499068E+01  0.79045207465E+01  0.28714967856E+02  0.00000000000E+00 0. -1.
</event>
<event>
 8    1  0.1229038E-006  0.9118800E+02  0.7816164E-02  0.1184000E+00
        -11   -1    0    0    0    0  0.00000000000E+00  0.00000000000E+00  0.45593999997E+02  0.45594000000E+02  0.51100000000E-03 0. -1.
         11   -1    0    0    0    0 -0.00000000000E+00 -0.00000000000E+00 -0.45593999997E+02  0.45594000000E+02  0.51100000000E-03 0.  1.
         23    2    1    2    0    0  0.00000000000E+00  0.17763568394E-14 -0.35527136788E-14  0.91188000000E+02  0.91188000000E+02 0.  0.
    9900012    2    3    3    0    0  0.25243199466E+02 -0.38163293824E+01 -0.26532932274E+02  0.54367082245E+02  0.39999995594E+02 0.  0.
         12    1    3    3    0    0 -0.25243199466E+02  0.38163293824E+01  0.26532932274E+02  0.36820917755E+02  0.00000000000E+00 0. -1.
         11    1    4    4    0    0 -0.31050630107E+01 -0.42626314811E+01 -0.16080842936E+02  0.16923502984E+02  0.51100000000E-03 0. -1.
        -11    1    4    4    0    0  0.17498432047E+02 -0.94916826401E+01 -0.95191652297E+00  0.19929709200E+02  0.51100000000E-03 0.  1.
        -12    1    4    4    0    0  0.10849830430E+02  0.99379847388E+01 -0.95001728147E+01  0.17513870062E+02  0.00000000000E+00 0.  1.
</event>
<event>
 8    1  0.1229038E-006  0.9118800E+02  0.7816164E-02  0.1184000E+00
        -11   -1    0    0    0    0  0.00000000000E+00  0.00000000000E+00  0.45593999997E+02  0.45594000000E+02  0.51100000000E-03 0. -1.
         11   -1    0    0    0    0 -0.00000000000E+00 -0.00000000000E+00 -0.45593999997E+02  0.45594000000E+02  0.51100000000E-03 0.  1.
         23    2    1    2    0    0  0.00000000000E+00 -0.35527136788E-14 -0.35527136788E-14  0.91188000000E+02  0.91188000000E+02 0.  0.
    9900012    2    3    3    0    0 -0.11821271002E+02  0.24400873690E+02  0.24912549988E+02  0.54367078884E+02  0.39999987932E+02 0.  0.
         12    1    3    3    0    0  0.11821271002E+02 -0.24400873690E+02 -0.24912549988E+02  0.36820921116E+02  0.00000000000E+00 0. -1.
         11    1    4    4    0    0  0.30558639877E+01  0.18716429765E+02  0.71233425957E+01  0.20257962826E+02  0.51100000000E-03 0. -1.
        -11    1    4    4    0    0 -0.10747687022E+02 -0.88765815973E+01  0.77793190950E+01  0.15963216563E+02  0.51100000000E-03 0.  1.
        -12    1    4    4    0    0 -0.41294479672E+01  0.14561025522E+02  0.10009888297E+02  0.18145899495E+02  0.00000000000E+00 0.  1.
</event>
<event>
 8    1  0.1229038E-006  0.9118800E+02  0.7816164E-02  0.1184000E+00
        -11   -1    0    0    0    0  0.00000000000E+00  0.00000000000E+00  0.45593999997E+02  0.45594000000E+02  0.51100000000E-03 0. -1.
         11   -1    0    0    0    0 -0.00000000000E+00 -0.00000000000E+00 -0.45593999997E+02  0.45594000000E+02  0.51100000000E-03 0.  1.
         23    2    1    2    0    0  0.00000000000E+00 -0.22204460493E-15  0.00000000000E+00  0.91188000000E+02  0.91188000000E+02 0.  0.
    9900012    2    3    3    0    0 -0.83888250082E+01  0.81886293733E+00  0.35843233363E+02  0.54367077966E+02  0.39999985839E+02 0.  0.
        -12    1    3    3    0    0  0.83888250082E+01 -0.81886293733E+00 -0.35843233363E+02  0.36820922034E+02  0.00000000000E+00 0.  1.
         11    1    4    4    0    0  0.54660423265E+01  0.35553764393E+01  0.22443680730E+02  0.23371716354E+02  0.51100000000E-03 0. -1.
        -11    1    4    4    0    0  0.25020579452E+01 -0.54165029992E+01 -0.38279899506E+01  0.70888860920E+01  0.51100000000E-03 0.  1.
         12    1    4    4    0    0 -0.16356925280E+02  0.26799894973E+01  0.17227542583E+02  0.23906475520E+02  0.00000000000E+00 0. -1.
</event>
<event>
 8    1  0.1229038E-006  0.9118800E+02  0.7816164E-02  0.1184000E+00
        -11   -1    0    0    0    0  0.00000000000E+00  0.00000000000E+00  0.45593999997E+02  0.45594000000E+02  0.51100000000E-03 0. -1.
         11   -1    0    0    0    0 -0.00000000000E+00 -0.00000000000E+00 -0.45593999997E+02  0.45594000000E+02  0.51100000000E-03 0.  1.
         23    2    1    2    0    0  0.00000000000E+00  0.71054273576E-14  0.53290705182E-14  0.91188000000E+02  0.91188000000E+02 0.  0.
    9900012    2    3    3    0    0 -0.73492051348E+01  0.35677717624E+02 -0.53730671424E+01  0.54367079296E+02  0.39999988871E+02 0.  0.
        -12    1    3    3    0    0  0.73492051348E+01 -0.35677717624E+02  0.53730671424E+01  0.36820920704E+02  0.00000000000E+00 0.  1.
         11    1    4    4    0    0 -0.44106401037E+01  0.17801099923E+02  0.16786578535E+02  0.24862061937E+02  0.51100000000E-03 0. -1.
        -11    1    4    4    0    0 -0.22110085419E+01  0.15471856755E+02 -0.22001485852E+02  0.26987632170E+02  0.51100000000E-03 0.  1.
         12    1    4    4    0    0 -0.72755648924E+00  0.24047609466E+01 -0.15815982602E+00  0.25173851882E+01  0.00000000000E+00 0. -1.
</event>
<event>
 8    1  0.1229038E-006  0.9118800E+02  0.7816164E-02  0.1184000E+00
        -11   -1    0    0    0    0  0.00000000000E+00  0.00000000000E+00  0.45593999997E+02  0.45594000000E+02  0.51100000000E-03 0.  1.
         11   -1    0    0    0    0 -0.00000000000E+00 -0.00000000000E+00 -0.45593999997E+02  0.45594000000E+02  0.51100000000E-03 0. -1.
         23    2    1    2    0    0  0.00000000000E+00 -0.88817841970E-15  0.44408920985E-15  0.91188000000E+02  0.91188000000E+02 0.  0.
    9900012    2    3    3    0    0 -0.35908220738E+02 -0.77411326342E+01  0.25405611098E+01  0.54367083366E+02  0.39999998149E+02 0.  0.
         12    1    3    3    0    0  0.35908220738E+02  0.77411326342E+01 -0.25405611098E+01  0.36820916634E+02  0.00000000000E+00 0. -1.
         11    1    4    4    0    0 -0.28321805867E+02 -0.89448805576E+01 -0.82354835065E+01  0.30821401081E+02  0.51100000000E-03 0. -1.
        -11    1    4    4    0    0 -0.47481923352E+01  0.86203792625E+01 -0.38354234198E+00  0.98490290928E+01  0.51100000000E-03 0.  1.
        -12    1    4    4    0    0 -0.28382225364E+01 -0.74166313391E+01  0.11159586958E+02  0.13696653192E+02  0.00000000000E+00 0.  1.
</event>
<event>
 8    1  0.1229038E-006  0.9118800E+02  0.7816164E-02  0.1184000E+00
        -11   -1    0    0    0    0  0.00000000000E+00  0.00000000000E+00  0.45593999997E+02  0.45594000000E+02  0.51100000000E-03 0.  1.
         11   -1    0    0    0    0 -0.00000000000E+00 -0.00000000000E+00 -0.45593999997E+02  0.45594000000E+02  0.51100000000E-03 0. -1.
         23    2    1    2    0    0  0.00000000000E+00  0.00000000000E+00  0.00000000000E+00  0.91188000000E+02  0.91188000000E+02 0.  0.
    9900012    2    3    3    0    0 -0.19241566760E+02  0.24539104393E+02 -0.19579958517E+02  0.54367077805E+02  0.39999985472E+02 0.  0.
        -12    1    3    3    0    0  0.19241566760E+02 -0.24539104393E+02  0.19579958517E+02  0.36820922195E+02  0.00000000000E+00 0.  1.
         11    1    4    4    0    0 -0.18866075728E+02  0.42442095877E+01 -0.16524240340E+02  0.25436050155E+02  0.51100000000E-03 0. -1.
        -11    1    4    4    0    0  0.73592982914E+01  0.19289718515E+02 -0.41379514161E+01  0.21056475344E+02  0.51100000000E-03 0.  1.
        -12    1    4    4    0    0 -0.77347893227E+01  0.10051762898E+01  0.10822332388E+01  0.78745523063E+01  0.00000000000E+00 0.  1.
</event>
<event>
 8    1  0.1229038E-006  0.9118800E+02  0.7816164E-02  0.1184000E+00
        -11   -1    0    0    0    0  0.00000000000E+00  0.00000000000E+00  0.45593999997E+02  0.45594000000E+02  0.51100000000E-03 0.  1.
         11   -1    0    0    0    0 -0.00000000000E+00 -0.00000000000E+00 -0.45593999997E+02  0.45594000000E+02  0.51100000000E-03 0. -1.
         23    2    1    2    0    0 -0.10658141036E-13 -0.71054273576E-14  0.00000000000E+00  0.91188000000E+02  0.91188000000E+02 0.  0.
    9900012    2    3    3    0    0  0.26908371893E+02  0.21172659448E+02 -0.13543917869E+02  0.54367086143E+02  0.40000004480E+02 0.  0.
        -12    1    3    3    0    0 -0.26908371893E+02 -0.21172659448E+02  0.13543917869E+02  0.36820913857E+02  0.00000000000E+00 0.  1.
         11    1    4    4    0    0  0.17543580988E+02  0.11742536625E+02 -0.21587611522E+02  0.30194194338E+02  0.51100000000E-03 0. -1.
        -11    1    4    4    0    0 -0.49620778898E+01 -0.64260518194E+00  0.26728410524E+00  0.50106486065E+01  0.51100000000E-03 0.  1.
        -12    1    4    4    0    0  0.14326868795E+02  0.10072728006E+02  0.77764095476E+01  0.19162243198E+02  0.00000000000E+00 0.  1.
</event>
<event>
 8    1  0.1229038E-006  0.9118800E+02  0.7816164E-02  0.1184000E+00
        -11   -1    0    0    0    0  0.00000000000E+00  0.00000000000E+00  0.45593999997E+02  0.45594000000E+02  0.51100000000E-03 0.  1.
         11   -1    0    0    0    0 -0.00000000000E+00 -0.00000000000E+00 -0.45593999997E+02  0.45594000000E+02  0.51100000000E-03 0. -1.
         23    2    1    2    0    0 -0.17763568394E-14  0.44408920985E-15  0.00000000000E+00  0.91188000000E+02  0.91188000000E+02 0.  0.
    9900012    2    3    3    0    0  0.89934573997E+01 -0.29167851812E+01  0.35586375433E+02  0.54367081648E+02  0.39999994234E+02 0.  0.
         12    1    3    3    0    0 -0.89934573997E+01  0.29167851812E+01 -0.35586375433E+02  0.36820918352E+02  0.00000000000E+00 0. -1.
         11    1    4    4    0    0  0.19047260555E+02 -0.57956661050E+01  0.19744388837E+02  0.28039771238E+02  0.51100000000E-03 0. -1.
        -11    1    4    4    0    0 -0.15224745374E+01 -0.30420811412E+00  0.17068775109E+02  0.17139240218E+02  0.51100000000E-03 0.  1.
         12    1    4    4    0    0 -0.85313286174E+01  0.31830890380E+01 -0.12267885131E+01  0.91880701923E+01  0.00000000000E+00 0. -1.
</event>
<event>
 8    1  0.1229038E-006  0.9118800E+02  0.7816164E-02  0.1184000E+00
        -11   -1    0    0    0    0  0.00000000000E+00  0.00000000000E+00  0.45593999997E+02  0.45594000000E+02  0.51100000000E-03 0. -1.
         11   -1    0    0    0    0 -0.00000000000E+00 -0.00000000000E+00 -0.45593999997E+02  0.45594000000E+02  0.51100000000E-03 0.  1.
         23    2    1    2    0    0  0.00000000000E+00 -0.88817841970E-15  0.00000000000E+00  0.91188000000E+02  0.91188000000E+02 0.  0.
    9900012    2    3    3    0    0 -0.69460970102E+01 -0.43391267694E+01  0.35898509046E+02  0.54367092399E+02  0.40000018742E+02 0.  0.
        -12    1    3    3    0    0  0.69460970102E+01  0.43391267694E+01 -0.35898509046E+02  0.36820907601E+02  0.00000000000E+00 0.  1.
         11    1    4    4    0    0  0.12973580119E+01  0.72610021648E+01  0.31483267684E+01  0.80198037352E+01  0.51100000000E-03 0. -1.
        -11    1    4    4    0    0 -0.96573573777E+01  0.81012878676E+01  0.16535317491E+02  0.20792117290E+02  0.51100000000E-03 0.  1.
        -12    1    4    4    0    0  0.14139023555E+01 -0.19701416802E+02  0.16214864787E+02  0.25555171374E+02  0.00000000000E+00 0.  1.
</event>
<event>
 8    1  0.1229038E-006  0.9118800E+02  0.7816164E-02  0.1184000E+00
        -11   -1    0    0    0    0  0.00000000000E+00  0.00000000000E+00  0.45593999997E+02  0.45594000000E+02  0.51100000000E-03 0.  1.
         11   -1    0    0    0    0 -0.00000000000E+00 -0.00000000000E+00 -0.45593999997E+02  0.45594000000E+02  0.51100000000E-03 0. -1.
         23    2    1    2    0    0  0.00000000000E+00  0.17763568394E-14 -0.35527136788E-14  0.91188000000E+02  0.91188000000E+02 0.  0.
    9900012    2    3    3    0    0  0.26617331610E+02 -0.11615868613E+02  0.22635557578E+02  0.54367092725E+02  0.40000019486E+02 0.  0.
         12    1    3    3    0    0 -0.26617331610E+02  0.11615868613E+02 -0.22635557578E+02  0.36820907275E+02  0.00000000000E+00 0. -1.
         11    1    4    4    0    0  0.40119636660E+00  0.40898060841E+01 -0.50953700502E+01  0.65460116513E+01  0.51100000000E-03 0. -1.
        -11    1    4    4    0    0  0.36425405529E+01  0.34473777712E+01  0.14596474216E+02  0.15434039490E+02  0.51100000000E-03 0.  1.
        -12    1    4    4    0    0  0.22573594690E+02 -0.19153052468E+02  0.13134453412E+02  0.32387041583E+02  0.00000000000E+00 0.  1.
</event>
<event>
 8    1  0.1229038E-006  0.9118800E+02  0.7816164E-02  0.1184000E+00
        -11   -1    0    0    0    0  0.00000000000E+00  0.00000000000E+00  0.45593999997E+02  0.45594000000E+02  0.51100000000E-03 0. -1.
         11   -1    0    0    0    0 -0.00000000000E+00 -0.00000000000E+00 -0.45593999997E+02  0.45594000000E+02  0.51100000000E-03 0.  1.
         23    2    1    2    0    0  0.00000000000E+00  0.00000000000E+00  0.00000000000E+00  0.91188000000E+02  0.91188000000E+02 0.  0.
    9900012    2    3    3    0    0  0.33589259596E+02  0.65273299788E+01  0.13599085739E+02  0.54367088417E+02  0.40000009664E+02 0.  0.
        -12    1    3    3    0    0 -0.33589259596E+02 -0.65273299788E+01 -0.13599085739E+02  0.36820911583E+02  0.00000000000E+00 0.  1.
         11    1    4    4    0    0  0.20782009588E+02  0.54691459390E+01 -0.97264993071E+01  0.23588307884E+02  0.51100000000E-03 0. -1.
        -11    1    4    4    0    0  0.13818255703E+00  0.49113326318E+01  0.13055673202E+01  0.50837770337E+01  0.51100000000E-03 0.  1.
         12    1    4    4    0    0  0.12669067452E+02 -0.38531485921E+01  0.22020017726E+02  0.25695003499E+02  0.00000000000E+00 0. -1.
</event>
<event>
 8    1  0.1229038E-006  0.9118800E+02  0.7816164E-02  0.1184000E+00
        -11   -1    0    0    0    0  0.00000000000E+00  0.00000000000E+00  0.45593999997E+02  0.45594000000E+02  0.51100000000E-03 0.  1.
         11   -1    0    0    0    0 -0.00000000000E+00 -0.00000000000E+00 -0.45593999997E+02  0.45594000000E+02  0.51100000000E-03 0. -1.
         23    2    1    2    0    0  0.00000000000E+00  0.00000000000E+00  0.00000000000E+00  0.91188000000E+02  0.91188000000E+02 0.  0.
    9900012    2    3    3    0    0  0.20333809509E+01 -0.70017330735E+01  0.36091909083E+02  0.54367016778E+02  0.39999846350E+02 0.  0.
         12    1    3    3    0    0 -0.20333809509E+01  0.70017330735E+01 -0.36091909083E+02  0.36820983222E+02  0.00000000000E+00 0. -1.
         11    1    4    4    0    0  0.62647382228E+01 -0.77167462301E+00 -0.11346448712E+01  0.64132554892E+01  0.51100000000E-03 0. -1.
        -11    1    4    4    0    0  0.20743075671E+01 -0.97441913110E+01  0.39219405568E+02  0.40464969906E+02  0.51100000000E-03 0.  1.
        -12    1    4    4    0    0 -0.63056648390E+01  0.35141328605E+01 -0.19928516132E+01  0.74887913828E+01  0.00000000000E+00 0.  1.
</event>
<event>
 8    1  0.1229038E-006  0.9118800E+02  0.7816164E-02  0.1184000E+00
        -11   -1    0    0    0    0  0.00000000000E+00  0.00000000000E+00  0.45593999997E+02  0.45594000000E+02  0.51100000000E-03 0. -1.
         11   -1    0    0    0    0 -0.00000000000E+00 -0.00000000000E+00 -0.45593999997E+02  0.45594000000E+02  0.51100000000E-03 0.  1.
         23    2    1    2    0    0  0.77715611724E-15 -0.17763568394E-14  0.71054273576E-14  0.91188000000E+02  0.91188000000E+02 0.  0.
    9900012    2    3    3    0    0 -0.80185065735E+00 -0.15490068367E+02  0.33394542732E+02  0.54367072978E+02  0.39999974468E+02 0.  0.
        -12    1    3    3    0    0  0.80185065735E+00  0.15490068367E+02 -0.33394542732E+02  0.36820927022E+02  0.00000000000E+00 0.  1.
         11    1    4    4    0    0  0.92801675246E+01 -0.36816821144E+01  0.67303730760E+01  0.12040523846E+02  0.51100000000E-03 0. -1.
        -11    1    4    4    0    0 -0.10891906583E+02 -0.72561950563E+01 -0.20458779220E+01  0.13246569837E+02  0.51100000000E-03 0.  1.
         12    1    4    4    0    0  0.80988840106E+00 -0.45521911961E+01  0.28710047578E+02  0.29079979296E+02  0.00000000000E+00 0. -1.
</event>
<event>
 8    1  0.1229038E-006  0.9118800E+02  0.7816164E-02  0.1184000E+00
        -11   -1    0    0    0    0  0.00000000000E+00  0.00000000000E+00  0.45593999997E+02  0.45594000000E+02  0.51100000000E-03 0. -1.
         11   -1    0    0    0    0 -0.00000000000E+00 -0.00000000000E+00 -0.45593999997E+02  0.45594000000E+02  0.51100000000E-03 0.  1.
         23    2    1    2    0    0  0.71054273576E-14 -0.17763568394E-14  0.17763568394E-14  0.91188000000E+02  0.91188000000E+02 0.  0.
    9900012    2    3    3    0    0 -0.33864235890E+02  0.10626824527E+02 -0.98013027582E+01  0.54367062917E+02  0.39999951532E+02 0.  0.
        -12    1    3    3    0    0  0.33864235890E+02 -0.10626824527E+02  0.98013027582E+01  0.36820937083E+02  0.00000000000E+00 0.  1.
         11    1    4    4    0    0 -0.27903731642E+02  0.54093873260E+00 -0.21725172373E+02  0.35367979433E+02  0.51100000000E-03 0. -1.
        -11    1    4    4    0    0  0.18127480465E+01  0.13709634776E+01 -0.50140112325E-01  0.22733478900E+01  0.51100000000E-03 0.  1.
        -12    1    4    4    0    0 -0.77732522944E+01  0.87149223169E+01  0.11974009727E+02  0.16725735594E+02  0.00000000000E+00 0.  1.
</event>
<event>
 8    1  0.1229038E-006  0.9118800E+02  0.7816164E-02  0.1184000E+00
        -11   -1    0    0    0    0  0.00000000000E+00  0.00000000000E+00  0.45593999997E+02  0.45594000000E+02  0.51100000000E-03 0. -1.
         11   -1    0    0    0    0 -0.00000000000E+00 -0.00000000000E+00 -0.45593999997E+02  0.45594000000E+02  0.51100000000E-03 0.  1.
         23    2    1    2    0    0  0.00000000000E+00  0.00000000000E+00 -0.35527136788E-14  0.91188000000E+02  0.91188000000E+02 0.  0.
    9900012    2    3    3    0    0 -0.18851559386E+02  0.19783052015E+02  0.24678515301E+02  0.54367088064E+02  0.40000008860E+02 0.  0.
        -12    1    3    3    0    0  0.18851559386E+02 -0.19783052015E+02 -0.24678515301E+02  0.36820911936E+02  0.00000000000E+00 0.  1.
         11    1    4    4    0    0 -0.21600375759E+01  0.78564835965E+01  0.62593735877E+01  0.10274719208E+02  0.51100000000E-03 0. -1.
        -11    1    4    4    0    0 -0.11696399263E+02  0.90547728922E+01 -0.81618310310E+01  0.16894086359E+02  0.51100000000E-03 0.  1.
        -12    1    4    4    0    0 -0.49951225469E+01  0.28717955265E+01  0.26580972744E+02  0.27198282498E+02  0.00000000000E+00 0.  1.
</event>
<event>
 8    1  0.1229038E-006  0.9118800E+02  0.7816164E-02  0.1184000E+00
        -11   -1    0    0    0    0  0.00000000000E+00  0.00000000000E+00  0.45593999997E+02  0.45594000000E+02  0.51100000000E-03 0. -1.
         11   -1    0    0    0    0 -0.00000000000E+00 -0.00000000000E+00 -0.45593999997E+02  0.45594000000E+02  0.51100000000E-03 0.  1.
         23    2    1    2    0    0 -0.35527136788E-14  0.35527136788E-14 -0.35527136788E-14  0.91188000000E+02  0.91188000000E+02 0.  0.
    9900012    2    3    3    0    0  0.23162528533E+02  0.20602194899E+02  0.19870217748E+02  0.54367099467E+02  0.40000034854E+02 0.  0.
        -12    1    3    3    0    0 -0.23162528533E+02 -0.20602194899E+02 -0.19870217748E+02  0.36820900533E+02  0.00000000000E+00 0.  1.
         11    1    4    4    0    0  0.18727213849E+02  0.13664250719E+02  0.96942053773E+01  0.25127632288E+02  0.51100000000E-03 0. -1.
        -11    1    4    4    0    0 -0.53981736844E+01  0.13838752554E+02  0.27223901053E+01  0.15101746903E+02  0.51100000000E-03 0.  1.
        -12    1    4    4    0    0  0.98334883689E+01 -0.69008083736E+01  0.74536222657E+01  0.14137720276E+02  0.00000000000E+00 0.  1.
</event>
<event>
 8    1  0.1229038E-006  0.9118800E+02  0.7816164E-02  0.1184000E+00
        -11   -1    0    0    0    0  0.00000000000E+00  0.00000000000E+00  0.45593999997E+02  0.45594000000E+02  0.51100000000E-03 0. -1.
         11   -1    0    0    0    0 -0.00000000000E+00 -0.00000000000E+00 -0.45593999997E+02  0.45594000000E+02  0.51100000000E-03 0.  1.
         23    2    1    2    0    0  0.00000000000E+00  0.00000000000E+00  0.00000000000E+00  0.91188000000E+02  0.91188000000E+02 0.  0.
    9900012    2    3    3    0    0 -0.92032899771E+01  0.83353786590E+01  0.34664118286E+02  0.54367079583E+02  0.39999989525E+02 0.  0.
        -12    1    3    3    0    0  0.92032899771E+01 -0.83353786590E+01 -0.34664118286E+02  0.36820920417E+02  0.00000000000E+00 0.  1.
         11    1    4    4    0    0  0.77735486775E+01  0.29382299799E+01  0.34206128687E+02  0.35201143369E+02  0.51100000000E-03 0. -1.
        -11    1    4    4    0    0 -0.61015937825E+01  0.15920734680E+01 -0.32081136663E+01  0.70750362664E+01  0.51100000000E-03 0.  1.
         12    1    4    4    0    0 -0.10875244872E+02  0.38050752111E+01  0.36661032656E+01  0.12090899948E+02  0.00000000000E+00 0. -1.
</event>
<event>
 8    1  0.1229038E-006  0.9118800E+02  0.7816164E-02  0.1184000E+00
        -11   -1    0    0    0    0  0.00000000000E+00  0.00000000000E+00  0.45593999997E+02  0.45594000000E+02  0.51100000000E-03 0. -1.
         11   -1    0    0    0    0 -0.00000000000E+00 -0.00000000000E+00 -0.45593999997E+02  0.45594000000E+02  0.51100000000E-03 0.  1.
         23    2    1    2    0    0  0.17763568394E-14 -0.71054273576E-14  0.17763568394E-14  0.91188000000E+02  0.91188000000E+02 0.  0.
    9900012    2    3    3    0    0 -0.96734781334E+01 -0.35079400612E+02 -0.56251284240E+01  0.54367046777E+02  0.39999914737E+02 0.  0.
         12    1    3    3    0    0  0.96734781334E+01  0.35079400612E+02  0.56251284240E+01  0.36820953223E+02  0.00000000000E+00 0. -1.
         11    1    4    4    0    0 -0.65010423051E+00 -0.29862415018E+01 -0.82642247987E+01  0.88112249774E+01  0.51100000000E-03 0. -1.
        -11    1    4    4    0    0 -0.11610188966E+02  0.15651712841E+01  0.34296634827E+00  0.11720233580E+02  0.51100000000E-03 0.  1.
         12    1    4    4    0    0  0.25868150636E+01 -0.33658330394E+02  0.22961300265E+01  0.33835588220E+02  0.00000000000E+00 0. -1.
</event>
<event>
 8    1  0.1229038E-006  0.9118800E+02  0.7816164E-02  0.1184000E+00
        -11   -1    0    0    0    0  0.00000000000E+00  0.00000000000E+00  0.45593999997E+02  0.45594000000E+02  0.51100000000E-03 0.  1.
         11   -1    0    0    0    0 -0.00000000000E+00 -0.00000000000E+00 -0.45593999997E+02  0.45594000000E+02  0.51100000000E-03 0. -1.
         23    2    1    2    0    0  0.00000000000E+00 -0.17763568394E-14  0.00000000000E+00  0.91188000000E+02  0.91188000000E+02 0.  0.
    9900012    2    3    3    0    0  0.33063865949E+02  0.13184940568E+02 -0.94189775942E+01  0.54367095228E+02  0.40000025192E+02 0.  0.
         12    1    3    3    0    0 -0.33063865949E+02 -0.13184940568E+02  0.94189775942E+01  0.36820904772E+02  0.00000000000E+00 0. -1.
         11    1    4    4    0    0  0.29343656997E+01 -0.38371038096E+01 -0.95104718932E+01  0.10666908812E+02  0.51100000000E-03 0. -1.
        -11    1    4    4    0    0 -0.89195177370E-01 -0.58098070886E+01 -0.38054309312E+00  0.58229397639E+01  0.51100000000E-03 0.  1.
         12    1    4    4    0    0  0.30218695427E+02  0.22831851466E+02  0.47203739212E+00  0.37877246653E+02  0.00000000000E+00 0. -1.
</event>
<event>
 8    1  0.1229038E-006  0.9118800E+02  0.7816164E-02  0.1184000E+00
        -11   -1    0    0    0    0  0.00000000000E+00  0.00000000000E+00  0.45593999997E+02  0.45594000000E+02  0.51100000000E-03 0.  1.
         11   -1    0    0    0    0 -0.00000000000E+00 -0.00000000000E+00 -0.45593999997E+02  0.45594000000E+02  0.51100000000E-03 0. -1.
         23    2    1    2    0    0 -0.17763568394E-14  0.00000000000E+00  0.35527136788E-14  0.91188000000E+02  0.91188000000E+02 0.  0.
    9900012    2    3    3    0    0  0.15914243073E+02 -0.23789237895E+02  0.23164483959E+02  0.54367023787E+02  0.39999862327E+02 0.  0.
         12    1    3    3    0    0 -0.15914243073E+02  0.23789237895E+02 -0.23164483959E+02  0.36820976213E+02  0.00000000000E+00 0. -1.
         11    1    4    4    0    0 -0.20293731866E+01  0.62936319063E+00 -0.83473042745E+01  0.86134744714E+01  0.51100000000E-03 0. -1.
        -11    1    4    4    0    0  0.97384408736E+01 -0.76806469559E+01  0.50643120739E+01  0.13396896109E+02  0.51100000000E-03 0.  1.
         12    1    4    4    0    0  0.82051753861E+01 -0.16737954129E+02  0.26447476159E+02  0.32356653207E+02  0.00000000000E+00 0. -1.
</event>
<event>
 8    1  0.1229038E-006  0.9118800E+02  0.7816164E-02  0.1184000E+00
        -11   -1    0    0    0    0  0.00000000000E+00  0.00000000000E+00  0.45593999997E+02  0.45594000000E+02  0.51100000000E-03 0. -1.
         11   -1    0    0    0    0 -0.00000000000E+00 -0.00000000000E+00 -0.45593999997E+02  0.45594000000E+02  0.51100000000E-03 0.  1.
         23    2    1    2    0    0  0.00000000000E+00  0.00000000000E+00 -0.35527136788E-14  0.91188000000E+02  0.91188000000E+02 0.  0.
    9900012    2    3    3    0    0  0.13064988654E+02  0.31298489629E+02 -0.14334948202E+02  0.54367080382E+02  0.39999991347E+02 0.  0.
         12    1    3    3    0    0 -0.13064988654E+02 -0.31298489629E+02  0.14334948202E+02  0.36820919618E+02  0.00000000000E+00 0. -1.
         11    1    4    4    0    0 -0.91728209568E+01  0.16115804112E+02  0.21200592364E+01  0.18664255622E+02  0.51100000000E-03 0. -1.
        -11    1    4    4    0    0  0.36094387539E+01  0.28122425566E+01  0.34774130658E+01  0.57470999823E+01  0.51100000000E-03 0.  1.
        -12    1    4    4    0    0  0.18628370857E+02  0.12370442960E+02 -0.19932420505E+02  0.29955724778E+02  0.00000000000E+00 0.  1.
</event>
<event>
 8    1  0.1229038E-006  0.9118800E+02  0.7816164E-02  0.1184000E+00
        -11   -1    0    0    0    0  0.00000000000E+00  0.00000000000E+00  0.45593999997E+02  0.45594000000E+02  0.51100000000E-03 0.  1.
         11   -1    0    0    0    0 -0.00000000000E+00 -0.00000000000E+00 -0.45593999997E+02  0.45594000000E+02  0.51100000000E-03 0. -1.
         23    2    1    2    0    0  0.00000000000E+00  0.88817841970E-15 -0.17763568394E-14  0.91188000000E+02  0.91188000000E+02 0.  0.
    9900012    2    3    3    0    0  0.34263982653E+02 -0.75807530350E+01 -0.11148635860E+02  0.54367076528E+02  0.39999982561E+02 0.  0.
        -12    1    3    3    0    0 -0.34263982653E+02  0.75807530350E+01  0.11148635860E+02  0.36820923472E+02  0.00000000000E+00 0.  1.
         11    1    4    4    0    0  0.20827250949E+02 -0.54987608423E+01 -0.88010438807E+01  0.23269489176E+02  0.51100000000E-03 0. -1.
        -11    1    4    4    0    0 -0.80835797920E+01  0.30461639867E+01 -0.24329102771E+01  0.89745434405E+01  0.51100000000E-03 0.  1.
        -12    1    4    4    0    0  0.21520311496E+02 -0.51281561793E+01  0.85318297482E-01  0.22123043911E+02  0.00000000000E+00 0.  1.
</event>
<event>
 8    1  0.1229038E-006  0.9118800E+02  0.7816164E-02  0.1184000E+00
        -11   -1    0    0    0    0  0.00000000000E+00  0.00000000000E+00  0.45593999997E+02  0.45594000000E+02  0.51100000000E-03 0. -1.
         11   -1    0    0    0    0 -0.00000000000E+00 -0.00000000000E+00 -0.45593999997E+02  0.45594000000E+02  0.51100000000E-03 0.  1.
         23    2    1    2    0    0  0.88817841970E-15  0.17763568394E-14  0.00000000000E+00  0.91188000000E+02  0.91188000000E+02 0.  0.
    9900012    2    3    3    0    0  0.20779168025E+01 -0.10377494848E+02  0.35267112058E+02  0.54367091124E+02  0.40000015834E+02 0.  0.
        -12    1    3    3    0    0 -0.20779168025E+01  0.10377494848E+02 -0.35267112058E+02  0.36820908876E+02  0.00000000000E+00 0.  1.
         11    1    4    4    0    0  0.52772727768E+01  0.23776908965E+01  0.24312977494E+00  0.57932835516E+01  0.51100000000E-03 0.  1.
        -11    1    4    4    0    0  0.13285181496E+02 -0.88466200654E+01  0.11905418877E+02  0.19912250824E+02  0.51100000000E-03 0. -1.
        -12    1    4    4    0    0 -0.16484537470E+02 -0.39085656789E+01  0.23118563406E+02  0.28661556748E+02  0.00000000000E+00 0.  1.
</event>
<event>
 8    1  0.1229038E-006  0.9118800E+02  0.7816164E-02  0.1184000E+00
        -11   -1    0    0    0    0  0.00000000000E+00  0.00000000000E+00  0.45593999997E+02  0.45594000000E+02  0.51100000000E-03 0. -1.
         11   -1    0    0    0    0 -0.00000000000E+00 -0.00000000000E+00 -0.45593999997E+02  0.45594000000E+02  0.51100000000E-03 0.  1.
         23    2    1    2    0    0 -0.71054273576E-14 -0.22204460493E-15 -0.17763568394E-14  0.91188000000E+02  0.91188000000E+02 0.  0.
    9900012    2    3    3    0    0  0.35146152035E+02 -0.18119736083E+01 -0.10827936308E+02  0.54367089420E+02  0.40000011951E+02 0.  0.
         12    1    3    3    0    0 -0.35146152035E+02  0.18119736083E+01  0.10827936308E+02  0.36820910580E+02  0.00000000000E+00 0. -1.
         11    1    4    4    0    0  0.20161406114E+02  0.48615172724E+01  0.38391593444E+01  0.21091604762E+02  0.51100000000E-03 0. -1.
        -11    1    4    4    0    0  0.15696474106E+02 -0.38258834048E+01  0.20653969919E+01  0.16287496683E+02  0.51100000000E-03 0.  1.
        -12    1    4    4    0    0 -0.71172818508E+00 -0.28476074759E+01 -0.16732492645E+02  0.16987987975E+02  0.00000000000E+00 0.  1.
</event>
<event>
 8    1  0.1229038E-006  0.9118800E+02  0.7816164E-02  0.1184000E+00
        -11   -1    0    0    0    0  0.00000000000E+00  0.00000000000E+00  0.45593999997E+02  0.45594000000E+02  0.51100000000E-03 0.  1.
         11   -1    0    0    0    0 -0.00000000000E+00 -0.00000000000E+00 -0.45593999997E+02  0.45594000000E+02  0.51100000000E-03 0. -1.
         23    2    1    2    0    0 -0.71054273576E-14  0.66613381478E-15  0.17763568394E-14  0.91188000000E+02  0.91188000000E+02 0.  0.
    9900012    2    3    3    0    0 -0.35382006814E+02 -0.16391871462E+01  0.10060119537E+02  0.54367090916E+02  0.40000015362E+02 0.  0.
         12    1    3    3    0    0  0.35382006814E+02  0.16391871462E+01 -0.10060119537E+02  0.36820909084E+02  0.00000000000E+00 0. -1.
         11    1    4    4    0    0 -0.59219342297E+01  0.30961657319E+01 -0.95825519096E+01  0.11682501814E+02  0.51100000000E-03 0. -1.
        -11    1    4    4    0    0 -0.18016444016E+02 -0.76587349870E+01 -0.21720094105E+00  0.19577937917E+02  0.51100000000E-03 0.  1.
        -12    1    4    4    0    0 -0.11443628568E+02  0.29233821088E+01  0.19859872388E+02  0.23106651185E+02  0.00000000000E+00 0.  1.
</event>
<event>
 8    1  0.1229038E-006  0.9118800E+02  0.7816164E-02  0.1184000E+00
        -11   -1    0    0    0    0  0.00000000000E+00  0.00000000000E+00  0.45593999997E+02  0.45594000000E+02  0.51100000000E-03 0.  1.
         11   -1    0    0    0    0 -0.00000000000E+00 -0.00000000000E+00 -0.45593999997E+02  0.45594000000E+02  0.51100000000E-03 0. -1.
         23    2    1    2    0    0  0.88817841970E-15  0.00000000000E+00 -0.17763568394E-14  0.91188000000E+02  0.91188000000E+02 0.  0.
    9900012    2    3    3    0    0 -0.71903268776E+01  0.34776441893E+02  0.97303081404E+01  0.54367073778E+02  0.39999976292E+02 0.  0.
         12    1    3    3    0    0  0.71903268776E+01 -0.34776441893E+02 -0.97303081404E+01  0.36820926222E+02  0.00000000000E+00 0. -1.
         11    1    4    4    0    0  0.51734145283E+01  0.63526252985E+01 -0.39320016352E+01  0.90873925405E+01  0.51100000000E-03 0. -1.
        -11    1    4    4    0    0  0.65174982921E+01  0.19438091779E+02  0.37560825513E+00  0.20505079318E+02  0.51100000000E-03 0.  1.
         12    1    4    4    0    0 -0.18881239698E+02  0.89857248148E+01  0.13286701520E+02  0.24774601920E+02  0.00000000000E+00 0. -1.
</event>
<event>
 8    1  0.1229038E-006  0.9118800E+02  0.7816164E-02  0.1184000E+00
        -11   -1    0    0    0    0  0.00000000000E+00  0.00000000000E+00  0.45593999997E+02  0.45594000000E+02  0.51100000000E-03 0. -1.
         11   -1    0    0    0    0 -0.00000000000E+00 -0.00000000000E+00 -0.45593999997E+02  0.45594000000E+02  0.51100000000E-03 0.  1.
         23    2    1    2    0    0  0.88817841970E-15  0.35527136788E-14  0.00000000000E+00  0.91188000000E+02  0.91188000000E+02 0.  0.
    9900012    2    3    3    0    0 -0.52001669858E+01 -0.31718138168E+02  0.17963799729E+02  0.54367080318E+02  0.39999991202E+02 0.  0.
        -12    1    3    3    0    0  0.52001669858E+01  0.31718138168E+02 -0.17963799729E+02  0.36820919682E+02  0.00000000000E+00 0.  1.
         11    1    4    4    0    0 -0.10765077690E+02 -0.16806553409E+02  0.12760680518E+02  0.23689282444E+02  0.51100000000E-03 0. -1.
        -11    1    4    4    0    0  0.11073860800E+02 -0.83451588492E+01  0.13061560994E+02  0.19049316132E+02  0.51100000000E-03 0.  1.
        -12    1    4    4    0    0 -0.55089500952E+01 -0.65664259094E+01 -0.78584417832E+01  0.11628481742E+02  0.00000000000E+00 0.  1.
</event>
<event>
 8    1  0.1229038E-006  0.9118800E+02  0.7816164E-02  0.1184000E+00
        -11   -1    0    0    0    0  0.00000000000E+00  0.00000000000E+00  0.45593999997E+02  0.45594000000E+02  0.51100000000E-03 0.  1.
         11   -1    0    0    0    0 -0.00000000000E+00 -0.00000000000E+00 -0.45593999997E+02  0.45594000000E+02  0.51100000000E-03 0. -1.
         23    2    1    2    0    0 -0.35527136788E-14  0.35527136788E-14  0.17763568394E-14  0.91188000000E+02  0.91188000000E+02 0.  0.
    9900012    2    3    3    0    0  0.28813719436E+02 -0.18043771010E+02 -0.14141151065E+02  0.54367078590E+02  0.39999987262E+02 0.  0.
        -12    1    3    3    0    0 -0.28813719436E+02  0.18043771010E+02  0.14141151065E+02  0.36820921410E+02  0.00000000000E+00 0.  1.
         11    1    4    4    0    0  0.24024937583E+02 -0.25972395208E+01 -0.46996777971E+01  0.24617681667E+02  0.51100000000E-03 0. -1.
        -11    1    4    4    0    0  0.72459523189E+01 -0.15366981956E+02 -0.15633005766E+02  0.23087633681E+02  0.51100000000E-03 0.  1.
         12    1    4    4    0    0 -0.24571704656E+01 -0.79549532939E-01  0.61915324980E+01  0.66617632425E+01  0.00000000000E+00 0. -1.
</event>
<event>
 8    1  0.1229038E-006  0.9118800E+02  0.7816164E-02  0.1184000E+00
        -11   -1    0    0    0    0  0.00000000000E+00  0.00000000000E+00  0.45593999997E+02  0.45594000000E+02  0.51100000000E-03 0.  1.
         11   -1    0    0    0    0 -0.00000000000E+00 -0.00000000000E+00 -0.45593999997E+02  0.45594000000E+02  0.51100000000E-03 0. -1.
         23    2    1    2    0    0  0.00000000000E+00 -0.17763568394E-14  0.00000000000E+00  0.91188000000E+02  0.91188000000E+02 0.  0.
    9900012    2    3    3    0    0  0.15070148799E+02 -0.10181768545E+02 -0.32015623129E+02  0.54367110279E+02  0.40000059503E+02 0.  0.
        -12    1    3    3    0    0 -0.15070148799E+02  0.10181768545E+02  0.32015623129E+02  0.36820889721E+02  0.00000000000E+00 0.  1.
         11    1    4    4    0    0 -0.91788834252E+01 -0.10388519363E+02 -0.21136194828E+02  0.25276708005E+02  0.51100000000E-03 0. -1.
        -11    1    4    4    0    0  0.17220633323E+02  0.52025260890E+01 -0.95449899497E+01  0.20364756889E+02  0.51100000000E-03 0.  1.
         12    1    4    4    0    0  0.70283989009E+01 -0.49957752713E+01 -0.13344383513E+01  0.87256453850E+01  0.00000000000E+00 0. -1.
</event>
<event>
 8    1  0.1229038E-006  0.9118800E+02  0.7816164E-02  0.1184000E+00
        -11   -1    0    0    0    0  0.00000000000E+00  0.00000000000E+00  0.45593999997E+02  0.45594000000E+02  0.51100000000E-03 0.  1.
         11   -1    0    0    0    0 -0.00000000000E+00 -0.00000000000E+00 -0.45593999997E+02  0.45594000000E+02  0.51100000000E-03 0. -1.
         23    2    1    2    0    0  0.35527136788E-14  0.00000000000E+00  0.00000000000E+00  0.91188000000E+02  0.91188000000E+02 0.  0.
    9900012    2    3    3    0    0 -0.18038590989E+02 -0.16419846306E+02  0.27582190903E+02  0.54367090552E+02  0.40000014530E+02 0.  0.
         12    1    3    3    0    0  0.18038590989E+02  0.16419846306E+02 -0.27582190903E+02  0.36820909448E+02  0.00000000000E+00 0. -1.
         11    1    4    4    0    0 -0.25369300432E+02 -0.20393912398E+02  0.90118421056E+01  0.33774640868E+02  0.51100000000E-03 0. -1.
        -11    1    4    4    0    0  0.36752987668E+01  0.28049883824E+00  0.83271013917E+01  0.91064328072E+01  0.51100000000E-03 0.  1.
         12    1    4    4    0    0  0.36554106767E+01  0.36935672537E+01  0.10243247406E+02  0.11486016877E+02  0.00000000000E+00 0. -1.
</event>
<event>
 8    1  0.1229038E-006  0.9118800E+02  0.7816164E-02  0.1184000E+00
        -11   -1    0    0    0    0  0.00000000000E+00  0.00000000000E+00  0.45593999997E+02  0.45594000000E+02  0.51100000000E-03 0. -1.
         11   -1    0    0    0    0 -0.00000000000E+00 -0.00000000000E+00 -0.45593999997E+02  0.45594000000E+02  0.51100000000E-03 0.  1.
         23    2    1    2    0    0 -0.88817841970E-15 -0.71054273576E-14  0.17763568394E-14  0.91188000000E+02  0.91188000000E+02 0.  0.
    9900012    2    3    3    0    0 -0.67694832843E+01  0.33241811844E+02  0.14315577613E+02  0.54367085820E+02  0.40000003744E+02 0.  0.
        -12    1    3    3    0    0  0.67694832843E+01 -0.33241811844E+02 -0.14315577613E+02  0.36820914180E+02  0.00000000000E+00 0.  1.
         11    1    4    4    0    0 -0.48333485363E+01 -0.59863719545E+01 -0.25385351645E+01  0.81019792825E+01  0.51100000000E-03 0. -1.
        -11    1    4    4    0    0 -0.93965876388E+01  0.21391745418E+02  0.61261760895E+01  0.24154350851E+02  0.51100000000E-03 0.  1.
         12    1    4    4    0    0  0.74604528908E+01  0.17836438381E+02  0.10727936688E+02  0.22110755687E+02  0.00000000000E+00 0. -1.
</event>
<event>
 8    1  0.1229038E-006  0.9118800E+02  0.7816164E-02  0.1184000E+00
        -11   -1    0    0    0    0  0.00000000000E+00  0.00000000000E+00  0.45593999997E+02  0.45594000000E+02  0.51100000000E-03 0.  1.
         11   -1    0    0    0    0 -0.00000000000E+00 -0.00000000000E+00 -0.45593999997E+02  0.45594000000E+02  0.51100000000E-03 0. -1.
         23    2    1    2    0    0  0.88817841970E-15  0.00000000000E+00  0.22204460493E-14  0.91188000000E+02  0.91188000000E+02 0.  0.
    9900012    2    3    3    0    0 -0.72893488551E+01  0.35980095024E+02 -0.28421685490E+01  0.54367085200E+02  0.40000002330E+02 0.  0.
         12    1    3    3    0    0  0.72893488551E+01 -0.35980095024E+02  0.28421685490E+01  0.36820914800E+02  0.00000000000E+00 0. -1.
         11    1    4    4    0    0 -0.53733097651E+01  0.17278248713E+01  0.13137625025E+02  0.14298777157E+02  0.51100000000E-03 0. -1.
        -11    1    4    4    0    0  0.33863872919E+01  0.65484494252E+01 -0.77255902516E+01  0.10678696258E+02  0.51100000000E-03 0.  1.
        -12    1    4    4    0    0 -0.53024263818E+01  0.27703820727E+02 -0.82542033226E+01  0.29389611786E+02  0.00000000000E+00 0.  1.
</event>
<event>
 8    1  0.1229038E-006  0.9118800E+02  0.7816164E-02  0.1184000E+00
        -11   -1    0    0    0    0  0.00000000000E+00  0.00000000000E+00  0.45593999997E+02  0.45594000000E+02  0.51100000000E-03 0. -1.
         11   -1    0    0    0    0 -0.00000000000E+00 -0.00000000000E+00 -0.45593999997E+02  0.45594000000E+02  0.51100000000E-03 0.  1.
         23    2    1    2    0    0  0.35527136788E-14  0.00000000000E+00  0.13322676296E-14  0.91188000000E+02  0.91188000000E+02 0.  0.
    9900012    2    3    3    0    0 -0.28624830060E+02  0.22938955892E+02 -0.31942066828E+01  0.54367088147E+02  0.40000009049E+02 0.  0.
        -12    1    3    3    0    0  0.28624830060E+02 -0.22938955892E+02  0.31942066828E+01  0.36820911853E+02  0.00000000000E+00 0.  1.
         11    1    4    4    0    0 -0.12087052108E+02  0.15070627881E+02 -0.69998558741E+01  0.20547959410E+02  0.51100000000E-03 0. -1.
        -11    1    4    4    0    0 -0.28924990081E+01  0.24843144830E+01 -0.11800414343E+02  0.12401134943E+02  0.51100000000E-03 0.  1.
         12    1    4    4    0    0 -0.13645278943E+02  0.53840135277E+01  0.15606063534E+02  0.21417993794E+02  0.00000000000E+00 0. -1.
</event>
<event>
 8    1  0.1229038E-006  0.9118800E+02  0.7816164E-02  0.1184000E+00
        -11   -1    0    0    0    0  0.00000000000E+00  0.00000000000E+00  0.45593999997E+02  0.45594000000E+02  0.51100000000E-03 0.  1.
         11   -1    0    0    0    0 -0.00000000000E+00 -0.00000000000E+00 -0.45593999997E+02  0.45594000000E+02  0.51100000000E-03 0. -1.
         23    2    1    2    0    0  0.00000000000E+00  0.00000000000E+00  0.00000000000E+00  0.91188000000E+02  0.91188000000E+02 0.  0.
    9900012    2    3    3    0    0 -0.28712185124E+02 -0.16506290017E+02  0.16091689002E+02  0.54366951133E+02  0.39999696697E+02 0.  0.
         12    1    3    3    0    0  0.28712185124E+02  0.16506290017E+02 -0.16091689002E+02  0.36821048867E+02  0.00000000000E+00 0. -1.
         11    1    4    4    0    0 -0.50606972664E+01 -0.11276006304E+01  0.15328931156E+02  0.16182035430E+02  0.51100000000E-03 0. -1.
        -11    1    4    4    0    0 -0.24362255527E+02 -0.19990770513E+01 -0.19238911095E+01  0.24519730029E+02  0.51100000000E-03 0.  1.
        -12    1    4    4    0    0  0.71076766921E+00 -0.13379612335E+02  0.26866489554E+01  0.13665185675E+02  0.00000000000E+00 0.  1.
</event>
<event>
 8    1  0.1229038E-006  0.9118800E+02  0.7816164E-02  0.1184000E+00
        -11   -1    0    0    0    0  0.00000000000E+00  0.00000000000E+00  0.45593999997E+02  0.45594000000E+02  0.51100000000E-03 0.  1.
         11   -1    0    0    0    0 -0.00000000000E+00 -0.00000000000E+00 -0.45593999997E+02  0.45594000000E+02  0.51100000000E-03 0. -1.
         23    2    1    2    0    0 -0.35527136788E-14  0.35527136788E-14  0.17763568394E-14  0.91188000000E+02  0.91188000000E+02 0.  0.
    9900012    2    3    3    0    0 -0.18363454756E+02  0.31578833943E+02  0.46194071600E+01  0.54367107205E+02  0.40000052494E+02 0.  0.
         12    1    3    3    0    0  0.18363454756E+02 -0.31578833943E+02 -0.46194071600E+01  0.36820892795E+02  0.00000000000E+00 0. -1.
         11    1    4    4    0    0 -0.60288540340E+01  0.55994707700E+01 -0.28706578206E+01  0.87144609961E+01  0.51100000000E-03 0. -1.
        -11    1    4    4    0    0 -0.14773670366E+02  0.11024468028E+02 -0.11217381522E+02  0.21578458700E+02  0.51100000000E-03 0.  1.
         12    1    4    4    0    0  0.24390696450E+01  0.14954895144E+02  0.18707446503E+02  0.24074187508E+02  0.00000000000E+00 0. -1.
</event>
<event>
 8    1  0.1229038E-006  0.9118800E+02  0.7816164E-02  0.1184000E+00
        -11   -1    0    0    0    0  0.00000000000E+00  0.00000000000E+00  0.45593999997E+02  0.45594000000E+02  0.51100000000E-03 0.  1.
         11   -1    0    0    0    0 -0.00000000000E+00 -0.00000000000E+00 -0.45593999997E+02  0.45594000000E+02  0.51100000000E-03 0. -1.
         23    2    1    2    0    0 -0.17763568394E-14  0.00000000000E+00 -0.35527136788E-14  0.91188000000E+02  0.91188000000E+02 0.  0.
    9900012    2    3    3    0    0 -0.61525649853E+01 -0.20468932303E+02  0.29982472264E+02  0.54367083545E+02  0.39999998557E+02 0.  0.
         12    1    3    3    0    0  0.61525649853E+01  0.20468932303E+02 -0.29982472264E+02  0.36820916455E+02  0.00000000000E+00 0. -1.
         11    1    4    4    0    0 -0.19545879541E+01 -0.29621372744E+01 -0.57110318768E+00  0.35945556630E+01  0.51100000000E-03 0. -1.
        -11    1    4    4    0    0  0.15448986805E+02 -0.68808371129E+01  0.69751709013E+01  0.18293991419E+02  0.51100000000E-03 0.  1.
        -12    1    4    4    0    0 -0.19646963836E+02 -0.10625957916E+02  0.23578404551E+02  0.32478536463E+02  0.00000000000E+00 0.  1.
</event>
<event>
 8    1  0.1229038E-006  0.9118800E+02  0.7816164E-02  0.1184000E+00
        -11   -1    0    0    0    0  0.00000000000E+00  0.00000000000E+00  0.45593999997E+02  0.45594000000E+02  0.51100000000E-03 0.  1.
         11   -1    0    0    0    0 -0.00000000000E+00 -0.00000000000E+00 -0.45593999997E+02  0.45594000000E+02  0.51100000000E-03 0. -1.
         23    2    1    2    0    0  0.00000000000E+00 -0.35527136788E-14  0.17763568394E-14  0.91188000000E+02  0.91188000000E+02 0.  0.
    9900012    2    3    3    0    0  0.25433529416E+02  0.24056931082E+02 -0.11409753782E+02  0.54367043562E+02  0.39999907409E+02 0.  0.
         12    1    3    3    0    0 -0.25433529416E+02 -0.24056931082E+02  0.11409753782E+02  0.36820956438E+02  0.00000000000E+00 0. -1.
         11    1    4    4    0    0  0.26762086519E+02  0.49586230788E+01 -0.43034239147E+01  0.27555701322E+02  0.51100000000E-03 0. -1.
        -11    1    4    4    0    0  0.41170585974E+01 -0.53931679517E-02  0.24252095801E+01  0.47782677143E+01  0.51100000000E-03 0.  1.
         12    1    4    4    0    0 -0.54456157012E+01  0.19103701171E+02 -0.95315394478E+01  0.22033074526E+02  0.00000000000E+00 0. -1.
</event>
<event>
 8    1  0.1229038E-006  0.9118800E+02  0.7816164E-02  0.1184000E+00
        -11   -1    0    0    0    0  0.00000000000E+00  0.00000000000E+00  0.45593999997E+02  0.45594000000E+02  0.51100000000E-03 0. -1.
         11   -1    0    0    0    0 -0.00000000000E+00 -0.00000000000E+00 -0.45593999997E+02  0.45594000000E+02  0.51100000000E-03 0.  1.
         23    2    1    2    0    0 -0.88817841970E-15  0.00000000000E+00  0.71054273576E-14  0.91188000000E+02  0.91188000000E+02 0.  0.
    9900012    2    3    3    0    0 -0.44037674481E+01  0.14175558694E+02 -0.33696291458E+02  0.54367086242E+02  0.40000004705E+02 0.  0.
         12    1    3    3    0    0  0.44037674481E+01 -0.14175558694E+02  0.33696291458E+02  0.36820913758E+02  0.00000000000E+00 0. -1.
         11    1    4    4    0    0  0.86533881343E+00 -0.22095296284E+01  0.35143917647E+01  0.42404931527E+01  0.51100000000E-03 0. -1.
        -11    1    4    4    0    0  0.53712751906E+01  0.62297316764E+01 -0.34118798143E+02  0.35096332300E+02  0.51100000000E-03 0.  1.
         12    1    4    4    0    0 -0.10640381452E+02  0.10155356646E+02 -0.30918850797E+01  0.15030260789E+02  0.00000000000E+00 0. -1.
</event>
<event>
 8    1  0.1229038E-006  0.9118800E+02  0.7816164E-02  0.1184000E+00
        -11   -1    0    0    0    0  0.00000000000E+00  0.00000000000E+00  0.45593999997E+02  0.45594000000E+02  0.51100000000E-03 0. -1.
         11   -1    0    0    0    0 -0.00000000000E+00 -0.00000000000E+00 -0.45593999997E+02  0.45594000000E+02  0.51100000000E-03 0.  1.
         23    2    1    2    0    0  0.88817841970E-15  0.00000000000E+00  0.35527136788E-14  0.91188000000E+02  0.91188000000E+02 0.  0.
    9900012    2    3    3    0    0 -0.54304292527E+01 -0.28673629158E+02 -0.22452387728E+02  0.54367132470E+02  0.40000110092E+02 0.  0.
         12    1    3    3    0    0  0.54304292527E+01  0.28673629158E+02  0.22452387728E+02  0.36820867530E+02  0.00000000000E+00 0. -1.
         11    1    4    4    0    0 -0.29887362201E+01  0.94653263112E+00 -0.19792417540E+00  0.31412803847E+01  0.51100000000E-03 0. -1.
        -11    1    4    4    0    0 -0.75071470738E+01  0.30161871228E+01  0.40089618880E+01  0.90291980612E+01  0.51100000000E-03 0.  1.
        -12    1    4    4    0    0  0.50654540412E+01 -0.32636348912E+02 -0.26263425441E+02  0.42196654024E+02  0.00000000000E+00 0.  1.
</event>
<event>
 8    1  0.1229038E-006  0.9118800E+02  0.7816164E-02  0.1184000E+00
        -11   -1    0    0    0    0  0.00000000000E+00  0.00000000000E+00  0.45593999997E+02  0.45594000000E+02  0.51100000000E-03 0. -1.
         11   -1    0    0    0    0 -0.00000000000E+00 -0.00000000000E+00 -0.45593999997E+02  0.45594000000E+02  0.51100000000E-03 0.  1.
         23    2    1    2    0    0 -0.88817841970E-15  0.71054273576E-14  0.17763568394E-14  0.91188000000E+02  0.91188000000E+02 0.  0.
    9900012    2    3    3    0    0  0.69696919178E+01 -0.33818409762E+02 -0.12787422100E+02  0.54367087352E+02  0.40000007237E+02 0.  0.
         12    1    3    3    0    0 -0.69696919178E+01  0.33818409762E+02  0.12787422100E+02  0.36820912648E+02  0.00000000000E+00 0. -1.
         11    1    4    4    0    0 -0.96579746677E+00  0.28955379245E+01  0.24298442106E+00  0.30620167062E+01  0.51100000000E-03 0. -1.
        -11    1    4    4    0    0  0.84709962667E+01 -0.12919103905E+00 -0.12015997848E+02  0.14702335618E+02  0.51100000000E-03 0.  1.
        -12    1    4    4    0    0 -0.53550688221E+00 -0.36584756648E+02 -0.10144086728E+01  0.36602735028E+02  0.00000000000E+00 0.  1.
</event>
<event>
 8    1  0.1229038E-006  0.9118800E+02  0.7816164E-02  0.1184000E+00
        -11   -1    0    0    0    0  0.00000000000E+00  0.00000000000E+00  0.45593999997E+02  0.45594000000E+02  0.51100000000E-03 0.  1.
         11   -1    0    0    0    0 -0.00000000000E+00 -0.00000000000E+00 -0.45593999997E+02  0.45594000000E+02  0.51100000000E-03 0. -1.
         23    2    1    2    0    0  0.00000000000E+00 -0.88817841970E-15 -0.35527136788E-14  0.91188000000E+02  0.91188000000E+02 0.  0.
    9900012    2    3    3    0    0 -0.17925713697E+02  0.56296411002E+01  0.31666336118E+02  0.54367069626E+02  0.39999966825E+02 0.  0.
         12    1    3    3    0    0  0.17925713697E+02 -0.56296411002E+01 -0.31666336118E+02  0.36820930374E+02  0.00000000000E+00 0. -1.
         11    1    4    4    0    0  0.85289747853E+01  0.96427736673E+01  0.38769499846E+01  0.13444598779E+02  0.51100000000E-03 0. -1.
        -11    1    4    4    0    0 -0.13625461878E+02 -0.43264118589E+01  0.23282245774E+02  0.27320944704E+02  0.51100000000E-03 0.  1.
         12    1    4    4    0    0 -0.12829226604E+02  0.31327929187E+00  0.45071403593E+01  0.13601526142E+02  0.00000000000E+00 0. -1.
</event>
<event>
 8    1  0.1229038E-006  0.9118800E+02  0.7816164E-02  0.1184000E+00
        -11   -1    0    0    0    0  0.00000000000E+00  0.00000000000E+00  0.45593999997E+02  0.45594000000E+02  0.51100000000E-03 0.  1.
         11   -1    0    0    0    0 -0.00000000000E+00 -0.00000000000E+00 -0.45593999997E+02  0.45594000000E+02  0.51100000000E-03 0. -1.
         23    2    1    2    0    0  0.35527136788E-14  0.31086244690E-14  0.00000000000E+00  0.91188000000E+02  0.91188000000E+02 0.  0.
    9900012    2    3    3    0    0 -0.26909295856E+02  0.36215971591E+01  0.24870737111E+02  0.54367085646E+02  0.40000003348E+02 0.  0.
         12    1    3    3    0    0  0.26909295856E+02 -0.36215971591E+01 -0.24870737111E+02  0.36820914354E+02  0.00000000000E+00 0. -1.
         11    1    4    4    0    0 -0.13866536354E+02  0.17515916312E+02  0.76748164683E+01  0.23621832334E+02  0.51100000000E-03 0. -1.
        -11    1    4    4    0    0 -0.11117567714E+02 -0.11626957264E+02  0.20656769706E+02  0.26181836873E+02  0.51100000000E-03 0.  1.
         12    1    4    4    0    0 -0.19251917883E+01 -0.22673618896E+01 -0.34608490639E+01  0.45634164398E+01  0.00000000000E+00 0. -1.
</event>
<event>
 8    1  0.1229038E-006  0.9118800E+02  0.7816164E-02  0.1184000E+00
        -11   -1    0    0    0    0  0.00000000000E+00  0.00000000000E+00  0.45593999997E+02  0.45594000000E+02  0.51100000000E-03 0.  1.
         11   -1    0    0    0    0 -0.00000000000E+00 -0.00000000000E+00 -0.45593999997E+02  0.45594000000E+02  0.51100000000E-03 0. -1.
         23    2    1    2    0    0 -0.35527136788E-14  0.00000000000E+00  0.00000000000E+00  0.91188000000E+02  0.91188000000E+02 0.  0.
    9900012    2    3    3    0    0  0.24141877259E+02 -0.21216469186E+02 -0.17966930895E+02  0.54367090069E+02  0.40000013431E+02 0.  0.
        -12    1    3    3    0    0 -0.24141877259E+02  0.21216469186E+02  0.17966930895E+02  0.36820909931E+02  0.00000000000E+00 0.  1.
         11    1    4    4    0    0 -0.44771413490E+01 -0.22121793943E+01 -0.17429497134E+02  0.18130799843E+02  0.51100000000E-03 0. -1.
        -11    1    4    4    0    0  0.20023194809E+02 -0.67538426629E+01  0.12277790172E+01  0.21167195436E+02  0.51100000000E-03 0.  1.
         12    1    4    4    0    0  0.85958237997E+01 -0.12250447129E+02 -0.17652127789E+01  0.15069094790E+02  0.00000000000E+00 0. -1.
</event>
<event>
 8    1  0.1229038E-006  0.9118800E+02  0.7816164E-02  0.1184000E+00
        -11   -1    0    0    0    0  0.00000000000E+00  0.00000000000E+00  0.45593999997E+02  0.45594000000E+02  0.51100000000E-03 0. -1.
         11   -1    0    0    0    0 -0.00000000000E+00 -0.00000000000E+00 -0.45593999997E+02  0.45594000000E+02  0.51100000000E-03 0.  1.
         23    2    1    2    0    0 -0.35527136788E-14  0.35527136788E-14  0.00000000000E+00  0.91188000000E+02  0.91188000000E+02 0.  0.
    9900012    2    3    3    0    0 -0.30378633175E+02  0.20685881951E+02  0.22391719719E+01  0.54367069039E+02  0.39999965489E+02 0.  0.
        -12    1    3    3    0    0  0.30378633175E+02 -0.20685881951E+02 -0.22391719719E+01  0.36820930961E+02  0.00000000000E+00 0.  1.
         11    1    4    4    0    0 -0.25034365774E+02  0.12562172217E+02  0.13280287880E+02  0.30998285226E+02  0.51100000000E-03 0. -1.
        -11    1    4    4    0    0 -0.41563385815E+01  0.13950940169E+02 -0.88199936964E+01  0.17020463304E+02  0.51100000000E-03 0.  1.
         12    1    4    4    0    0 -0.11879288193E+01 -0.58272304344E+01 -0.22211222118E+01  0.63483205098E+01  0.00000000000E+00 0. -1.
</event>
<event>
 8    1  0.1229038E-006  0.9118800E+02  0.7816164E-02  0.1184000E+00
        -11   -1    0    0    0    0  0.00000000000E+00  0.00000000000E+00  0.45593999997E+02  0.45594000000E+02  0.51100000000E-03 0. -1.
         11   -1    0    0    0    0 -0.00000000000E+00 -0.00000000000E+00 -0.45593999997E+02  0.45594000000E+02  0.51100000000E-03 0.  1.
         23    2    1    2    0    0  0.71054273576E-14  0.88817841970E-15  0.00000000000E+00  0.91188000000E+02  0.91188000000E+02 0.  0.
    9900012    2    3    3    0    0 -0.31981356204E+02 -0.74269004231E+01 -0.16667745013E+02  0.54367085857E+02  0.40000003828E+02 0.  0.
         12    1    3    3    0    0  0.31981356204E+02  0.74269004231E+01  0.16667745013E+02  0.36820914143E+02  0.00000000000E+00 0. -1.
         11    1    4    4    0    0  0.72043172152E+01  0.16308489049E+01  0.21540670392E+01  0.76942744790E+01  0.51100000000E-03 0. -1.
        -11    1    4    4    0    0 -0.16056673118E+01 -0.88503462072E+00 -0.57790569119E+01  0.60629162000E+01  0.51100000000E-03 0.  1.
        -12    1    4    4    0    0 -0.37580006107E+02 -0.81727147072E+01 -0.13042755141E+02  0.40609895178E+02  0.00000000000E+00 0.  1.
</event>
<event>
 8    1  0.1229038E-006  0.9118800E+02  0.7816164E-02  0.1184000E+00
        -11   -1    0    0    0    0  0.00000000000E+00  0.00000000000E+00  0.45593999997E+02  0.45594000000E+02  0.51100000000E-03 0.  1.
         11   -1    0    0    0    0 -0.00000000000E+00 -0.00000000000E+00 -0.45593999997E+02  0.45594000000E+02  0.51100000000E-03 0. -1.
         23    2    1    2    0    0 -0.35527136788E-14  0.17763568394E-14  0.00000000000E+00  0.91188000000E+02  0.91188000000E+02 0.  0.
    9900012    2    3    3    0    0  0.23539056972E+02  0.12473974158E+02 -0.25418385253E+02  0.54367061075E+02  0.39999947333E+02 0.  0.
        -12    1    3    3    0    0 -0.23539056972E+02 -0.12473974158E+02  0.25418385253E+02  0.36820938925E+02  0.00000000000E+00 0.  1.
         11    1    4    4    0    0  0.17742360016E+02  0.23090478862E+02 -0.12692305174E+02  0.31765644396E+02  0.51100000000E-03 0. -1.
        -11    1    4    4    0    0 -0.31810431422E+01 -0.84817314783E+01 -0.86077485967E+01  0.12496085007E+02  0.51100000000E-03 0.  1.
        -12    1    4    4    0    0  0.89777400991E+01 -0.21347732249E+01 -0.41183314821E+01  0.10105331672E+02  0.00000000000E+00 0.  1.
</event>
<event>
 8    1  0.1229038E-006  0.9118800E+02  0.7816164E-02  0.1184000E+00
        -11   -1    0    0    0    0  0.00000000000E+00  0.00000000000E+00  0.45593999997E+02  0.45594000000E+02  0.51100000000E-03 0. -1.
         11   -1    0    0    0    0 -0.00000000000E+00 -0.00000000000E+00 -0.45593999997E+02  0.45594000000E+02  0.51100000000E-03 0.  1.
         23    2    1    2    0    0  0.00000000000E+00  0.00000000000E+00 -0.66613381478E-15  0.91188000000E+02  0.91188000000E+02 0.  0.
    9900012    2    3    3    0    0 -0.14082578981E+01 -0.36756957471E+02 -0.16501003476E+01  0.54367082793E+02  0.39999996842E+02 0.  0.
        -12    1    3    3    0    0  0.14082578981E+01  0.36756957471E+02  0.16501003476E+01  0.36820917207E+02  0.00000000000E+00 0.  1.
         11    1    4    4    0    0 -0.37239644807E+00 -0.22053701781E+02 -0.16890425523E+02  0.27781125174E+02  0.51100000000E-03 0. -1.
        -11    1    4    4    0    0 -0.60297987313E+01 -0.31870593214E+01 -0.27900789576E-01  0.68203078064E+01  0.51100000000E-03 0.  1.
         12    1    4    4    0    0  0.49939372813E+01 -0.11516196369E+02  0.15268225965E+02  0.19765649812E+02  0.00000000000E+00 0. -1.
</event>
<event>
 8    1  0.1229038E-006  0.9118800E+02  0.7816164E-02  0.1184000E+00
        -11   -1    0    0    0    0  0.00000000000E+00  0.00000000000E+00  0.45593999997E+02  0.45594000000E+02  0.51100000000E-03 0.  1.
         11   -1    0    0    0    0 -0.00000000000E+00 -0.00000000000E+00 -0.45593999997E+02  0.45594000000E+02  0.51100000000E-03 0. -1.
         23    2    1    2    0    0 -0.35527136788E-14  0.00000000000E+00  0.00000000000E+00  0.91188000000E+02  0.91188000000E+02 0.  0.
    9900012    2    3    3    0    0 -0.29349811112E+02 -0.10332365856E+02  0.19687838216E+02  0.54367079722E+02  0.39999989841E+02 0.  0.
         12    1    3    3    0    0  0.29349811112E+02  0.10332365856E+02 -0.19687838216E+02  0.36820920278E+02  0.00000000000E+00 0. -1.
         11    1    4    4    0    0  0.60808312221E+01  0.18541632665E+01 -0.36780484699E+01  0.73445538039E+01  0.51100000000E-03 0. -1.
        -11    1    4    4    0    0 -0.73124158479E+01 -0.80950302108E+01  0.12527080699E+02  0.16611101431E+02  0.51100000000E-03 0.  1.
         12    1    4    4    0    0 -0.28118226486E+02 -0.40914989116E+01  0.10838805987E+02  0.30411424487E+02  0.00000000000E+00 0. -1.
</event>
<event>
 8    1  0.1229038E-006  0.9118800E+02  0.7816164E-02  0.1184000E+00
        -11   -1    0    0    0    0  0.00000000000E+00  0.00000000000E+00  0.45593999997E+02  0.45594000000E+02  0.51100000000E-03 0. -1.
         11   -1    0    0    0    0 -0.00000000000E+00 -0.00000000000E+00 -0.45593999997E+02  0.45594000000E+02  0.51100000000E-03 0.  1.
         23    2    1    2    0    0  0.44408920985E-15 -0.35527136788E-14  0.00000000000E+00  0.91188000000E+02  0.91188000000E+02 0.  0.
    9900012    2    3    3    0    0 -0.26814341760E+01  0.31691170033E+02 -0.18554278654E+02  0.54367060256E+02  0.39999945465E+02 0.  0.
         12    1    3    3    0    0  0.26814341760E+01 -0.31691170033E+02  0.18554278654E+02  0.36820939744E+02  0.00000000000E+00 0. -1.
         11    1    4    4    0    0 -0.98554634386E+01  0.36000151828E+01 -0.14654269800E+02  0.18023259764E+02  0.51100000000E-03 0.  1.
        -11    1    4    4    0    0  0.90400915315E+01  0.21975398918E+02 -0.11510909309E+02  0.26403455188E+02  0.51100000000E-03 0. -1.
         12    1    4    4    0    0 -0.18660622689E+01  0.61157559320E+01  0.76109004550E+01  0.99403453032E+01  0.00000000000E+00 0. -1.
</event>
<event>
 8    1  0.1229038E-006  0.9118800E+02  0.7816164E-02  0.1184000E+00
        -11   -1    0    0    0    0  0.00000000000E+00  0.00000000000E+00  0.45593999997E+02  0.45594000000E+02  0.51100000000E-03 0.  1.
         11   -1    0    0    0    0 -0.00000000000E+00 -0.00000000000E+00 -0.45593999997E+02  0.45594000000E+02  0.51100000000E-03 0. -1.
         23    2    1    2    0    0  0.00000000000E+00  0.00000000000E+00 -0.35527136788E-14  0.91188000000E+02  0.91188000000E+02 0.  0.
    9900012    2    3    3    0    0 -0.53457524760E+01  0.28602026743E+02 -0.22563859460E+02  0.54367071752E+02  0.39999971672E+02 0.  0.
        -12    1    3    3    0    0  0.53457524760E+01 -0.28602026743E+02  0.22563859460E+02  0.36820928248E+02  0.00000000000E+00 0.  1.
         11    1    4    4    0    0  0.45480817530E+01  0.10527955004E+02  0.77945247952E+00  0.11494800156E+02  0.51100000000E-03 0. -1.
        -11    1    4    4    0    0 -0.62187515431E+01 -0.58525398978E+01 -0.15013028481E+02  0.17271830200E+02  0.51100000000E-03 0.  1.
         12    1    4    4    0    0 -0.36750826860E+01  0.23926611637E+02 -0.83302834585E+01  0.25600441396E+02  0.00000000000E+00 0. -1.
</event>
<event>
 8    1  0.1229038E-006  0.9118800E+02  0.7816164E-02  0.1184000E+00
        -11   -1    0    0    0    0  0.00000000000E+00  0.00000000000E+00  0.45593999997E+02  0.45594000000E+02  0.51100000000E-03 0.  1.
         11   -1    0    0    0    0 -0.00000000000E+00 -0.00000000000E+00 -0.45593999997E+02  0.45594000000E+02  0.51100000000E-03 0. -1.
         23    2    1    2    0    0  0.00000000000E+00 -0.88817841970E-15  0.35527136788E-14  0.91188000000E+02  0.91188000000E+02 0.  0.
    9900012    2    3    3    0    0  0.32200510678E+02  0.38471330943E+01 -0.17438625497E+02  0.54367095880E+02  0.40000026678E+02 0.  0.
         12    1    3    3    0    0 -0.32200510678E+02 -0.38471330943E+01  0.17438625497E+02  0.36820904120E+02  0.00000000000E+00 0. -1.
         11    1    4    4    0    0  0.18980419630E+01  0.29255925024E+00  0.70348507050E+01  0.72922752904E+01  0.51100000000E-03 0. -1.
        -11    1    4    4    0    0  0.17446022123E+02  0.14765638878E+02 -0.16823826820E+02  0.28380079783E+02  0.51100000000E-03 0.  1.
         12    1    4    4    0    0  0.12856446592E+02 -0.11211065034E+02 -0.76496493823E+01  0.18694740806E+02  0.00000000000E+00 0. -1.
</event>
<event>
 8    1  0.1229038E-006  0.9118800E+02  0.7816164E-02  0.1184000E+00
        -11   -1    0    0    0    0  0.00000000000E+00  0.00000000000E+00  0.45593999997E+02  0.45594000000E+02  0.51100000000E-03 0. -1.
         11   -1    0    0    0    0 -0.00000000000E+00 -0.00000000000E+00 -0.45593999997E+02  0.45594000000E+02  0.51100000000E-03 0.  1.
         23    2    1    2    0    0 -0.88817841970E-15  0.71054273576E-14  0.00000000000E+00  0.91188000000E+02  0.91188000000E+02 0.  0.
    9900012    2    3    3    0    0 -0.73089670894E+01  0.31772175305E+02  0.17113967504E+02  0.54367081934E+02  0.39999994885E+02 0.  0.
        -12    1    3    3    0    0  0.73089670894E+01 -0.31772175305E+02 -0.17113967504E+02  0.36820918066E+02  0.00000000000E+00 0.  1.
         11    1    4    4    0    0  0.69097838882E+01  0.10159763557E+02  0.89609590838E+01  0.15207389548E+02  0.51100000000E-03 0. -1.
        -11    1    4    4    0    0 -0.18833593609E+01 -0.43240959444E+01 -0.55955225951E+01  0.73181091541E+01  0.51100000000E-03 0.  1.
         12    1    4    4    0    0 -0.12335391617E+02  0.25936507692E+02  0.13748531015E+02  0.31841583231E+02  0.00000000000E+00 0. -1.
</event>
<event>
 8    1  0.1229038E-006  0.9118800E+02  0.7816164E-02  0.1184000E+00
        -11   -1    0    0    0    0  0.00000000000E+00  0.00000000000E+00  0.45593999997E+02  0.45594000000E+02  0.51100000000E-03 0.  1.
         11   -1    0    0    0    0 -0.00000000000E+00 -0.00000000000E+00 -0.45593999997E+02  0.45594000000E+02  0.51100000000E-03 0. -1.
         23    2    1    2    0    0  0.00000000000E+00  0.00000000000E+00 -0.17763568394E-14  0.91188000000E+02  0.91188000000E+02 0.  0.
    9900012    2    3    3    0    0 -0.33139115981E+02 -0.13056259436E+02 -0.93334342359E+01  0.54367083212E+02  0.39999997799E+02 0.  0.
        -12    1    3    3    0    0  0.33139115981E+02  0.13056259436E+02  0.93334342359E+01  0.36820916788E+02  0.00000000000E+00 0.  1.
         11    1    4    4    0    0 -0.19772339609E+02 -0.47220186757E+01 -0.20044574212E+02  0.28548692257E+02  0.51100000000E-03 0. -1.
        -11    1    4    4    0    0 -0.13557617898E+02 -0.75873406901E+01  0.46496840780E+00  0.15543260202E+02  0.51100000000E-03 0.  1.
        -12    1    4    4    0    0  0.19084152602E+00 -0.74690006972E+00  0.10246171568E+02  0.10275130754E+02  0.00000000000E+00 0.  1.
</event>
<event>
 8    1  0.1229038E-006  0.9118800E+02  0.7816164E-02  0.1184000E+00
        -11   -1    0    0    0    0  0.00000000000E+00  0.00000000000E+00  0.45593999997E+02  0.45594000000E+02  0.51100000000E-03 0.  1.
         11   -1    0    0    0    0 -0.00000000000E+00 -0.00000000000E+00 -0.45593999997E+02  0.45594000000E+02  0.51100000000E-03 0. -1.
         23    2    1    2    0    0  0.35527136788E-14  0.71054273576E-14  0.00000000000E+00  0.91188000000E+02  0.91188000000E+02 0.  0.
    9900012    2    3    3    0    0 -0.29951078495E+02 -0.19783858027E+02 -0.82043834332E+01  0.54367081367E+02  0.39999993593E+02 0.  0.
        -12    1    3    3    0    0  0.29951078495E+02  0.19783858027E+02  0.82043834332E+01  0.36820918633E+02  0.00000000000E+00 0.  1.
         11    1    4    4    0    0 -0.20792356832E+02 -0.20358744723E+02  0.23745495361E+01  0.29196559302E+02  0.51100000000E-03 0. -1.
        -11    1    4    4    0    0 -0.11700832125E+02  0.44575347165E+01  0.11333305615E+01  0.12572331788E+02  0.51100000000E-03 0.  1.
        -12    1    4    4    0    0  0.25421104615E+01 -0.38826480199E+01 -0.11712263531E+02  0.12598190277E+02  0.00000000000E+00 0.  1.
</event>
<event>
 8    1  0.1229038E-006  0.9118800E+02  0.7816164E-02  0.1184000E+00
        -11   -1    0    0    0    0  0.00000000000E+00  0.00000000000E+00  0.45593999997E+02  0.45594000000E+02  0.51100000000E-03 0.  1.
         11   -1    0    0    0    0 -0.00000000000E+00 -0.00000000000E+00 -0.45593999997E+02  0.45594000000E+02  0.51100000000E-03 0. -1.
         23    2    1    2    0    0 -0.17763568394E-14 -0.35527136788E-14  0.00000000000E+00  0.91188000000E+02  0.91188000000E+02 0.  0.
    9900012    2    3    3    0    0 -0.75498288882E+01  0.24643980276E+02 -0.26295457018E+02  0.54367126302E+02  0.40000096031E+02 0.  0.
        -12    1    3    3    0    0  0.75498288882E+01 -0.24643980276E+02  0.26295457018E+02  0.36820873698E+02  0.00000000000E+00 0.  1.
         11    1    4    4    0    0  0.14290822331E+01  0.15903407106E+02 -0.76276469120E+01  0.17695808297E+02  0.51100000000E-03 0. -1.
        -11    1    4    4    0    0 -0.15684171505E+01  0.12090251355E+02  0.38056186074E+01  0.12771720457E+02  0.51100000000E-03 0.  1.
         12    1    4    4    0    0 -0.74104939708E+01 -0.33496781848E+01 -0.22473428714E+02  0.23899597549E+02  0.00000000000E+00 0. -1.
</event>
<event>
 8    1  0.1229038E-006  0.9118800E+02  0.7816164E-02  0.1184000E+00
        -11   -1    0    0    0    0  0.00000000000E+00  0.00000000000E+00  0.45593999997E+02  0.45594000000E+02  0.51100000000E-03 0.  1.
         11   -1    0    0    0    0 -0.00000000000E+00 -0.00000000000E+00 -0.45593999997E+02  0.45594000000E+02  0.51100000000E-03 0. -1.
         23    2    1    2    0    0  0.00000000000E+00  0.00000000000E+00 -0.26645352591E-14  0.91188000000E+02  0.91188000000E+02 0.  0.
    9900012    2    3    3    0    0 -0.33732950081E+02  0.13016310838E+02  0.69600496281E+01  0.54367101589E+02  0.40000039692E+02 0.  0.
         12    1    3    3    0    0  0.33732950081E+02 -0.13016310838E+02 -0.69600496281E+01  0.36820898411E+02  0.00000000000E+00 0. -1.
         11    1    4    4    0    0  0.27569618370E+01  0.36895621981E+01  0.50006137477E+01  0.67985179193E+01  0.51100000000E-03 0. -1.
        -11    1    4    4    0    0 -0.24882406020E+02  0.43809865905E+01  0.15033232341E+02  0.29399408969E+02  0.51100000000E-03 0.  1.
        -12    1    4    4    0    0 -0.11607505898E+02  0.49457620489E+01 -0.13073796461E+02  0.18169174701E+02  0.00000000000E+00 0.  1.
</event>
<event>
 8    1  0.1229038E-006  0.9118800E+02  0.7816164E-02  0.1184000E+00
        -11   -1    0    0    0    0  0.00000000000E+00  0.00000000000E+00  0.45593999997E+02  0.45594000000E+02  0.51100000000E-03 0.  1.
         11   -1    0    0    0    0 -0.00000000000E+00 -0.00000000000E+00 -0.45593999997E+02  0.45594000000E+02  0.51100000000E-03 0. -1.
         23    2    1    2    0    0 -0.17763568394E-14  0.00000000000E+00  0.71054273576E-14  0.91188000000E+02  0.91188000000E+02 0.  0.
    9900012    2    3    3    0    0 -0.80817506261E+01 -0.24001147928E+01  0.35842769575E+02  0.54367090519E+02  0.40000014455E+02 0.  0.
         12    1    3    3    0    0  0.80817506261E+01  0.24001147928E+01 -0.35842769575E+02  0.36820909481E+02  0.00000000000E+00 0. -1.
         11    1    4    4    0    0 -0.40570292691E+01 -0.14455008197E+02  0.48250358946E+00  0.15021303486E+02  0.51100000000E-03 0. -1.
        -11    1    4    4    0    0  0.13343116872E+01 -0.16301534378E+01  0.20595863918E+01  0.29461303901E+01  0.51100000000E-03 0.  1.
        -12    1    4    4    0    0 -0.53590330442E+01  0.13685046842E+02  0.33300679594E+02  0.36399656642E+02  0.00000000000E+00 0.  1.
</event>
<event>
 8    1  0.1229038E-006  0.9118800E+02  0.7816164E-02  0.1184000E+00
        -11   -1    0    0    0    0  0.00000000000E+00  0.00000000000E+00  0.45593999997E+02  0.45594000000E+02  0.51100000000E-03 0.  1.
         11   -1    0    0    0    0 -0.00000000000E+00 -0.00000000000E+00 -0.45593999997E+02  0.45594000000E+02  0.51100000000E-03 0. -1.
         23    2    1    2    0    0  0.00000000000E+00  0.00000000000E+00 -0.17763568394E-14  0.91188000000E+02  0.91188000000E+02 0.  0.
    9900012    2    3    3    0    0 -0.24823575423E+02  0.25940194507E+02 -0.81652665469E+01  0.54367147680E+02  0.40000144765E+02 0.  0.
         12    1    3    3    0    0  0.24823575423E+02 -0.25940194507E+02  0.81652665469E+01  0.36820852320E+02  0.00000000000E+00 0. -1.
         11    1    4    4    0    0  0.51362254665E+01  0.25512332867E+01 -0.12292345904E+02  0.13564341909E+02  0.51100000000E-03 0. -1.
        -11    1    4    4    0    0 -0.39592475718E+01  0.94662230120E+01 -0.25280539979E+01  0.10567690227E+02  0.51100000000E-03 0.  1.
        -12    1    4    4    0    0 -0.26000553317E+02  0.13922738208E+02  0.66551333552E+01  0.30235115544E+02  0.00000000000E+00 0.  1.
</event>
<event>
 8    1  0.1229038E-006  0.9118800E+02  0.7816164E-02  0.1184000E+00
        -11   -1    0    0    0    0  0.00000000000E+00  0.00000000000E+00  0.45593999997E+02  0.45594000000E+02  0.51100000000E-03 0.  1.
         11   -1    0    0    0    0 -0.00000000000E+00 -0.00000000000E+00 -0.45593999997E+02  0.45594000000E+02  0.51100000000E-03 0. -1.
         23    2    1    2    0    0  0.00000000000E+00  0.35527136788E-14  0.11102230246E-15  0.91188000000E+02  0.91188000000E+02 0.  0.
    9900012    2    3    3    0    0 -0.24113667779E+02 -0.27808653574E+02  0.99500760996E+00  0.54367078943E+02  0.39999988067E+02 0.  0.
         12    1    3    3    0    0  0.24113667779E+02  0.27808653574E+02 -0.99500760996E+00  0.36820921057E+02  0.00000000000E+00 0. -1.
         11    1    4    4    0    0  0.52064169212E+00 -0.10732972621E+02 -0.59234306634E+01  0.12270077430E+02  0.51100000000E-03 0. -1.
        -11    1    4    4    0    0 -0.14937939723E+02 -0.18910938112E+02 -0.69450248703E+01  0.25079852355E+02  0.51100000000E-03 0.  1.
         12    1    4    4    0    0 -0.96963697478E+01  0.18352571597E+01  0.13863463144E+02  0.17017149158E+02  0.00000000000E+00 0. -1.
</event>
<event>
 8    1  0.1229038E-006  0.9118800E+02  0.7816164E-02  0.1184000E+00
        -11   -1    0    0    0    0  0.00000000000E+00  0.00000000000E+00  0.45593999997E+02  0.45594000000E+02  0.51100000000E-03 0.  1.
         11   -1    0    0    0    0 -0.00000000000E+00 -0.00000000000E+00 -0.45593999997E+02  0.45594000000E+02  0.51100000000E-03 0. -1.
         23    2    1    2    0    0 -0.11657341759E-14  0.00000000000E+00  0.00000000000E+00  0.91188000000E+02  0.91188000000E+02 0.  0.
    9900012    2    3    3    0    0 -0.30079690059E+00 -0.30692729867E+02  0.20338205965E+02  0.54367125929E+02  0.40000095181E+02 0.  0.
         12    1    3    3    0    0  0.30079690059E+00  0.30692729867E+02 -0.20338205965E+02  0.36820874071E+02  0.00000000000E+00 0. -1.
         11    1    4    4    0    0  0.11903914905E+01 -0.18207768494E+01 -0.57921954249E+01  0.61872278395E+01  0.51100000000E-03 0. -1.
        -11    1    4    4    0    0 -0.69689316784E+01 -0.21211720409E+02  0.21665387063E+01  0.22432052552E+02  0.51100000000E-03 0.  1.
        -12    1    4    4    0    0  0.54777432873E+01 -0.76602326078E+01  0.23963862684E+02  0.25747845538E+02  0.00000000000E+00 0.  1.
</event>
<event>
 8    1  0.1229038E-006  0.9118800E+02  0.7816164E-02  0.1184000E+00
        -11   -1    0    0    0    0  0.00000000000E+00  0.00000000000E+00  0.45593999997E+02  0.45594000000E+02  0.51100000000E-03 0. -1.
         11   -1    0    0    0    0 -0.00000000000E+00 -0.00000000000E+00 -0.45593999997E+02  0.45594000000E+02  0.51100000000E-03 0.  1.
         23    2    1    2    0    0  0.00000000000E+00  0.00000000000E+00  0.00000000000E+00  0.91188000000E+02  0.91188000000E+02 0.  0.
    9900012    2    3    3    0    0  0.19978357794E+02 -0.25250263878E+02 -0.17862552583E+02  0.54367063146E+02  0.39999952053E+02 0.  0.
         12    1    3    3    0    0 -0.19978357794E+02  0.25250263878E+02  0.17862552583E+02  0.36820936854E+02  0.00000000000E+00 0. -1.
         11    1    4    4    0    0  0.16715252831E+02 -0.32963167391E+01 -0.37614820966E+01  0.17447467698E+02  0.51100000000E-03 0. -1.
        -11    1    4    4    0    0  0.67049988240E+01 -0.53986579921E+01  0.61186508894E+01  0.10561269162E+02  0.51100000000E-03 0.  1.
        -12    1    4    4    0    0 -0.34418938606E+01 -0.16555289147E+02 -0.20219721376E+02  0.26358326286E+02  0.00000000000E+00 0.  1.
</event>
<event>
 8    1  0.1229038E-006  0.9118800E+02  0.7816164E-02  0.1184000E+00
        -11   -1    0    0    0    0  0.00000000000E+00  0.00000000000E+00  0.45593999997E+02  0.45594000000E+02  0.51100000000E-03 0. -1.
         11   -1    0    0    0    0 -0.00000000000E+00 -0.00000000000E+00 -0.45593999997E+02  0.45594000000E+02  0.51100000000E-03 0.  1.
         23    2    1    2    0    0  0.00000000000E+00  0.00000000000E+00 -0.17763568394E-14  0.91188000000E+02  0.91188000000E+02 0.  0.
    9900012    2    3    3    0    0 -0.14636153740E+02  0.31531270580E+02  0.12138460095E+02  0.54367078852E+02  0.39999987859E+02 0.  0.
        -12    1    3    3    0    0  0.14636153740E+02 -0.31531270580E+02 -0.12138460095E+02  0.36820921148E+02  0.00000000000E+00 0.  1.
         11    1    4    4    0    0 -0.17563824965E+02  0.73039052046E+01  0.10014580391E+02  0.21497134677E+02  0.51100000000E-03 0. -1.
        -11    1    4    4    0    0  0.57868084025E+01  0.31572923216E+01 -0.71034344953E+01  0.96909456804E+01  0.51100000000E-03 0.  1.
         12    1    4    4    0    0 -0.28591371773E+01  0.21070073054E+02  0.92273141989E+01  0.23178998495E+02  0.00000000000E+00 0. -1.
</event>
<event>
 8    1  0.1229038E-006  0.9118800E+02  0.7816164E-02  0.1184000E+00
        -11   -1    0    0    0    0  0.00000000000E+00  0.00000000000E+00  0.45593999997E+02  0.45594000000E+02  0.51100000000E-03 0.  1.
         11   -1    0    0    0    0 -0.00000000000E+00 -0.00000000000E+00 -0.45593999997E+02  0.45594000000E+02  0.51100000000E-03 0. -1.
         23    2    1    2    0    0  0.35527136788E-14  0.17763568394E-14 -0.35527136788E-14  0.91188000000E+02  0.91188000000E+02 0.  0.
    9900012    2    3    3    0    0 -0.27322482029E+02 -0.48008033737E+01 -0.24211864261E+02  0.54367080562E+02  0.39999991758E+02 0.  0.
        -12    1    3    3    0    0  0.27322482029E+02  0.48008033737E+01  0.24211864261E+02  0.36820919438E+02  0.00000000000E+00 0.  1.
         11    1    4    4    0    0 -0.24263697969E+02  0.96070469702E+01 -0.72895863767E+01  0.27095395558E+02  0.51100000000E-03 0. -1.
        -11    1    4    4    0    0 -0.13558267018E+01  0.30624384696E+01 -0.81187152975E+00  0.34461472788E+01  0.51100000000E-03 0.  1.
        -12    1    4    4    0    0 -0.17029573572E+01 -0.17470288813E+02 -0.16110406355E+02  0.23825537725E+02  0.00000000000E+00 0.  1.
</event>
<event>
 8    1  0.1229038E-006  0.9118800E+02  0.7816164E-02  0.1184000E+00
        -11   -1    0    0    0    0  0.00000000000E+00  0.00000000000E+00  0.45593999997E+02  0.45594000000E+02  0.51100000000E-03 0. -1.
         11   -1    0    0    0    0 -0.00000000000E+00 -0.00000000000E+00 -0.45593999997E+02  0.45594000000E+02  0.51100000000E-03 0.  1.
         23    2    1    2    0    0  0.35527136788E-14 -0.35527136788E-14 -0.22204460493E-15  0.91188000000E+02  0.91188000000E+02 0.  0.
    9900012    2    3    3    0    0  0.29168601617E+02 -0.22390089398E+02  0.19122787782E+01  0.54367078859E+02  0.39999987875E+02 0.  0.
         12    1    3    3    0    0 -0.29168601617E+02  0.22390089398E+02 -0.19122787782E+01  0.36820921141E+02  0.00000000000E+00 0. -1.
         11    1    4    4    0    0 -0.81215767216E+01 -0.26368107486E+01 -0.39357785406E+01  0.94022939940E+01  0.51100000000E-03 0. -1.
        -11    1    4    4    0    0  0.21199145733E+02 -0.58780390431E+01  0.84350489635E+01  0.23560670069E+02  0.51100000000E-03 0.  1.
        -12    1    4    4    0    0  0.16091032605E+02 -0.13875239607E+02 -0.25869916447E+01  0.21404114796E+02  0.00000000000E+00 0.  1.
</event>
<event>
 8    1  0.1229038E-006  0.9118800E+02  0.7816164E-02  0.1184000E+00
        -11   -1    0    0    0    0  0.00000000000E+00  0.00000000000E+00  0.45593999997E+02  0.45594000000E+02  0.51100000000E-03 0.  1.
         11   -1    0    0    0    0 -0.00000000000E+00 -0.00000000000E+00 -0.45593999997E+02  0.45594000000E+02  0.51100000000E-03 0. -1.
         23    2    1    2    0    0  0.00000000000E+00  0.35527136788E-14 -0.83266726847E-16  0.91188000000E+02  0.91188000000E+02 0.  0.
    9900012    2    3    3    0    0  0.33361265166E+02  0.15581637049E+02  0.13510185372E+00  0.54367086390E+02  0.40000005042E+02 0.  0.
         12    1    3    3    0    0 -0.33361265166E+02 -0.15581637049E+02 -0.13510185372E+00  0.36820913610E+02  0.00000000000E+00 0. -1.
         11    1    4    4    0    0 -0.15730394914E+00  0.16204631807E+01  0.24224211257E+01  0.29186931706E+01  0.51100000000E-03 0. -1.
        -11    1    4    4    0    0  0.35007564278E+02  0.22311444377E+02  0.27141204824E+01  0.41601641279E+02  0.51100000000E-03 0.  1.
        -12    1    4    4    0    0 -0.14889951632E+01 -0.83502705080E+01 -0.50014397544E+01  0.98467519401E+01  0.00000000000E+00 0.  1.
</event>
<event>
 8    1  0.1229038E-006  0.9118800E+02  0.7816164E-02  0.1184000E+00
        -11   -1    0    0    0    0  0.00000000000E+00  0.00000000000E+00  0.45593999997E+02  0.45594000000E+02  0.51100000000E-03 0. -1.
         11   -1    0    0    0    0 -0.00000000000E+00 -0.00000000000E+00 -0.45593999997E+02  0.45594000000E+02  0.51100000000E-03 0.  1.
         23    2    1    2    0    0  0.22204460493E-15  0.00000000000E+00  0.00000000000E+00  0.91188000000E+02  0.91188000000E+02 0.  0.
    9900012    2    3    3    0    0  0.17456170488E+01 -0.33323199931E+02 -0.15565854926E+02  0.54367100064E+02  0.40000036215E+02 0.  0.
         12    1    3    3    0    0 -0.17456170488E+01  0.33323199931E+02  0.15565854926E+02  0.36820899936E+02  0.00000000000E+00 0. -1.
         11    1    4    4    0    0  0.36003033844E+01 -0.95048149172E+01 -0.11023733670E+02  0.14994212062E+02  0.51100000000E-03 0. -1.
        -11    1    4    4    0    0  0.29371788263E+01 -0.27868870155E+02 -0.11241674973E+02  0.30193976214E+02  0.51100000000E-03 0.  1.
         12    1    4    4    0    0 -0.47918651619E+01  0.40504851406E+01  0.66995537167E+01  0.91789117877E+01  0.00000000000E+00 0. -1.
</event>
<event>
 8    1  0.1229038E-006  0.9118800E+02  0.7816164E-02  0.1184000E+00
        -11   -1    0    0    0    0  0.00000000000E+00  0.00000000000E+00  0.45593999997E+02  0.45594000000E+02  0.51100000000E-03 0.  1.
         11   -1    0    0    0    0 -0.00000000000E+00 -0.00000000000E+00 -0.45593999997E+02  0.45594000000E+02  0.51100000000E-03 0. -1.
         23    2    1    2    0    0 -0.17763568394E-14 -0.17763568394E-14  0.00000000000E+00  0.91188000000E+02  0.91188000000E+02 0.  0.
    9900012    2    3    3    0    0 -0.14851632868E+02 -0.11938713707E+02  0.31506738861E+02  0.54367102707E+02  0.40000042241E+02 0.  0.
         12    1    3    3    0    0  0.14851632868E+02  0.11938713707E+02 -0.31506738861E+02  0.36820897293E+02  0.00000000000E+00 0. -1.
         11    1    4    4    0    0  0.11553141772E+01  0.69912862808E+01  0.51939319477E+00  0.71051111364E+01  0.51100000000E-03 0. -1.
        -11    1    4    4    0    0  0.30676414422E+01 -0.15571960155E+02  0.17703848643E+02  0.23776514129E+02  0.51100000000E-03 0.  1.
         12    1    4    4    0    0 -0.19074588487E+02 -0.33580398323E+01  0.13283497024E+02  0.23485477442E+02  0.00000000000E+00 0. -1.
</event>
<event>
 8    1  0.1229038E-006  0.9118800E+02  0.7816164E-02  0.1184000E+00
        -11   -1    0    0    0    0  0.00000000000E+00  0.00000000000E+00  0.45593999997E+02  0.45594000000E+02  0.51100000000E-03 0. -1.
         11   -1    0    0    0    0 -0.00000000000E+00 -0.00000000000E+00 -0.45593999997E+02  0.45594000000E+02  0.51100000000E-03 0.  1.
         23    2    1    2    0    0  0.00000000000E+00 -0.35527136788E-14  0.17763568394E-14  0.91188000000E+02  0.91188000000E+02 0.  0.
    9900012    2    3    3    0    0 -0.32387049642E+02 -0.16689913878E+02  0.53203172758E+01  0.54367082227E+02  0.39999995552E+02 0.  0.
        -12    1    3    3    0    0  0.32387049642E+02  0.16689913878E+02 -0.53203172758E+01  0.36820917773E+02  0.00000000000E+00 0.  1.
         11    1    4    4    0    0 -0.22684881478E+02 -0.24930854489E+01  0.50174133991E+01  0.23366509371E+02  0.51100000000E-03 0. -1.
        -11    1    4    4    0    0  0.62901203624E+01 -0.20158871845E+01 -0.69885949462E+01  0.96161257738E+01  0.51100000000E-03 0.  1.
        -12    1    4    4    0    0 -0.15992288527E+02 -0.12180941244E+02  0.72914988229E+01  0.21384447082E+02  0.00000000000E+00 0.  1.
</event>
<event>
 8    1  0.1229038E-006  0.9118800E+02  0.7816164E-02  0.1184000E+00
        -11   -1    0    0    0    0  0.00000000000E+00  0.00000000000E+00  0.45593999997E+02  0.45594000000E+02  0.51100000000E-03 0.  1.
         11   -1    0    0    0    0 -0.00000000000E+00 -0.00000000000E+00 -0.45593999997E+02  0.45594000000E+02  0.51100000000E-03 0. -1.
         23    2    1    2    0    0  0.00000000000E+00  0.00000000000E+00  0.00000000000E+00  0.91188000000E+02  0.91188000000E+02 0.  0.
    9900012    2    3    3    0    0 -0.56799329905E+01 -0.55948233812E+01 -0.35947418106E+02  0.54367074483E+02  0.39999977899E+02 0.  0.
        -12    1    3    3    0    0  0.56799329905E+01  0.55948233812E+01  0.35947418106E+02  0.36820925517E+02  0.00000000000E+00 0.  1.
         11    1    4    4    0    0 -0.11079660999E+02 -0.14811223097E+02 -0.32431367259E+02  0.37335302330E+02  0.51100000000E-03 0.  1.
        -11    1    4    4    0    0  0.33292072112E+01  0.11138986015E+02 -0.61644974936E+01  0.13159090383E+02  0.51100000000E-03 0. -1.
        -12    1    4    4    0    0  0.20705207975E+01 -0.19225862990E+01  0.26484466470E+01  0.38726817701E+01  0.00000000000E+00 0.  1.
</event>
<event>
 8    1  0.1229038E-006  0.9118800E+02  0.7816164E-02  0.1184000E+00
        -11   -1    0    0    0    0  0.00000000000E+00  0.00000000000E+00  0.45593999997E+02  0.45594000000E+02  0.51100000000E-03 0.  1.
         11   -1    0    0    0    0 -0.00000000000E+00 -0.00000000000E+00 -0.45593999997E+02  0.45594000000E+02  0.51100000000E-03 0. -1.
         23    2    1    2    0    0 -0.35527136788E-14  0.17763568394E-14  0.00000000000E+00  0.91188000000E+02  0.91188000000E+02 0.  0.
    9900012    2    3    3    0    0  0.23589638046E+02 -0.71294812494E+01  0.27358434301E+02  0.54367021558E+02  0.39999857245E+02 0.  0.
         12    1    3    3    0    0 -0.23589638046E+02  0.71294812494E+01 -0.27358434301E+02  0.36820978442E+02  0.00000000000E+00 0. -1.
         11    1    4    4    0    0  0.78748920726E+01  0.73454129920E+01  0.89117637175E+01  0.13978145442E+02  0.51100000000E-03 0. -1.
        -11    1    4    4    0    0  0.19671521928E+02 -0.50433421522E+01  0.21637625920E+02  0.29674752413E+02  0.51100000000E-03 0.  1.
        -12    1    4    4    0    0 -0.39567759547E+01 -0.94315520892E+01 -0.31909553364E+01  0.10714123703E+02  0.00000000000E+00 0.  1.
</event>
<event>
 8    1  0.1229038E-006  0.9118800E+02  0.7816164E-02  0.1184000E+00
        -11   -1    0    0    0    0  0.00000000000E+00  0.00000000000E+00  0.45593999997E+02  0.45594000000E+02  0.51100000000E-03 0.  1.
         11   -1    0    0    0    0 -0.00000000000E+00 -0.00000000000E+00 -0.45593999997E+02  0.45594000000E+02  0.51100000000E-03 0. -1.
         23    2    1    2    0    0  0.00000000000E+00  0.00000000000E+00  0.35527136788E-14  0.91188000000E+02  0.91188000000E+02 0.  0.
    9900012    2    3    3    0    0  0.19340275794E+02 -0.25277981199E+02 -0.18513716763E+02  0.54367077827E+02  0.39999985522E+02 0.  0.
        -12    1    3    3    0    0 -0.19340275794E+02  0.25277981199E+02  0.18513716763E+02  0.36820922173E+02  0.00000000000E+00 0.  1.
         11    1    4    4    0    0  0.53164309337E+01 -0.25100571294E+02 -0.24632224013E+02  0.35567535439E+02  0.51100000000E-03 0. -1.
        -11    1    4    4    0    0  0.85696879108E+01 -0.27681139988E+01  0.84285167210E+01  0.12334581484E+02  0.51100000000E-03 0.  1.
         12    1    4    4    0    0  0.54541569497E+01  0.25907040934E+01 -0.23100094716E+01  0.64649609040E+01  0.00000000000E+00 0. -1.
</event>
<event>
 8    1  0.1229038E-006  0.9118800E+02  0.7816164E-02  0.1184000E+00
        -11   -1    0    0    0    0  0.00000000000E+00  0.00000000000E+00  0.45593999997E+02  0.45594000000E+02  0.51100000000E-03 0.  1.
         11   -1    0    0    0    0 -0.00000000000E+00 -0.00000000000E+00 -0.45593999997E+02  0.45594000000E+02  0.51100000000E-03 0. -1.
         23    2    1    2    0    0  0.35527136788E-14 -0.35527136788E-14  0.00000000000E+00  0.91188000000E+02  0.91188000000E+02 0.  0.
    9900012    2    3    3    0    0  0.31067026326E+02  0.17729613733E+02  0.87338074196E+01  0.54367099415E+02  0.40000034735E+02 0.  0.
         12    1    3    3    0    0 -0.31067026326E+02 -0.17729613733E+02 -0.87338074196E+01  0.36820900585E+02  0.00000000000E+00 0. -1.
         11    1    4    4    0    0  0.11239342837E+02  0.11517726349E+02 -0.12137892757E+02  0.20157115084E+02  0.51100000000E-03 0. -1.
        -11    1    4    4    0    0  0.20923655857E+02  0.53936158618E+01  0.23077683524E+02  0.31614394563E+02  0.51100000000E-03 0.  1.
         12    1    4    4    0    0 -0.10959723673E+01  0.81827152209E+00 -0.22059833477E+01  0.25955897681E+01  0.00000000000E+00 0. -1.
</event>
<event>
 8    1  0.1229038E-006  0.9118800E+02  0.7816164E-02  0.1184000E+00
        -11   -1    0    0    0    0  0.00000000000E+00  0.00000000000E+00  0.45593999997E+02  0.45594000000E+02  0.51100000000E-03 0.  1.
         11   -1    0    0    0    0 -0.00000000000E+00 -0.00000000000E+00 -0.45593999997E+02  0.45594000000E+02  0.51100000000E-03 0. -1.
         23    2    1    2    0    0  0.10408340856E-15 -0.35527136788E-14 -0.71054273576E-14  0.91188000000E+02  0.91188000000E+02 0.  0.
    9900012    2    3    3    0    0 -0.46803692039E-01  0.16213854224E+02  0.33058859312E+02  0.54367089658E+02  0.40000012494E+02 0.  0.
         12    1    3    3    0    0  0.46803692039E-01 -0.16213854224E+02 -0.33058859312E+02  0.36820910342E+02  0.00000000000E+00 0. -1.
         11    1    4    4    0    0 -0.19308229091E+01  0.10096452499E+01  0.81075565764E+01  0.83952328460E+01  0.51100000000E-03 0. -1.
        -11    1    4    4    0    0 -0.63354029842E+01  0.17878682552E+01  0.28989868018E+02  0.29727869951E+02  0.51100000000E-03 0.  1.
         12    1    4    4    0    0  0.82194222012E+01  0.13416340719E+02 -0.40385652824E+01  0.16243986862E+02  0.00000000000E+00 0. -1.
</event>
<event>
 8    1  0.1229038E-006  0.9118800E+02  0.7816164E-02  0.1184000E+00
        -11   -1    0    0    0    0  0.00000000000E+00  0.00000000000E+00  0.45593999997E+02  0.45594000000E+02  0.51100000000E-03 0.  1.
         11   -1    0    0    0    0 -0.00000000000E+00 -0.00000000000E+00 -0.45593999997E+02  0.45594000000E+02  0.51100000000E-03 0. -1.
         23    2    1    2    0    0  0.00000000000E+00  0.00000000000E+00  0.35527136788E-14  0.91188000000E+02  0.91188000000E+02 0.  0.
    9900012    2    3    3    0    0  0.25151132781E+02 -0.31152596278E+01  0.26711346004E+02  0.54367077577E+02  0.39999984952E+02 0.  0.
         12    1    3    3    0    0 -0.25151132781E+02  0.31152596278E+01 -0.26711346004E+02  0.36820922423E+02  0.00000000000E+00 0. -1.
         11    1    4    4    0    0  0.98199030206E+01 -0.51475132621E+00 -0.56352881481E+01  0.11333663884E+02  0.51100000000E-03 0. -1.
        -11    1    4    4    0    0 -0.35849071544E+01  0.23665854333E+01 -0.96711853272E+00  0.44031357503E+01  0.51100000000E-03 0.  1.
         12    1    4    4    0    0  0.18916136915E+02 -0.49670937348E+01  0.33313752685E+02  0.38630277943E+02  0.00000000000E+00 0. -1.
</event>
<event>
 8    1  0.1229038E-006  0.9118800E+02  0.7816164E-02  0.1184000E+00
        -11   -1    0    0    0    0  0.00000000000E+00  0.00000000000E+00  0.45593999997E+02  0.45594000000E+02  0.51100000000E-03 0.  1.
         11   -1    0    0    0    0 -0.00000000000E+00 -0.00000000000E+00 -0.45593999997E+02  0.45594000000E+02  0.51100000000E-03 0. -1.
         23    2    1    2    0    0 -0.35527136788E-14  0.35527136788E-14  0.00000000000E+00  0.91188000000E+02  0.91188000000E+02 0.  0.
    9900012    2    3    3    0    0 -0.30329782753E+02  0.20032886701E+02 -0.58794140151E+01  0.54367085012E+02  0.40000001901E+02 0.  0.
        -12    1    3    3    0    0  0.30329782753E+02 -0.20032886701E+02  0.58794140151E+01  0.36820914988E+02  0.00000000000E+00 0.  1.
         11    1    4    4    0    0 -0.28812142054E+02  0.90894137554E+01 -0.34004139239E+01  0.30402627966E+02  0.51100000000E-03 0. -1.
        -11    1    4    4    0    0 -0.25282141407E+01 -0.57189715866E+01 -0.36327805261E+01  0.72315694951E+01  0.51100000000E-03 0.  1.
        -12    1    4    4    0    0  0.10105734419E+01  0.16662444533E+02  0.11537804349E+01  0.16732887550E+02  0.00000000000E+00 0.  1.
</event>
<event>
 8    1  0.1229038E-006  0.9118800E+02  0.7816164E-02  0.1184000E+00
        -11   -1    0    0    0    0  0.00000000000E+00  0.00000000000E+00  0.45593999997E+02  0.45594000000E+02  0.51100000000E-03 0. -1.
         11   -1    0    0    0    0 -0.00000000000E+00 -0.00000000000E+00 -0.45593999997E+02  0.45594000000E+02  0.51100000000E-03 0.  1.
         23    2    1    2    0    0 -0.35527136788E-14  0.00000000000E+00 -0.35527136788E-14  0.91188000000E+02  0.91188000000E+02 0.  0.
    9900012    2    3    3    0    0 -0.21479961606E+02 -0.34068316691E+01  0.29711679498E+02  0.54367093558E+02  0.40000021384E+02 0.  0.
        -12    1    3    3    0    0  0.21479961606E+02  0.34068316691E+01 -0.29711679498E+02  0.36820906442E+02  0.00000000000E+00 0.  1.
         11    1    4    4    0    0 -0.26315551358E+01  0.79435580753E+01  0.81087938164E+01  0.11652370349E+02  0.51100000000E-03 0. -1.
        -11    1    4    4    0    0 -0.16504094700E+02 -0.15577236315E+02  0.22939605313E+01  0.22810034815E+02  0.51100000000E-03 0.  1.
        -12    1    4    4    0    0 -0.23443117699E+01  0.42268465704E+01  0.19308925151E+02  0.19904688394E+02  0.00000000000E+00 0.  1.
</event>
<event>
 8    1  0.1229038E-006  0.9118800E+02  0.7816164E-02  0.1184000E+00
        -11   -1    0    0    0    0  0.00000000000E+00  0.00000000000E+00  0.45593999997E+02  0.45594000000E+02  0.51100000000E-03 0. -1.
         11   -1    0    0    0    0 -0.00000000000E+00 -0.00000000000E+00 -0.45593999997E+02  0.45594000000E+02  0.51100000000E-03 0.  1.
         23    2    1    2    0    0  0.35527136788E-14  0.00000000000E+00  0.26645352591E-14  0.91188000000E+02  0.91188000000E+02 0.  0.
    9900012    2    3    3    0    0 -0.16549440566E+02  0.32434058429E+02 -0.54705722642E+01  0.54367091672E+02  0.40000017084E+02 0.  0.
        -12    1    3    3    0    0  0.16549440566E+02 -0.32434058429E+02  0.54705722642E+01  0.36820908328E+02  0.00000000000E+00 0.  1.
         11    1    4    4    0    0 -0.72619623947E+01  0.20989615530E+02  0.58409854082E+01  0.22965564847E+02  0.51100000000E-03 0. -1.
        -11    1    4    4    0    0  0.50119840007E+01  0.64886627636E+01 -0.13812272390E+02  0.16062428114E+02  0.51100000000E-03 0.  1.
        -12    1    4    4    0    0 -0.14299462172E+02  0.49557801350E+01  0.25007147179E+01  0.15339098711E+02  0.00000000000E+00 0.  1.
</event>
<event>
 8    1  0.1229038E-006  0.9118800E+02  0.7816164E-02  0.1184000E+00
        -11   -1    0    0    0    0  0.00000000000E+00  0.00000000000E+00  0.45593999997E+02  0.45594000000E+02  0.51100000000E-03 0. -1.
         11   -1    0    0    0    0 -0.00000000000E+00 -0.00000000000E+00 -0.45593999997E+02  0.45594000000E+02  0.51100000000E-03 0.  1.
         23    2    1    2    0    0 -0.35527136788E-14  0.00000000000E+00 -0.17763568394E-14  0.91188000000E+02  0.91188000000E+02 0.  0.
    9900012    2    3    3    0    0 -0.30989402866E+02  0.16283830562E+02 -0.11413722055E+02  0.54367091824E+02  0.40000017432E+02 0.  0.
        -12    1    3    3    0    0  0.30989402866E+02 -0.16283830562E+02  0.11413722055E+02  0.36820908176E+02  0.00000000000E+00 0.  1.
         11    1    4    4    0    0 -0.50329325041E+00 -0.92787217324E+01 -0.30692129406E+00  0.92974287857E+01  0.51100000000E-03 0. -1.
        -11    1    4    4    0    0  0.49514896567E+00  0.12764903363E+01  0.29639561459E+01  0.32649098568E+01  0.51100000000E-03 0.  1.
         12    1    4    4    0    0 -0.30981258581E+02  0.24286061958E+02 -0.14070756907E+02  0.41804753182E+02  0.00000000000E+00 0. -1.
</event>
<event>
 8    1  0.1229038E-006  0.9118800E+02  0.7816164E-02  0.1184000E+00
        -11   -1    0    0    0    0  0.00000000000E+00  0.00000000000E+00  0.45593999997E+02  0.45594000000E+02  0.51100000000E-03 0. -1.
         11   -1    0    0    0    0 -0.00000000000E+00 -0.00000000000E+00 -0.45593999997E+02  0.45594000000E+02  0.51100000000E-03 0.  1.
         23    2    1    2    0    0  0.00000000000E+00 -0.35527136788E-14  0.35527136788E-14  0.91188000000E+02  0.91188000000E+02 0.  0.
    9900012    2    3    3    0    0 -0.22225584380E+02 -0.24703244385E+02  0.15860415775E+02  0.54367086476E+02  0.40000005239E+02 0.  0.
        -12    1    3    3    0    0  0.22225584380E+02  0.24703244385E+02 -0.15860415775E+02  0.36820913524E+02  0.00000000000E+00 0.  1.
         11    1    4    4    0    0 -0.86822139196E+01 -0.10208442655E+02  0.10753041969E+02  0.17181997900E+02  0.51100000000E-03 0. -1.
        -11    1    4    4    0    0 -0.13136065965E+02 -0.93414542319E-01 -0.98488441780E+01  0.16418425236E+02  0.51100000000E-03 0.  1.
         12    1    4    4    0    0 -0.40730449534E+00 -0.14401387188E+02  0.14956217984E+02  0.20766663340E+02  0.00000000000E+00 0. -1.
</event>
<event>
 8    1  0.1229038E-006  0.9118800E+02  0.7816164E-02  0.1184000E+00
        -11   -1    0    0    0    0  0.00000000000E+00  0.00000000000E+00  0.45593999997E+02  0.45594000000E+02  0.51100000000E-03 0.  1.
         11   -1    0    0    0    0 -0.00000000000E+00 -0.00000000000E+00 -0.45593999997E+02  0.45594000000E+02  0.51100000000E-03 0. -1.
         23    2    1    2    0    0  0.53290705182E-14 -0.17763568394E-14  0.35527136788E-14  0.91188000000E+02  0.91188000000E+02 0.  0.
    9900012    2    3    3    0    0 -0.12844753332E+02  0.15495403740E+02 -0.30833171280E+02  0.54367086426E+02  0.40000005125E+02 0.  0.
        -12    1    3    3    0    0  0.12844753332E+02 -0.15495403740E+02  0.30833171280E+02  0.36820913574E+02  0.00000000000E+00 0.  1.
         11    1    4    4    0    0  0.60839919820E+01  0.14823049218E+02 -0.57555226751E+01  0.17025386576E+02  0.51100000000E-03 0. -1.
        -11    1    4    4    0    0  0.20830005065E+01 -0.53980402124E+01 -0.48262390325E+01  0.75346076676E+01  0.51100000000E-03 0.  1.
         12    1    4    4    0    0 -0.21011745821E+02  0.60703947350E+01 -0.20251409572E+02  0.29807092182E+02  0.00000000000E+00 0. -1.
</event>
<event>
 8    1  0.1229038E-006  0.9118800E+02  0.7816164E-02  0.1184000E+00
        -11   -1    0    0    0    0  0.00000000000E+00  0.00000000000E+00  0.45593999997E+02  0.45594000000E+02  0.51100000000E-03 0.  1.
         11   -1    0    0    0    0 -0.00000000000E+00 -0.00000000000E+00 -0.45593999997E+02  0.45594000000E+02  0.51100000000E-03 0. -1.
         23    2    1    2    0    0 -0.88817841970E-15  0.00000000000E+00  0.00000000000E+00  0.91188000000E+02  0.91188000000E+02 0.  0.
    9900012    2    3    3    0    0  0.75715614950E+01 -0.13623131976E+02 -0.33359583764E+02  0.54367080712E+02  0.39999992099E+02 0.  0.
         12    1    3    3    0    0 -0.75715614950E+01  0.13623131976E+02  0.33359583764E+02  0.36820919288E+02  0.00000000000E+00 0. -1.
         11    1    4    4    0    0  0.75089358917E+01  0.84015777527E+00 -0.66016686668E+01  0.10033544377E+02  0.51100000000E-03 0. -1.
        -11    1    4    4    0    0 -0.10528550632E+02 -0.19246441798E+02 -0.23745274713E+02  0.32328222527E+02  0.51100000000E-03 0.  1.
        -12    1    4    4    0    0  0.10591176235E+02  0.47831520470E+01 -0.30126403843E+01  0.12005313808E+02  0.00000000000E+00 0.  1.
</event>
<event>
 8    1  0.1229038E-006  0.9118800E+02  0.7816164E-02  0.1184000E+00
        -11   -1    0    0    0    0  0.00000000000E+00  0.00000000000E+00  0.45593999997E+02  0.45594000000E+02  0.51100000000E-03 0. -1.
         11   -1    0    0    0    0 -0.00000000000E+00 -0.00000000000E+00 -0.45593999997E+02  0.45594000000E+02  0.51100000000E-03 0.  1.
         23    2    1    2    0    0  0.00000000000E+00  0.44408920985E-15  0.00000000000E+00  0.91188000000E+02  0.91188000000E+02 0.  0.
    9900012    2    3    3    0    0 -0.10985984400E+02  0.35518299109E+01 -0.34963863970E+02  0.54367093810E+02  0.40000021958E+02 0.  0.
         12    1    3    3    0    0  0.10985984400E+02 -0.35518299109E+01  0.34963863970E+02  0.36820906190E+02  0.00000000000E+00 0. -1.
         11    1    4    4    0    0 -0.15027174063E+02  0.54420652548E+01 -0.10957715529E+02  0.19377914347E+02  0.51100000000E-03 0. -1.
        -11    1    4    4    0    0 -0.77716042527E+00  0.78763631145E+01 -0.22676261143E+02  0.24017782868E+02  0.51100000000E-03 0.  1.
         12    1    4    4    0    0  0.48183500879E+01 -0.97665984584E+01 -0.13298872987E+01  0.10971396595E+02  0.00000000000E+00 0. -1.
</event>
<event>
 8    1  0.1229038E-006  0.9118800E+02  0.7816164E-02  0.1184000E+00
        -11   -1    0    0    0    0  0.00000000000E+00  0.00000000000E+00  0.45593999997E+02  0.45594000000E+02  0.51100000000E-03 0.  1.
         11   -1    0    0    0    0 -0.00000000000E+00 -0.00000000000E+00 -0.45593999997E+02  0.45594000000E+02  0.51100000000E-03 0. -1.
         23    2    1    2    0    0 -0.17763568394E-14  0.35527136788E-14  0.71054273576E-14  0.91188000000E+02  0.91188000000E+02 0.  0.
    9900012    2    3    3    0    0  0.10563990664E+02 -0.14640761220E+02 -0.32090975549E+02  0.54367075249E+02  0.39999979645E+02 0.  0.
        -12    1    3    3    0    0 -0.10563990664E+02  0.14640761220E+02  0.32090975549E+02  0.36820924751E+02  0.00000000000E+00 0.  1.
         11    1    4    4    0    0 -0.12484584926E+02 -0.12622212705E+02 -0.12650274222E+02  0.21799416334E+02  0.51100000000E-03 0.  1.
        -11    1    4    4    0    0  0.17169697721E+02 -0.68321896198E+01 -0.14689004832E+02  0.23606020378E+02  0.51100000000E-03 0. -1.
        -12    1    4    4    0    0  0.58788778685E+01  0.48136411056E+01 -0.47516964952E+01  0.89616385370E+01  0.00000000000E+00 0.  1.
</event>
<event>
 8    1  0.1229038E-006  0.9118800E+02  0.7816164E-02  0.1184000E+00
        -11   -1    0    0    0    0  0.00000000000E+00  0.00000000000E+00  0.45593999997E+02  0.45594000000E+02  0.51100000000E-03 0.  1.
         11   -1    0    0    0    0 -0.00000000000E+00 -0.00000000000E+00 -0.45593999997E+02  0.45594000000E+02  0.51100000000E-03 0. -1.
         23    2    1    2    0    0  0.00000000000E+00 -0.17763568394E-14  0.35527136788E-14  0.91188000000E+02  0.91188000000E+02 0.  0.
    9900012    2    3    3    0    0 -0.27095360813E+02  0.47311153020E+01 -0.24479325545E+02  0.54367090061E+02  0.40000013413E+02 0.  0.
        -12    1    3    3    0    0  0.27095360813E+02 -0.47311153020E+01  0.24479325545E+02  0.36820909939E+02  0.00000000000E+00 0.  1.
         11    1    4    4    0    0 -0.25599343896E+02  0.72292676315E+01  0.67257172809E+00  0.26609041159E+02  0.51100000000E-03 0. -1.
        -11    1    4    4    0    0 -0.17588835064E+01 -0.47342262045E+01 -0.38836793849E+01  0.63709916630E+01  0.51100000000E-03 0.  1.
        -12    1    4    4    0    0  0.26286659029E+00  0.22360738750E+01 -0.21268217888E+02  0.21387057239E+02  0.00000000000E+00 0.  1.
</event>
<event>
 8    1  0.1229038E-006  0.9118800E+02  0.7816164E-02  0.1184000E+00
        -11   -1    0    0    0    0  0.00000000000E+00  0.00000000000E+00  0.45593999997E+02  0.45594000000E+02  0.51100000000E-03 0. -1.
         11   -1    0    0    0    0 -0.00000000000E+00 -0.00000000000E+00 -0.45593999997E+02  0.45594000000E+02  0.51100000000E-03 0.  1.
         23    2    1    2    0    0  0.00000000000E+00  0.44408920985E-15 -0.35527136788E-14  0.91188000000E+02  0.91188000000E+02 0.  0.
    9900012    2    3    3    0    0 -0.23924987657E+02 -0.31977338764E+01 -0.27805529544E+02  0.54367109061E+02  0.40000056726E+02 0.  0.
         12    1    3    3    0    0  0.23924987657E+02  0.31977338764E+01  0.27805529544E+02  0.36820890939E+02  0.00000000000E+00 0. -1.
         11    1    4    4    0    0 -0.22059732613E+02  0.40927713590E+01 -0.81272103692E+01  0.23862818966E+02  0.51100000000E-03 0. -1.
        -11    1    4    4    0    0 -0.32538310734E+00  0.18848978287E+01 -0.21017782666E+02  0.21104641728E+02  0.51100000000E-03 0.  1.
         12    1    4    4    0    0 -0.15398719370E+01 -0.91754030641E+01  0.13394634921E+01  0.93996483667E+01  0.00000000000E+00 0. -1.
</event>
<event>
 8    1  0.1229038E-006  0.9118800E+02  0.7816164E-02  0.1184000E+00
        -11   -1    0    0    0    0  0.00000000000E+00  0.00000000000E+00  0.45593999997E+02  0.45594000000E+02  0.51100000000E-03 0. -1.
         11   -1    0    0    0    0 -0.00000000000E+00 -0.00000000000E+00 -0.45593999997E+02  0.45594000000E+02  0.51100000000E-03 0.  1.
         23    2    1    2    0    0  0.00000000000E+00 -0.88817841970E-15  0.00000000000E+00  0.91188000000E+02  0.91188000000E+02 0.  0.
    9900012    2    3    3    0    0 -0.22036309620E+02  0.69417692344E+01 -0.28670410875E+02  0.54367087986E+02  0.40000008683E+02 0.  0.
         12    1    3    3    0    0  0.22036309620E+02 -0.69417692344E+01  0.28670410875E+02  0.36820912014E+02  0.00000000000E+00 0. -1.
         11    1    4    4    0    0 -0.24395790580E+02 -0.73317183561E+01 -0.49749689459E+01  0.25954941887E+02  0.51100000000E-03 0. -1.
        -11    1    4    4    0    0 -0.48884065209E+00  0.95204125815E+01 -0.10974541402E+02  0.14536773375E+02  0.51100000000E-03 0.  1.
         12    1    4    4    0    0  0.28483216114E+01  0.47530750089E+01 -0.12720900527E+02  0.13875372725E+02  0.00000000000E+00 0. -1.
</event>
<event>
 8    1  0.1229038E-006  0.9118800E+02  0.7816164E-02  0.1184000E+00
        -11   -1    0    0    0    0  0.00000000000E+00  0.00000000000E+00  0.45593999997E+02  0.45594000000E+02  0.51100000000E-03 0.  1.
         11   -1    0    0    0    0 -0.00000000000E+00 -0.00000000000E+00 -0.45593999997E+02  0.45594000000E+02  0.51100000000E-03 0. -1.
         23    2    1    2    0    0  0.00000000000E+00  0.88817841970E-15  0.00000000000E+00  0.91188000000E+02  0.91188000000E+02 0.  0.
    9900012    2    3    3    0    0 -0.16187971082E+02 -0.27389818113E+01  0.32957948175E+02  0.54367098639E+02  0.40000032968E+02 0.  0.
         12    1    3    3    0    0  0.16187971082E+02  0.27389818113E+01 -0.32957948175E+02  0.36820901361E+02  0.00000000000E+00 0. -1.
         11    1    4    4    0    0 -0.19327301615E+02  0.30633947782E+01  0.12602209900E+02  0.23275409124E+02  0.51100000000E-03 0. -1.
        -11    1    4    4    0    0 -0.98832914434E+00  0.60446178968E+01 -0.11139126721E+01  0.62253515337E+01  0.51100000000E-03 0.  1.
        -12    1    4    4    0    0  0.41276596777E+01 -0.11846994486E+02  0.21469650948E+02  0.24866337981E+02  0.00000000000E+00 0.  1.
</event>
<event>
 8    1  0.1229038E-006  0.9118800E+02  0.7816164E-02  0.1184000E+00
        -11   -1    0    0    0    0  0.00000000000E+00  0.00000000000E+00  0.45593999997E+02  0.45594000000E+02  0.51100000000E-03 0.  1.
         11   -1    0    0    0    0 -0.00000000000E+00 -0.00000000000E+00 -0.45593999997E+02  0.45594000000E+02  0.51100000000E-03 0. -1.
         23    2    1    2    0    0  0.00000000000E+00  0.17763568394E-14  0.00000000000E+00  0.91188000000E+02  0.91188000000E+02 0.  0.
    9900012    2    3    3    0    0 -0.51557007321E+01 -0.10490510325E+02  0.34916292947E+02  0.54367087870E+02  0.40000008417E+02 0.  0.
         12    1    3    3    0    0  0.51557007321E+01  0.10490510325E+02 -0.34916292947E+02  0.36820912130E+02  0.00000000000E+00 0. -1.
         11    1    4    4    0    0  0.27091497204E+01 -0.40338727290E+01  0.34368610392E+01  0.59517758245E+01  0.51100000000E-03 0.  1.
        -11    1    4    4    0    0 -0.19152461589E+00  0.14473546453E+02  0.13117279570E+02  0.19534156040E+02  0.51100000000E-03 0. -1.
        -12    1    4    4    0    0 -0.76733258366E+01 -0.20930184049E+02  0.18362152338E+02  0.28881156006E+02  0.00000000000E+00 0.  1.
</event>
<event>
 8    1  0.1229038E-006  0.9118800E+02  0.7816164E-02  0.1184000E+00
        -11   -1    0    0    0    0  0.00000000000E+00  0.00000000000E+00  0.45593999997E+02  0.45594000000E+02  0.51100000000E-03 0. -1.
         11   -1    0    0    0    0 -0.00000000000E+00 -0.00000000000E+00 -0.45593999997E+02  0.45594000000E+02  0.51100000000E-03 0.  1.
         23    2    1    2    0    0  0.17763568394E-14  0.00000000000E+00 -0.17763568394E-14  0.91188000000E+02  0.91188000000E+02 0.  0.
    9900012    2    3    3    0    0 -0.11456829554E+02  0.32800185528E+02 -0.12193002274E+02  0.54367076348E+02  0.39999982151E+02 0.  0.
         12    1    3    3    0    0  0.11456829554E+02 -0.32800185528E+02  0.12193002274E+02  0.36820923652E+02  0.00000000000E+00 0. -1.
         11    1    4    4    0    0 -0.11996666383E+02  0.29804027669E+02 -0.70644560487E+01  0.32895388874E+02  0.51100000000E-03 0. -1.
        -11    1    4    4    0    0 -0.87485306823E+01 -0.35650998031E+01 -0.29115201018E+01  0.98855285782E+01  0.51100000000E-03 0.  1.
        -12    1    4    4    0    0  0.92883675115E+01  0.65612576619E+01 -0.22170261240E+01  0.11586158896E+02  0.00000000000E+00 0.  1.
</event>
<event>
 8    1  0.1229038E-006  0.9118800E+02  0.7816164E-02  0.1184000E+00
        -11   -1    0    0    0    0  0.00000000000E+00  0.00000000000E+00  0.45593999997E+02  0.45594000000E+02  0.51100000000E-03 0. -1.
         11   -1    0    0    0    0 -0.00000000000E+00 -0.00000000000E+00 -0.45593999997E+02  0.45594000000E+02  0.51100000000E-03 0.  1.
         23    2    1    2    0    0  0.35527136788E-14  0.44408920985E-15  0.00000000000E+00  0.91188000000E+02  0.91188000000E+02 0.  0.
    9900012    2    3    3    0    0  0.27986756516E+02 -0.38797550270E+01  0.23610786564E+02  0.54367078209E+02  0.39999986393E+02 0.  0.
        -12    1    3    3    0    0 -0.27986756516E+02  0.38797550270E+01 -0.23610786564E+02  0.36820921791E+02  0.00000000000E+00 0.  1.
         11    1    4    4    0    0  0.44538816481E+01 -0.67486415655E+01 -0.64038835889E+01  0.10314598877E+02  0.51100000000E-03 0.  1.
        -11    1    4    4    0    0  0.27353773644E+02  0.49905375021E+01  0.24899616384E+02  0.37324593681E+02  0.51100000000E-03 0. -1.
         12    1    4    4    0    0 -0.38208987761E+01 -0.21216509636E+01  0.51150537693E+01  0.67278856509E+01  0.00000000000E+00 0. -1.
</event>
<event>
 8    1  0.1229038E-006  0.9118800E+02  0.7816164E-02  0.1184000E+00
        -11   -1    0    0    0    0  0.00000000000E+00  0.00000000000E+00  0.45593999997E+02  0.45594000000E+02  0.51100000000E-03 0.  1.
         11   -1    0    0    0    0 -0.00000000000E+00 -0.00000000000E+00 -0.45593999997E+02  0.45594000000E+02  0.51100000000E-03 0. -1.
         23    2    1    2    0    0  0.00000000000E+00  0.00000000000E+00  0.00000000000E+00  0.91188000000E+02  0.91188000000E+02 0.  0.
    9900012    2    3    3    0    0 -0.97948067685E+01 -0.23084711365E+02  0.26961853222E+02  0.54367032229E+02  0.39999881573E+02 0.  0.
        -12    1    3    3    0    0  0.97948067685E+01  0.23084711365E+02 -0.26961853222E+02  0.36820967771E+02  0.00000000000E+00 0.  1.
         11    1    4    4    0    0 -0.10665983775E+01  0.60061355229E+01  0.18561300551E+01  0.63762461575E+01  0.51100000000E-03 0. -1.
        -11    1    4    4    0    0 -0.16922178687E+02 -0.11529299747E+02  0.18267487576E+02  0.27440590131E+02  0.51100000000E-03 0.  1.
         12    1    4    4    0    0  0.81939702960E+01 -0.17561547141E+02  0.68382355909E+01  0.20550195941E+02  0.00000000000E+00 0. -1.
</event>
<event>
 8    1  0.1229038E-006  0.9118800E+02  0.7816164E-02  0.1184000E+00
        -11   -1    0    0    0    0  0.00000000000E+00  0.00000000000E+00  0.45593999997E+02  0.45594000000E+02  0.51100000000E-03 0.  1.
         11   -1    0    0    0    0 -0.00000000000E+00 -0.00000000000E+00 -0.45593999997E+02  0.45594000000E+02  0.51100000000E-03 0. -1.
         23    2    1    2    0    0 -0.35527136788E-14  0.00000000000E+00  0.00000000000E+00  0.91188000000E+02  0.91188000000E+02 0.  0.
    9900012    2    3    3    0    0 -0.20523054197E+02  0.15303594582E+02  0.26464761104E+02  0.54367090981E+02  0.40000015509E+02 0.  0.
         12    1    3    3    0    0  0.20523054197E+02 -0.15303594582E+02 -0.26464761104E+02  0.36820909019E+02  0.00000000000E+00 0. -1.
         11    1    4    4    0    0 -0.17546875103E+01  0.62567111501E+01  0.65897614030E+01  0.92547457169E+01  0.51100000000E-03 0. -1.
        -11    1    4    4    0    0 -0.29043591557E+02  0.51048736679E+01  0.14190503537E+02  0.32725530348E+02  0.51100000000E-03 0.  1.
        -12    1    4    4    0    0  0.10275224870E+02  0.39420097635E+01  0.56844961646E+01  0.12386814916E+02  0.00000000000E+00 0.  1.
</event>
<event>
 8    1  0.1229038E-006  0.9118800E+02  0.7816164E-02  0.1184000E+00
        -11   -1    0    0    0    0  0.00000000000E+00  0.00000000000E+00  0.45593999997E+02  0.45594000000E+02  0.51100000000E-03 0.  1.
         11   -1    0    0    0    0 -0.00000000000E+00 -0.00000000000E+00 -0.45593999997E+02  0.45594000000E+02  0.51100000000E-03 0. -1.
         23    2    1    2    0    0  0.00000000000E+00  0.88817841970E-15  0.71054273576E-14  0.91188000000E+02  0.91188000000E+02 0.  0.
    9900012    2    3    3    0    0 -0.29100394633E+02 -0.73439876027E+01 -0.21331025670E+02  0.54367085049E+02  0.40000001987E+02 0.  0.
        -12    1    3    3    0    0  0.29100394633E+02  0.73439876027E+01  0.21331025670E+02  0.36820914951E+02  0.00000000000E+00 0.  1.
         11    1    4    4    0    0 -0.20883805124E+02 -0.69626836708E+01  0.68393163936E+01  0.23051866071E+02  0.51100000000E-03 0. -1.
        -11    1    4    4    0    0  0.21729942715E+01 -0.17963233974E+01 -0.33992674288E+01  0.44162994878E+01  0.51100000000E-03 0.  1.
         12    1    4    4    0    0 -0.10389583780E+02  0.14150194656E+01 -0.24771074634E+02  0.26898919490E+02  0.00000000000E+00 0. -1.
</event>
<event>
 8    1  0.1229038E-006  0.9118800E+02  0.7816164E-02  0.1184000E+00
        -11   -1    0    0    0    0  0.00000000000E+00  0.00000000000E+00  0.45593999997E+02  0.45594000000E+02  0.51100000000E-03 0. -1.
         11   -1    0    0    0    0 -0.00000000000E+00 -0.00000000000E+00 -0.45593999997E+02  0.45594000000E+02  0.51100000000E-03 0.  1.
         23    2    1    2    0    0  0.00000000000E+00 -0.17763568394E-14  0.53290705182E-14  0.91188000000E+02  0.91188000000E+02 0.  0.
    9900012    2    3    3    0    0  0.32813425423E+02  0.14041632002E+02 -0.90495995192E+01  0.54367033571E+02  0.39999884632E+02 0.  0.
        -12    1    3    3    0    0 -0.32813425423E+02 -0.14041632002E+02  0.90495995192E+01  0.36820966429E+02  0.00000000000E+00 0.  1.
         11    1    4    4    0    0  0.72624699979E+01  0.11993673860E+02  0.28020239735E+01  0.14298357309E+02  0.51100000000E-03 0.  1.
        -11    1    4    4    0    0  0.61470161124E+01 -0.67136195278E+01  0.71164840424E+01  0.11554342891E+02  0.51100000000E-03 0. -1.
        -12    1    4    4    0    0  0.19403939313E+02  0.87615776698E+01 -0.18968107535E+02  0.28514333371E+02  0.00000000000E+00 0.  1.
</event>
<event>
 8    1  0.1229038E-006  0.9118800E+02  0.7816164E-02  0.1184000E+00
        -11   -1    0    0    0    0  0.00000000000E+00  0.00000000000E+00  0.45593999997E+02  0.45594000000E+02  0.51100000000E-03 0. -1.
         11   -1    0    0    0    0 -0.00000000000E+00 -0.00000000000E+00 -0.45593999997E+02  0.45594000000E+02  0.51100000000E-03 0.  1.
         23    2    1    2    0    0  0.00000000000E+00  0.88817841970E-15  0.00000000000E+00  0.91188000000E+02  0.91188000000E+02 0.  0.
    9900012    2    3    3    0    0  0.17698648336E+02  0.66396309161E+01  0.31598310732E+02  0.54367080773E+02  0.39999992238E+02 0.  0.
        -12    1    3    3    0    0 -0.17698648336E+02 -0.66396309161E+01 -0.31598310732E+02  0.36820919227E+02  0.00000000000E+00 0.  1.
         11    1    4    4    0    0  0.37435503512E+01 -0.11702701497E+02  0.59177181238E+00  0.12301121319E+02  0.51100000000E-03 0. -1.
        -11    1    4    4    0    0  0.14382387416E+01  0.63943800656E+01 -0.41780401994E-02  0.65541318890E+01  0.51100000000E-03 0.  1.
         12    1    4    4    0    0  0.12516859243E+02  0.11947952348E+02  0.31010716960E+02  0.35511827565E+02  0.00000000000E+00 0. -1.
</event>
<event>
 8    1  0.1229038E-006  0.9118800E+02  0.7816164E-02  0.1184000E+00
        -11   -1    0    0    0    0  0.00000000000E+00  0.00000000000E+00  0.45593999997E+02  0.45594000000E+02  0.51100000000E-03 0.  1.
         11   -1    0    0    0    0 -0.00000000000E+00 -0.00000000000E+00 -0.45593999997E+02  0.45594000000E+02  0.51100000000E-03 0. -1.
         23    2    1    2    0    0  0.00000000000E+00  0.00000000000E+00  0.26645352591E-14  0.91188000000E+02  0.91188000000E+02 0.  0.
    9900012    2    3    3    0    0 -0.34349039233E+02 -0.10701277484E+02 -0.78361964152E+01  0.54367084608E+02  0.40000000981E+02 0.  0.
        -12    1    3    3    0    0  0.34349039233E+02  0.10701277484E+02  0.78361964152E+01  0.36820915392E+02  0.00000000000E+00 0.  1.
         11    1    4    4    0    0 -0.11768014915E+02 -0.33782767715E+01 -0.10602675698E+02  0.16196161928E+02  0.51100000000E-03 0. -1.
        -11    1    4    4    0    0 -0.20390606719E+02 -0.14260792364E+02  0.10980862633E+02  0.27197911421E+02  0.51100000000E-03 0.  1.
        -12    1    4    4    0    0 -0.21904175999E+01  0.69377916522E+01 -0.82143833504E+01  0.10973011259E+02  0.00000000000E+00 0.  1.
</event>
<event>
 8    1  0.1229038E-006  0.9118800E+02  0.7816164E-02  0.1184000E+00
        -11   -1    0    0    0    0  0.00000000000E+00  0.00000000000E+00  0.45593999997E+02  0.45594000000E+02  0.51100000000E-03 0.  1.
         11   -1    0    0    0    0 -0.00000000000E+00 -0.00000000000E+00 -0.45593999997E+02  0.45594000000E+02  0.51100000000E-03 0. -1.
         23    2    1    2    0    0  0.00000000000E+00  0.00000000000E+00 -0.35527136788E-14  0.91188000000E+02  0.91188000000E+02 0.  0.
    9900012    2    3    3    0    0 -0.24277361820E+02 -0.22161673465E+02  0.16590660289E+02  0.54367080993E+02  0.39999992740E+02 0.  0.
         12    1    3    3    0    0  0.24277361820E+02  0.22161673465E+02 -0.16590660289E+02  0.36820919007E+02  0.00000000000E+00 0. -1.
         11    1    4    4    0    0 -0.35859193748E+01  0.98503594279E+00  0.91081110938E+01  0.98380283355E+01  0.51100000000E-03 0.  1.
        -11    1    4    4    0    0 -0.10036223277E+02 -0.70825412370E+01 -0.11964103593E+02  0.17147243017E+02  0.51100000000E-03 0. -1.
        -12    1    4    4    0    0 -0.10655219168E+02 -0.16064168170E+02  0.19446652788E+02  0.27381809640E+02  0.00000000000E+00 0.  1.
</event>
<event>
 8    1  0.1229038E-006  0.9118800E+02  0.7816164E-02  0.1184000E+00
        -11   -1    0    0    0    0  0.00000000000E+00  0.00000000000E+00  0.45593999997E+02  0.45594000000E+02  0.51100000000E-03 0.  1.
         11   -1    0    0    0    0 -0.00000000000E+00 -0.00000000000E+00 -0.45593999997E+02  0.45594000000E+02  0.51100000000E-03 0. -1.
         23    2    1    2    0    0 -0.13322676296E-14  0.00000000000E+00  0.71054273576E-14  0.91188000000E+02  0.91188000000E+02 0.  0.
    9900012    2    3    3    0    0  0.26168890002E+01 -0.11266837203E+02 -0.34956977493E+02  0.54367081977E+02  0.39999994983E+02 0.  0.
        -12    1    3    3    0    0 -0.26168890002E+01  0.11266837203E+02  0.34956977493E+02  0.36820918023E+02  0.00000000000E+00 0.  1.
         11    1    4    4    0    0 -0.22047822223E+01  0.75887282491E+01 -0.11449688998E+02  0.13912053748E+02  0.51100000000E-03 0. -1.
        -11    1    4    4    0    0 -0.82881271024E+01 -0.64131670493E+01 -0.19201265383E+02  0.21874879543E+02  0.51100000000E-03 0.  1.
         12    1    4    4    0    0  0.13109798325E+02 -0.12442398403E+02 -0.43060231130E+01  0.18580148686E+02  0.00000000000E+00 0. -1.
</event>
<event>
 8    1  0.1229038E-006  0.9118800E+02  0.7816164E-02  0.1184000E+00
        -11   -1    0    0    0    0  0.00000000000E+00  0.00000000000E+00  0.45593999997E+02  0.45594000000E+02  0.51100000000E-03 0.  1.
         11   -1    0    0    0    0 -0.00000000000E+00 -0.00000000000E+00 -0.45593999997E+02  0.45594000000E+02  0.51100000000E-03 0. -1.
         23    2    1    2    0    0 -0.35527136788E-14  0.88817841970E-15  0.35527136788E-14  0.91188000000E+02  0.91188000000E+02 0.  0.
    9900012    2    3    3    0    0 -0.30188180735E+02  0.72418361128E+01  0.19799222097E+02  0.54367086893E+02  0.40000006190E+02 0.  0.
         12    1    3    3    0    0  0.30188180735E+02 -0.72418361128E+01 -0.19799222097E+02  0.36820913107E+02  0.00000000000E+00 0. -1.
         11    1    4    4    0    0 -0.14324433846E+02  0.17751102264E+02  0.10189377943E+02  0.24982282916E+02  0.51100000000E-03 0. -1.
        -11    1    4    4    0    0 -0.65559297626E+01 -0.10613981666E+02  0.14287158804E+02  0.18967333203E+02  0.51100000000E-03 0.  1.
         12    1    4    4    0    0 -0.93078171264E+01  0.10471551521E+00 -0.46773146496E+01  0.10417470774E+02  0.00000000000E+00 0. -1.
</event>
<event>
 8    1  0.1229038E-006  0.9118800E+02  0.7816164E-02  0.1184000E+00
        -11   -1    0    0    0    0  0.00000000000E+00  0.00000000000E+00  0.45593999997E+02  0.45594000000E+02  0.51100000000E-03 0.  1.
         11   -1    0    0    0    0 -0.00000000000E+00 -0.00000000000E+00 -0.45593999997E+02  0.45594000000E+02  0.51100000000E-03 0. -1.
         23    2    1    2    0    0  0.35527136788E-14  0.10658141036E-13  0.00000000000E+00  0.91188000000E+02  0.91188000000E+02 0.  0.
    9900012    2    3    3    0    0 -0.20333482634E+02  0.25446651026E+02  0.17169639970E+02  0.54367094238E+02  0.40000022934E+02 0.  0.
        -12    1    3    3    0    0  0.20333482634E+02 -0.25446651026E+02 -0.17169639970E+02  0.36820905762E+02  0.00000000000E+00 0.  1.
         11    1    4    4    0    0 -0.19050538214E+00  0.77829432221E+01  0.30621787811E-01  0.77853346398E+01  0.51100000000E-03 0. -1.
        -11    1    4    4    0    0  0.39066043853E+01 -0.42397967851E+01 -0.46691107584E+01  0.74187620354E+01  0.51100000000E-03 0.  1.
         12    1    4    4    0    0 -0.24049581637E+02  0.21903504589E+02  0.21808128941E+02  0.39162997563E+02  0.00000000000E+00 0. -1.
</event>
<event>
 8    1  0.1229038E-006  0.9118800E+02  0.7816164E-02  0.1184000E+00
        -11   -1    0    0    0    0  0.00000000000E+00  0.00000000000E+00  0.45593999997E+02  0.45594000000E+02  0.51100000000E-03 0.  1.
         11   -1    0    0    0    0 -0.00000000000E+00 -0.00000000000E+00 -0.45593999997E+02  0.45594000000E+02  0.51100000000E-03 0. -1.
         23    2    1    2    0    0 -0.17763568394E-14  0.00000000000E+00  0.00000000000E+00  0.91188000000E+02  0.91188000000E+02 0.  0.
    9900012    2    3    3    0    0  0.47004566601E+01  0.10973297691E+02 -0.34832038419E+02  0.54367103006E+02  0.40000042923E+02 0.  0.
        -12    1    3    3    0    0 -0.47004566601E+01 -0.10973297691E+02  0.34832038419E+02  0.36820896994E+02  0.00000000000E+00 0.  1.
         11    1    4    4    0    0 -0.14813387014E+01 -0.60837978772E+01 -0.24068455841E+02  0.24869610528E+02  0.51100000000E-03 0. -1.
        -11    1    4    4    0    0 -0.45698019250E+01  0.53625430006E+00  0.29674568988E+01  0.54750761653E+01  0.51100000000E-03 0.  1.
        -12    1    4    4    0    0  0.10751597286E+02  0.16520841269E+02 -0.13731039476E+02  0.24022416313E+02  0.00000000000E+00 0.  1.
</event>
<event>
 8    1  0.1229038E-006  0.9118800E+02  0.7816164E-02  0.1184000E+00
        -11   -1    0    0    0    0  0.00000000000E+00  0.00000000000E+00  0.45593999997E+02  0.45594000000E+02  0.51100000000E-03 0.  1.
         11   -1    0    0    0    0 -0.00000000000E+00 -0.00000000000E+00 -0.45593999997E+02  0.45594000000E+02  0.51100000000E-03 0. -1.
         23    2    1    2    0    0  0.00000000000E+00  0.00000000000E+00 -0.17763568394E-14  0.91188000000E+02  0.91188000000E+02 0.  0.
    9900012    2    3    3    0    0  0.32409039179E+02 -0.72388241019E+01  0.15907027822E+02  0.54367082996E+02  0.39999997306E+02 0.  0.
         12    1    3    3    0    0 -0.32409039179E+02  0.72388241019E+01 -0.15907027822E+02  0.36820917004E+02  0.00000000000E+00 0. -1.
         11    1    4    4    0    0  0.49180187671E+01  0.18879595592E+00  0.20603054674E+02  0.21182738602E+02  0.51100000000E-03 0. -1.
        -11    1    4    4    0    0  0.11527173729E+02 -0.62508043404E+01  0.54849164915E+01  0.14213817160E+02  0.51100000000E-03 0.  1.
        -12    1    4    4    0    0  0.15963846683E+02 -0.11768157174E+01 -0.10180943344E+02  0.18970527234E+02  0.00000000000E+00 0.  1.
</event>
<event>
 8    1  0.1229038E-006  0.9118800E+02  0.7816164E-02  0.1184000E+00
        -11   -1    0    0    0    0  0.00000000000E+00  0.00000000000E+00  0.45593999997E+02  0.45594000000E+02  0.51100000000E-03 0. -1.
         11   -1    0    0    0    0 -0.00000000000E+00 -0.00000000000E+00 -0.45593999997E+02  0.45594000000E+02  0.51100000000E-03 0.  1.
         23    2    1    2    0    0  0.88817841970E-15  0.35527136788E-14  0.00000000000E+00  0.91188000000E+02  0.91188000000E+02 0.  0.
    9900012    2    3    3    0    0  0.41327937935E+01  0.31537050298E+02  0.18550326946E+02  0.54367079916E+02  0.39999990285E+02 0.  0.
        -12    1    3    3    0    0 -0.41327937935E+01 -0.31537050298E+02 -0.18550326946E+02  0.36820920084E+02  0.00000000000E+00 0.  1.
         11    1    4    4    0    0 -0.77951452576E+01  0.28104147127E+02  0.14745735201E+02  0.32680943717E+02  0.51100000000E-03 0. -1.
        -11    1    4    4    0    0 -0.16050846931E+01  0.18391948400E+01 -0.49294527551E+01  0.55007671517E+01  0.51100000000E-03 0.  1.
        -12    1    4    4    0    0  0.13533023744E+02  0.15937083309E+01  0.87340444994E+01  0.16185369048E+02  0.00000000000E+00 0.  1.
</event>
<event>
 8    1  0.1229038E-006  0.9118800E+02  0.7816164E-02  0.1184000E+00
        -11   -1    0    0    0    0  0.00000000000E+00  0.00000000000E+00  0.45593999997E+02  0.45594000000E+02  0.51100000000E-03 0.  1.
         11   -1    0    0    0    0 -0.00000000000E+00 -0.00000000000E+00 -0.45593999997E+02  0.45594000000E+02  0.51100000000E-03 0. -1.
         23    2    1    2    0    0  0.00000000000E+00  0.00000000000E+00 -0.35527136788E-14  0.91188000000E+02  0.91188000000E+02 0.  0.
    9900012    2    3    3    0    0 -0.51931781106E+01 -0.30521479147E+02  0.19931114654E+02  0.54367093988E+02  0.40000022365E+02 0.  0.
        -12    1    3    3    0    0  0.51931781106E+01  0.30521479147E+02 -0.19931114654E+02  0.36820906012E+02  0.00000000000E+00 0.  1.
         11    1    4    4    0    0  0.14973118758E+01 -0.13297123870E+02  0.34168118856E+01  0.13810505052E+02  0.51100000000E-03 0. -1.
        -11    1    4    4    0    0 -0.37208564916E+01 -0.24670564296E+02  0.19841148873E+02  0.31877150195E+02  0.51100000000E-03 0.  1.
         12    1    4    4    0    0 -0.29696334948E+01  0.74462090196E+01 -0.33268461043E+01  0.86794387410E+01  0.00000000000E+00 0. -1.
</event>
<event>
 8    1  0.1229038E-006  0.9118800E+02  0.7816164E-02  0.1184000E+00
        -11   -1    0    0    0    0  0.00000000000E+00  0.00000000000E+00  0.45593999997E+02  0.45594000000E+02  0.51100000000E-03 0.  1.
         11   -1    0    0    0    0 -0.00000000000E+00 -0.00000000000E+00 -0.45593999997E+02  0.45594000000E+02  0.51100000000E-03 0. -1.
         23    2    1    2    0    0 -0.88817841970E-15  0.17763568394E-14 -0.71054273576E-14  0.91188000000E+02  0.91188000000E+02 0.  0.
    9900012    2    3    3    0    0  0.41595848788E+01  0.96123759812E+01 -0.35299879195E+02  0.54367063163E+02  0.39999952092E+02 0.  0.
        -12    1    3    3    0    0 -0.41595848788E+01 -0.96123759812E+01  0.35299879195E+02  0.36820936837E+02  0.00000000000E+00 0.  1.
         11    1    4    4    0    0  0.35176605726E+01  0.34662104424E+01 -0.17625722732E+02  0.18304498158E+02  0.51100000000E-03 0. -1.
        -11    1    4    4    0    0  0.11552935003E+02  0.85394302876E+01  0.89314920112E+00  0.14394092280E+02  0.51100000000E-03 0.  1.
        -12    1    4    4    0    0 -0.10911010697E+02 -0.23932647488E+01 -0.18567305665E+02  0.21668472725E+02  0.00000000000E+00 0.  1.
</event>
<event>
 8    1  0.1229038E-006  0.9118800E+02  0.7816164E-02  0.1184000E+00
        -11   -1    0    0    0    0  0.00000000000E+00  0.00000000000E+00  0.45593999997E+02  0.45594000000E+02  0.51100000000E-03 0. -1.
         11   -1    0    0    0    0 -0.00000000000E+00 -0.00000000000E+00 -0.45593999997E+02  0.45594000000E+02  0.51100000000E-03 0.  1.
         23    2    1    2    0    0  0.00000000000E+00  0.35527136788E-14  0.00000000000E+00  0.91188000000E+02  0.91188000000E+02 0.  0.
    9900012    2    3    3    0    0  0.16766603149E+02  0.21882809029E+02  0.24409089977E+02  0.54367082226E+02  0.39999995551E+02 0.  0.
        -12    1    3    3    0    0 -0.16766603149E+02 -0.21882809029E+02 -0.24409089977E+02  0.36820917774E+02  0.00000000000E+00 0.  1.
         11    1    4    4    0    0 -0.98936630036E+00  0.13624247052E+02 -0.23152836908E+01  0.13854944686E+02  0.51100000000E-03 0. -1.
        -11    1    4    4    0    0  0.67463604955E+01  0.14531423295E+02  0.21484173522E+02  0.26800099908E+02  0.51100000000E-03 0.  1.
        -12    1    4    4    0    0  0.11009608954E+02 -0.62728613185E+01  0.52402001464E+01  0.13712037632E+02  0.00000000000E+00 0.  1.
</event>
<event>
 8    1  0.1229038E-006  0.9118800E+02  0.7816164E-02  0.1184000E+00
        -11   -1    0    0    0    0  0.00000000000E+00  0.00000000000E+00  0.45593999997E+02  0.45594000000E+02  0.51100000000E-03 0. -1.
         11   -1    0    0    0    0 -0.00000000000E+00 -0.00000000000E+00 -0.45593999997E+02  0.45594000000E+02  0.51100000000E-03 0.  1.
         23    2    1    2    0    0  0.00000000000E+00  0.00000000000E+00  0.00000000000E+00  0.91188000000E+02  0.91188000000E+02 0.  0.
    9900012    2    3    3    0    0 -0.87152821468E+01 -0.17726057269E+02  0.31074311836E+02  0.54367053444E+02  0.39999929935E+02 0.  0.
        -12    1    3    3    0    0  0.87152821468E+01  0.17726057269E+02 -0.31074311836E+02  0.36820946556E+02  0.00000000000E+00 0.  1.
         11    1    4    4    0    0 -0.18466688205E+02 -0.39152979312E+01  0.22818476394E+01  0.19014598603E+02  0.51100000000E-03 0. -1.
        -11    1    4    4    0    0  0.35445469243E+01 -0.24698561432E+01  0.18000883928E+02  0.18512045395E+02  0.51100000000E-03 0.  1.
        -12    1    4    4    0    0  0.62068591336E+01 -0.11340903195E+02  0.10791580269E+02  0.16840409445E+02  0.00000000000E+00 0.  1.
</event>
<event>
 8    1  0.1229038E-006  0.9118800E+02  0.7816164E-02  0.1184000E+00
        -11   -1    0    0    0    0  0.00000000000E+00  0.00000000000E+00  0.45593999997E+02  0.45594000000E+02  0.51100000000E-03 0. -1.
         11   -1    0    0    0    0 -0.00000000000E+00 -0.00000000000E+00 -0.45593999997E+02  0.45594000000E+02  0.51100000000E-03 0.  1.
         23    2    1    2    0    0 -0.44408920985E-15  0.17763568394E-14  0.00000000000E+00  0.91188000000E+02  0.91188000000E+02 0.  0.
    9900012    2    3    3    0    0 -0.35141683973E+01 -0.40269187348E+01  0.36430961296E+02  0.54367076669E+02  0.39999982882E+02 0.  0.
        -12    1    3    3    0    0  0.35141683973E+01  0.40269187348E+01 -0.36430961296E+02  0.36820923331E+02  0.00000000000E+00 0.  1.
         11    1    4    4    0    0  0.28504496049E+01 -0.23629046991E+00  0.82784420957E+01  0.87586243172E+01  0.51100000000E-03 0. -1.
        -11    1    4    4    0    0 -0.14136457875E+01 -0.19286606531E+02  0.18087465105E+02  0.26478821350E+02  0.51100000000E-03 0.  1.
        -12    1    4    4    0    0 -0.49509722147E+01  0.15495978267E+02  0.10065054096E+02  0.19129631002E+02  0.00000000000E+00 0.  1.
</event>
<event>
 8    1  0.1229038E-006  0.9118800E+02  0.7816164E-02  0.1184000E+00
        -11   -1    0    0    0    0  0.00000000000E+00  0.00000000000E+00  0.45593999997E+02  0.45594000000E+02  0.51100000000E-03 0.  1.
         11   -1    0    0    0    0 -0.00000000000E+00 -0.00000000000E+00 -0.45593999997E+02  0.45594000000E+02  0.51100000000E-03 0. -1.
         23    2    1    2    0    0  0.35527136788E-14 -0.99920072216E-15  0.35527136788E-14  0.91188000000E+02  0.91188000000E+02 0.  0.
    9900012    2    3    3    0    0 -0.29587424015E+02 -0.16982184323E+00  0.21916571103E+02  0.54367074045E+02  0.39999976900E+02 0.  0.
         12    1    3    3    0    0  0.29587424015E+02  0.16982184323E+00 -0.21916571103E+02  0.36820925955E+02  0.00000000000E+00 0. -1.
         11    1    4    4    0    0 -0.12615875694E+02 -0.83611551229E+00 -0.73193753378E+01  0.14609334833E+02  0.51100000000E-03 0. -1.
        -11    1    4    4    0    0 -0.47309327372E+01 -0.88718120759E+01  0.17934542145E+02  0.20560607391E+02  0.51100000000E-03 0.  1.
         12    1    4    4    0    0 -0.12240615584E+02  0.95381057449E+01  0.11301404296E+02  0.19197131820E+02  0.00000000000E+00 0. -1.
</event>
<event>
 8    1  0.1229038E-006  0.9118800E+02  0.7816164E-02  0.1184000E+00
        -11   -1    0    0    0    0  0.00000000000E+00  0.00000000000E+00  0.45593999997E+02  0.45594000000E+02  0.51100000000E-03 0.  1.
         11   -1    0    0    0    0 -0.00000000000E+00 -0.00000000000E+00 -0.45593999997E+02  0.45594000000E+02  0.51100000000E-03 0. -1.
         23    2    1    2    0    0 -0.55511151231E-16  0.22204460493E-15  0.00000000000E+00  0.91188000000E+02  0.91188000000E+02 0.  0.
    9900012    2    3    3    0    0 -0.44580533026E+00 -0.17488997939E+01 -0.36776654993E+02  0.54367085490E+02  0.40000002991E+02 0.  0.
        -12    1    3    3    0    0  0.44580533026E+00  0.17488997939E+01  0.36776654993E+02  0.36820914510E+02  0.00000000000E+00 0.  1.
         11    1    4    4    0    0 -0.47884965118E+01 -0.40545795442E-02 -0.30061484714E+02  0.30440475994E+02  0.51100000000E-03 0. -1.
        -11    1    4    4    0    0  0.10303498311E+02  0.51140778590E+01  0.15945994614E+01  0.11612864310E+02  0.51100000000E-03 0.  1.
        -12    1    4    4    0    0 -0.59608071291E+01 -0.68589230734E+01 -0.83097697408E+01  0.12313745186E+02  0.00000000000E+00 0.  1.
</event>
<event>
 8    1  0.1229038E-006  0.9118800E+02  0.7816164E-02  0.1184000E+00
        -11   -1    0    0    0    0  0.00000000000E+00  0.00000000000E+00  0.45593999997E+02  0.45594000000E+02  0.51100000000E-03 0.  1.
         11   -1    0    0    0    0 -0.00000000000E+00 -0.00000000000E+00 -0.45593999997E+02  0.45594000000E+02  0.51100000000E-03 0. -1.
         23    2    1    2    0    0  0.71054273576E-14 -0.11102230246E-15  0.00000000000E+00  0.91188000000E+02  0.91188000000E+02 0.  0.
    9900012    2    3    3    0    0 -0.30319106647E+02 -0.98934256298E+00  0.20869706827E+02  0.54367194881E+02  0.40000252370E+02 0.  0.
         12    1    3    3    0    0  0.30319106647E+02  0.98934256298E+00 -0.20869706827E+02  0.36820805119E+02  0.00000000000E+00 0. -1.
         11    1    4    4    0    0 -0.17669980601E+02  0.49598509576E+01  0.21206201846E+02  0.28045165946E+02  0.51100000000E-03 0. -1.
        -11    1    4    4    0    0 -0.58702815386E+01  0.85129790455E+01  0.16545133241E+00  0.10342069037E+02  0.51100000000E-03 0.  1.
        -12    1    4    4    0    0 -0.67788445072E+01 -0.14462172566E+02 -0.50194635170E+00  0.15979959897E+02  0.00000000000E+00 0.  1.
</event>
<event>
 8    1  0.1229038E-006  0.9118800E+02  0.7816164E-02  0.1184000E+00
        -11   -1    0    0    0    0  0.00000000000E+00  0.00000000000E+00  0.45593999997E+02  0.45594000000E+02  0.51100000000E-03 0.  1.
         11   -1    0    0    0    0 -0.00000000000E+00 -0.00000000000E+00 -0.45593999997E+02  0.45594000000E+02  0.51100000000E-03 0. -1.
         23    2    1    2    0    0 -0.44408920985E-15 -0.35527136788E-14  0.00000000000E+00  0.91188000000E+02  0.91188000000E+02 0.  0.
    9900012    2    3    3    0    0 -0.21535169013E+01 -0.29992358615E+02 -0.21250890734E+02  0.54367087908E+02  0.40000008504E+02 0.  0.
        -12    1    3    3    0    0  0.21535169013E+01  0.29992358615E+02  0.21250890734E+02  0.36820912092E+02  0.00000000000E+00 0.  1.
         11    1    4    4    0    0 -0.11095141310E+01 -0.59059718312E+01  0.37594154951E+01  0.70883517128E+01  0.51100000000E-03 0. -1.
        -11    1    4    4    0    0  0.49198009209E+01  0.18834661927E+01  0.49184605691E+01  0.72071589847E+01  0.51100000000E-03 0.  1.
         12    1    4    4    0    0 -0.59638036911E+01 -0.25969852976E+02 -0.29928766798E+02  0.40071577210E+02  0.00000000000E+00 0. -1.
</event>
<event>
 8    1  0.1229038E-006  0.9118800E+02  0.7816164E-02  0.1184000E+00
        -11   -1    0    0    0    0  0.00000000000E+00  0.00000000000E+00  0.45593999997E+02  0.45594000000E+02  0.51100000000E-03 0.  1.
         11   -1    0    0    0    0 -0.00000000000E+00 -0.00000000000E+00 -0.45593999997E+02  0.45594000000E+02  0.51100000000E-03 0. -1.
         23    2    1    2    0    0  0.00000000000E+00  0.35527136788E-14  0.00000000000E+00  0.91188000000E+02  0.91188000000E+02 0.  0.
    9900012    2    3    3    0    0  0.19514023040E+02  0.17370437646E+02  0.25947079079E+02  0.54367080511E+02  0.39999991641E+02 0.  0.
         12    1    3    3    0    0 -0.19514023040E+02 -0.17370437646E+02 -0.25947079079E+02  0.36820919489E+02  0.00000000000E+00 0. -1.
         11    1    4    4    0    0  0.15788922407E+02  0.29209155810E+01  0.11086032909E+02  0.19512097390E+02  0.51100000000E-03 0. -1.
        -11    1    4    4    0    0 -0.72991449464E+01 -0.45429367794E+01  0.82644409978E+01  0.11925467571E+02  0.51100000000E-03 0.  1.
         12    1    4    4    0    0  0.11024245579E+02  0.18992458845E+02  0.65966051724E+01  0.22929515550E+02  0.00000000000E+00 0. -1.
</event>
<event>
 8    1  0.1229038E-006  0.9118800E+02  0.7816164E-02  0.1184000E+00
        -11   -1    0    0    0    0  0.00000000000E+00  0.00000000000E+00  0.45593999997E+02  0.45594000000E+02  0.51100000000E-03 0.  1.
         11   -1    0    0    0    0 -0.00000000000E+00 -0.00000000000E+00 -0.45593999997E+02  0.45594000000E+02  0.51100000000E-03 0. -1.
         23    2    1    2    0    0 -0.22204460493E-15  0.00000000000E+00  0.35527136788E-14  0.91188000000E+02  0.91188000000E+02 0.  0.
    9900012    2    3    3    0    0 -0.16807298051E+01  0.30612276686E+02 -0.20392271616E+02  0.54367067390E+02  0.39999961730E+02 0.  0.
        -12    1    3    3    0    0  0.16807298051E+01 -0.30612276686E+02  0.20392271616E+02  0.36820932610E+02  0.00000000000E+00 0.  1.
         11    1    4    4    0    0 -0.33663142720E+01  0.28347340678E+01 -0.25180876772E+02  0.25562557468E+02  0.51100000000E-03 0. -1.
        -11    1    4    4    0    0  0.25307377584E+01  0.17889033931E+02  0.72927989997E+00  0.18081869870E+02  0.51100000000E-03 0.  1.
         12    1    4    4    0    0 -0.84515329145E+00  0.98885086876E+01  0.40593252565E+01  0.10722640052E+02  0.00000000000E+00 0. -1.
</event>
<event>
 8    1  0.1229038E-006  0.9118800E+02  0.7816164E-02  0.1184000E+00
        -11   -1    0    0    0    0  0.00000000000E+00  0.00000000000E+00  0.45593999997E+02  0.45594000000E+02  0.51100000000E-03 0. -1.
         11   -1    0    0    0    0 -0.00000000000E+00 -0.00000000000E+00 -0.45593999997E+02  0.45594000000E+02  0.51100000000E-03 0.  1.
         23    2    1    2    0    0  0.17763568394E-14 -0.88817841970E-15 -0.71054273576E-14  0.91188000000E+02  0.91188000000E+02 0.  0.
    9900012    2    3    3    0    0 -0.95693408248E+01 -0.56763630578E+01  0.35099666524E+02  0.54367082419E+02  0.39999995992E+02 0.  0.
        -12    1    3    3    0    0  0.95693408248E+01  0.56763630578E+01 -0.35099666524E+02  0.36820917581E+02  0.00000000000E+00 0.  1.
         11    1    4    4    0    0  0.54951102846E+01 -0.89510104826E+01  0.13769188573E+02  0.17317834158E+02  0.51100000000E-03 0. -1.
        -11    1    4    4    0    0 -0.94205765453E+01  0.98586316686E+01  0.24315458698E+02  0.27877973613E+02  0.51100000000E-03 0.  1.
        -12    1    4    4    0    0 -0.56438745642E+01 -0.65839842439E+01 -0.29849807469E+01  0.91712746486E+01  0.00000000000E+00 0.  1.
</event>
<event>
 8    1  0.1229038E-006  0.9118800E+02  0.7816164E-02  0.1184000E+00
        -11   -1    0    0    0    0  0.00000000000E+00  0.00000000000E+00  0.45593999997E+02  0.45594000000E+02  0.51100000000E-03 0.  1.
         11   -1    0    0    0    0 -0.00000000000E+00 -0.00000000000E+00 -0.45593999997E+02  0.45594000000E+02  0.51100000000E-03 0. -1.
         23    2    1    2    0    0 -0.35527136788E-14  0.00000000000E+00  0.00000000000E+00  0.91188000000E+02  0.91188000000E+02 0.  0.
    9900012    2    3    3    0    0  0.24494838071E+02  0.20065100033E+02 -0.18792910210E+02  0.54367098251E+02  0.40000032083E+02 0.  0.
        -12    1    3    3    0    0 -0.24494838071E+02 -0.20065100033E+02  0.18792910210E+02  0.36820901749E+02  0.00000000000E+00 0.  1.
         11    1    4    4    0    0  0.73969619569E+01  0.26279090395E+01 -0.17274260435E+02  0.18974220035E+02  0.51100000000E-03 0. -1.
        -11    1    4    4    0    0  0.56214272480E+01 -0.47141327037E+01 -0.66740946342E+01  0.99180154719E+01  0.51100000000E-03 0.  1.
         12    1    4    4    0    0  0.11476448866E+02  0.22151323697E+02  0.51554448598E+01  0.25474862744E+02  0.00000000000E+00 0. -1.
</event>
<event>
 8    1  0.1229038E-006  0.9118800E+02  0.7816164E-02  0.1184000E+00
        -11   -1    0    0    0    0  0.00000000000E+00  0.00000000000E+00  0.45593999997E+02  0.45594000000E+02  0.51100000000E-03 0. -1.
         11   -1    0    0    0    0 -0.00000000000E+00 -0.00000000000E+00 -0.45593999997E+02  0.45594000000E+02  0.51100000000E-03 0.  1.
         23    2    1    2    0    0  0.00000000000E+00  0.00000000000E+00  0.00000000000E+00  0.91188000000E+02  0.91188000000E+02 0.  0.
    9900012    2    3    3    0    0 -0.24153744512E+02 -0.27273785752E+02 -0.53397776809E+01  0.54367136500E+02  0.40000119279E+02 0.  0.
        -12    1    3    3    0    0  0.24153744512E+02  0.27273785752E+02  0.53397776809E+01  0.36820863500E+02  0.00000000000E+00 0.  1.
         11    1    4    4    0    0  0.19722064960E+01  0.43101589124E+00  0.15094240647E+01  0.25206615063E+01  0.51100000000E-03 0. -1.
        -11    1    4    4    0    0 -0.84597739640E+01 -0.32092186403E+02 -0.45573257037E+01  0.33499931664E+02  0.51100000000E-03 0.  1.
        -12    1    4    4    0    0 -0.17666177044E+02  0.43873847595E+01 -0.22918760418E+01  0.18346543330E+02  0.00000000000E+00 0.  1.
</event>
<event>
 8    1  0.1229038E-006  0.9118800E+02  0.7816164E-02  0.1184000E+00
        -11   -1    0    0    0    0  0.00000000000E+00  0.00000000000E+00  0.45593999997E+02  0.45594000000E+02  0.51100000000E-03 0. -1.
         11   -1    0    0    0    0 -0.00000000000E+00 -0.00000000000E+00 -0.45593999997E+02  0.45594000000E+02  0.51100000000E-03 0.  1.
         23    2    1    2    0    0 -0.17763568394E-14  0.00000000000E+00  0.35527136788E-14  0.91188000000E+02  0.91188000000E+02 0.  0.
    9900012    2    3    3    0    0  0.34886211612E+01 -0.23152851945E+02 -0.28417490840E+02  0.54367098104E+02  0.40000031749E+02 0.  0.
         12    1    3    3    0    0 -0.34886211612E+01  0.23152851945E+02  0.28417490840E+02  0.36820901896E+02  0.00000000000E+00 0. -1.
         11    1    4    4    0    0 -0.14352239855E+02 -0.62816057455E+01 -0.53772900082E+01  0.16563834330E+02  0.51100000000E-03 0.  1.
        -11    1    4    4    0    0 -0.10779714387E+01  0.76983780536E+00  0.16008010060E+01  0.20777961380E+01  0.51100000000E-03 0. -1.
        -12    1    4    4    0    0  0.18918832455E+02 -0.17641084004E+02 -0.24641001837E+02  0.35725467637E+02  0.00000000000E+00 0.  1.
</event>
<event>
 8    1  0.1229038E-006  0.9118800E+02  0.7816164E-02  0.1184000E+00
        -11   -1    0    0    0    0  0.00000000000E+00  0.00000000000E+00  0.45593999997E+02  0.45594000000E+02  0.51100000000E-03 0. -1.
         11   -1    0    0    0    0 -0.00000000000E+00 -0.00000000000E+00 -0.45593999997E+02  0.45594000000E+02  0.51100000000E-03 0.  1.
         23    2    1    2    0    0 -0.71054273576E-14 -0.88817841970E-15  0.00000000000E+00  0.91188000000E+02  0.91188000000E+02 0.  0.
    9900012    2    3    3    0    0  0.35857580751E+02 -0.50746726787E+01  0.66529036682E+01  0.54367088451E+02  0.40000009741E+02 0.  0.
        -12    1    3    3    0    0 -0.35857580751E+02  0.50746726787E+01 -0.66529036682E+01  0.36820911549E+02  0.00000000000E+00 0.  1.
         11    1    4    4    0    0 -0.69892932144E+00 -0.25930520950E+01 -0.80931126088E+01  0.85270682725E+01  0.51100000000E-03 0.  1.
        -11    1    4    4    0    0  0.21230769378E+02  0.59921526421E+01 -0.12857811523E+01  0.22097617408E+02  0.51100000000E-03 0. -1.
         12    1    4    4    0    0  0.15325740694E+02 -0.84737732258E+01  0.16031797429E+02  0.23742402771E+02  0.00000000000E+00 0. -1.
</event>
<event>
 8    1  0.1229038E-006  0.9118800E+02  0.7816164E-02  0.1184000E+00
        -11   -1    0    0    0    0  0.00000000000E+00  0.00000000000E+00  0.45593999997E+02  0.45594000000E+02  0.51100000000E-03 0.  1.
         11   -1    0    0    0    0 -0.00000000000E+00 -0.00000000000E+00 -0.45593999997E+02  0.45594000000E+02  0.51100000000E-03 0. -1.
         23    2    1    2    0    0 -0.17763568394E-14  0.35527136788E-14  0.00000000000E+00  0.91188000000E+02  0.91188000000E+02 0.  0.
    9900012    2    3    3    0    0 -0.13482709654E+02  0.24379455205E+02 -0.24075707184E+02  0.54367068831E+02  0.39999965014E+02 0.  0.
         12    1    3    3    0    0  0.13482709654E+02 -0.24379455205E+02  0.24075707184E+02  0.36820931169E+02  0.00000000000E+00 0. -1.
         11    1    4    4    0    0 -0.30168474181E+01  0.91322244533E+01 -0.80166613985E+01  0.12520613086E+02  0.51100000000E-03 0. -1.
        -11    1    4    4    0    0  0.44071181413E+01  0.14356367706E+02 -0.21291406249E+02  0.26054787743E+02  0.51100000000E-03 0.  1.
        -12    1    4    4    0    0 -0.14872980377E+02  0.89086304551E+00  0.52323604631E+01  0.15791668002E+02  0.00000000000E+00 0.  1.
</event>
<event>
 8    1  0.1229038E-006  0.9118800E+02  0.7816164E-02  0.1184000E+00
        -11   -1    0    0    0    0  0.00000000000E+00  0.00000000000E+00  0.45593999997E+02  0.45594000000E+02  0.51100000000E-03 0.  1.
         11   -1    0    0    0    0 -0.00000000000E+00 -0.00000000000E+00 -0.45593999997E+02  0.45594000000E+02  0.51100000000E-03 0. -1.
         23    2    1    2    0    0  0.00000000000E+00  0.26645352591E-14 -0.71054273576E-14  0.91188000000E+02  0.91188000000E+02 0.  0.
    9900012    2    3    3    0    0  0.26521465812E+02 -0.75434058388E+01  0.24402577310E+02  0.54367124130E+02  0.40000091079E+02 0.  0.
         12    1    3    3    0    0 -0.26521465812E+02  0.75434058388E+01 -0.24402577310E+02  0.36820875870E+02  0.00000000000E+00 0. -1.
         11    1    4    4    0    0  0.22248686206E+02  0.20732235362E+01 -0.52117920704E+00  0.22351150345E+02  0.51100000000E-03 0. -1.
        -11    1    4    4    0    0 -0.96165087216E+00 -0.91653635777E+01  0.33404381409E+01  0.98024073138E+01  0.51100000000E-03 0.  1.
         12    1    4    4    0    0  0.52344304789E+01 -0.45126579729E+00  0.21583318376E+02  0.22213566471E+02  0.00000000000E+00 0. -1.
</event>
<event>
 8    1  0.1229038E-006  0.9118800E+02  0.7816164E-02  0.1184000E+00
        -11   -1    0    0    0    0  0.00000000000E+00  0.00000000000E+00  0.45593999997E+02  0.45594000000E+02  0.51100000000E-03 0. -1.
         11   -1    0    0    0    0 -0.00000000000E+00 -0.00000000000E+00 -0.45593999997E+02  0.45594000000E+02  0.51100000000E-03 0.  1.
         23    2    1    2    0    0  0.00000000000E+00  0.71054273576E-14  0.49960036108E-15  0.91188000000E+02  0.91188000000E+02 0.  0.
    9900012    2    3    3    0    0 -0.88832667482E+01  0.35732139595E+02  0.28571889613E+00  0.54367083886E+02  0.39999999335E+02 0.  0.
         12    1    3    3    0    0  0.88832667482E+01 -0.35732139595E+02 -0.28571889613E+00  0.36820916114E+02  0.00000000000E+00 0. -1.
         11    1    4    4    0    0  0.92189612725E+01  0.18133060044E+02  0.57906178606E+01  0.21150138746E+02  0.51100000000E-03 0. -1.
        -11    1    4    4    0    0 -0.82585720116E+01 -0.25852998225E+01 -0.63669322331E+01  0.10743631284E+02  0.51100000000E-03 0.  1.
        -12    1    4    4    0    0 -0.98436560090E+01  0.20184379374E+02  0.86203326863E+00  0.22473313856E+02  0.00000000000E+00 0.  1.
</event>
<event>
 8    1  0.1229038E-006  0.9118800E+02  0.7816164E-02  0.1184000E+00
        -11   -1    0    0    0    0  0.00000000000E+00  0.00000000000E+00  0.45593999997E+02  0.45594000000E+02  0.51100000000E-03 0. -1.
         11   -1    0    0    0    0 -0.00000000000E+00 -0.00000000000E+00 -0.45593999997E+02  0.45594000000E+02  0.51100000000E-03 0.  1.
         23    2    1    2    0    0 -0.17763568394E-14  0.00000000000E+00  0.00000000000E+00  0.91188000000E+02  0.91188000000E+02 0.  0.
    9900012    2    3    3    0    0  0.14805923700E+02  0.28090363078E+02  0.18641257853E+02  0.54367077024E+02  0.39999983691E+02 0.  0.
        -12    1    3    3    0    0 -0.14805923700E+02 -0.28090363078E+02 -0.18641257853E+02  0.36820922976E+02  0.00000000000E+00 0.  1.
         11    1    4    4    0    0 -0.48707085407E+01  0.71492760788E+01  0.45616898977E+01  0.97798243913E+01  0.51100000000E-03 0. -1.
        -11    1    4    4    0    0  0.21677874569E+01 -0.14995990291E+01  0.15851456310E+02  0.16069124653E+02  0.51100000000E-03 0.  1.
        -12    1    4    4    0    0  0.17508844784E+02  0.22440686029E+02 -0.17718883551E+01  0.28518127979E+02  0.00000000000E+00 0.  1.
</event>
<event>
 8    1  0.1229038E-006  0.9118800E+02  0.7816164E-02  0.1184000E+00
        -11   -1    0    0    0    0  0.00000000000E+00  0.00000000000E+00  0.45593999997E+02  0.45594000000E+02  0.51100000000E-03 0.  1.
         11   -1    0    0    0    0 -0.00000000000E+00 -0.00000000000E+00 -0.45593999997E+02  0.45594000000E+02  0.51100000000E-03 0. -1.
         23    2    1    2    0    0 -0.35527136788E-14  0.35527136788E-14  0.35527136788E-14  0.91188000000E+02  0.91188000000E+02 0.  0.
    9900012    2    3    3    0    0 -0.26631276190E+02 -0.18045700825E+02 -0.17913894348E+02  0.54367084741E+02  0.40000001284E+02 0.  0.
        -12    1    3    3    0    0  0.26631276190E+02  0.18045700825E+02  0.17913894348E+02  0.36820915259E+02  0.00000000000E+00 0.  1.
         11    1    4    4    0    0 -0.47723649312E+01 -0.14771333596E+01  0.17499145256E+01  0.52933534840E+01  0.51100000000E-03 0. -1.
        -11    1    4    4    0    0 -0.62450975795E+01  0.96691728917E+01  0.19379099096E+01  0.11672602249E+02  0.51100000000E-03 0.  1.
         12    1    4    4    0    0 -0.15613813680E+02 -0.26237740357E+02 -0.21601718784E+02  0.37401129008E+02  0.00000000000E+00 0. -1.
</event>
<event>
 8    1  0.1229038E-006  0.9118800E+02  0.7816164E-02  0.1184000E+00
        -11   -1    0    0    0    0  0.00000000000E+00  0.00000000000E+00  0.45593999997E+02  0.45594000000E+02  0.51100000000E-03 0.  1.
         11   -1    0    0    0    0 -0.00000000000E+00 -0.00000000000E+00 -0.45593999997E+02  0.45594000000E+02  0.51100000000E-03 0. -1.
         23    2    1    2    0    0 -0.17763568394E-14  0.35527136788E-14  0.00000000000E+00  0.91188000000E+02  0.91188000000E+02 0.  0.
    9900012    2    3    3    0    0 -0.13467771907E+02  0.25363234181E+02 -0.23045736740E+02  0.54367075104E+02  0.39999979315E+02 0.  0.
        -12    1    3    3    0    0  0.13467771907E+02 -0.25363234181E+02  0.23045736740E+02  0.36820924896E+02  0.00000000000E+00 0.  1.
         11    1    4    4    0    0  0.21628266230E+01  0.38312890583E+01 -0.17255475149E+02  0.17807526996E+02  0.51100000000E-03 0. -1.
        -11    1    4    4    0    0 -0.94604201481E+01 -0.30977786876E+01 -0.50395109239E+01  0.11157618598E+02  0.51100000000E-03 0.  1.
         12    1    4    4    0    0 -0.61701783822E+01  0.24629723811E+02 -0.75075066758E+00  0.25401929510E+02  0.00000000000E+00 0. -1.
</event>
<event>
 8    1  0.1229038E-006  0.9118800E+02  0.7816164E-02  0.1184000E+00
        -11   -1    0    0    0    0  0.00000000000E+00  0.00000000000E+00  0.45593999997E+02  0.45594000000E+02  0.51100000000E-03 0. -1.
         11   -1    0    0    0    0 -0.00000000000E+00 -0.00000000000E+00 -0.45593999997E+02  0.45594000000E+02  0.51100000000E-03 0.  1.
         23    2    1    2    0    0 -0.35527136788E-14  0.53290705182E-14  0.35527136788E-14  0.91188000000E+02  0.91188000000E+02 0.  0.
    9900012    2    3    3    0    0  0.22363353335E+02 -0.11952341151E+02 -0.26698325208E+02  0.54367101039E+02  0.40000038439E+02 0.  0.
         12    1    3    3    0    0 -0.22363353335E+02  0.11952341151E+02  0.26698325208E+02  0.36820898961E+02  0.00000000000E+00 0. -1.
         11    1    4    4    0    0  0.21019160408E+02  0.56845158487E+01 -0.18938971333E+02  0.28858334326E+02  0.51100000000E-03 0. -1.
        -11    1    4    4    0    0  0.74341833871E+01 -0.16073190756E+02 -0.74535748188E+01  0.19213805494E+02  0.51100000000E-03 0.  1.
         12    1    4    4    0    0 -0.60899904595E+01 -0.15636662439E+01 -0.30577905596E+00  0.62949612191E+01  0.00000000000E+00 0. -1.
</event>
<event>
 8    1  0.1229038E-006  0.9118800E+02  0.7816164E-02  0.1184000E+00
        -11   -1    0    0    0    0  0.00000000000E+00  0.00000000000E+00  0.45593999997E+02  0.45594000000E+02  0.51100000000E-03 0. -1.
         11   -1    0    0    0    0 -0.00000000000E+00 -0.00000000000E+00 -0.45593999997E+02  0.45594000000E+02  0.51100000000E-03 0.  1.
         23    2    1    2    0    0 -0.35527136788E-14  0.00000000000E+00  0.00000000000E+00  0.91188000000E+02  0.91188000000E+02 0.  0.
    9900012    2    3    3    0    0 -0.27327843808E+02  0.17494386949E+02 -0.17404483930E+02  0.54367072760E+02  0.39999973971E+02 0.  0.
         12    1    3    3    0    0  0.27327843808E+02 -0.17494386949E+02  0.17404483930E+02  0.36820927240E+02  0.00000000000E+00 0. -1.
         11    1    4    4    0    0 -0.95631488692E+00  0.99355485549E+01 -0.68008782367E+01  0.12078145897E+02  0.51100000000E-03 0. -1.
        -11    1    4    4    0    0 -0.39946053817E+01  0.52940344979E+01 -0.17540347397E+02  0.18752265476E+02  0.51100000000E-03 0.  1.
        -12    1    4    4    0    0 -0.22376923540E+02  0.22648038964E+01  0.69367417036E+01  0.23536661387E+02  0.00000000000E+00 0.  1.
</event>
<event>
 8    1  0.1229038E-006  0.9118800E+02  0.7816164E-02  0.1184000E+00
        -11   -1    0    0    0    0  0.00000000000E+00  0.00000000000E+00  0.45593999997E+02  0.45594000000E+02  0.51100000000E-03 0.  1.
         11   -1    0    0    0    0 -0.00000000000E+00 -0.00000000000E+00 -0.45593999997E+02  0.45594000000E+02  0.51100000000E-03 0. -1.
         23    2    1    2    0    0  0.17763568394E-14  0.00000000000E+00 -0.44408920985E-15  0.91188000000E+02  0.91188000000E+02 0.  0.
    9900012    2    3    3    0    0 -0.11485786479E+02 -0.34815354047E+02 -0.34275141003E+01  0.54367081742E+02  0.39999994448E+02 0.  0.
         12    1    3    3    0    0  0.11485786479E+02  0.34815354047E+02  0.34275141003E+01  0.36820918258E+02  0.00000000000E+00 0. -1.
         11    1    4    4    0    0 -0.16150749784E+02 -0.73668265543E+01 -0.96631229347E+01  0.20211204744E+02  0.51100000000E-03 0. -1.
        -11    1    4    4    0    0  0.87123068772E+00 -0.21620909297E+02  0.12334042307E+02  0.24906853708E+02  0.51100000000E-03 0.  1.
         12    1    4    4    0    0  0.37937326177E+01 -0.58276181953E+01 -0.60984334729E+01  0.92490232905E+01  0.00000000000E+00 0. -1.
</event>
<event>
 8    1  0.1229038E-006  0.9118800E+02  0.7816164E-02  0.1184000E+00
        -11   -1    0    0    0    0  0.00000000000E+00  0.00000000000E+00  0.45593999997E+02  0.45594000000E+02  0.51100000000E-03 0.  1.
         11   -1    0    0    0    0 -0.00000000000E+00 -0.00000000000E+00 -0.45593999997E+02  0.45594000000E+02  0.51100000000E-03 0. -1.
         23    2    1    2    0    0 -0.35527136788E-14  0.00000000000E+00  0.00000000000E+00  0.91188000000E+02  0.91188000000E+02 0.  0.
    9900012    2    3    3    0    0 -0.98268706840E+01 -0.10476267425E+02  0.33903735170E+02  0.54367043670E+02  0.39999907654E+02 0.  0.
         12    1    3    3    0    0  0.98268706840E+01  0.10476267425E+02 -0.33903735170E+02  0.36820956330E+02  0.00000000000E+00 0. -1.
         11    1    4    4    0    0 -0.19871033425E+02 -0.74897648541E+01  0.11058920057E+02  0.23942728751E+02  0.51100000000E-03 0. -1.
        -11    1    4    4    0    0  0.72064423634E+01 -0.61212574445E+00 -0.49877260784E-01  0.72325650682E+01  0.51100000000E-03 0.  1.
        -12    1    4    4    0    0  0.28377203778E+01 -0.23743768266E+01  0.22894692374E+02  0.23191749851E+02  0.00000000000E+00 0.  1.
</event>
<event>
 8    1  0.1229038E-006  0.9118800E+02  0.7816164E-02  0.1184000E+00
        -11   -1    0    0    0    0  0.00000000000E+00  0.00000000000E+00  0.45593999997E+02  0.45594000000E+02  0.51100000000E-03 0. -1.
         11   -1    0    0    0    0 -0.00000000000E+00 -0.00000000000E+00 -0.45593999997E+02  0.45594000000E+02  0.51100000000E-03 0.  1.
         23    2    1    2    0    0  0.00000000000E+00 -0.44408920985E-15  0.00000000000E+00  0.91188000000E+02  0.91188000000E+02 0.  0.
    9900012    2    3    3    0    0  0.25689187866E+02 -0.19152264753E+01  0.26309312760E+02  0.54367049394E+02  0.39999920702E+02 0.  0.
        -12    1    3    3    0    0 -0.25689187866E+02  0.19152264753E+01 -0.26309312760E+02  0.36820950606E+02  0.00000000000E+00 0.  1.
         11    1    4    4    0    0  0.68382030372E+01  0.65816202057E+01  0.12704308760E+01  0.95756326257E+01  0.51100000000E-03 0. -1.
        -11    1    4    4    0    0  0.92632651604E+01  0.43234096328E+01 -0.45188768127E+01  0.11176770562E+02  0.51100000000E-03 0.  1.
        -12    1    4    4    0    0  0.95877196688E+01 -0.12820256314E+02  0.29557758696E+02  0.33614646206E+02  0.00000000000E+00 0.  1.
</event>
<event>
 8    1  0.1229038E-006  0.9118800E+02  0.7816164E-02  0.1184000E+00
        -11   -1    0    0    0    0  0.00000000000E+00  0.00000000000E+00  0.45593999997E+02  0.45594000000E+02  0.51100000000E-03 0.  1.
         11   -1    0    0    0    0 -0.00000000000E+00 -0.00000000000E+00 -0.45593999997E+02  0.45594000000E+02  0.51100000000E-03 0. -1.
         23    2    1    2    0    0 -0.35527136788E-14  0.00000000000E+00  0.00000000000E+00  0.91188000000E+02  0.91188000000E+02 0.  0.
    9900012    2    3    3    0    0  0.26492692056E+02 -0.25096941505E+02 -0.49047512823E+01  0.54367139195E+02  0.40000125422E+02 0.  0.
        -12    1    3    3    0    0 -0.26492692056E+02  0.25096941505E+02  0.49047512823E+01  0.36820860805E+02  0.00000000000E+00 0.  1.
         11    1    4    4    0    0  0.19601717128E+02 -0.17382225035E+02 -0.39165248803E+01  0.26489775932E+02  0.51100000000E-03 0. -1.
        -11    1    4    4    0    0  0.71898174141E+01  0.78369032256E+01 -0.50907561763E+01  0.11790942512E+02  0.51100000000E-03 0.  1.
        -12    1    4    4    0    0 -0.29884248611E+00 -0.15551619696E+02  0.41025297742E+01  0.16086420750E+02  0.00000000000E+00 0.  1.
</event>
<event>
 8    1  0.1229038E-006  0.9118800E+02  0.7816164E-02  0.1184000E+00
        -11   -1    0    0    0    0  0.00000000000E+00  0.00000000000E+00  0.45593999997E+02  0.45594000000E+02  0.51100000000E-03 0.  1.
         11   -1    0    0    0    0 -0.00000000000E+00 -0.00000000000E+00 -0.45593999997E+02  0.45594000000E+02  0.51100000000E-03 0. -1.
         23    2    1    2    0    0  0.12490009027E-15 -0.17763568394E-14  0.00000000000E+00  0.91188000000E+02  0.91188000000E+02 0.  0.
    9900012    2    3    3    0    0 -0.94242636834E-01  0.10577157640E+02  0.35268880732E+02  0.54367094342E+02  0.40000023170E+02 0.  0.
         12    1    3    3    0    0  0.94242636834E-01 -0.10577157640E+02 -0.35268880732E+02  0.36820905658E+02  0.00000000000E+00 0. -1.
         11    1    4    4    0    0  0.78451761361E+01  0.11476748575E+01  0.62195310931E+01  0.10077029000E+02  0.51100000000E-03 0. -1.
        -11    1    4    4    0    0  0.21829268600E+01  0.36319171705E+01  0.31982414703E+02  0.32261910088E+02  0.51100000000E-03 0.  1.
         12    1    4    4    0    0 -0.10122345633E+02  0.57975656125E+01 -0.29330650641E+01  0.12028155254E+02  0.00000000000E+00 0. -1.
</event>
<event>
 8    1  0.1229038E-006  0.9118800E+02  0.7816164E-02  0.1184000E+00
        -11   -1    0    0    0    0  0.00000000000E+00  0.00000000000E+00  0.45593999997E+02  0.45594000000E+02  0.51100000000E-03 0.  1.
         11   -1    0    0    0    0 -0.00000000000E+00 -0.00000000000E+00 -0.45593999997E+02  0.45594000000E+02  0.51100000000E-03 0. -1.
         23    2    1    2    0    0  0.00000000000E+00 -0.35527136788E-14  0.00000000000E+00  0.91188000000E+02  0.91188000000E+02 0.  0.
    9900012    2    3    3    0    0 -0.18434186974E+02 -0.31330050025E+02 -0.58642775167E+01  0.54367067981E+02  0.39999963076E+02 0.  0.
         12    1    3    3    0    0  0.18434186974E+02  0.31330050025E+02  0.58642775167E+01  0.36820932019E+02  0.00000000000E+00 0. -1.
         11    1    4    4    0    0 -0.11305116662E+02  0.28701236949E+01 -0.57258236242E+01  0.12993395599E+02  0.51100000000E-03 0. -1.
        -11    1    4    4    0    0 -0.79515832800E+01 -0.20831310489E+02  0.10135648303E+02  0.24492907956E+02  0.51100000000E-03 0.  1.
         12    1    4    4    0    0  0.82251296796E+00 -0.13368863231E+02 -0.10274102196E+02  0.16880764426E+02  0.00000000000E+00 0. -1.
</event>
<event>
 8    1  0.1229038E-006  0.9118800E+02  0.7816164E-02  0.1184000E+00
        -11   -1    0    0    0    0  0.00000000000E+00  0.00000000000E+00  0.45593999997E+02  0.45594000000E+02  0.51100000000E-03 0.  1.
         11   -1    0    0    0    0 -0.00000000000E+00 -0.00000000000E+00 -0.45593999997E+02  0.45594000000E+02  0.51100000000E-03 0. -1.
         23    2    1    2    0    0  0.44408920985E-15  0.00000000000E+00  0.00000000000E+00  0.91188000000E+02  0.91188000000E+02 0.  0.
    9900012    2    3    3    0    0  0.22409189651E+01 -0.21755549058E+02  0.29621847821E+02  0.54367088809E+02  0.40000010558E+02 0.  0.
         12    1    3    3    0    0 -0.22409189651E+01  0.21755549058E+02 -0.29621847821E+02  0.36820911191E+02  0.00000000000E+00 0. -1.
         11    1    4    4    0    0 -0.69517157324E+01  0.95799665010E+01  0.38287449506E+01  0.12440313418E+02  0.51100000000E-03 0. -1.
        -11    1    4    4    0    0  0.17474976790E+01 -0.94439185075E+01  0.49906314903E+01  0.10823481318E+02  0.51100000000E-03 0.  1.
         12    1    4    4    0    0  0.74451370185E+01 -0.21891597051E+02  0.20802471380E+02  0.31103294073E+02  0.00000000000E+00 0. -1.
</event>
<event>
 8    1  0.1229038E-006  0.9118800E+02  0.7816164E-02  0.1184000E+00
        -11   -1    0    0    0    0  0.00000000000E+00  0.00000000000E+00  0.45593999997E+02  0.45594000000E+02  0.51100000000E-03 0.  1.
         11   -1    0    0    0    0 -0.00000000000E+00 -0.00000000000E+00 -0.45593999997E+02  0.45594000000E+02  0.51100000000E-03 0. -1.
         23    2    1    2    0    0  0.00000000000E+00  0.22204460493E-15  0.17763568394E-14  0.91188000000E+02  0.91188000000E+02 0.  0.
    9900012    2    3    3    0    0  0.35937962738E+02 -0.15444910958E+01  0.78652029624E+01  0.54367027224E+02  0.39999870163E+02 0.  0.
         12    1    3    3    0    0 -0.35937962738E+02  0.15444910958E+01 -0.78652029624E+01  0.36820972776E+02  0.00000000000E+00 0. -1.
         11    1    4    4    0    0  0.85323384153E+01 -0.77760026797E+01 -0.86437849576E+01  0.14421582270E+02  0.51100000000E-03 0. -1.
        -11    1    4    4    0    0  0.21987636121E+02  0.82535473152E+01  0.11274744231E+01  0.23512728134E+02  0.51100000000E-03 0.  1.
         12    1    4    4    0    0  0.54179882017E+01 -0.20220357314E+01  0.15381513497E+02  0.16432716821E+02  0.00000000000E+00 0. -1.
</event>
<event>
 8    1  0.1229038E-006  0.9118800E+02  0.7816164E-02  0.1184000E+00
        -11   -1    0    0    0    0  0.00000000000E+00  0.00000000000E+00  0.45593999997E+02  0.45594000000E+02  0.51100000000E-03 0.  1.
         11   -1    0    0    0    0 -0.00000000000E+00 -0.00000000000E+00 -0.45593999997E+02  0.45594000000E+02  0.51100000000E-03 0. -1.
         23    2    1    2    0    0  0.00000000000E+00 -0.35527136788E-14  0.35527136788E-14  0.91188000000E+02  0.91188000000E+02 0.  0.
    9900012    2    3    3    0    0 -0.14106158985E+02  0.29461894709E+02 -0.16993892934E+02  0.54367090747E+02  0.40000014975E+02 0.  0.
         12    1    3    3    0    0  0.14106158985E+02 -0.29461894709E+02  0.16993892934E+02  0.36820909253E+02  0.00000000000E+00 0. -1.
         11    1    4    4    0    0 -0.84888619575E+01  0.43203553182E+01 -0.77473743218E+01  0.12277950014E+02  0.51100000000E-03 0. -1.
        -11    1    4    4    0    0  0.11949850303E+02  0.18423684459E+02 -0.74791286661E+01  0.23198457647E+02  0.51100000000E-03 0.  1.
         12    1    4    4    0    0 -0.17567147331E+02  0.67178549321E+01 -0.17673899463E+01  0.18890683086E+02  0.00000000000E+00 0. -1.
</event>
<event>
 8    1  0.1229038E-006  0.9118800E+02  0.7816164E-02  0.1184000E+00
        -11   -1    0    0    0    0  0.00000000000E+00  0.00000000000E+00  0.45593999997E+02  0.45594000000E+02  0.51100000000E-03 0. -1.
         11   -1    0    0    0    0 -0.00000000000E+00 -0.00000000000E+00 -0.45593999997E+02  0.45594000000E+02  0.51100000000E-03 0.  1.
         23    2    1    2    0    0 -0.35527136788E-14 -0.35527136788E-14 -0.17763568394E-14  0.91188000000E+02  0.91188000000E+02 0.  0.
    9900012    2    3    3    0    0 -0.24149170137E+02 -0.23839007596E+02 -0.14293325332E+02  0.54367084062E+02  0.39999999736E+02 0.  0.
         12    1    3    3    0    0  0.24149170137E+02  0.23839007596E+02  0.14293325332E+02  0.36820915938E+02  0.00000000000E+00 0. -1.
         11    1    4    4    0    0 -0.76445090502E+01 -0.58840971349E+01 -0.13948177421E+02  0.16959150077E+02  0.51100000000E-03 0. -1.
        -11    1    4    4    0    0 -0.21376897616E+02 -0.41423543697E+01  0.39815005661E+01  0.22135564109E+02  0.51100000000E-03 0.  1.
         12    1    4    4    0    0  0.48722365295E+01 -0.13812556091E+02 -0.43266484772E+01  0.15272369876E+02  0.00000000000E+00 0. -1.
</event>
<event>
 8    1  0.1229038E-006  0.9118800E+02  0.7816164E-02  0.1184000E+00
        -11   -1    0    0    0    0  0.00000000000E+00  0.00000000000E+00  0.45593999997E+02  0.45594000000E+02  0.51100000000E-03 0.  1.
         11   -1    0    0    0    0 -0.00000000000E+00 -0.00000000000E+00 -0.45593999997E+02  0.45594000000E+02  0.51100000000E-03 0. -1.
         23    2    1    2    0    0  0.00000000000E+00  0.00000000000E+00  0.17763568394E-14  0.91188000000E+02  0.91188000000E+02 0.  0.
    9900012    2    3    3    0    0 -0.10517822019E+02 -0.32065644460E+02  0.14729208957E+02  0.54367085683E+02  0.40000003430E+02 0.  0.
         12    1    3    3    0    0  0.10517822019E+02  0.32065644460E+02 -0.14729208957E+02  0.36820914317E+02  0.00000000000E+00 0. -1.
         11    1    4    4    0    0 -0.14770081259E+02 -0.20554080787E+02  0.35843906020E+01  0.25563125663E+02  0.51100000000E-03 0. -1.
        -11    1    4    4    0    0 -0.34220601028E+00 -0.89361191022E+01  0.18035484560E+02  0.20130822962E+02  0.51100000000E-03 0.  1.
         12    1    4    4    0    0  0.45944652503E+01 -0.25754445704E+01 -0.68906662045E+01  0.86731370573E+01  0.00000000000E+00 0. -1.
</event>
<event>
 8    1  0.1229038E-006  0.9118800E+02  0.7816164E-02  0.1184000E+00
        -11   -1    0    0    0    0  0.00000000000E+00  0.00000000000E+00  0.45593999997E+02  0.45594000000E+02  0.51100000000E-03 0.  1.
         11   -1    0    0    0    0 -0.00000000000E+00 -0.00000000000E+00 -0.45593999997E+02  0.45594000000E+02  0.51100000000E-03 0. -1.
         23    2    1    2    0    0  0.35527136788E-14  0.00000000000E+00 -0.35527136788E-14  0.91188000000E+02  0.91188000000E+02 0.  0.
    9900012    2    3    3    0    0  0.19206863565E+02  0.59727498252E+01  0.30841542414E+02  0.54367108010E+02  0.40000054329E+02 0.  0.
         12    1    3    3    0    0 -0.19206863565E+02 -0.59727498252E+01 -0.30841542414E+02  0.36820891990E+02  0.00000000000E+00 0. -1.
         11    1    4    4    0    0  0.40323629636E+00  0.53044816107E+01  0.64510927151E+01  0.83616219807E+01  0.51100000000E-03 0. -1.
        -11    1    4    4    0    0  0.26784704181E+02  0.60045170591E+01  0.11097190907E+02  0.29607807238E+02  0.51100000000E-03 0.  1.
         12    1    4    4    0    0 -0.79810769122E+01 -0.53362488446E+01  0.13293258792E+02  0.16397678791E+02  0.00000000000E+00 0. -1.
</event>
<event>
 8    1  0.1229038E-006  0.9118800E+02  0.7816164E-02  0.1184000E+00
        -11   -1    0    0    0    0  0.00000000000E+00  0.00000000000E+00  0.45593999997E+02  0.45594000000E+02  0.51100000000E-03 0.  1.
         11   -1    0    0    0    0 -0.00000000000E+00 -0.00000000000E+00 -0.45593999997E+02  0.45594000000E+02  0.51100000000E-03 0. -1.
         23    2    1    2    0    0  0.00000000000E+00  0.00000000000E+00  0.00000000000E+00  0.91188000000E+02  0.91188000000E+02 0.  0.
    9900012    2    3    3    0    0  0.22165273091E+02 -0.15011184427E+02 -0.25281313109E+02  0.54367084997E+02  0.40000001868E+02 0.  0.
        -12    1    3    3    0    0 -0.22165273091E+02  0.15011184427E+02  0.25281313109E+02  0.36820915003E+02  0.00000000000E+00 0.  1.
         11    1    4    4    0    0  0.15930077906E+02 -0.60315379835E+01 -0.99668059146E+01  0.19735350338E+02  0.51100000000E-03 0. -1.
        -11    1    4    4    0    0  0.16258887383E+02 -0.16905899593E+01 -0.20440917784E+01  0.16473852761E+02  0.51100000000E-03 0.  1.
         12    1    4    4    0    0 -0.10023692198E+02 -0.72890564842E+01 -0.13270415416E+02  0.18157881898E+02  0.00000000000E+00 0. -1.
</event>
<event>
 8    1  0.1229038E-006  0.9118800E+02  0.7816164E-02  0.1184000E+00
        -11   -1    0    0    0    0  0.00000000000E+00  0.00000000000E+00  0.45593999997E+02  0.45594000000E+02  0.51100000000E-03 0.  1.
         11   -1    0    0    0    0 -0.00000000000E+00 -0.00000000000E+00 -0.45593999997E+02  0.45594000000E+02  0.51100000000E-03 0. -1.
         23    2    1    2    0    0  0.00000000000E+00  0.00000000000E+00 -0.35527136788E-14  0.91188000000E+02  0.91188000000E+02 0.  0.
    9900012    2    3    3    0    0 -0.30777945923E+02 -0.11041114879E+02  0.16928989546E+02  0.54367097511E+02  0.40000030397E+02 0.  0.
        -12    1    3    3    0    0  0.30777945923E+02  0.11041114879E+02 -0.16928989546E+02  0.36820902489E+02  0.00000000000E+00 0.  1.
         11    1    4    4    0    0 -0.76088114347E+01 -0.61415006631E+01  0.20122032031E+01  0.99830358026E+01  0.51100000000E-03 0. -1.
        -11    1    4    4    0    0 -0.24472761140E+02 -0.72324847567E+01 -0.35145563923E+01  0.25759987975E+02  0.51100000000E-03 0.  1.
        -12    1    4    4    0    0  0.13036266518E+01  0.23328705409E+01  0.18431342735E+02  0.18624073734E+02  0.00000000000E+00 0.  1.
</event>
<event>
 8    1  0.1229038E-006  0.9118800E+02  0.7816164E-02  0.1184000E+00
        -11   -1    0    0    0    0  0.00000000000E+00  0.00000000000E+00  0.45593999997E+02  0.45594000000E+02  0.51100000000E-03 0.  1.
         11   -1    0    0    0    0 -0.00000000000E+00 -0.00000000000E+00 -0.45593999997E+02  0.45594000000E+02  0.51100000000E-03 0. -1.
         23    2    1    2    0    0  0.35527136788E-14  0.00000000000E+00  0.00000000000E+00  0.91188000000E+02  0.91188000000E+02 0.  0.
    9900012    2    3    3    0    0 -0.29854055477E+02 -0.14417509503E+02  0.16020309629E+02  0.54367088423E+02  0.40000009679E+02 0.  0.
         12    1    3    3    0    0  0.29854055477E+02  0.14417509503E+02 -0.16020309629E+02  0.36820911577E+02  0.00000000000E+00 0. -1.
         11    1    4    4    0    0 -0.16331459271E+02 -0.12933683568E+02  0.43467643871E+00  0.20837122556E+02  0.51100000000E-03 0. -1.
        -11    1    4    4    0    0  0.35689595676E+01 -0.88272469967E+01  0.42278581084E+00  0.95308189595E+01  0.51100000000E-03 0.  1.
        -12    1    4    4    0    0 -0.17091555774E+02  0.73434210611E+01  0.15162847379E+02  0.23999146908E+02  0.00000000000E+00 0.  1.
</event>
<event>
 8    1  0.1229038E-006  0.9118800E+02  0.7816164E-02  0.1184000E+00
        -11   -1    0    0    0    0  0.00000000000E+00  0.00000000000E+00  0.45593999997E+02  0.45594000000E+02  0.51100000000E-03 0.  1.
         11   -1    0    0    0    0 -0.00000000000E+00 -0.00000000000E+00 -0.45593999997E+02  0.45594000000E+02  0.51100000000E-03 0. -1.
         23    2    1    2    0    0 -0.44408920985E-15  0.00000000000E+00  0.00000000000E+00  0.91188000000E+02  0.91188000000E+02 0.  0.
    9900012    2    3    3    0    0  0.22824978707E+01  0.57849234639E+01  0.36291929846E+02  0.54367091430E+02  0.40000016533E+02 0.  0.
         12    1    3    3    0    0 -0.22824978707E+01 -0.57849234639E+01 -0.36291929846E+02  0.36820908570E+02  0.00000000000E+00 0. -1.
         11    1    4    4    0    0 -0.51510832337E+01  0.14024980457E+02  0.16445797529E+02  0.22219315740E+02  0.51100000000E-03 0. -1.
        -11    1    4    4    0    0  0.20690032849E+01  0.74753302344E+01  0.25360032008E+01  0.81604319250E+01  0.51100000000E-03 0.  1.
         12    1    4    4    0    0  0.53645778195E+01 -0.15715387228E+02  0.17310129116E+02  0.23987343765E+02  0.00000000000E+00 0. -1.
</event>
<event>
 8    1  0.1229038E-006  0.9118800E+02  0.7816164E-02  0.1184000E+00
        -11   -1    0    0    0    0  0.00000000000E+00  0.00000000000E+00  0.45593999997E+02  0.45594000000E+02  0.51100000000E-03 0.  1.
         11   -1    0    0    0    0 -0.00000000000E+00 -0.00000000000E+00 -0.45593999997E+02  0.45594000000E+02  0.51100000000E-03 0. -1.
         23    2    1    2    0    0  0.00000000000E+00 -0.17763568394E-14  0.00000000000E+00  0.91188000000E+02  0.91188000000E+02 0.  0.
    9900012    2    3    3    0    0 -0.26175935595E+02  0.61503724283E+01  0.25154977965E+02  0.54367087441E+02  0.40000007439E+02 0.  0.
         12    1    3    3    0    0  0.26175935595E+02 -0.61503724283E+01 -0.25154977965E+02  0.36820912559E+02  0.00000000000E+00 0. -1.
         11    1    4    4    0    0 -0.99838422108E+00  0.84241152726E+01  0.63374915149E+01  0.10588970117E+02  0.51100000000E-03 0. -1.
        -11    1    4    4    0    0 -0.15442128486E+02  0.13714318760E+02  0.11806245118E+02  0.23789268490E+02  0.51100000000E-03 0.  1.
        -12    1    4    4    0    0 -0.97354228876E+01 -0.15988061605E+02  0.70112413320E+01  0.19988848833E+02  0.00000000000E+00 0.  1.
</event>
<event>
 8    1  0.1229038E-006  0.9118800E+02  0.7816164E-02  0.1184000E+00
        -11   -1    0    0    0    0  0.00000000000E+00  0.00000000000E+00  0.45593999997E+02  0.45594000000E+02  0.51100000000E-03 0. -1.
         11   -1    0    0    0    0 -0.00000000000E+00 -0.00000000000E+00 -0.45593999997E+02  0.45594000000E+02  0.51100000000E-03 0.  1.
         23    2    1    2    0    0  0.35527136788E-14  0.17763568394E-14  0.00000000000E+00  0.91188000000E+02  0.91188000000E+02 0.  0.
    9900012    2    3    3    0    0 -0.24317504848E+02 -0.10105932967E+02  0.25735375215E+02  0.54367075777E+02  0.39999980848E+02 0.  0.
        -12    1    3    3    0    0  0.24317504848E+02  0.10105932967E+02 -0.25735375215E+02  0.36820924223E+02  0.00000000000E+00 0.  1.
         11    1    4    4    0    0 -0.23745330898E+01  0.74062566789E+01 -0.20473054633E+00  0.77802930694E+01  0.51100000000E-03 0. -1.
        -11    1    4    4    0    0 -0.14905776270E+02 -0.33222859824E+01 -0.10336268229E+01  0.15306473632E+02  0.51100000000E-03 0.  1.
         12    1    4    4    0    0 -0.70371954878E+01 -0.14189903664E+02  0.26973732585E+02  0.31280309076E+02  0.00000000000E+00 0. -1.
</event>
<event>
 8    1  0.1229038E-006  0.9118800E+02  0.7816164E-02  0.1184000E+00
        -11   -1    0    0    0    0  0.00000000000E+00  0.00000000000E+00  0.45593999997E+02  0.45594000000E+02  0.51100000000E-03 0.  1.
         11   -1    0    0    0    0 -0.00000000000E+00 -0.00000000000E+00 -0.45593999997E+02  0.45594000000E+02  0.51100000000E-03 0. -1.
         23    2    1    2    0    0  0.35527136788E-14  0.23869795029E-14  0.00000000000E+00  0.91188000000E+02  0.91188000000E+02 0.  0.
    9900012    2    3    3    0    0 -0.17989802595E+02  0.48604491766E+00  0.32123366492E+02  0.54367083229E+02  0.39999997838E+02 0.  0.
         12    1    3    3    0    0  0.17989802595E+02 -0.48604491766E+00 -0.32123366492E+02  0.36820916771E+02  0.00000000000E+00 0. -1.
         11    1    4    4    0    0  0.63734198913E+01  0.91851798679E+01 -0.15249546616E+01  0.11283328290E+02  0.51100000000E-03 0. -1.
        -11    1    4    4    0    0 -0.16098126792E+01 -0.29383654845E+01  0.54222602763E+01  0.63738838512E+01  0.51100000000E-03 0.  1.
         12    1    4    4    0    0 -0.22753409807E+02 -0.57607694657E+01  0.28226060877E+02  0.36709871088E+02  0.00000000000E+00 0. -1.
</event>
<event>
 8    1  0.1229038E-006  0.9118800E+02  0.7816164E-02  0.1184000E+00
        -11   -1    0    0    0    0  0.00000000000E+00  0.00000000000E+00  0.45593999997E+02  0.45594000000E+02  0.51100000000E-03 0. -1.
         11   -1    0    0    0    0 -0.00000000000E+00 -0.00000000000E+00 -0.45593999997E+02  0.45594000000E+02  0.51100000000E-03 0.  1.
         23    2    1    2    0    0  0.00000000000E+00 -0.88817841970E-15  0.71054273576E-14  0.91188000000E+02  0.91188000000E+02 0.  0.
    9900012    2    3    3    0    0  0.17229591044E+02  0.57084722801E+01 -0.32036449361E+02  0.54367088130E+02  0.40000009009E+02 0.  0.
         12    1    3    3    0    0 -0.17229591044E+02 -0.57084722801E+01  0.32036449361E+02  0.36820911870E+02  0.00000000000E+00 0. -1.
         11    1    4    4    0    0  0.37488635822E+01  0.16587139761E+01 -0.36376476743E+01  0.54806743268E+01  0.51100000000E-03 0. -1.
        -11    1    4    4    0    0  0.10300482486E+02  0.12409818696E+02 -0.34483431529E+02  0.38068498654E+02  0.51100000000E-03 0.  1.
         12    1    4    4    0    0  0.31802449759E+01 -0.83600603916E+01  0.60846298423E+01  0.10817915149E+02  0.00000000000E+00 0. -1.
</event>
<event>
 8    1  0.1229038E-006  0.9118800E+02  0.7816164E-02  0.1184000E+00
        -11   -1    0    0    0    0  0.00000000000E+00  0.00000000000E+00  0.45593999997E+02  0.45594000000E+02  0.51100000000E-03 0.  1.
         11   -1    0    0    0    0 -0.00000000000E+00 -0.00000000000E+00 -0.45593999997E+02  0.45594000000E+02  0.51100000000E-03 0. -1.
         23    2    1    2    0    0  0.00000000000E+00  0.17763568394E-14  0.00000000000E+00  0.91188000000E+02  0.91188000000E+02 0.  0.
    9900012    2    3    3    0    0  0.10332213356E+01  0.57545370949E+01  0.36353796479E+02  0.54367071686E+02  0.39999971522E+02 0.  0.
         12    1    3    3    0    0 -0.10332213356E+01 -0.57545370949E+01 -0.36353796479E+02  0.36820928314E+02  0.00000000000E+00 0. -1.
         11    1    4    4    0    0 -0.70801479368E+01  0.11756667667E+02  0.35627940850E+02  0.38179810095E+02  0.51100000000E-03 0. -1.
        -11    1    4    4    0    0 -0.69985790005E+00  0.15743624705E+01  0.37939979641E+01  0.41668740179E+01  0.51100000000E-03 0.  1.
        -12    1    4    4    0    0  0.88132271724E+01 -0.75764930423E+01 -0.30681423350E+01  0.12020387573E+02  0.00000000000E+00 0.  1.
</event>
<event>
 8    1  0.1229038E-006  0.9118800E+02  0.7816164E-02  0.1184000E+00
        -11   -1    0    0    0    0  0.00000000000E+00  0.00000000000E+00  0.45593999997E+02  0.45594000000E+02  0.51100000000E-03 0.  1.
         11   -1    0    0    0    0 -0.00000000000E+00 -0.00000000000E+00 -0.45593999997E+02  0.45594000000E+02  0.51100000000E-03 0. -1.
         23    2    1    2    0    0  0.00000000000E+00  0.00000000000E+00  0.00000000000E+00  0.91188000000E+02  0.91188000000E+02 0.  0.
    9900012    2    3    3    0    0  0.34099145514E+02  0.12975089966E+02  0.49663527441E+01  0.54367226732E+02  0.40000324980E+02 0.  0.
         12    1    3    3    0    0 -0.34099145514E+02 -0.12975089966E+02 -0.49663527441E+01  0.36820773268E+02  0.00000000000E+00 0. -1.
         11    1    4    4    0    0  0.63305310438E+01  0.39013727327E+01 -0.11106410671E+02  0.13365952669E+02  0.51100000000E-03 0. -1.
        -11    1    4    4    0    0  0.17240626922E+02  0.30381608681E+01 -0.36133846348E+01  0.17875295436E+02  0.51100000000E-03 0.  1.
        -12    1    4    4    0    0  0.10527987548E+02  0.60355563656E+01  0.19686148050E+02  0.23125978628E+02  0.00000000000E+00 0.  1.
</event>
<event>
 8    1  0.1229038E-006  0.9118800E+02  0.7816164E-02  0.1184000E+00
        -11   -1    0    0    0    0  0.00000000000E+00  0.00000000000E+00  0.45593999997E+02  0.45594000000E+02  0.51100000000E-03 0. -1.
         11   -1    0    0    0    0 -0.00000000000E+00 -0.00000000000E+00 -0.45593999997E+02  0.45594000000E+02  0.51100000000E-03 0.  1.
         23    2    1    2    0    0 -0.13322676296E-14  0.00000000000E+00  0.00000000000E+00  0.91188000000E+02  0.91188000000E+02 0.  0.
    9900012    2    3    3    0    0 -0.27305881326E+01 -0.14940177468E+02 -0.33542724341E+02  0.54367090580E+02  0.40000014594E+02 0.  0.
         12    1    3    3    0    0  0.27305881326E+01  0.14940177468E+02  0.33542724341E+02  0.36820909420E+02  0.00000000000E+00 0. -1.
         11    1    4    4    0    0  0.91072745172E+01 -0.18858911621E+02 -0.16934082601E+02  0.26932585291E+02  0.51100000000E-03 0. -1.
        -11    1    4    4    0    0 -0.14092516022E+02  0.48008953382E+01 -0.18928182617E+02  0.24081605041E+02  0.51100000000E-03 0.  1.
        -12    1    4    4    0    0  0.22546533725E+01 -0.88216118523E+00  0.23195408774E+01  0.33529002474E+01  0.00000000000E+00 0.  1.
</event>
<event>
 8    1  0.1229038E-006  0.9118800E+02  0.7816164E-02  0.1184000E+00
        -11   -1    0    0    0    0  0.00000000000E+00  0.00000000000E+00  0.45593999997E+02  0.45594000000E+02  0.51100000000E-03 0.  1.
         11   -1    0    0    0    0 -0.00000000000E+00 -0.00000000000E+00 -0.45593999997E+02  0.45594000000E+02  0.51100000000E-03 0. -1.
         23    2    1    2    0    0  0.00000000000E+00  0.00000000000E+00  0.00000000000E+00  0.91188000000E+02  0.91188000000E+02 0.  0.
    9900012    2    3    3    0    0 -0.17500878163E+02  0.20344797576E+02  0.25210880147E+02  0.54367081996E+02  0.39999995026E+02 0.  0.
         12    1    3    3    0    0  0.17500878163E+02 -0.20344797576E+02 -0.25210880147E+02  0.36820918004E+02  0.00000000000E+00 0. -1.
         11    1    4    4    0    0  0.14721143671E+01  0.21102401987E+01  0.13003786227E+02  0.13255892686E+02  0.51100000000E-03 0. -1.
        -11    1    4    4    0    0 -0.11807955342E+02  0.14850322693E+01  0.18362384265E+02  0.21881734080E+02  0.51100000000E-03 0.  1.
         12    1    4    4    0    0 -0.71650371877E+01  0.16749525108E+02 -0.61552903440E+01  0.19229455230E+02  0.00000000000E+00 0. -1.
</event>
<event>
 8    1  0.1229038E-006  0.9118800E+02  0.7816164E-02  0.1184000E+00
        -11   -1    0    0    0    0  0.00000000000E+00  0.00000000000E+00  0.45593999997E+02  0.45594000000E+02  0.51100000000E-03 0.  1.
         11   -1    0    0    0    0 -0.00000000000E+00 -0.00000000000E+00 -0.45593999997E+02  0.45594000000E+02  0.51100000000E-03 0. -1.
         23    2    1    2    0    0 -0.35527136788E-14 -0.17763568394E-14 -0.71054273576E-14  0.91188000000E+02  0.91188000000E+02 0.  0.
    9900012    2    3    3    0    0 -0.24412937087E+02 -0.11004703513E+02 -0.25272215068E+02  0.54367084054E+02  0.39999999719E+02 0.  0.
        -12    1    3    3    0    0  0.24412937087E+02  0.11004703513E+02  0.25272215068E+02  0.36820915946E+02  0.00000000000E+00 0.  1.
         11    1    4    4    0    0 -0.23916723871E+01  0.10491501778E+01 -0.16226879058E+02  0.16435705556E+02  0.51100000000E-03 0. -1.
        -11    1    4    4    0    0 -0.26717973438E+02 -0.41291237084E+01 -0.96345118503E+01  0.28700585118E+02  0.51100000000E-03 0.  1.
        -12    1    4    4    0    0  0.46967087379E+01 -0.79247299825E+01  0.58917584034E+00  0.92307933806E+01  0.00000000000E+00 0.  1.
</event>
<event>
 8    1  0.1229038E-006  0.9118800E+02  0.7816164E-02  0.1184000E+00
        -11   -1    0    0    0    0  0.00000000000E+00  0.00000000000E+00  0.45593999997E+02  0.45594000000E+02  0.51100000000E-03 0. -1.
         11   -1    0    0    0    0 -0.00000000000E+00 -0.00000000000E+00 -0.45593999997E+02  0.45594000000E+02  0.51100000000E-03 0.  1.
         23    2    1    2    0    0  0.71054273576E-14  0.44408920985E-15  0.00000000000E+00  0.91188000000E+02  0.91188000000E+02 0.  0.
    9900012    2    3    3    0    0  0.34363435652E+02  0.15757252628E+01  0.13131980228E+02  0.54367115646E+02  0.40000071737E+02 0.  0.
        -12    1    3    3    0    0 -0.34363435652E+02 -0.15757252628E+01 -0.13131980228E+02  0.36820884354E+02  0.00000000000E+00 0.  1.
         11    1    4    4    0    0  0.17921758826E+02  0.58714960592E+01  0.11471310435E+01  0.18893909476E+02  0.51100000000E-03 0. -1.
        -11    1    4    4    0    0  0.51288627638E+01  0.11521457572E+02 -0.35638572591E-01  0.12611522042E+02  0.51100000000E-03 0.  1.
         12    1    4    4    0    0  0.11312814063E+02 -0.15817228369E+02  0.12020487757E+02  0.22861684128E+02  0.00000000000E+00 0. -1.
</event>
<event>
 8    1  0.1229038E-006  0.9118800E+02  0.7816164E-02  0.1184000E+00
        -11   -1    0    0    0    0  0.00000000000E+00  0.00000000000E+00  0.45593999997E+02  0.45594000000E+02  0.51100000000E-03 0.  1.
         11   -1    0    0    0    0 -0.00000000000E+00 -0.00000000000E+00 -0.45593999997E+02  0.45594000000E+02  0.51100000000E-03 0. -1.
         23    2    1    2    0    0  0.35527136788E-14  0.00000000000E+00  0.00000000000E+00  0.91188000000E+02  0.91188000000E+02 0.  0.
    9900012    2    3    3    0    0  0.28266216960E+02 -0.12935583324E+02  0.19735074209E+02  0.54367061783E+02  0.39999948946E+02 0.  0.
         12    1    3    3    0    0 -0.28266216960E+02  0.12935583324E+02 -0.19735074209E+02  0.36820938217E+02  0.00000000000E+00 0. -1.
         11    1    4    4    0    0  0.59155317373E+01 -0.10775859319E+02  0.10883656008E+02  0.16418484344E+02  0.51100000000E-03 0. -1.
        -11    1    4    4    0    0  0.45953600623E+01 -0.45385351314E+01  0.17061319558E+02  0.18242923575E+02  0.51100000000E-03 0.  1.
        -12    1    4    4    0    0  0.17755325160E+02  0.23788111258E+01 -0.82099013567E+01  0.19705653864E+02  0.00000000000E+00 0.  1.
</event>
<event>
 8    1  0.1229038E-006  0.9118800E+02  0.7816164E-02  0.1184000E+00
        -11   -1    0    0    0    0  0.00000000000E+00  0.00000000000E+00  0.45593999997E+02  0.45594000000E+02  0.51100000000E-03 0.  1.
         11   -1    0    0    0    0 -0.00000000000E+00 -0.00000000000E+00 -0.45593999997E+02  0.45594000000E+02  0.51100000000E-03 0. -1.
         23    2    1    2    0    0  0.88817841970E-15  0.71054273576E-14 -0.17763568394E-14  0.91188000000E+02  0.91188000000E+02 0.  0.
    9900012    2    3    3    0    0 -0.42549902764E+01 -0.33998780605E+02  0.13481778835E+02  0.54367076798E+02  0.39999983177E+02 0.  0.
         12    1    3    3    0    0  0.42549902764E+01  0.33998780605E+02 -0.13481778835E+02  0.36820923202E+02  0.00000000000E+00 0. -1.
         11    1    4    4    0    0 -0.10481253214E+02 -0.18132089396E+02  0.27578776481E+01  0.21124280442E+02  0.51100000000E-03 0. -1.
        -11    1    4    4    0    0 -0.20796619644E+01 -0.19948520618E+02  0.13996764738E+01  0.20105411293E+02  0.51100000000E-03 0.  1.
         12    1    4    4    0    0  0.83059249023E+01  0.40818294094E+01  0.93242247134E+01  0.13137385064E+02  0.00000000000E+00 0. -1.
</event>
<event>
 8    1  0.1229038E-006  0.9118800E+02  0.7816164E-02  0.1184000E+00
        -11   -1    0    0    0    0  0.00000000000E+00  0.00000000000E+00  0.45593999997E+02  0.45594000000E+02  0.51100000000E-03 0.  1.
         11   -1    0    0    0    0 -0.00000000000E+00 -0.00000000000E+00 -0.45593999997E+02  0.45594000000E+02  0.51100000000E-03 0. -1.
         23    2    1    2    0    0  0.00000000000E+00  0.00000000000E+00  0.00000000000E+00  0.91188000000E+02  0.91188000000E+02 0.  0.
    9900012    2    3    3    0    0 -0.24097892137E+02  0.80949486122E+01  0.26637215751E+02  0.54367111072E+02  0.40000061312E+02 0.  0.
         12    1    3    3    0    0  0.24097892137E+02 -0.80949486122E+01 -0.26637215751E+02  0.36820888928E+02  0.00000000000E+00 0. -1.
         11    1    4    4    0    0 -0.57264962532E+01  0.17431185434E+02  0.83877146048E+00  0.18366886585E+02  0.51100000000E-03 0. -1.
        -11    1    4    4    0    0 -0.15234261206E+02 -0.65201016442E+01  0.93638603891E+01  0.19033557776E+02  0.51100000000E-03 0.  1.
         12    1    4    4    0    0 -0.31371346775E+01 -0.28161351779E+01  0.16434583901E+02  0.16966666712E+02  0.00000000000E+00 0. -1.
</event>
<event>
 8    1  0.1229038E-006  0.9118800E+02  0.7816164E-02  0.1184000E+00
        -11   -1    0    0    0    0  0.00000000000E+00  0.00000000000E+00  0.45593999997E+02  0.45594000000E+02  0.51100000000E-03 0. -1.
         11   -1    0    0    0    0 -0.00000000000E+00 -0.00000000000E+00 -0.45593999997E+02  0.45594000000E+02  0.51100000000E-03 0.  1.
         23    2    1    2    0    0  0.00000000000E+00  0.33306690739E-15  0.00000000000E+00  0.91188000000E+02  0.91188000000E+02 0.  0.
    9900012    2    3    3    0    0  0.25055828380E+02  0.42447205317E+00  0.26977922283E+02  0.54367041253E+02  0.39999902145E+02 0.  0.
        -12    1    3    3    0    0 -0.25055828380E+02 -0.42447205317E+00 -0.26977922283E+02  0.36820958747E+02  0.00000000000E+00 0.  1.
         11    1    4    4    0    0  0.10750933386E+02 -0.11481222945E+02  0.17823871152E+02  0.23771651859E+02  0.51100000000E-03 0. -1.
        -11    1    4    4    0    0 -0.10306715839E+01 -0.41144358711E+01  0.71687736263E+01  0.83295967500E+01  0.51100000000E-03 0.  1.
         12    1    4    4    0    0  0.15335566578E+02  0.16020130869E+02  0.19852775043E+01  0.22265792645E+02  0.00000000000E+00 0. -1.
</event>
<event>
 8    1  0.1229038E-006  0.9118800E+02  0.7816164E-02  0.1184000E+00
        -11   -1    0    0    0    0  0.00000000000E+00  0.00000000000E+00  0.45593999997E+02  0.45594000000E+02  0.51100000000E-03 0. -1.
         11   -1    0    0    0    0 -0.00000000000E+00 -0.00000000000E+00 -0.45593999997E+02  0.45594000000E+02  0.51100000000E-03 0.  1.
         23    2    1    2    0    0  0.00000000000E+00  0.00000000000E+00  0.17763568394E-14  0.91188000000E+02  0.91188000000E+02 0.  0.
    9900012    2    3    3    0    0  0.84050561243E+01 -0.32365144527E+02 -0.15415305167E+02  0.54367093139E+02  0.40000020428E+02 0.  0.
         12    1    3    3    0    0 -0.84050561243E+01  0.32365144527E+02  0.15415305167E+02  0.36820906861E+02  0.00000000000E+00 0. -1.
         11    1    4    4    0    0 -0.72999417282E+00  0.13697043613E+01  0.15024388132E+01  0.21601629980E+01  0.51100000000E-03 0. -1.
        -11    1    4    4    0    0  0.98598424987E+01 -0.37921491000E+01  0.79954237554E+01  0.13248535398E+02  0.51100000000E-03 0.  1.
        -12    1    4    4    0    0 -0.72479220162E+00 -0.29942699788E+02 -0.24913167735E+02  0.38958394743E+02  0.00000000000E+00 0.  1.
</event>
<event>
 8    1  0.1229038E-006  0.9118800E+02  0.7816164E-02  0.1184000E+00
        -11   -1    0    0    0    0  0.00000000000E+00  0.00000000000E+00  0.45593999997E+02  0.45594000000E+02  0.51100000000E-03 0. -1.
         11   -1    0    0    0    0 -0.00000000000E+00 -0.00000000000E+00 -0.45593999997E+02  0.45594000000E+02  0.51100000000E-03 0.  1.
         23    2    1    2    0    0  0.00000000000E+00  0.35527136788E-14  0.00000000000E+00  0.91188000000E+02  0.91188000000E+02 0.  0.
    9900012    2    3    3    0    0  0.19726423789E+02  0.11894542246E+02 -0.28725723469E+02  0.54367093988E+02  0.40000022364E+02 0.  0.
         12    1    3    3    0    0 -0.19726423789E+02 -0.11894542246E+02  0.28725723469E+02  0.36820906012E+02  0.00000000000E+00 0. -1.
         11    1    4    4    0    0 -0.41636977963E+01  0.10308704047E+01  0.29077612956E+01  0.51820989129E+01  0.51100000000E-03 0. -1.
        -11    1    4    4    0    0  0.19140020242E+02 -0.38157463062E+01 -0.26527163247E+02  0.32933124434E+02  0.51100000000E-03 0.  1.
        -12    1    4    4    0    0  0.47501013433E+01  0.14679418147E+02 -0.51063215170E+01  0.16251870641E+02  0.00000000000E+00 0.  1.
</event>
<event>
 8    1  0.1229038E-006  0.9118800E+02  0.7816164E-02  0.1184000E+00
        -11   -1    0    0    0    0  0.00000000000E+00  0.00000000000E+00  0.45593999997E+02  0.45594000000E+02  0.51100000000E-03 0.  1.
         11   -1    0    0    0    0 -0.00000000000E+00 -0.00000000000E+00 -0.45593999997E+02  0.45594000000E+02  0.51100000000E-03 0. -1.
         23    2    1    2    0    0 -0.35527136788E-14 -0.44408920985E-15  0.71054273576E-14  0.91188000000E+02  0.91188000000E+02 0.  0.
    9900012    2    3    3    0    0 -0.22480852195E+02 -0.21641030918E+01  0.29081072500E+02  0.54367070688E+02  0.39999969248E+02 0.  0.
         12    1    3    3    0    0  0.22480852195E+02  0.21641030918E+01 -0.29081072500E+02  0.36820929312E+02  0.00000000000E+00 0. -1.
         11    1    4    4    0    0 -0.23313064424E+01  0.23093601666E+01  0.11064160598E+01  0.34629887187E+01  0.51100000000E-03 0. -1.
        -11    1    4    4    0    0 -0.39209377219E+01  0.34068704082E+01  0.32000758438E+02  0.32419578335E+02  0.51100000000E-03 0.  1.
        -12    1    4    4    0    0 -0.16228608031E+02 -0.78803336666E+01 -0.40261019974E+01  0.18484503634E+02  0.00000000000E+00 0.  1.
</event>
<event>
 8    1  0.1229038E-006  0.9118800E+02  0.7816164E-02  0.1184000E+00
        -11   -1    0    0    0    0  0.00000000000E+00  0.00000000000E+00  0.45593999997E+02  0.45594000000E+02  0.51100000000E-03 0.  1.
         11   -1    0    0    0    0 -0.00000000000E+00 -0.00000000000E+00 -0.45593999997E+02  0.45594000000E+02  0.51100000000E-03 0. -1.
         23    2    1    2    0    0  0.00000000000E+00 -0.88817841970E-15 -0.17763568394E-14  0.91188000000E+02  0.91188000000E+02 0.  0.
    9900012    2    3    3    0    0  0.34168935945E+02  0.56027334229E+01 -0.12524901066E+02  0.54367082682E+02  0.39999996591E+02 0.  0.
        -12    1    3    3    0    0 -0.34168935945E+02 -0.56027334229E+01  0.12524901066E+02  0.36820917318E+02  0.00000000000E+00 0.  1.
         11    1    4    4    0    0  0.26860506458E+02 -0.45845002287E+01  0.46176502697E+01  0.27637422886E+02  0.51100000000E-03 0.  1.
        -11    1    4    4    0    0  0.77090071332E+01 -0.57338540469E+00 -0.13133233632E+02  0.15239402472E+02  0.51100000000E-03 0. -1.
        -12    1    4    4    0    0 -0.40057764628E+00  0.10760619056E+02 -0.40093177035E+01  0.11490257324E+02  0.00000000000E+00 0.  1.
</event>
<event>
 8    1  0.1229038E-006  0.9118800E+02  0.7816164E-02  0.1184000E+00
        -11   -1    0    0    0    0  0.00000000000E+00  0.00000000000E+00  0.45593999997E+02  0.45594000000E+02  0.51100000000E-03 0.  1.
         11   -1    0    0    0    0 -0.00000000000E+00 -0.00000000000E+00 -0.45593999997E+02  0.45594000000E+02  0.51100000000E-03 0. -1.
         23    2    1    2    0    0  0.35527136788E-14  0.71054273576E-14 -0.88817841970E-15  0.91188000000E+02  0.91188000000E+02 0.  0.
    9900012    2    3    3    0    0 -0.17108312235E+02  0.32182257832E+02 -0.52330281342E+01  0.54367127520E+02  0.40000098808E+02 0.  0.
        -12    1    3    3    0    0  0.17108312235E+02 -0.32182257832E+02  0.52330281342E+01  0.36820872480E+02  0.00000000000E+00 0.  1.
         11    1    4    4    0    0 -0.31422688919E+01  0.46075055806E+01 -0.97469413166E+01  0.11229685069E+02  0.51100000000E-03 0.  1.
        -11    1    4    4    0    0 -0.14298376630E+02  0.28027062985E+02 -0.64843556400E+01  0.32124861123E+02  0.51100000000E-03 0. -1.
         12    1    4    4    0    0  0.33233328692E+00 -0.45231073366E+00  0.10998268822E+02  0.11012581328E+02  0.00000000000E+00 0. -1.
</event>
<event>
 8    1  0.1229038E-006  0.9118800E+02  0.7816164E-02  0.1184000E+00
        -11   -1    0    0    0    0  0.00000000000E+00  0.00000000000E+00  0.45593999997E+02  0.45594000000E+02  0.51100000000E-03 0.  1.
         11   -1    0    0    0    0 -0.00000000000E+00 -0.00000000000E+00 -0.45593999997E+02  0.45594000000E+02  0.51100000000E-03 0. -1.
         23    2    1    2    0    0  0.35527136788E-14  0.00000000000E+00  0.10658141036E-13  0.91188000000E+02  0.91188000000E+02 0.  0.
    9900012    2    3    3    0    0  0.16631011730E+02  0.19509978073E+02  0.26430132832E+02  0.54367058715E+02  0.39999941953E+02 0.  0.
         12    1    3    3    0    0 -0.16631011730E+02 -0.19509978073E+02 -0.26430132832E+02  0.36820941285E+02  0.00000000000E+00 0. -1.
         11    1    4    4    0    0  0.38425451416E+00  0.24704210788E+01 -0.71273480965E+01  0.75531267028E+01  0.51100000000E-03 0. -1.
        -11    1    4    4    0    0 -0.76458956584E+00  0.95621426103E+01  0.14286777144E+01  0.96984683727E+01  0.51100000000E-03 0.  1.
         12    1    4    4    0    0  0.17011346782E+02  0.74774143840E+01  0.32128803214E+02  0.37115463640E+02  0.00000000000E+00 0. -1.
</event>
<event>
 8    1  0.1229038E-006  0.9118800E+02  0.7816164E-02  0.1184000E+00
        -11   -1    0    0    0    0  0.00000000000E+00  0.00000000000E+00  0.45593999997E+02  0.45594000000E+02  0.51100000000E-03 0.  1.
         11   -1    0    0    0    0 -0.00000000000E+00 -0.00000000000E+00 -0.45593999997E+02  0.45594000000E+02  0.51100000000E-03 0. -1.
         23    2    1    2    0    0  0.00000000000E+00  0.17763568394E-14  0.35527136788E-14  0.91188000000E+02  0.91188000000E+02 0.  0.
    9900012    2    3    3    0    0 -0.31064986437E+02  0.90135301865E+01 -0.17592654631E+02  0.54367100965E+02  0.40000038270E+02 0.  0.
        -12    1    3    3    0    0  0.31064986437E+02 -0.90135301865E+01  0.17592654631E+02  0.36820899035E+02  0.00000000000E+00 0.  1.
         11    1    4    4    0    0 -0.74743420738E+01 -0.14728595871E+01  0.50377579000E+01  0.91331325250E+01  0.51100000000E-03 0. -1.
        -11    1    4    4    0    0  0.62128194398E+01 -0.23795071859E+01 -0.29993943161E+01  0.72977768097E+01  0.51100000000E-03 0.  1.
         12    1    4    4    0    0 -0.29803463803E+02  0.12865896960E+02 -0.19631018215E+02  0.37936191630E+02  0.00000000000E+00 0. -1.
</event>
<event>
 8    1  0.1229038E-006  0.9118800E+02  0.7816164E-02  0.1184000E+00
        -11   -1    0    0    0    0  0.00000000000E+00  0.00000000000E+00  0.45593999997E+02  0.45594000000E+02  0.51100000000E-03 0.  1.
         11   -1    0    0    0    0 -0.00000000000E+00 -0.00000000000E+00 -0.45593999997E+02  0.45594000000E+02  0.51100000000E-03 0. -1.
         23    2    1    2    0    0  0.00000000000E+00  0.00000000000E+00  0.71054273576E-14  0.91188000000E+02  0.91188000000E+02 0.  0.
    9900012    2    3    3    0    0 -0.60867686027E+01  0.64258037835E+01 -0.35741295111E+02  0.54367083628E+02  0.39999998746E+02 0.  0.
        -12    1    3    3    0    0  0.60867686027E+01 -0.64258037835E+01  0.35741295111E+02  0.36820916372E+02  0.00000000000E+00 0.  1.
         11    1    4    4    0    0 -0.12735089439E+02  0.77906760946E+01 -0.77130669955E+01  0.16803825153E+02  0.51100000000E-03 0. -1.
        -11    1    4    4    0    0  0.41361814434E+00  0.77654120077E+01 -0.37914226183E+00  0.77856568595E+01  0.51100000000E-03 0.  1.
        -12    1    4    4    0    0  0.62347026923E+01 -0.91302843187E+01 -0.27649085854E+02  0.29777601615E+02  0.00000000000E+00 0.  1.
</event>
<event>
 8    1  0.1229038E-006  0.9118800E+02  0.7816164E-02  0.1184000E+00
        -11   -1    0    0    0    0  0.00000000000E+00  0.00000000000E+00  0.45593999997E+02  0.45594000000E+02  0.51100000000E-03 0. -1.
         11   -1    0    0    0    0 -0.00000000000E+00 -0.00000000000E+00 -0.45593999997E+02  0.45594000000E+02  0.51100000000E-03 0.  1.
         23    2    1    2    0    0  0.00000000000E+00  0.00000000000E+00  0.17763568394E-14  0.91188000000E+02  0.91188000000E+02 0.  0.
    9900012    2    3    3    0    0  0.85234545305E+01 -0.32390898091E+02 -0.15295841314E+02  0.54367050558E+02  0.39999923358E+02 0.  0.
         12    1    3    3    0    0 -0.85234545305E+01  0.32390898091E+02  0.15295841314E+02  0.36820949442E+02  0.00000000000E+00 0. -1.
         11    1    4    4    0    0  0.40755973441E+01 -0.22857808506E+02 -0.10064322269E+02  0.25305740186E+02  0.51100000000E-03 0. -1.
        -11    1    4    4    0    0  0.10110156268E+02 -0.11123861703E+02 -0.12613457215E+02  0.19622814837E+02  0.51100000000E-03 0.  1.
         12    1    4    4    0    0 -0.56622990813E+01  0.15907721174E+01  0.73819381703E+01  0.94384955350E+01  0.00000000000E+00 0. -1.
</event>
<event>
 8    1  0.1229038E-006  0.9118800E+02  0.7816164E-02  0.1184000E+00
        -11   -1    0    0    0    0  0.00000000000E+00  0.00000000000E+00  0.45593999997E+02  0.45594000000E+02  0.51100000000E-03 0.  1.
         11   -1    0    0    0    0 -0.00000000000E+00 -0.00000000000E+00 -0.45593999997E+02  0.45594000000E+02  0.51100000000E-03 0. -1.
         23    2    1    2    0    0 -0.88817841970E-15 -0.35527136788E-14 -0.35527136788E-14  0.91188000000E+02  0.91188000000E+02 0.  0.
    9900012    2    3    3    0    0 -0.56117736017E+01 -0.18777652856E+02 -0.31171915655E+02  0.54367074219E+02  0.39999977298E+02 0.  0.
        -12    1    3    3    0    0  0.56117736017E+01  0.18777652856E+02  0.31171915655E+02  0.36820925781E+02  0.00000000000E+00 0.  1.
         11    1    4    4    0    0 -0.10651860107E+02 -0.24774285719E+02 -0.21480744239E+02  0.34476799880E+02  0.51100000000E-03 0. -1.
        -11    1    4    4    0    0  0.43829780422E+00  0.87357550039E+01  0.80763999903E-01  0.87471162984E+01  0.51100000000E-03 0.  1.
         12    1    4    4    0    0  0.46017887015E+01 -0.27391221402E+01 -0.97719354155E+01  0.11143158041E+02  0.00000000000E+00 0. -1.
</event>
<event>
 8    1  0.1229038E-006  0.9118800E+02  0.7816164E-02  0.1184000E+00
        -11   -1    0    0    0    0  0.00000000000E+00  0.00000000000E+00  0.45593999997E+02  0.45594000000E+02  0.51100000000E-03 0. -1.
         11   -1    0    0    0    0 -0.00000000000E+00 -0.00000000000E+00 -0.45593999997E+02  0.45594000000E+02  0.51100000000E-03 0.  1.
         23    2    1    2    0    0  0.71054273576E-14 -0.88817841970E-15 -0.17763568394E-14  0.91188000000E+02  0.91188000000E+02 0.  0.
    9900012    2    3    3    0    0 -0.34110461583E+02  0.46699105215E+01  0.13055552333E+02  0.54367094248E+02  0.40000022957E+02 0.  0.
         12    1    3    3    0    0  0.34110461583E+02 -0.46699105215E+01 -0.13055552333E+02  0.36820905752E+02  0.00000000000E+00 0. -1.
         11    1    4    4    0    0  0.30119837439E+00 -0.51448086304E+01 -0.23655950802E-01  0.51536721054E+01  0.51100000000E-03 0. -1.
        -11    1    4    4    0    0 -0.64466075782E+01 -0.19327627748E+01  0.17324197545E+02  0.18585535829E+02  0.51100000000E-03 0.  1.
        -12    1    4    4    0    0 -0.27965052379E+02  0.11747481927E+02 -0.42449892610E+01  0.30627886313E+02  0.00000000000E+00 0.  1.
</event>
<event>
 8    1  0.1229038E-006  0.9118800E+02  0.7816164E-02  0.1184000E+00
        -11   -1    0    0    0    0  0.00000000000E+00  0.00000000000E+00  0.45593999997E+02  0.45594000000E+02  0.51100000000E-03 0.  1.
         11   -1    0    0    0    0 -0.00000000000E+00 -0.00000000000E+00 -0.45593999997E+02  0.45594000000E+02  0.51100000000E-03 0. -1.
         23    2    1    2    0    0 -0.71054273576E-14  0.17763568394E-14  0.00000000000E+00  0.91188000000E+02  0.91188000000E+02 0.  0.
    9900012    2    3    3    0    0  0.33628592019E+02 -0.14027929338E+02 -0.53022885265E+01  0.54367091995E+02  0.40000017821E+02 0.  0.
         12    1    3    3    0    0 -0.33628592019E+02  0.14027929338E+02  0.53022885265E+01  0.36820908005E+02  0.00000000000E+00 0. -1.
         11    1    4    4    0    0  0.27790449829E+02  0.71483498963E+01 -0.84373823573E+01  0.29909821618E+02  0.51100000000E-03 0. -1.
        -11    1    4    4    0    0 -0.24692135286E+01 -0.73138163051E+01  0.30386370319E+01  0.82959170480E+01  0.51100000000E-03 0.  1.
         12    1    4    4    0    0  0.83073557185E+01 -0.13862462929E+02  0.96456798987E-01  0.16161353329E+02  0.00000000000E+00 0. -1.
</event>
<event>
 8    1  0.1229038E-006  0.9118800E+02  0.7816164E-02  0.1184000E+00
        -11   -1    0    0    0    0  0.00000000000E+00  0.00000000000E+00  0.45593999997E+02  0.45594000000E+02  0.51100000000E-03 0.  1.
         11   -1    0    0    0    0 -0.00000000000E+00 -0.00000000000E+00 -0.45593999997E+02  0.45594000000E+02  0.51100000000E-03 0. -1.
         23    2    1    2    0    0  0.88817841970E-15  0.00000000000E+00  0.71054273576E-14  0.91188000000E+02  0.91188000000E+02 0.  0.
    9900012    2    3    3    0    0 -0.20945344826E+01  0.49558917106E+01 -0.36425703075E+02  0.54367084994E+02  0.40000001862E+02 0.  0.
        -12    1    3    3    0    0  0.20945344826E+01 -0.49558917106E+01  0.36425703075E+02  0.36820915006E+02  0.00000000000E+00 0.  1.
         11    1    4    4    0    0 -0.98627196331E+01 -0.33464084415E+01 -0.55223857507E+01  0.11788487293E+02  0.51100000000E-03 0. -1.
        -11    1    4    4    0    0  0.54517980584E+01  0.61707908700E+01  0.28238290694E+01  0.87048706426E+01  0.51100000000E-03 0.  1.
        -12    1    4    4    0    0  0.23163870921E+01  0.21315092821E+01 -0.33727146394E+02  0.33873727059E+02  0.00000000000E+00 0.  1.
</event>
<event>
 8    1  0.1229038E-006  0.9118800E+02  0.7816164E-02  0.1184000E+00
        -11   -1    0    0    0    0  0.00000000000E+00  0.00000000000E+00  0.45593999997E+02  0.45594000000E+02  0.51100000000E-03 0.  1.
         11   -1    0    0    0    0 -0.00000000000E+00 -0.00000000000E+00 -0.45593999997E+02  0.45594000000E+02  0.51100000000E-03 0. -1.
         23    2    1    2    0    0  0.00000000000E+00  0.35527136788E-14  0.00000000000E+00  0.91188000000E+02  0.91188000000E+02 0.  0.
    9900012    2    3    3    0    0 -0.13152358524E+02  0.28422385192E+02 -0.19363972956E+02  0.54367082529E+02  0.39999996242E+02 0.  0.
        -12    1    3    3    0    0  0.13152358524E+02 -0.28422385192E+02  0.19363972956E+02  0.36820917471E+02  0.00000000000E+00 0.  1.
         11    1    4    4    0    0 -0.39336519617E+01  0.98282361170E+01 -0.15252856968E+02  0.18566569120E+02  0.51100000000E-03 0.  1.
        -11    1    4    4    0    0 -0.15076788304E+02  0.17886010748E+02  0.59492280037E+01  0.24137361914E+02  0.51100000000E-03 0. -1.
        -12    1    4    4    0    0  0.58580817423E+01  0.70813832690E+00 -0.10060343992E+02  0.11663151496E+02  0.00000000000E+00 0.  1.
</event>
<event>
 8    1  0.1229038E-006  0.9118800E+02  0.7816164E-02  0.1184000E+00
        -11   -1    0    0    0    0  0.00000000000E+00  0.00000000000E+00  0.45593999997E+02  0.45594000000E+02  0.51100000000E-03 0. -1.
         11   -1    0    0    0    0 -0.00000000000E+00 -0.00000000000E+00 -0.45593999997E+02  0.45594000000E+02  0.51100000000E-03 0.  1.
         23    2    1    2    0    0  0.17763568394E-14  0.35527136788E-14  0.71054273576E-14  0.91188000000E+02  0.91188000000E+02 0.  0.
    9900012    2    3    3    0    0  0.11109204979E+02 -0.20460958597E+02 -0.28525673130E+02  0.54367091681E+02  0.40000017105E+02 0.  0.
         12    1    3    3    0    0 -0.11109204979E+02  0.20460958597E+02  0.28525673130E+02  0.36820908319E+02  0.00000000000E+00 0. -1.
         11    1    4    4    0    0 -0.77733178776E+01  0.10958451541E+00 -0.79847108979E+01  0.11144150393E+02  0.51100000000E-03 0. -1.
        -11    1    4    4    0    0  0.18793570661E+02 -0.94807789843E+01 -0.23693640157E+02  0.31693407082E+02  0.51100000000E-03 0.  1.
         12    1    4    4    0    0  0.88952195682E-01 -0.11089764128E+02  0.31526779252E+01  0.11529534206E+02  0.00000000000E+00 0. -1.
</event>
<event>
 8    1  0.1229038E-006  0.9118800E+02  0.7816164E-02  0.1184000E+00
        -11   -1    0    0    0    0  0.00000000000E+00  0.00000000000E+00  0.45593999997E+02  0.45594000000E+02  0.51100000000E-03 0.  1.
         11   -1    0    0    0    0 -0.00000000000E+00 -0.00000000000E+00 -0.45593999997E+02  0.45594000000E+02  0.51100000000E-03 0. -1.
         23    2    1    2    0    0  0.00000000000E+00  0.35527136788E-14  0.00000000000E+00  0.91188000000E+02  0.91188000000E+02 0.  0.
    9900012    2    3    3    0    0 -0.19129336259E+02 -0.30738176858E+02 -0.67091486159E+01  0.54367086141E+02  0.40000004477E+02 0.  0.
        -12    1    3    3    0    0  0.19129336259E+02  0.30738176858E+02  0.67091486159E+01  0.36820913859E+02  0.00000000000E+00 0.  1.
         11    1    4    4    0    0 -0.17774201823E+02 -0.10990358830E+02  0.56279253230E+01  0.21642175985E+02  0.51100000000E-03 0. -1.
        -11    1    4    4    0    0  0.19869570821E+01  0.49324627236E+01 -0.31399108530E+01  0.61754536183E+01  0.51100000000E-03 0.  1.
        -12    1    4    4    0    0 -0.33420915179E+01 -0.24680280751E+02 -0.91971630859E+01  0.26549456538E+02  0.00000000000E+00 0.  1.
</event>
<event>
 8    1  0.1229038E-006  0.9118800E+02  0.7816164E-02  0.1184000E+00
        -11   -1    0    0    0    0  0.00000000000E+00  0.00000000000E+00  0.45593999997E+02  0.45594000000E+02  0.51100000000E-03 0.  1.
         11   -1    0    0    0    0 -0.00000000000E+00 -0.00000000000E+00 -0.45593999997E+02  0.45594000000E+02  0.51100000000E-03 0. -1.
         23    2    1    2    0    0  0.00000000000E+00 -0.88817841970E-15  0.17763568394E-14  0.91188000000E+02  0.91188000000E+02 0.  0.
    9900012    2    3    3    0    0 -0.34694819869E+02 -0.44344612446E+01  0.11505971985E+02  0.54367049936E+02  0.39999921940E+02 0.  0.
         12    1    3    3    0    0  0.34694819869E+02  0.44344612446E+01 -0.11505971985E+02  0.36820950064E+02  0.00000000000E+00 0. -1.
         11    1    4    4    0    0  0.85270269852E+01  0.61982263251E+00 -0.96081453139E+00  0.86033443571E+01  0.51100000000E-03 0. -1.
        -11    1    4    4    0    0 -0.23235017476E+02 -0.10422621727E+01  0.36081926225E+01  0.23536597074E+02  0.51100000000E-03 0.  1.
         12    1    4    4    0    0 -0.19986829378E+02 -0.40120217044E+01  0.88585938943E+01  0.22227108506E+02  0.00000000000E+00 0. -1.
</event>
<event>
 8    1  0.1229038E-006  0.9118800E+02  0.7816164E-02  0.1184000E+00
        -11   -1    0    0    0    0  0.00000000000E+00  0.00000000000E+00  0.45593999997E+02  0.45594000000E+02  0.51100000000E-03 0. -1.
         11   -1    0    0    0    0 -0.00000000000E+00 -0.00000000000E+00 -0.45593999997E+02  0.45594000000E+02  0.51100000000E-03 0.  1.
         23    2    1    2    0    0 -0.35527136788E-14  0.17763568394E-14  0.35527136788E-14  0.91188000000E+02  0.91188000000E+02 0.  0.
    9900012    2    3    3    0    0 -0.20708367678E+02  0.98849608656E+01 -0.28796356602E+02  0.54367094297E+02  0.40000023070E+02 0.  0.
         12    1    3    3    0    0  0.20708367678E+02 -0.98849608656E+01  0.28796356602E+02  0.36820905703E+02  0.00000000000E+00 0. -1.
         11    1    4    4    0    0  0.77258092171E+01 -0.10643854674E+01 -0.68036364938E+01  0.10349420964E+02  0.51100000000E-03 0. -1.
        -11    1    4    4    0    0 -0.10573860655E+02 -0.25647971993E+01  0.21447734467E+01  0.11089849738E+02  0.51100000000E-03 0.  1.
         12    1    4    4    0    0 -0.17860316240E+02  0.13514143532E+02 -0.24137493555E+02  0.32927823595E+02  0.00000000000E+00 0. -1.
</event>
<event>
 8    1  0.1229038E-006  0.9118800E+02  0.7816164E-02  0.1184000E+00
        -11   -1    0    0    0    0  0.00000000000E+00  0.00000000000E+00  0.45593999997E+02  0.45594000000E+02  0.51100000000E-03 0. -1.
         11   -1    0    0    0    0 -0.00000000000E+00 -0.00000000000E+00 -0.45593999997E+02  0.45594000000E+02  0.51100000000E-03 0.  1.
         23    2    1    2    0    0  0.00000000000E+00 -0.35527136788E-14  0.35527136788E-14  0.91188000000E+02  0.91188000000E+02 0.  0.
    9900012    2    3    3    0    0  0.22279805613E+02  0.24209823119E+02  0.16530995094E+02  0.54367094628E+02  0.40000023824E+02 0.  0.
        -12    1    3    3    0    0 -0.22279805613E+02 -0.24209823119E+02 -0.16530995094E+02  0.36820905372E+02  0.00000000000E+00 0.  1.
         11    1    4    4    0    0  0.43818753890E+01 -0.75226908357E+01  0.13871049782E+02  0.16376743622E+02  0.51100000000E-03 0.  1.
        -11    1    4    4    0    0  0.34983117607E+01  0.79904986410E+01 -0.37467197329E+01  0.94933746752E+01  0.51100000000E-03 0. -1.
        -12    1    4    4    0    0  0.14399618463E+02  0.23742015314E+02  0.64066650447E+01  0.28496976331E+02  0.00000000000E+00 0.  1.
</event>
<event>
 8    1  0.1229038E-006  0.9118800E+02  0.7816164E-02  0.1184000E+00
        -11   -1    0    0    0    0  0.00000000000E+00  0.00000000000E+00  0.45593999997E+02  0.45594000000E+02  0.51100000000E-03 0.  1.
         11   -1    0    0    0    0 -0.00000000000E+00 -0.00000000000E+00 -0.45593999997E+02  0.45594000000E+02  0.51100000000E-03 0. -1.
         23    2    1    2    0    0  0.00000000000E+00 -0.33306690739E-15 -0.35527136788E-14  0.91188000000E+02  0.91188000000E+02 0.  0.
    9900012    2    3    3    0    0  0.20410108403E+02 -0.15526829013E+00  0.30646091914E+02  0.54367087696E+02  0.40000008021E+02 0.  0.
         12    1    3    3    0    0 -0.20410108403E+02  0.15526829013E+00 -0.30646091914E+02  0.36820912304E+02  0.00000000000E+00 0. -1.
         11    1    4    4    0    0  0.10477823926E+00  0.11824697838E+02  0.14863031919E+02  0.18993266584E+02  0.51100000000E-03 0. -1.
        -11    1    4    4    0    0  0.13182779817E+02 -0.10164706387E+02 -0.13794499242E+01  0.16703587099E+02  0.51100000000E-03 0.  1.
        -12    1    4    4    0    0  0.71225503475E+01 -0.18152597410E+01  0.17162509919E+02  0.18670234013E+02  0.00000000000E+00 0.  1.
</event>
<event>
 8    1  0.1229038E-006  0.9118800E+02  0.7816164E-02  0.1184000E+00
        -11   -1    0    0    0    0  0.00000000000E+00  0.00000000000E+00  0.45593999997E+02  0.45594000000E+02  0.51100000000E-03 0.  1.
         11   -1    0    0    0    0 -0.00000000000E+00 -0.00000000000E+00 -0.45593999997E+02  0.45594000000E+02  0.51100000000E-03 0. -1.
         23    2    1    2    0    0  0.00000000000E+00 -0.10658141036E-13  0.00000000000E+00  0.91188000000E+02  0.91188000000E+02 0.  0.
    9900012    2    3    3    0    0  0.22740773186E+02  0.26727625409E+02  0.11147707065E+02  0.54367080702E+02  0.39999992076E+02 0.  0.
         12    1    3    3    0    0 -0.22740773186E+02 -0.26727625409E+02 -0.11147707065E+02  0.36820919298E+02  0.00000000000E+00 0. -1.
         11    1    4    4    0    0  0.13965022671E+02  0.19707296225E+01 -0.97484006013E+01  0.17144589467E+02  0.51100000000E-03 0. -1.
        -11    1    4    4    0    0  0.44305530957E+01  0.21495832749E+02  0.82292621078E+01  0.23439739363E+02  0.51100000000E-03 0.  1.
         12    1    4    4    0    0  0.43451974202E+01  0.32610630381E+01  0.12666845559E+02  0.13782751872E+02  0.00000000000E+00 0. -1.
</event>
<event>
 8    1  0.1229038E-006  0.9118800E+02  0.7816164E-02  0.1184000E+00
        -11   -1    0    0    0    0  0.00000000000E+00  0.00000000000E+00  0.45593999997E+02  0.45594000000E+02  0.51100000000E-03 0.  1.
         11   -1    0    0    0    0 -0.00000000000E+00 -0.00000000000E+00 -0.45593999997E+02  0.45594000000E+02  0.51100000000E-03 0. -1.
         23    2    1    2    0    0  0.00000000000E+00  0.00000000000E+00 -0.17763568394E-14  0.91188000000E+02  0.91188000000E+02 0.  0.
    9900012    2    3    3    0    0  0.12450129580E+02 -0.31928682965E+02  0.13466004523E+02  0.54367084745E+02  0.40000001293E+02 0.  0.
         12    1    3    3    0    0 -0.12450129580E+02  0.31928682965E+02 -0.13466004523E+02  0.36820915255E+02  0.00000000000E+00 0. -1.
         11    1    4    4    0    0  0.10161326445E+02  0.70816248437E+00  0.12071572392E+00  0.10186688459E+02  0.51100000000E-03 0. -1.
        -11    1    4    4    0    0  0.32676216543E+01 -0.23112369607E+01  0.13247424421E+02  0.13838837437E+02  0.51100000000E-03 0.  1.
         12    1    4    4    0    0 -0.97881851896E+00 -0.30325608489E+02  0.97864377705E-01  0.30341558848E+02  0.00000000000E+00 0. -1.
</event>
<event>
 8    1  0.1229038E-006  0.9118800E+02  0.7816164E-02  0.1184000E+00
        -11   -1    0    0    0    0  0.00000000000E+00  0.00000000000E+00  0.45593999997E+02  0.45594000000E+02  0.51100000000E-03 0. -1.
         11   -1    0    0    0    0 -0.00000000000E+00 -0.00000000000E+00 -0.45593999997E+02  0.45594000000E+02  0.51100000000E-03 0.  1.
         23    2    1    2    0    0  0.00000000000E+00  0.00000000000E+00 -0.17763568394E-14  0.91188000000E+02  0.91188000000E+02 0.  0.
    9900012    2    3    3    0    0 -0.10324808839E+02 -0.33877591694E+02 -0.10074086698E+02  0.54367080411E+02  0.39999991414E+02 0.  0.
        -12    1    3    3    0    0  0.10324808839E+02  0.33877591694E+02  0.10074086698E+02  0.36820919589E+02  0.00000000000E+00 0.  1.
         11    1    4    4    0    0 -0.67328442893E+01 -0.17301285529E+02 -0.93862932380E+01  0.20803080882E+02  0.51100000000E-03 0. -1.
        -11    1    4    4    0    0  0.61651549502E+01  0.22588054060E+00  0.97274043672E+01  0.11518791324E+02  0.51100000000E-03 0.  1.
        -12    1    4    4    0    0 -0.97571194995E+01 -0.16802186706E+02 -0.10415197828E+02  0.22045208206E+02  0.00000000000E+00 0.  1.
</event>
<event>
 8    1  0.1229038E-006  0.9118800E+02  0.7816164E-02  0.1184000E+00
        -11   -1    0    0    0    0  0.00000000000E+00  0.00000000000E+00  0.45593999997E+02  0.45594000000E+02  0.51100000000E-03 0. -1.
         11   -1    0    0    0    0 -0.00000000000E+00 -0.00000000000E+00 -0.45593999997E+02  0.45594000000E+02  0.51100000000E-03 0.  1.
         23    2    1    2    0    0  0.00000000000E+00  0.17763568394E-14  0.00000000000E+00  0.91188000000E+02  0.91188000000E+02 0.  0.
    9900012    2    3    3    0    0  0.25071443947E+02  0.85998368213E+01  0.25558656014E+02  0.54367090285E+02  0.40000013924E+02 0.  0.
        -12    1    3    3    0    0 -0.25071443947E+02 -0.85998368213E+01 -0.25558656014E+02  0.36820909715E+02  0.00000000000E+00 0.  1.
         11    1    4    4    0    0  0.65273011240E+01  0.22713788346E+00  0.70410098235E+01  0.96038050364E+01  0.51100000000E-03 0. -1.
        -11    1    4    4    0    0  0.26476901373E+01 -0.71270542635E+01  0.21084251408E+02  0.22413184139E+02  0.51100000000E-03 0.  1.
        -12    1    4    4    0    0  0.15896452686E+02  0.15499753201E+02 -0.25666052174E+01  0.22350101110E+02  0.00000000000E+00 0.  1.
</event>
<event>
 8    1  0.1229038E-006  0.9118800E+02  0.7816164E-02  0.1184000E+00
        -11   -1    0    0    0    0  0.00000000000E+00  0.00000000000E+00  0.45593999997E+02  0.45594000000E+02  0.51100000000E-03 0. -1.
         11   -1    0    0    0    0 -0.00000000000E+00 -0.00000000000E+00 -0.45593999997E+02  0.45594000000E+02  0.51100000000E-03 0.  1.
         23    2    1    2    0    0  0.00000000000E+00  0.17763568394E-14  0.00000000000E+00  0.91188000000E+02  0.91188000000E+02 0.  0.
    9900012    2    3    3    0    0  0.32862140153E+02 -0.20070342561E+00 -0.16607810360E+02  0.54367083359E+02  0.39999998134E+02 0.  0.
         12    1    3    3    0    0 -0.32862140153E+02  0.20070342561E+00  0.16607810360E+02  0.36820916641E+02  0.00000000000E+00 0. -1.
         11    1    4    4    0    0  0.10871419795E+02  0.10496892984E+02  0.51859039819E+01  0.15977050136E+02  0.51100000000E-03 0. -1.
        -11    1    4    4    0    0  0.18209631286E+02 -0.10992808720E+02 -0.59333309036E+01  0.22082502824E+02  0.51100000000E-03 0.  1.
         12    1    4    4    0    0  0.37810890725E+01  0.29521231011E+00 -0.15860383438E+02  0.16307530398E+02  0.00000000000E+00 0. -1.
</event>
<event>
 8    1  0.1229038E-006  0.9118800E+02  0.7816164E-02  0.1184000E+00
        -11   -1    0    0    0    0  0.00000000000E+00  0.00000000000E+00  0.45593999997E+02  0.45594000000E+02  0.51100000000E-03 0. -1.
         11   -1    0    0    0    0 -0.00000000000E+00 -0.00000000000E+00 -0.45593999997E+02  0.45594000000E+02  0.51100000000E-03 0.  1.
         23    2    1    2    0    0  0.00000000000E+00  0.00000000000E+00  0.00000000000E+00  0.91188000000E+02  0.91188000000E+02 0.  0.
    9900012    2    3    3    0    0  0.16392382069E+02 -0.23647469764E+01  0.32885825721E+02  0.54367085407E+02  0.40000002802E+02 0.  0.
        -12    1    3    3    0    0 -0.16392382069E+02  0.23647469764E+01 -0.32885825721E+02  0.36820914593E+02  0.00000000000E+00 0.  1.
         11    1    4    4    0    0 -0.30081956368E+01 -0.22487663610E+00  0.42042392936E+01  0.51744988926E+01  0.51100000000E-03 0. -1.
        -11    1    4    4    0    0 -0.85726610248E+01 -0.40468871698E+01  0.58282814917E+00  0.94977629853E+01  0.51100000000E-03 0.  1.
         12    1    4    4    0    0  0.27973238730E+02  0.19070168295E+01  0.28098758278E+02  0.39694823529E+02  0.00000000000E+00 0. -1.
</event>
<event>
 8    1  0.1229038E-006  0.9118800E+02  0.7816164E-02  0.1184000E+00
        -11   -1    0    0    0    0  0.00000000000E+00  0.00000000000E+00  0.45593999997E+02  0.45594000000E+02  0.51100000000E-03 0. -1.
         11   -1    0    0    0    0 -0.00000000000E+00 -0.00000000000E+00 -0.45593999997E+02  0.45594000000E+02  0.51100000000E-03 0.  1.
         23    2    1    2    0    0  0.88817841970E-15  0.00000000000E+00 -0.71054273576E-14  0.91188000000E+02  0.91188000000E+02 0.  0.
    9900012    2    3    3    0    0  0.69209991236E+01 -0.56145821975E+01 -0.35726125410E+02  0.54367084763E+02  0.40000001333E+02 0.  0.
         12    1    3    3    0    0 -0.69209991236E+01  0.56145821975E+01  0.35726125410E+02  0.36820915237E+02  0.00000000000E+00 0. -1.
         11    1    4    4    0    0  0.48942984233E+00 -0.25561736397E+01  0.44434504925E+01  0.51495453962E+01  0.51100000000E-03 0. -1.
        -11    1    4    4    0    0  0.27597812391E+01 -0.39826848697E+00  0.39668632374E+01  0.48488157813E+01  0.51100000000E-03 0.  1.
        -12    1    4    4    0    0  0.36717880422E+01 -0.26601400708E+01 -0.44136439140E+02  0.44368723585E+02  0.00000000000E+00 0.  1.
</event>
<event>
 8    1  0.1229038E-006  0.9118800E+02  0.7816164E-02  0.1184000E+00
        -11   -1    0    0    0    0  0.00000000000E+00  0.00000000000E+00  0.45593999997E+02  0.45594000000E+02  0.51100000000E-03 0.  1.
         11   -1    0    0    0    0 -0.00000000000E+00 -0.00000000000E+00 -0.45593999997E+02  0.45594000000E+02  0.51100000000E-03 0. -1.
         23    2    1    2    0    0  0.35527136788E-14  0.00000000000E+00  0.35527136788E-14  0.91188000000E+02  0.91188000000E+02 0.  0.
    9900012    2    3    3    0    0  0.14857088631E+02 -0.25781447447E+02  0.21687862959E+02  0.54367088621E+02  0.40000010130E+02 0.  0.
         12    1    3    3    0    0 -0.14857088631E+02  0.25781447447E+02 -0.21687862959E+02  0.36820911379E+02  0.00000000000E+00 0. -1.
         11    1    4    4    0    0  0.12762555325E+01  0.19306120518E+01 -0.14727227716E+00  0.23190041965E+01  0.51100000000E-03 0. -1.
        -11    1    4    4    0    0 -0.64037156200E+01 -0.38933431712E+01  0.19474288737E+02  0.20866566964E+02  0.51100000000E-03 0.  1.
        -12    1    4    4    0    0  0.19984548718E+02 -0.23818716327E+02  0.23608464986E+01  0.31181517461E+02  0.00000000000E+00 0.  1.
</event>
<event>
 8    1  0.1229038E-006  0.9118800E+02  0.7816164E-02  0.1184000E+00
        -11   -1    0    0    0    0  0.00000000000E+00  0.00000000000E+00  0.45593999997E+02  0.45594000000E+02  0.51100000000E-03 0.  1.
         11   -1    0    0    0    0 -0.00000000000E+00 -0.00000000000E+00 -0.45593999997E+02  0.45594000000E+02  0.51100000000E-03 0. -1.
         23    2    1    2    0    0  0.00000000000E+00  0.00000000000E+00 -0.35527136788E-14  0.91188000000E+02  0.91188000000E+02 0.  0.
    9900012    2    3    3    0    0 -0.20637534904E+02  0.18081526848E+02  0.24554643812E+02  0.54367082130E+02  0.39999995331E+02 0.  0.
         12    1    3    3    0    0  0.20637534904E+02 -0.18081526848E+02 -0.24554643812E+02  0.36820917870E+02  0.00000000000E+00 0. -1.
         11    1    4    4    0    0 -0.66155846652E+01 -0.32429373528E+00 -0.67550105800E+01  0.94605124113E+01  0.51100000000E-03 0. -1.
        -11    1    4    4    0    0 -0.19119925732E+02  0.84011125280E+01  0.21836568282E+02  0.30215657635E+02  0.51100000000E-03 0.  1.
        -12    1    4    4    0    0  0.50979754930E+01  0.10004708056E+02  0.94730861094E+01  0.14690912083E+02  0.00000000000E+00 0.  1.
</event>
<event>
 8    1  0.1229038E-006  0.9118800E+02  0.7816164E-02  0.1184000E+00
        -11   -1    0    0    0    0  0.00000000000E+00  0.00000000000E+00  0.45593999997E+02  0.45594000000E+02  0.51100000000E-03 0.  1.
         11   -1    0    0    0    0 -0.00000000000E+00 -0.00000000000E+00 -0.45593999997E+02  0.45594000000E+02  0.51100000000E-03 0. -1.
         23    2    1    2    0    0  0.35527136788E-14  0.17763568394E-14  0.00000000000E+00  0.91188000000E+02  0.91188000000E+02 0.  0.
    9900012    2    3    3    0    0 -0.31982515439E+02 -0.54463953645E+01 -0.17413718813E+02  0.54367053255E+02  0.39999929505E+02 0.  0.
        -12    1    3    3    0    0  0.31982515439E+02  0.54463953645E+01  0.17413718813E+02  0.36820946745E+02  0.00000000000E+00 0.  1.
         11    1    4    4    0    0 -0.26114655046E+02  0.11040016305E+01 -0.14134152515E+02  0.29714782438E+02  0.51100000000E-03 0. -1.
        -11    1    4    4    0    0  0.15274809175E+01  0.45917251070E+01 -0.89123612002E+01  0.10141366764E+02  0.51100000000E-03 0.  1.
        -12    1    4    4    0    0 -0.73953413113E+01 -0.11142122102E+02  0.56327949020E+01  0.14510904054E+02  0.00000000000E+00 0.  1.
</event>
<event>
 8    1  0.1229038E-006  0.9118800E+02  0.7816164E-02  0.1184000E+00
        -11   -1    0    0    0    0  0.00000000000E+00  0.00000000000E+00  0.45593999997E+02  0.45594000000E+02  0.51100000000E-03 0. -1.
         11   -1    0    0    0    0 -0.00000000000E+00 -0.00000000000E+00 -0.45593999997E+02  0.45594000000E+02  0.51100000000E-03 0.  1.
         23    2    1    2    0    0  0.44408920985E-15  0.71054273576E-14  0.71054273576E-14  0.91188000000E+02  0.91188000000E+02 0.  0.
    9900012    2    3    3    0    0  0.34746242722E+01 -0.25568928669E+02 -0.26266612382E+02  0.54367108469E+02  0.40000055377E+02 0.  0.
         12    1    3    3    0    0 -0.34746242722E+01  0.25568928669E+02  0.26266612382E+02  0.36820891531E+02  0.00000000000E+00 0. -1.
         11    1    4    4    0    0  0.10423596587E+02 -0.72557270652E+01  0.72236791345E+01  0.14610902832E+02  0.51100000000E-03 0. -1.
        -11    1    4    4    0    0  0.18612275728E+01 -0.42785326185E+01 -0.53442489544E+01  0.70944349030E+01  0.51100000000E-03 0.  1.
         12    1    4    4    0    0 -0.88101998879E+01 -0.14034668985E+02 -0.28146042562E+02  0.32661770734E+02  0.00000000000E+00 0. -1.
</event>
<event>
 8    1  0.1229038E-006  0.9118800E+02  0.7816164E-02  0.1184000E+00
        -11   -1    0    0    0    0  0.00000000000E+00  0.00000000000E+00  0.45593999997E+02  0.45594000000E+02  0.51100000000E-03 0. -1.
         11   -1    0    0    0    0 -0.00000000000E+00 -0.00000000000E+00 -0.45593999997E+02  0.45594000000E+02  0.51100000000E-03 0.  1.
         23    2    1    2    0    0  0.00000000000E+00 -0.35527136788E-14 -0.35527136788E-14  0.91188000000E+02  0.91188000000E+02 0.  0.
    9900012    2    3    3    0    0  0.14647684465E+02 -0.20743806804E+02  0.26663075791E+02  0.54367084862E+02  0.40000001560E+02 0.  0.
        -12    1    3    3    0    0 -0.14647684465E+02  0.20743806804E+02 -0.26663075791E+02  0.36820915138E+02  0.00000000000E+00 0.  1.
         11    1    4    4    0    0 -0.85350380767E+00 -0.18253844174E+02 -0.24467176061E+01  0.18436857736E+02  0.51100000000E-03 0. -1.
        -11    1    4    4    0    0  0.24900552948E+01  0.23811489012E+01 -0.24472627303E+00  0.34540029923E+01  0.51100000000E-03 0.  1.
         12    1    4    4    0    0  0.13011132978E+02 -0.48711115320E+01  0.29354519670E+02  0.32476224134E+02  0.00000000000E+00 0. -1.
</event>
<event>
 8    1  0.1229038E-006  0.9118800E+02  0.7816164E-02  0.1184000E+00
        -11   -1    0    0    0    0  0.00000000000E+00  0.00000000000E+00  0.45593999997E+02  0.45594000000E+02  0.51100000000E-03 0. -1.
         11   -1    0    0    0    0 -0.00000000000E+00 -0.00000000000E+00 -0.45593999997E+02  0.45594000000E+02  0.51100000000E-03 0.  1.
         23    2    1    2    0    0 -0.17763568394E-14  0.00000000000E+00 -0.17763568394E-14  0.91188000000E+02  0.91188000000E+02 0.  0.
    9900012    2    3    3    0    0 -0.99836981351E+01 -0.34198241674E+02  0.93051271744E+01  0.54367090807E+02  0.40000015113E+02 0.  0.
        -12    1    3    3    0    0  0.99836981351E+01  0.34198241674E+02 -0.93051271744E+01  0.36820909193E+02  0.00000000000E+00 0.  1.
         11    1    4    4    0    0 -0.37350629243E+01 -0.10890561338E+02 -0.81033230924E+01  0.14079022221E+02  0.51100000000E-03 0. -1.
        -11    1    4    4    0    0  0.10075260149E+02 -0.36045224343E+01  0.42240279569E+01  0.11504167136E+02  0.51100000000E-03 0.  1.
         12    1    4    4    0    0 -0.16323895360E+02 -0.19703157902E+02  0.13184422310E+02  0.28783901450E+02  0.00000000000E+00 0. -1.
</event>
<event>
 8    1  0.1229038E-006  0.9118800E+02  0.7816164E-02  0.1184000E+00
        -11   -1    0    0    0    0  0.00000000000E+00  0.00000000000E+00  0.45593999997E+02  0.45594000000E+02  0.51100000000E-03 0. -1.
         11   -1    0    0    0    0 -0.00000000000E+00 -0.00000000000E+00 -0.45593999997E+02  0.45594000000E+02  0.51100000000E-03 0.  1.
         23    2    1    2    0    0 -0.71054273576E-14  0.00000000000E+00 -0.22204460493E-15  0.91188000000E+02  0.91188000000E+02 0.  0.
    9900012    2    3    3    0    0 -0.32796300358E+02 -0.16707567001E+02 -0.10198006297E+01  0.54367080598E+02  0.39999991838E+02 0.  0.
        -12    1    3    3    0    0  0.32796300358E+02  0.16707567001E+02  0.10198006297E+01  0.36820919402E+02  0.00000000000E+00 0.  1.
         11    1    4    4    0    0 -0.32780708475E+02  0.88231378596E+00  0.31374141989E+01  0.32942323747E+02  0.51100000000E-03 0. -1.
        -11    1    4    4    0    0 -0.33319467695E+01 -0.10035380081E+02 -0.70196023615E+01  0.12691947850E+02  0.51100000000E-03 0.  1.
        -12    1    4    4    0    0  0.33163548862E+01 -0.75545007062E+01  0.28623875329E+01  0.87328090005E+01  0.00000000000E+00 0.  1.
</event>
<event>
 8    1  0.1229038E-006  0.9118800E+02  0.7816164E-02  0.1184000E+00
        -11   -1    0    0    0    0  0.00000000000E+00  0.00000000000E+00  0.45593999997E+02  0.45594000000E+02  0.51100000000E-03 0.  1.
         11   -1    0    0    0    0 -0.00000000000E+00 -0.00000000000E+00 -0.45593999997E+02  0.45594000000E+02  0.51100000000E-03 0. -1.
         23    2    1    2    0    0  0.00000000000E+00  0.88817841970E-15  0.88817841970E-15  0.91188000000E+02  0.91188000000E+02 0.  0.
    9900012    2    3    3    0    0  0.36518304600E+02 -0.20756066147E+01  0.42291537263E+01  0.54367075855E+02  0.39999981026E+02 0.  0.
        -12    1    3    3    0    0 -0.36518304600E+02  0.20756066147E+01 -0.42291537263E+01  0.36820924145E+02  0.00000000000E+00 0.  1.
         11    1    4    4    0    0  0.55589444751E+01  0.18727235451E+01 -0.96434398796E+01  0.11287377469E+02  0.51100000000E-03 0. -1.
        -11    1    4    4    0    0  0.12164708286E+02 -0.96628468292E+01  0.17176120502E+02  0.23159660021E+02  0.51100000000E-03 0.  1.
        -12    1    4    4    0    0  0.18794651839E+02  0.57145166694E+01 -0.33035268958E+01  0.19920038365E+02  0.00000000000E+00 0.  1.
</event>
<event>
 8    1  0.1229038E-006  0.9118800E+02  0.7816164E-02  0.1184000E+00
        -11   -1    0    0    0    0  0.00000000000E+00  0.00000000000E+00  0.45593999997E+02  0.45594000000E+02  0.51100000000E-03 0.  1.
         11   -1    0    0    0    0 -0.00000000000E+00 -0.00000000000E+00 -0.45593999997E+02  0.45594000000E+02  0.51100000000E-03 0. -1.
         23    2    1    2    0    0 -0.17763568394E-14  0.66613381478E-15  0.00000000000E+00  0.91188000000E+02  0.91188000000E+02 0.  0.
    9900012    2    3    3    0    0  0.12126934912E+02  0.18096131785E+01 -0.34719480610E+02  0.54367087680E+02  0.40000007985E+02 0.  0.
        -12    1    3    3    0    0 -0.12126934912E+02 -0.18096131785E+01  0.34719480610E+02  0.36820912320E+02  0.00000000000E+00 0.  1.
         11    1    4    4    0    0  0.38216755854E+01 -0.12903856777E+02 -0.16584971409E+02  0.21358277105E+02  0.51100000000E-03 0. -1.
        -11    1    4    4    0    0  0.36456393351E+01  0.36087254813E+01  0.48506531913E+01  0.70599166004E+01  0.51100000000E-03 0.  1.
        -12    1    4    4    0    0  0.46596199914E+01  0.11104744474E+02 -0.22985162392E+02  0.25948893974E+02  0.00000000000E+00 0.  1.
</event>
<event>
 8    1  0.1229038E-006  0.9118800E+02  0.7816164E-02  0.1184000E+00
        -11   -1    0    0    0    0  0.00000000000E+00  0.00000000000E+00  0.45593999997E+02  0.45594000000E+02  0.51100000000E-03 0.  1.
         11   -1    0    0    0    0 -0.00000000000E+00 -0.00000000000E+00 -0.45593999997E+02  0.45594000000E+02  0.51100000000E-03 0. -1.
         23    2    1    2    0    0  0.00000000000E+00 -0.71054273576E-14 -0.44408920985E-15  0.91188000000E+02  0.91188000000E+02 0.  0.
    9900012    2    3    3    0    0  0.12203191968E+02 -0.34608161768E+02 -0.30226777999E+01  0.54367091045E+02  0.40000015656E+02 0.  0.
        -12    1    3    3    0    0 -0.12203191968E+02  0.34608161768E+02  0.30226777999E+01  0.36820908955E+02  0.00000000000E+00 0.  1.
         11    1    4    4    0    0  0.16615220000E+02 -0.22951933312E+02 -0.15011669969E+02  0.32065667215E+02  0.51100000000E-03 0. -1.
        -11    1    4    4    0    0 -0.27385686849E+01 -0.12167286840E+02  0.25859226248E+01  0.12736939333E+02  0.51100000000E-03 0.  1.
        -12    1    4    4    0    0 -0.16734593468E+01  0.51105838374E+00  0.94030695441E+01  0.95644844978E+01  0.00000000000E+00 0.  1.
</event>
<event>
 8    1  0.1229038E-006  0.9118800E+02  0.7816164E-02  0.1184000E+00
        -11   -1    0    0    0    0  0.00000000000E+00  0.00000000000E+00  0.45593999997E+02  0.45594000000E+02  0.51100000000E-03 0.  1.
         11   -1    0    0    0    0 -0.00000000000E+00 -0.00000000000E+00 -0.45593999997E+02  0.45594000000E+02  0.51100000000E-03 0. -1.
         23    2    1    2    0    0  0.35527136788E-14 -0.17763568394E-14  0.00000000000E+00  0.91188000000E+02  0.91188000000E+02 0.  0.
    9900012    2    3    3    0    0  0.27881296272E+02  0.10189444952E+02  0.21785065169E+02  0.54367074772E+02  0.39999978557E+02 0.  0.
         12    1    3    3    0    0 -0.27881296272E+02 -0.10189444952E+02 -0.21785065169E+02  0.36820925228E+02  0.00000000000E+00 0. -1.
         11    1    4    4    0    0  0.48067514983E+01  0.17710000884E+02  0.61909704636E+01  0.19366907518E+02  0.51100000000E-03 0. -1.
        -11    1    4    4    0    0  0.11389078690E+02 -0.13731276264E+02  0.11163412590E+02  0.21044734309E+02  0.51100000000E-03 0.  1.
        -12    1    4    4    0    0  0.11685466084E+02  0.62107203326E+01  0.44306821159E+01  0.13955432944E+02  0.00000000000E+00 0.  1.
</event>
<event>
 8    1  0.1229038E-006  0.9118800E+02  0.7816164E-02  0.1184000E+00
        -11   -1    0    0    0    0  0.00000000000E+00  0.00000000000E+00  0.45593999997E+02  0.45594000000E+02  0.51100000000E-03 0.  1.
         11   -1    0    0    0    0 -0.00000000000E+00 -0.00000000000E+00 -0.45593999997E+02  0.45594000000E+02  0.51100000000E-03 0. -1.
         23    2    1    2    0    0  0.00000000000E+00  0.00000000000E+00  0.00000000000E+00  0.91188000000E+02  0.91188000000E+02 0.  0.
    9900012    2    3    3    0    0  0.32410360476E+02 -0.17387772625E+02 -0.17359364788E+01  0.54367087756E+02  0.40000008157E+02 0.  0.
        -12    1    3    3    0    0 -0.32410360476E+02  0.17387772625E+02  0.17359364788E+01  0.36820912244E+02  0.00000000000E+00 0.  1.
         11    1    4    4    0    0  0.21404866414E+02 -0.24860035388E+02  0.15327552756E+01  0.32841117592E+02  0.51100000000E-03 0. -1.
        -11    1    4    4    0    0  0.19151041618E+01  0.96210682360E+01  0.30214667996E+01  0.10264591557E+02  0.51100000000E-03 0.  1.
        -12    1    4    4    0    0  0.90903898993E+01 -0.21488054731E+01 -0.62901585540E+01  0.11261378606E+02  0.00000000000E+00 0.  1.
</event>
<event>
 8    1  0.1229038E-006  0.9118800E+02  0.7816164E-02  0.1184000E+00
        -11   -1    0    0    0    0  0.00000000000E+00  0.00000000000E+00  0.45593999997E+02  0.45594000000E+02  0.51100000000E-03 0. -1.
         11   -1    0    0    0    0 -0.00000000000E+00 -0.00000000000E+00 -0.45593999997E+02  0.45594000000E+02  0.51100000000E-03 0.  1.
         23    2    1    2    0    0  0.00000000000E+00  0.00000000000E+00 -0.35527136788E-14  0.91188000000E+02  0.91188000000E+02 0.  0.
    9900012    2    3    3    0    0 -0.30731558002E+02 -0.10424611551E+02  0.17397659778E+02  0.54367085441E+02  0.40000002879E+02 0.  0.
        -12    1    3    3    0    0  0.30731558002E+02  0.10424611551E+02 -0.17397659778E+02  0.36820914559E+02  0.00000000000E+00 0.  1.
         11    1    4    4    0    0 -0.16774822542E+02 -0.12317023271E+02  0.16931275097E+01  0.20879904564E+02  0.51100000000E-03 0. -1.
        -11    1    4    4    0    0 -0.40305742635E+01  0.46684295597E+01 -0.65285351841E+01  0.89811767246E+01  0.51100000000E-03 0.  1.
        -12    1    4    4    0    0 -0.99261611972E+01 -0.27760178396E+01  0.22233067452E+02  0.24506004152E+02  0.00000000000E+00 0.  1.
</event>
<event>
 8    1  0.1229038E-006  0.9118800E+02  0.7816164E-02  0.1184000E+00
        -11   -1    0    0    0    0  0.00000000000E+00  0.00000000000E+00  0.45593999997E+02  0.45594000000E+02  0.51100000000E-03 0.  1.
         11   -1    0    0    0    0 -0.00000000000E+00 -0.00000000000E+00 -0.45593999997E+02  0.45594000000E+02  0.51100000000E-03 0. -1.
         23    2    1    2    0    0 -0.35527136788E-14  0.71054273576E-14  0.88817841970E-15  0.91188000000E+02  0.91188000000E+02 0.  0.
    9900012    2    3    3    0    0 -0.86816323958E+01  0.35487077609E+02 -0.45909408280E+01  0.54367079914E+02  0.39999990281E+02 0.  0.
        -12    1    3    3    0    0  0.86816323958E+01 -0.35487077609E+02  0.45909408280E+01  0.36820920086E+02  0.00000000000E+00 0.  1.
         11    1    4    4    0    0  0.11760648769E+02  0.62664473754E+01 -0.53192791202E+01  0.14348378054E+02  0.51100000000E-03 0. -1.
        -11    1    4    4    0    0 -0.28640245867E+01  0.57113097303E+01  0.75413376504E+01  0.98840006823E+01  0.51100000000E-03 0.  1.
         12    1    4    4    0    0 -0.17578256578E+02  0.23509320503E+02 -0.68129993582E+01  0.30134701178E+02  0.00000000000E+00 0. -1.
</event>
