<event>
 4    1  0.4056666E+000  0.1746576E+03  0.7546771E-02  0.1173076E+00
         21   -1    0    0  503  502  0.00000000000E+00  0.00000000000E+00  0.11543244157E+03  0.11543244157E+03  0.00000000000E+00 0.  1.
         21   -1    0    0  501  503 -0.00000000000E+00 -0.00000000000E+00 -0.33198294847E+03  0.33198294847E+03  0.00000000000E+00 0.  1.
          6    1    1    2  501    0 -0.23983157456E+02  0.10383994373E+01 -0.20930763664E+03  0.27260769775E+03  0.17300000000E+03 0.  1.
         -6    1    1    2    0  502  0.23983157456E+02 -0.10383994373E+01 -0.72428702521E+01  0.17480769229E+03  0.17300000000E+03 0.  1.
<mgrwt>
<rscale>  2 0.17465758E+03</rscale>
<asrwt>0</asrwt>
<pdfrwt beam="1">  1       21 0.17758837E-01 0.17465758E+03</pdfrwt>
<pdfrwt beam="2">  1       21 0.51074300E-01 0.17465758E+03</pdfrwt>
<totfact> 0.10562957E+05</totfact>
</mgrwt>
</event>
<event>
 4    1  0.4056666E+000  0.2142710E+03  0.7546771E-02  0.1138228E+00
         21   -1    0    0  501  502  0.00000000000E+00  0.00000000000E+00  0.20440031738E+03  0.20440031738E+03  0.00000000000E+00 0. -1.
         21   -1    0    0  502  503 -0.00000000000E+00 -0.00000000000E+00 -0.22575426028E+03  0.22575426028E+03  0.00000000000E+00 0. -1.
          6    1    1    2  501    0 -0.11017862325E+03 -0.61997866043E+02  0.45792280298E+01  0.21431993315E+03  0.17300000000E+03 0. -1.
         -6    1    1    2    0  503  0.11017862325E+03  0.61997866043E+02 -0.25933170932E+02  0.21583464451E+03  0.17300000000E+03 0. -1.
<mgrwt>
<rscale>  2 0.21427101E+03</rscale>
<asrwt>0</asrwt>
<pdfrwt beam="1">  1       21 0.31446203E-01 0.21427101E+03</pdfrwt>
<pdfrwt beam="2">  1       21 0.34731425E-01 0.21427101E+03</pdfrwt>
<totfact> 0.76950482E+04</totfact>
</mgrwt>
</event>
<event>
 4    1  0.4056666E+000  0.1752832E+03  0.7546771E-02  0.1172448E+00
         21   -1    0    0  501  502  0.00000000000E+00  0.00000000000E+00  0.13732403419E+04  0.13732403419E+04  0.00000000000E+00 0.  1.
         21   -1    0    0  502  503 -0.00000000000E+00 -0.00000000000E+00 -0.25895715343E+02  0.25895715343E+02  0.00000000000E+00 0.  1.
          6    1    1    2  501    0  0.28174578973E+02 -0.11737371822E+01  0.93167505366E+03  0.94802035325E+03  0.17300000000E+03 0.  1.
         -6    1    1    2    0  503 -0.28174578973E+02  0.11737371822E+01  0.41566957289E+03  0.45111570399E+03  0.17300000000E+03 0.  1.
<mgrwt>
<rscale>  2 0.17528316E+03</rscale>
<asrwt>0</asrwt>
<pdfrwt beam="1">  1       21 0.21126769E+00 0.17528316E+03</pdfrwt>
<pdfrwt beam="2">  1       21 0.39839573E-02 0.17528316E+03</pdfrwt>
<totfact> 0.45502341E+04</totfact>
</mgrwt>
</event>
<event>
 4    1  0.4056666E+000  0.3449682E+03  0.7546771E-02  0.1064699E+00
         21   -1    0    0  501  502  0.00000000000E+00  0.00000000000E+00  0.54184967391E+03  0.54184967391E+03  0.00000000000E+00 0.  1.
         21   -1    0    0  502  503 -0.00000000000E+00 -0.00000000000E+00 -0.28743437492E+03  0.28743437492E+03  0.00000000000E+00 0.  1.
          6    1    1    2  501    0  0.24161945597E+03  0.17519735821E+03  0.32860452456E+03  0.47642838852E+03  0.17300000000E+03 0.  1.
         -6    1    1    2    0  503 -0.24161945597E+03 -0.17519735821E+03 -0.74189225570E+02  0.35285566031E+03  0.17300000000E+03 0.  1.
<mgrwt>
<rscale>  2 0.34496822E+03</rscale>
<asrwt>0</asrwt>
<pdfrwt beam="1">  1       21 0.83361488E-01 0.34496822E+03</pdfrwt>
<pdfrwt beam="2">  1       21 0.44220673E-01 0.34496822E+03</pdfrwt>
<totfact> 0.56364228E+03</totfact>
</mgrwt>
</event>
<event>
 4    1  0.4056666E+000  0.1948396E+03  0.7546771E-02  0.1154167E+00
         21   -1    0    0  503  502  0.00000000000E+00  0.00000000000E+00  0.67912292847E+02  0.67912292847E+02  0.00000000000E+00 0.  1.
         21   -1    0    0  501  503 -0.00000000000E+00 -0.00000000000E+00 -0.11161185122E+04  0.11161185122E+04  0.00000000000E+00 0.  1.
          6    1    1    2  501    0  0.46431110834E+02 -0.76665754458E+02 -0.94237091042E+03  0.96230214526E+03  0.17300000000E+03 0.  1.
         -6    1    1    2    0  502 -0.46431110834E+02  0.76665754458E+02 -0.10583530895E+03  0.22172865981E+03  0.17300000000E+03 0.  1.
<mgrwt>
<rscale>  2 0.19483964E+03</rscale>
<asrwt>0</asrwt>
<pdfrwt beam="1">  1       21 0.10448044E-01 0.19483964E+03</pdfrwt>
<pdfrwt beam="2">  1       21 0.17171055E+00 0.19483964E+03</pdfrwt>
<totfact> 0.15561869E+04</totfact>
</mgrwt>
</event>
<event>
 4    1  0.4056666E+000  0.2697086E+03  0.7546771E-02  0.1101447E+00
         21   -1    0    0  503  502  0.00000000000E+00  0.00000000000E+00  0.11519533714E+03  0.11519533714E+03  0.00000000000E+00 0. -1.
         21   -1    0    0  501  503 -0.00000000000E+00 -0.00000000000E+00 -0.16101360579E+04  0.16101360579E+04  0.00000000000E+00 0.  1.
          6    1    1    2  501    0  0.11122825157E+03 -0.17447631425E+03 -0.14200255221E+04  0.14454117724E+04  0.17300000000E+03 0.  1.
         -6    1    1    2    0  502 -0.11122825157E+03  0.17447631425E+03 -0.74915198658E+02  0.27991962270E+03  0.17300000000E+03 0. -1.
<mgrwt>
<rscale>  2 0.26970856E+03</rscale>
<asrwt>0</asrwt>
<pdfrwt beam="1">  1       21 0.17722362E-01 0.26970856E+03</pdfrwt>
<pdfrwt beam="2">  1       21 0.24771321E+00 0.26970856E+03</pdfrwt>
<totfact> 0.18378105E+03</totfact>
</mgrwt>
</event>
<event>
 4    1  0.4056666E+000  0.1868238E+03  0.7546771E-02  0.1161358E+00
         21   -1    0    0  501  502  0.00000000000E+00  0.00000000000E+00  0.28744101823E+03  0.28744101823E+03  0.00000000000E+00 0.  1.
         21   -1    0    0  502  503 -0.00000000000E+00 -0.00000000000E+00 -0.13317611644E+03  0.13317611644E+03  0.00000000000E+00 0. -1.
          6    1    1    2  501    0  0.69633683557E+02 -0.11192756689E+02  0.13959858784E+03  0.23321855290E+03  0.17300000000E+03 0.  1.
         -6    1    1    2    0  503 -0.69633683557E+02  0.11192756689E+02  0.14666313943E+02  0.18739858178E+03  0.17300000000E+03 0. -1.
<mgrwt>
<rscale>  2 0.18682379E+03</rscale>
<asrwt>0</asrwt>
<pdfrwt beam="1">  1       21 0.44221695E-01 0.18682379E+03</pdfrwt>
<pdfrwt beam="2">  1       21 0.20488633E-01 0.18682379E+03</pdfrwt>
<totfact> 0.10859552E+05</totfact>
</mgrwt>
</event>
<event>
 4    1  0.4056666E+000  0.1734886E+03  0.7546771E-02  0.1174258E+00
         21   -1    0    0  501  502  0.00000000000E+00  0.00000000000E+00  0.18073682334E+04  0.18073682334E+04  0.00000000000E+00 0. -1.
         21   -1    0    0  502  503 -0.00000000000E+00 -0.00000000000E+00 -0.22184401567E+02  0.22184401567E+02  0.00000000000E+00 0. -1.
          6    1    1    2  501    0  0.57204809258E+01  0.11686915917E+02  0.13493688881E+04  0.13604759109E+04  0.17300000000E+03 0. -1.
         -6    1    1    2    0  503 -0.57204809258E+01 -0.11686915917E+02  0.43581494380E+03  0.46907672416E+03  0.17300000000E+03 0. -1.
<mgrwt>
<rscale>  2 0.17348864E+03</rscale>
<asrwt>0</asrwt>
<pdfrwt beam="1">  1       21 0.27805654E+00 0.17348864E+03</pdfrwt>
<pdfrwt beam="2">  1       21 0.34129863E-02 0.17348864E+03</pdfrwt>
<totfact> 0.23760137E+04</totfact>
</mgrwt>
</event>
<event>
 4    1  0.4056666E+000  0.2103807E+03  0.7546771E-02  0.1141265E+00
         21   -1    0    0  501  502  0.00000000000E+00  0.00000000000E+00  0.81319056833E+02  0.81319056833E+02  0.00000000000E+00 0.  1.
         21   -1    0    0  502  503 -0.00000000000E+00 -0.00000000000E+00 -0.58024446009E+03  0.58024446009E+03  0.00000000000E+00 0.  1.
          6    1    1    2  501    0  0.45755442117E+01  0.11962482934E+03 -0.16710671784E+03  0.26867208740E+03  0.17300000000E+03 0.  1.
         -6    1    1    2    0  503 -0.45755442117E+01 -0.11962482934E+03 -0.33181868542E+03  0.39289142953E+03  0.17300000000E+03 0.  1.
<mgrwt>
<rscale>  2 0.21038069E+03</rscale>
<asrwt>0</asrwt>
<pdfrwt beam="1">  1       21 0.12510625E-01 0.21038069E+03</pdfrwt>
<pdfrwt beam="2">  1       21 0.89268375E-01 0.21038069E+03</pdfrwt>
<totfact> 0.57807629E+04</totfact>
</mgrwt>
</event>
<event>
 4    1  0.4056666E+000  0.2299467E+03  0.7546771E-02  0.1126677E+00
         21   -1    0    0  503  502  0.00000000000E+00  0.00000000000E+00  0.17162595504E+03  0.17162595504E+03  0.00000000000E+00 0. -1.
         21   -1    0    0  501  503 -0.00000000000E+00 -0.00000000000E+00 -0.35544972201E+03  0.35544972201E+03  0.00000000000E+00 0. -1.
          6    1    1    2  501    0  0.25856793856E+01 -0.15145886090E+03 -0.18811275010E+03  0.29708900860E+03  0.17300000000E+03 0. -1.
         -6    1    1    2    0  502 -0.25856793856E+01  0.15145886090E+03  0.42889831230E+01  0.22998666844E+03  0.17300000000E+03 0. -1.
<mgrwt>
<rscale>  2 0.22994667E+03</rscale>
<asrwt>0</asrwt>
<pdfrwt beam="1">  1       21 0.26403993E-01 0.22994667E+03</pdfrwt>
<pdfrwt beam="2">  1       21 0.54684572E-01 0.22994667E+03</pdfrwt>
<totfact> 0.42301935E+04</totfact>
</mgrwt>
</event>
<event>
 4    1  0.4056666E+000  0.2456117E+03  0.7546771E-02  0.1116110E+00
         21   -1    0    0  503  502  0.00000000000E+00  0.00000000000E+00  0.61445116952E+02  0.61445116952E+02  0.00000000000E+00 0.  1.
         21   -1    0    0  501  503 -0.00000000000E+00 -0.00000000000E+00 -0.18737666609E+04  0.18737666609E+04  0.00000000000E+00 0.  1.
          6    1    1    2  501    0 -0.17434480458E+03  0.69618624256E-01 -0.15737691772E+04  0.15928196818E+04  0.17300000000E+03 0.  1.
         -6    1    1    2    0  502  0.17434480458E+03 -0.69618624256E-01 -0.23855236673E+03  0.34239209600E+03  0.17300000000E+03 0.  1.
<mgrwt>
<rscale>  2 0.24561172E+03</rscale>
<asrwt>0</asrwt>
<pdfrwt beam="1">  1       21 0.94530940E-02 0.24561172E+03</pdfrwt>
<pdfrwt beam="2">  1       21 0.28827182E+00 0.24561172E+03</pdfrwt>
<totfact> 0.33798967E+03</totfact>
</mgrwt>
</event>
<event>
 4    1  0.4056666E+000  0.1872964E+03  0.7546771E-02  0.1160923E+00
         21   -1    0    0  501  502  0.00000000000E+00  0.00000000000E+00  0.26549874351E+04  0.26549874351E+04  0.00000000000E+00 0. -1.
         21   -1    0    0  502  503 -0.00000000000E+00 -0.00000000000E+00 -0.61887509099E+02  0.61887509099E+02  0.00000000000E+00 0. -1.
          6    1    1    2  501    0  0.63727665107E+02  0.33011220031E+02  0.25012796209E+04  0.25082822205E+04  0.17300000000E+03 0. -1.
         -6    1    1    2    0  503 -0.63727665107E+02 -0.33011220031E+02  0.91820305158E+02  0.20859272372E+03  0.17300000000E+03 0. -1.
<mgrwt>
<rscale>  2 0.18729644E+03</rscale>
<asrwt>0</asrwt>
<pdfrwt beam="1">  1       21 0.40845952E+00 0.18729644E+03</pdfrwt>
<pdfrwt beam="2">  1       21 0.95211573E-02 0.18729644E+03</pdfrwt>
<totfact> 0.68851456E+02</totfact>
</mgrwt>
</event>
<event>
 4    1  0.4056666E+000  0.2244290E+03  0.7546771E-02  0.1130623E+00
         21   -1    0    0  501  502  0.00000000000E+00  0.00000000000E+00  0.16140411410E+02  0.16140411410E+02  0.00000000000E+00 0. -1.
         21   -1    0    0  502  503 -0.00000000000E+00 -0.00000000000E+00 -0.31212917829E+04  0.31212917829E+04  0.00000000000E+00 0. -1.
          6    1    1    2  501    0 -0.81555213637E+02  0.11742283887E+03 -0.15752848642E+04  0.15911916224E+04  0.17300000000E+03 0. -1.
         -6    1    1    2    0  503  0.81555213637E+02 -0.11742283887E+03 -0.15298665074E+04  0.15462405719E+04  0.17300000000E+03 0. -1.
<mgrwt>
<rscale>  2 0.22442900E+03</rscale>
<asrwt>0</asrwt>
<pdfrwt beam="1">  1       21 0.24831390E-02 0.22442900E+03</pdfrwt>
<pdfrwt beam="2">  1       21 0.48019897E+00 0.22442900E+03</pdfrwt>
<totfact> 0.21491836E+03</totfact>
</mgrwt>
</event>
<event>
 4    1  0.4056666E+000  0.1743103E+03  0.7546771E-02  0.1173426E+00
         21   -1    0    0  503  502  0.00000000000E+00  0.00000000000E+00  0.11520150416E+03  0.11520150416E+03  0.00000000000E+00 0. -1.
         21   -1    0    0  501  503 -0.00000000000E+00 -0.00000000000E+00 -0.41025686358E+03  0.41025686358E+03  0.00000000000E+00 0. -1.
          6    1    1    2  501    0 -0.16179884326E+02 -0.13902638109E+02 -0.30453270467E+03  0.35089063854E+03  0.17300000000E+03 0. -1.
         -6    1    1    2    0  502  0.16179884326E+02  0.13902638109E+02  0.94773452456E+01  0.17456772919E+03  0.17300000000E+03 0. -1.
<mgrwt>
<rscale>  2 0.17431028E+03</rscale>
<asrwt>0</asrwt>
<pdfrwt beam="1">  1       21 0.17723308E-01 0.17431028E+03</pdfrwt>
<pdfrwt beam="2">  1       21 0.63116440E-01 0.17431028E+03</pdfrwt>
<totfact> 0.67663107E+04</totfact>
</mgrwt>
</event>
<event>
 4    1  0.4056666E+000  0.2354405E+03  0.7546771E-02  0.1122868E+00
         21   -1    0    0  503  502  0.00000000000E+00  0.00000000000E+00  0.15811847029E+03  0.15811847029E+03  0.00000000000E+00 0. -1.
         21   -1    0    0  501  503 -0.00000000000E+00 -0.00000000000E+00 -0.11027296584E+04  0.11027296584E+04  0.00000000000E+00 0. -1.
          6    1    1    2  501    0 -0.14716040213E+02  0.15901787837E+03 -0.99296303162E+03  0.10204939146E+04  0.17300000000E+03 0. -1.
         -6    1    1    2    0  502  0.14716040213E+02 -0.15901787837E+03  0.48351843519E+02  0.24035421413E+03  0.17300000000E+03 0. -1.
<mgrwt>
<rscale>  2 0.23544054E+03</rscale>
<asrwt>0</asrwt>
<pdfrwt beam="1">  1       21 0.24325918E-01 0.23544054E+03</pdfrwt>
<pdfrwt beam="2">  1       21 0.16965072E+00 0.23544054E+03</pdfrwt>
<totfact> 0.33009698E+03</totfact>
</mgrwt>
</event>
<event>
 4    1  0.4056666E+000  0.2003232E+03  0.7546771E-02  0.1149467E+00
         21   -1    0    0  503  502  0.00000000000E+00  0.00000000000E+00  0.18296907768E+03  0.18296907768E+03  0.00000000000E+00 0.  1.
         21   -1    0    0  501  503 -0.00000000000E+00 -0.00000000000E+00 -0.21987052545E+03  0.21987052545E+03  0.00000000000E+00 0.  1.
          6    1    1    2  501    0  0.67408227462E+02 -0.75209835266E+02 -0.28498909040E+02  0.20234024876E+03  0.17300000000E+03 0.  1.
         -6    1    1    2    0  502 -0.67408227462E+02  0.75209835266E+02 -0.84025387286E+01  0.20049935438E+03  0.17300000000E+03 0.  1.
<mgrwt>
<rscale>  2 0.20032321E+03</rscale>
<asrwt>0</asrwt>
<pdfrwt beam="1">  1       21 0.28149089E-01 0.20032321E+03</pdfrwt>
<pdfrwt beam="2">  1       21 0.33826235E-01 0.20032321E+03</pdfrwt>
<totfact> 0.10121870E+05</totfact>
</mgrwt>
</event>
<event>
 4    1  0.4056666E+000  0.1853848E+03  0.7546771E-02  0.1162691E+00
         21   -1    0    0  501  502  0.00000000000E+00  0.00000000000E+00  0.50012305702E+03  0.50012305702E+03  0.00000000000E+00 0.  1.
         21   -1    0    0  502  503 -0.00000000000E+00 -0.00000000000E+00 -0.10814201449E+03  0.10814201449E+03  0.00000000000E+00 0.  1.
          6    1    1    2  501    0  0.14305724171E+02  0.65068070259E+02  0.37962131581E+03  0.42246875734E+03  0.17300000000E+03 0.  1.
         -6    1    1    2    0  503 -0.14305724171E+02 -0.65068070259E+02  0.12359726719E+02  0.18579631416E+03  0.17300000000E+03 0.  1.
<mgrwt>
<rscale>  2 0.18538476E+03</rscale>
<asrwt>0</asrwt>
<pdfrwt beam="1">  1       21 0.76942008E-01 0.18538476E+03</pdfrwt>
<pdfrwt beam="2">  1       21 0.16637233E-01 0.18538476E+03</pdfrwt>
<totfact> 0.48908226E+04</totfact>
</mgrwt>
</event>
<event>
 4    1  0.4056666E+000  0.1911922E+03  0.7546771E-02  0.1157390E+00
         21   -1    0    0  501  502  0.00000000000E+00  0.00000000000E+00  0.50156597523E+02  0.50156597523E+02  0.00000000000E+00 0. -1.
         21   -1    0    0  502  503 -0.00000000000E+00 -0.00000000000E+00 -0.17934533647E+04  0.17934533647E+04  0.00000000000E+00 0. -1.
          6    1    1    2  501    0 -0.75907025081E+02  0.29386492998E+02 -0.16142192972E+03  0.25022286431E+03  0.17300000000E+03 0. -1.
         -6    1    1    2    0  503  0.75907025081E+02 -0.29386492998E+02 -0.15818748374E+04  0.15933870979E+04  0.17300000000E+03 0. -1.
<mgrwt>
<rscale>  2 0.19119216E+03</rscale>
<asrwt>0</asrwt>
<pdfrwt beam="1">  1       21 0.77163996E-02 0.19119216E+03</pdfrwt>
<pdfrwt beam="2">  1       21 0.27591590E+00 0.19119216E+03</pdfrwt>
<totfact> 0.60127193E+03</totfact>
</mgrwt>
</event>
<event>
 4    1  0.4056666E+000  0.2131259E+03  0.7546771E-02  0.1139114E+00
         21   -1    0    0  501  502  0.00000000000E+00  0.00000000000E+00  0.26575970999E+03  0.26575970999E+03  0.00000000000E+00 0. -1.
         21   -1    0    0  502  503 -0.00000000000E+00 -0.00000000000E+00 -0.17708840668E+03  0.17708840668E+03  0.00000000000E+00 0. -1.
          6    1    1    2  501    0  0.11701978736E+03  0.42426554192E+02  0.29976457755E+01  0.21314696576E+03  0.17300000000E+03 0. -1.
         -6    1    1    2    0  503 -0.11701978736E+03 -0.42426554192E+02  0.85673657532E+02  0.22970115091E+03  0.17300000000E+03 0. -1.
<mgrwt>
<rscale>  2 0.21312589E+03</rscale>
<asrwt>0</asrwt>
<pdfrwt beam="1">  1       21 0.40886109E-01 0.21312589E+03</pdfrwt>
<pdfrwt beam="2">  1       21 0.27244370E-01 0.21312589E+03</pdfrwt>
<totfact> 0.73358238E+04</totfact>
</mgrwt>
</event>
<event>
 4    1  0.4056666E+000  0.1954636E+03  0.7546771E-02  0.1153624E+00
         21   -1    0    0  503  502  0.00000000000E+00  0.00000000000E+00  0.39563943960E+02  0.39563943960E+02  0.00000000000E+00 0.  1.
         21   -1    0    0  501  503 -0.00000000000E+00 -0.00000000000E+00 -0.14735037145E+04  0.14735037145E+04  0.00000000000E+00 0. -1.
          6    1    1    2  501    0  0.61734551194E+02 -0.66827211215E+02 -0.27283992407E+03  0.33563023573E+03  0.17300000000E+03 0.  1.
         -6    1    1    2    0  502 -0.61734551194E+02  0.66827211215E+02 -0.11610998464E+04  0.11774374227E+04  0.17300000000E+03 0. -1.
<mgrwt>
<rscale>  2 0.19546363E+03</rscale>
<asrwt>0</asrwt>
<pdfrwt beam="1">  1       21 0.60867614E-02 0.19546363E+03</pdfrwt>
<pdfrwt beam="2">  1       21 0.22669285E+00 0.19546363E+03</pdfrwt>
<totfact> 0.17577099E+04</totfact>
</mgrwt>
</event>
<event>
 4    1  0.4056666E+000  0.2580042E+03  0.7546771E-02  0.1108348E+00
         21   -1    0    0  503  502  0.00000000000E+00  0.00000000000E+00  0.17724318207E+03  0.17724318207E+03  0.00000000000E+00 0. -1.
         21   -1    0    0  501  503 -0.00000000000E+00 -0.00000000000E+00 -0.12453443621E+04  0.12453443621E+04  0.00000000000E+00 0. -1.
          6    1    1    2  501    0 -0.74170819893E+02  0.17645358077E+03 -0.11284919921E+04  0.11576097585E+04  0.17300000000E+03 0. -1.
         -6    1    1    2    0  502  0.74170819893E+02 -0.17645358077E+03  0.60390812118E+02  0.26497778563E+03  0.17300000000E+03 0. -1.
<mgrwt>
<rscale>  2 0.25800422E+03</rscale>
<asrwt>0</asrwt>
<pdfrwt beam="1">  1       21 0.27268182E-01 0.25800422E+03</pdfrwt>
<pdfrwt beam="2">  1       21 0.19159144E+00 0.25800422E+03</pdfrwt>
<totfact> 0.18402937E+03</totfact>
</mgrwt>
</event>
<event>
 4    1  0.4056666E+000  0.1730548E+03  0.7546771E-02  0.1174699E+00
         21   -1    0    0  503  502  0.00000000000E+00  0.00000000000E+00  0.65995291938E+03  0.65995291938E+03  0.00000000000E+00 0. -1.
         21   -1    0    0  501  503 -0.00000000000E+00 -0.00000000000E+00 -0.50616096001E+02  0.50616096001E+02  0.00000000000E+00 0. -1.
          6    1    1    2  501    0  0.13263464680E+01  0.41474143710E+01  0.19038585837E+03  0.25728337550E+03  0.17300000000E+03 0. -1.
         -6    1    1    2    0  502 -0.13263464680E+01 -0.41474143710E+01  0.41895096501E+03  0.45328563988E+03  0.17300000000E+03 0. -1.
<mgrwt>
<rscale>  2 0.17305479E+03</rscale>
<asrwt>0</asrwt>
<pdfrwt beam="1">  1       21 0.10153121E+00 0.17305479E+03</pdfrwt>
<pdfrwt beam="2">  1       21 0.77870921E-02 0.17305479E+03</pdfrwt>
<totfact> 0.10039925E+05</totfact>
</mgrwt>
</event>
<event>
 4    1  0.4056666E+000  0.2231290E+03  0.7546771E-02  0.1131572E+00
         21   -1    0    0  501  502  0.00000000000E+00  0.00000000000E+00  0.43371021357E+03  0.43371021357E+03  0.00000000000E+00 0.  1.
         21   -1    0    0  502  503 -0.00000000000E+00 -0.00000000000E+00 -0.16566160124E+03  0.16566160124E+03  0.00000000000E+00 0.  1.
          6    1    1    2  501    0  0.13607480797E+03  0.36622167517E+02  0.30009149534E+03  0.37395379674E+03  0.17300000000E+03 0.  1.
         -6    1    1    2    0  503 -0.13607480797E+03 -0.36622167517E+02 -0.32042883015E+02  0.22541801807E+03  0.17300000000E+03 0.  1.
<mgrwt>
<rscale>  2 0.22312897E+03</rscale>
<asrwt>0</asrwt>
<pdfrwt beam="1">  1       21 0.66724648E-01 0.22312897E+03</pdfrwt>
<pdfrwt beam="2">  1       21 0.25486400E-01 0.22312897E+03</pdfrwt>
<totfact> 0.29564773E+04</totfact>
</mgrwt>
</event>
<event>
 4    1  0.4056666E+000  0.2033033E+03  0.7546771E-02  0.1146982E+00
         21   -1    0    0  501  502  0.00000000000E+00  0.00000000000E+00  0.38629588287E+03  0.38629588287E+03  0.00000000000E+00 0. -1.
         21   -1    0    0  502  503 -0.00000000000E+00 -0.00000000000E+00 -0.21615113498E+03  0.21615113498E+03  0.00000000000E+00 0. -1.
          6    1    1    2  501    0 -0.96475625539E+02 -0.45778600558E+02  0.29913044635E+03  0.36167837995E+03  0.17300000000E+03 0. -1.
         -6    1    1    2    0  503  0.96475625539E+02  0.45778600558E+02 -0.12898569845E+03  0.24076863790E+03  0.17300000000E+03 0. -1.
<mgrwt>
<rscale>  2 0.20330329E+03</rscale>
<asrwt>0</asrwt>
<pdfrwt beam="1">  1       21 0.59430136E-01 0.20330329E+03</pdfrwt>
<pdfrwt beam="2">  1       21 0.33254021E-01 0.20330329E+03</pdfrwt>
<totfact> 0.22887559E+04</totfact>
</mgrwt>
</event>
<event>
 4    1  0.4056666E+000  0.2035921E+03  0.7546771E-02  0.1146743E+00
         21   -1    0    0  503  502  0.00000000000E+00  0.00000000000E+00  0.17577934679E+03  0.17577934679E+03  0.00000000000E+00 0. -1.
         21   -1    0    0  501  503 -0.00000000000E+00 -0.00000000000E+00 -0.39214437980E+03  0.39214437980E+03  0.00000000000E+00 0.  1.
          6    1    1    2  501    0 -0.23473285352E+02 -0.10473656025E+03 -0.28747846449E+03  0.35226922903E+03  0.17300000000E+03 0.  1.
         -6    1    1    2    0  502  0.23473285352E+02  0.10473656025E+03  0.71113431478E+02  0.21565449755E+03  0.17300000000E+03 0. -1.
<mgrwt>
<rscale>  2 0.20359210E+03</rscale>
<asrwt>0</asrwt>
<pdfrwt beam="1">  1       21 0.27042977E-01 0.20359210E+03</pdfrwt>
<pdfrwt beam="2">  1       21 0.60329904E-01 0.20359210E+03</pdfrwt>
<totfact> 0.33169500E+04</totfact>
</mgrwt>
</event>
<event>
 4    1  0.4056666E+000  0.1813428E+03  0.7546771E-02  0.1166510E+00
         21   -1    0    0  501  502  0.00000000000E+00  0.00000000000E+00  0.48113173571E+03  0.48113173571E+03  0.00000000000E+00 0.  1.
         21   -1    0    0  502  503 -0.00000000000E+00 -0.00000000000E+00 -0.13894595075E+03  0.13894595075E+03  0.00000000000E+00 0.  1.
          6    1    1    2  501    0 -0.44297306332E+02  0.31527331861E+02  0.39208862535E+03  0.43199388205E+03  0.17300000000E+03 0.  1.
         -6    1    1    2    0  503  0.44297306332E+02 -0.31527331861E+02 -0.49902840389E+02  0.18808380441E+03  0.17300000000E+03 0.  1.
<mgrwt>
<rscale>  2 0.18134284E+03</rscale>
<asrwt>0</asrwt>
<pdfrwt beam="1">  1       21 0.74020266E-01 0.18134284E+03</pdfrwt>
<pdfrwt beam="2">  1       21 0.21376300E-01 0.18134284E+03</pdfrwt>
<totfact> 0.33563070E+04</totfact>
</mgrwt>
</event>
<event>
 4    1  0.4056666E+000  0.2040914E+03  0.7546771E-02  0.1146332E+00
         21   -1    0    0  501  502  0.00000000000E+00  0.00000000000E+00  0.76826171011E+03  0.76826171011E+03  0.00000000000E+00 0.  1.
         21   -1    0    0  502  503 -0.00000000000E+00 -0.00000000000E+00 -0.26110711159E+03  0.26110711159E+03  0.00000000000E+00 0.  1.
          6    1    1    2  501    0 -0.10055778920E+03 -0.40155252688E+02  0.71172012619E+03  0.74040451870E+03  0.17300000000E+03 0.  1.
         -6    1    1    2    0  503  0.10055778920E+03  0.40155252688E+02 -0.20456552768E+03  0.28896430299E+03  0.17300000000E+03 0.  1.
<mgrwt>
<rscale>  2 0.20409143E+03</rscale>
<asrwt>0</asrwt>
<pdfrwt beam="1">  1       21 0.11819411E+00 0.20409143E+03</pdfrwt>
<pdfrwt beam="2">  1       21 0.40170325E-01 0.20409143E+03</pdfrwt>
<totfact> 0.32425211E+03</totfact>
</mgrwt>
</event>
<event>
 4    1  0.4056666E+000  0.1831098E+03  0.7546771E-02  0.1164827E+00
         21   -1    0    0  503  502  0.00000000000E+00  0.00000000000E+00  0.18722689119E+04  0.18722689119E+04  0.00000000000E+00 0.  1.
         21   -1    0    0  501  503 -0.00000000000E+00 -0.00000000000E+00 -0.47287717082E+02  0.47287717082E+02  0.00000000000E+00 0.  1.
          6    1    1    2  501    0  0.96022354956E+01 -0.59228412330E+02  0.15597457281E+03  0.24053539265E+03  0.17300000000E+03 0.  1.
         -6    1    1    2    0  502 -0.96022354956E+01  0.59228412330E+02  0.16690066220E+04  0.16790212363E+04  0.17300000000E+03 0.  1.
<mgrwt>
<rscale>  2 0.18310982E+03</rscale>
<asrwt>0</asrwt>
<pdfrwt beam="1">  1       21 0.28804131E+00 0.18310982E+03</pdfrwt>
<pdfrwt beam="2">  1       21 0.72750348E-02 0.18310982E+03</pdfrwt>
<totfact> 0.57223650E+03</totfact>
</mgrwt>
</event>
<event>
 4    1  0.4056666E+000  0.1907656E+03  0.7546771E-02  0.1157773E+00
         21   -1    0    0  503  502  0.00000000000E+00  0.00000000000E+00  0.29251923888E+03  0.29251923888E+03  0.00000000000E+00 0. -1.
         21   -1    0    0  501  503 -0.00000000000E+00 -0.00000000000E+00 -0.13582195793E+03  0.13582195793E+03  0.00000000000E+00 0.  1.
          6    1    1    2  501    0 -0.41071776407E+02 -0.69105959503E+02  0.16260795812E+02  0.19145740502E+03  0.17300000000E+03 0.  1.
         -6    1    1    2    0  502  0.41071776407E+02  0.69105959503E+02  0.14043648513E+03  0.23688379179E+03  0.17300000000E+03 0. -1.
<mgrwt>
<rscale>  2 0.19076563E+03</rscale>
<asrwt>0</asrwt>
<pdfrwt beam="1">  1       21 0.45002960E-01 0.19076563E+03</pdfrwt>
<pdfrwt beam="2">  1       21 0.20895686E-01 0.19076563E+03</pdfrwt>
<totfact> 0.10083244E+05</totfact>
</mgrwt>
</event>
<event>
 4    1  0.4056666E+000  0.2670658E+03  0.7546771E-02  0.1102971E+00
         21   -1    0    0  503  502  0.00000000000E+00  0.00000000000E+00  0.86354068935E+03  0.86354068935E+03  0.00000000000E+00 0.  1.
         21   -1    0    0  501  503 -0.00000000000E+00 -0.00000000000E+00 -0.10540335976E+03  0.10540335976E+03  0.00000000000E+00 0.  1.
          6    1    1    2  501    0  0.16424248820E+03 -0.12008141965E+03  0.15370260341E+03  0.30813735990E+03  0.17300000000E+03 0.  1.
         -6    1    1    2    0  502 -0.16424248820E+03  0.12008141965E+03  0.60443472619E+03  0.66080668920E+03  0.17300000000E+03 0.  1.
<mgrwt>
<rscale>  2 0.26706580E+03</rscale>
<asrwt>0</asrwt>
<pdfrwt beam="1">  1       21 0.13285241E+00 0.26706580E+03</pdfrwt>
<pdfrwt beam="2">  1       21 0.16215902E-01 0.26706580E+03</pdfrwt>
<totfact> 0.13301235E+04</totfact>
</mgrwt>
</event>
<event>
 4    1  0.4056666E+000  0.2056063E+03  0.7546771E-02  0.1145093E+00
         21   -1    0    0  503  502  0.00000000000E+00  0.00000000000E+00  0.60349003758E+03  0.60349003758E+03  0.00000000000E+00 0. -1.
         21   -1    0    0  501  503 -0.00000000000E+00 -0.00000000000E+00 -0.96808437395E+02  0.96808437395E+02  0.00000000000E+00 0.  1.
          6    1    1    2  501    0  0.96456769278E+02 -0.55145736335E+02  0.69249230715E+02  0.21695487211E+03  0.17300000000E+03 0.  1.
         -6    1    1    2    0  502 -0.96456769278E+02  0.55145736335E+02  0.43743236947E+03  0.48334360287E+03  0.17300000000E+03 0. -1.
<mgrwt>
<rscale>  2 0.20560632E+03</rscale>
<asrwt>0</asrwt>
<pdfrwt beam="1">  1       21 0.92844619E-01 0.20560632E+03</pdfrwt>
<pdfrwt beam="2">  1       21 0.14893606E-01 0.20560632E+03</pdfrwt>
<totfact> 0.38570687E+04</totfact>
</mgrwt>
</event>
<event>
 4    1  0.4056666E+000  0.2248255E+03  0.7546771E-02  0.1130336E+00
         21   -1    0    0  503  502  0.00000000000E+00  0.00000000000E+00  0.14660827763E+03  0.14660827763E+03  0.00000000000E+00 0.  1.
         21   -1    0    0  501  503 -0.00000000000E+00 -0.00000000000E+00 -0.35159535686E+03  0.35159535686E+03  0.00000000000E+00 0.  1.
          6    1    1    2  501    0 -0.48973210510E+02  0.13497826681E+03 -0.13719416281E+03  0.26337947181E+03  0.17300000000E+03 0.  1.
         -6    1    1    2    0  502  0.48973210510E+02 -0.13497826681E+03 -0.67792916419E+02  0.23482416268E+03  0.17300000000E+03 0.  1.
<mgrwt>
<rscale>  2 0.22482551E+03</rscale>
<asrwt>0</asrwt>
<pdfrwt beam="1">  1       21 0.22555120E-01 0.22482551E+03</pdfrwt>
<pdfrwt beam="2">  1       21 0.54091593E-01 0.22482551E+03</pdfrwt>
<totfact> 0.58641539E+04</totfact>
</mgrwt>
</event>
<event>
 4    1  0.4056666E+000  0.2343069E+03  0.7546771E-02  0.1123645E+00
         21   -1    0    0  503  502  0.00000000000E+00  0.00000000000E+00  0.18146862898E+03  0.18146862898E+03  0.00000000000E+00 0. -1.
         21   -1    0    0  501  503 -0.00000000000E+00 -0.00000000000E+00 -0.43891710027E+03  0.43891710027E+03  0.00000000000E+00 0. -1.
          6    1    1    2  501    0 -0.11100718614E+03  0.11246381180E+03 -0.30163705844E+03  0.38194845118E+03  0.17300000000E+03 0. -1.
         -6    1    1    2    0  502  0.11100718614E+03 -0.11246381180E+03  0.44188587140E+02  0.23843727807E+03  0.17300000000E+03 0. -1.
<mgrwt>
<rscale>  2 0.23430686E+03</rscale>
<asrwt>0</asrwt>
<pdfrwt beam="1">  1       21 0.27918251E-01 0.23430686E+03</pdfrwt>
<pdfrwt beam="2">  1       21 0.67525708E-01 0.23430686E+03</pdfrwt>
<totfact> 0.24017549E+04</totfact>
</mgrwt>
</event>
<event>
 4    1  0.4056666E+000  0.1779274E+03  0.7546771E-02  0.1169824E+00
         21   -1    0    0  503  502  0.00000000000E+00  0.00000000000E+00  0.24907404348E+03  0.24907404348E+03  0.00000000000E+00 0. -1.
         21   -1    0    0  501  503 -0.00000000000E+00 -0.00000000000E+00 -0.18784600345E+03  0.18784600345E+03  0.00000000000E+00 0. -1.
          6    1    1    2  501    0  0.41580691951E+02  0.46290236518E+00 -0.93613423315E+02  0.20105133983E+03  0.17300000000E+03 0. -1.
         -6    1    1    2    0  502 -0.41580691951E+02 -0.46290236518E+00  0.15484146335E+03  0.23586870711E+03  0.17300000000E+03 0. -1.
<mgrwt>
<rscale>  2 0.17792742E+03</rscale>
<asrwt>0</asrwt>
<pdfrwt beam="1">  1       21 0.38319083E-01 0.17792742E+03</pdfrwt>
<pdfrwt beam="2">  1       21 0.28899385E-01 0.17792742E+03</pdfrwt>
<totfact> 0.75722319E+04</totfact>
</mgrwt>
</event>
<event>
 4    1  0.4056666E+000  0.1773459E+03  0.7546771E-02  0.1170397E+00
         21   -1    0    0  501  502  0.00000000000E+00  0.00000000000E+00  0.11366323885E+04  0.11366323885E+04  0.00000000000E+00 0. -1.
         21   -1    0    0  502  503 -0.00000000000E+00 -0.00000000000E+00 -0.63138666356E+02  0.63138666356E+02  0.00000000000E+00 0. -1.
          6    1    1    2  501    0  0.22260130856E+02  0.32047739261E+02  0.98635894974E+03  0.10021754082E+04  0.17300000000E+03 0. -1.
         -6    1    1    2    0  503 -0.22260130856E+02 -0.32047739261E+02  0.87134772367E+02  0.19759564664E+03  0.17300000000E+03 0. -1.
<mgrwt>
<rscale>  2 0.17734591E+03</rscale>
<asrwt>0</asrwt>
<pdfrwt beam="1">  1       21 0.17486651E+00 0.17734591E+03</pdfrwt>
<pdfrwt beam="2">  1       21 0.97136418E-02 0.17734591E+03</pdfrwt>
<totfact> 0.17049442E+04</totfact>
</mgrwt>
</event>
<event>
 4    1  0.4056666E+000  0.2321942E+03  0.7546771E-02  0.1125105E+00
         21   -1    0    0  501  502  0.00000000000E+00  0.00000000000E+00  0.12968949790E+03  0.12968949790E+03  0.00000000000E+00 0. -1.
         21   -1    0    0  502  503 -0.00000000000E+00 -0.00000000000E+00 -0.51340938790E+03  0.51340938790E+03  0.00000000000E+00 0. -1.
          6    1    1    2  501    0 -0.15235991943E+03 -0.27777967970E+02 -0.51596119199E+02  0.23785777278E+03  0.17300000000E+03 0. -1.
         -6    1    1    2    0  503  0.15235991943E+03  0.27777967970E+02 -0.33212377080E+03  0.40524111302E+03  0.17300000000E+03 0. -1.
<mgrwt>
<rscale>  2 0.23219423E+03</rscale>
<asrwt>0</asrwt>
<pdfrwt beam="1">  1       21 0.19952231E-01 0.23219423E+03</pdfrwt>
<pdfrwt beam="2">  1       21 0.78986059E-01 0.23219423E+03</pdfrwt>
<totfact> 0.32150770E+04</totfact>
</mgrwt>
</event>
<event>
 4    1  0.4056666E+000  0.1958151E+03  0.7546771E-02  0.1153319E+00
         21   -1    0    0  503  502  0.00000000000E+00  0.00000000000E+00  0.12985249505E+03  0.12985249505E+03  0.00000000000E+00 0.  1.
         21   -1    0    0  501  503 -0.00000000000E+00 -0.00000000000E+00 -0.41030877282E+03  0.41030877282E+03  0.00000000000E+00 0.  1.
          6    1    1    2  501    0  0.30551582104E+02 -0.86493594812E+02  0.27702558786E+01  0.19583466350E+03  0.17300000000E+03 0.  1.
         -6    1    1    2    0  502 -0.30551582104E+02  0.86493594812E+02 -0.28322653364E+03  0.34432660436E+03  0.17300000000E+03 0.  1.
<mgrwt>
<rscale>  2 0.19581507E+03</rscale>
<asrwt>0</asrwt>
<pdfrwt beam="1">  1       21 0.19977307E-01 0.19581507E+03</pdfrwt>
<pdfrwt beam="2">  1       21 0.63124425E-01 0.19581507E+03</pdfrwt>
<totfact> 0.53644570E+04</totfact>
</mgrwt>
</event>
<event>
 4    1  0.4056666E+000  0.2916145E+03  0.7546771E-02  0.1089509E+00
         21   -1    0    0  503  502  0.00000000000E+00  0.00000000000E+00  0.32536630090E+03  0.32536630090E+03  0.00000000000E+00 0. -1.
         21   -1    0    0  501  503 -0.00000000000E+00 -0.00000000000E+00 -0.26547727623E+03  0.26547727623E+03  0.00000000000E+00 0.  1.
          6    1    1    2  501    0 -0.20888552806E+03 -0.10712994613E+03 -0.68286249175E+01  0.29169439369E+03  0.17300000000E+03 0.  1.
         -6    1    1    2    0  502  0.20888552806E+03  0.10712994613E+03  0.66717649586E+02  0.29914918344E+03  0.17300000000E+03 0. -1.
<mgrwt>
<rscale>  2 0.29161445E+03</rscale>
<asrwt>0</asrwt>
<pdfrwt beam="1">  1       21 0.50056353E-01 0.29161445E+03</pdfrwt>
<pdfrwt beam="2">  1       21 0.40842658E-01 0.29161445E+03</pdfrwt>
<totfact> 0.20900516E+04</totfact>
</mgrwt>
</event>
<event>
 4    1  0.4056666E+000  0.1886190E+03  0.7546771E-02  0.1159713E+00
         21   -1    0    0  503  502  0.00000000000E+00  0.00000000000E+00  0.77398179114E+03  0.77398179114E+03  0.00000000000E+00 0. -1.
         21   -1    0    0  501  503 -0.00000000000E+00 -0.00000000000E+00 -0.47645564489E+02  0.47645564489E+02  0.00000000000E+00 0.  1.
          6    1    1    2  501    0 -0.72684770045E+02 -0.19105853963E+02  0.28604436031E+03  0.34263462393E+03  0.17300000000E+03 0.  1.
         -6    1    1    2    0  502  0.72684770045E+02  0.19105853963E+02  0.44029186635E+03  0.47899273170E+03  0.17300000000E+03 0.  1.
<mgrwt>
<rscale>  2 0.18861895E+03</rscale>
<asrwt>0</asrwt>
<pdfrwt beam="1">  1       21 0.11907411E+00 0.18861895E+03</pdfrwt>
<pdfrwt beam="2">  1       21 0.73300874E-02 0.18861895E+03</pdfrwt>
<totfact> 0.75335969E+04</totfact>
</mgrwt>
</event>
<event>
 4    1  0.4056666E+000  0.1782342E+03  0.7546771E-02  0.1169523E+00
         21   -1    0    0  501  502  0.00000000000E+00  0.00000000000E+00  0.50112439498E+03  0.50112439498E+03  0.00000000000E+00 0.  1.
         21   -1    0    0  502  503 -0.00000000000E+00 -0.00000000000E+00 -0.12735840557E+03  0.12735840557E+03  0.00000000000E+00 0.  1.
          6    1    1    2  501    0 -0.33331858171E+02 -0.26970789458E+02  0.40958518783E+03  0.44668496991E+03  0.17300000000E+03 0.  1.
         -6    1    1    2    0  503  0.33331858171E+02  0.26970789458E+02 -0.35819198417E+02  0.18179783065E+03  0.17300000000E+03 0.  1.
<mgrwt>
<rscale>  2 0.17823422E+03</rscale>
<asrwt>0</asrwt>
<pdfrwt beam="1">  1       21 0.77096060E-01 0.17823422E+03</pdfrwt>
<pdfrwt beam="2">  1       21 0.19593601E-01 0.17823422E+03</pdfrwt>
<totfact> 0.36125280E+04</totfact>
</mgrwt>
</event>
<event>
 4    1  0.4056666E+000  0.1792061E+03  0.7546771E-02  0.1168574E+00
         21   -1    0    0  501  502  0.00000000000E+00  0.00000000000E+00  0.28215947680E+03  0.28215947680E+03  0.00000000000E+00 0.  1.
         21   -1    0    0  502  503 -0.00000000000E+00 -0.00000000000E+00 -0.11753362845E+03  0.11753362845E+03  0.00000000000E+00 0.  1.
          6    1    1    2  501    0 -0.33514160230E+02 -0.32597799316E+02  0.46779734950E+02  0.18521112023E+03  0.17300000000E+03 0.  1.
         -6    1    1    2    0  503  0.33514160230E+02  0.32597799316E+02  0.11784611340E+03  0.21448198502E+03  0.17300000000E+03 0.  1.
<mgrwt>
<rscale>  2 0.17920607E+03</rscale>
<asrwt>0</asrwt>
<pdfrwt beam="1">  1       21 0.43409150E-01 0.17920607E+03</pdfrwt>
<pdfrwt beam="2">  1       21 0.18082097E-01 0.17920607E+03</pdfrwt>
<totfact> 0.14265241E+05</totfact>
</mgrwt>
</event>
<event>
 4    1  0.4056666E+000  0.1740935E+03  0.7546771E-02  0.1173645E+00
         21   -1    0    0  501  502  0.00000000000E+00  0.00000000000E+00  0.87666040273E+02  0.87666040273E+02  0.00000000000E+00 0.  1.
         21   -1    0    0  502  503 -0.00000000000E+00 -0.00000000000E+00 -0.41258938280E+03  0.41258938280E+03  0.00000000000E+00 0.  1.
          6    1    1    2  501    0  0.18975063987E+02  0.44148996052E+01 -0.61770196985E+02  0.18472710041E+03  0.17300000000E+03 0.  1.
         -6    1    1    2    0  503 -0.18975063987E+02 -0.44148996052E+01 -0.26315314554E+03  0.31552832266E+03  0.17300000000E+03 0.  1.
<mgrwt>
<rscale>  2 0.17409349E+03</rscale>
<asrwt>0</asrwt>
<pdfrwt beam="1">  1       21 0.13487083E-01 0.17409349E+03</pdfrwt>
<pdfrwt beam="2">  1       21 0.63475289E-01 0.17409349E+03</pdfrwt>
<totfact> 0.10992686E+05</totfact>
</mgrwt>
</event>
<event>
 4    1  0.4056666E+000  0.2109657E+03  0.7546771E-02  0.1140804E+00
         21   -1    0    0  503  502  0.00000000000E+00  0.00000000000E+00  0.43830300339E+03  0.43830300339E+03  0.00000000000E+00 0.  1.
         21   -1    0    0  501  503 -0.00000000000E+00 -0.00000000000E+00 -0.10656815900E+03  0.10656815900E+03  0.00000000000E+00 0.  1.
          6    1    1    2  501    0 -0.12039257255E+03 -0.91179463101E+01  0.10670659904E+03  0.23641659576E+03  0.17300000000E+03 0.  1.
         -6    1    1    2    0  502  0.12039257255E+03  0.91179463101E+01  0.22502824535E+03  0.30845456663E+03  0.17300000000E+03 0.  1.
<mgrwt>
<rscale>  2 0.21096566E+03</rscale>
<asrwt>0</asrwt>
<pdfrwt beam="1">  1       21 0.67431230E-01 0.21096566E+03</pdfrwt>
<pdfrwt beam="2">  1       21 0.16395102E-01 0.21096566E+03</pdfrwt>
<totfact> 0.66517346E+04</totfact>
</mgrwt>
</event>
<event>
 4    1  0.4056666E+000  0.1810625E+03  0.7546771E-02  0.1166779E+00
         21   -1    0    0  503  502  0.00000000000E+00  0.00000000000E+00  0.42376531780E+02  0.42376531780E+02  0.00000000000E+00 0.  1.
         21   -1    0    0  501  503 -0.00000000000E+00 -0.00000000000E+00 -0.12591620250E+04  0.12591620250E+04  0.00000000000E+00 0.  1.
          6    1    1    2  501    0  0.38326146600E+02  0.37225409463E+02 -0.10124999236E+04  0.10285619670E+04  0.17300000000E+03 0.  1.
         -6    1    1    2    0  502 -0.38326146600E+02 -0.37225409463E+02 -0.20428556960E+03  0.27297658979E+03  0.17300000000E+03 0.  1.
<mgrwt>
<rscale>  2 0.18106249E+03</rscale>
<asrwt>0</asrwt>
<pdfrwt beam="1">  1       21 0.65194655E-02 0.18106249E+03</pdfrwt>
<pdfrwt beam="2">  1       21 0.19371726E+00 0.18106249E+03</pdfrwt>
<totfact> 0.25427100E+04</totfact>
</mgrwt>
</event>
<event>
 4    1  0.4056666E+000  0.2406551E+03  0.7546771E-02  0.1119357E+00
         21   -1    0    0  501  502  0.00000000000E+00  0.00000000000E+00  0.60717619802E+03  0.60717619802E+03  0.00000000000E+00 0.  1.
         21   -1    0    0  502  503 -0.00000000000E+00 -0.00000000000E+00 -0.10543429161E+03  0.10543429161E+03  0.00000000000E+00 0.  1.
          6    1    1    2  501    0  0.15610378642E+03  0.60145473343E+02  0.36087824465E+03  0.43376027660E+03  0.17300000000E+03 0.  1.
         -6    1    1    2    0  503 -0.15610378642E+03 -0.60145473343E+02  0.14086366176E+03  0.27885021302E+03  0.17300000000E+03 0.  1.
<mgrwt>
<rscale>  2 0.24065509E+03</rscale>
<asrwt>0</asrwt>
<pdfrwt beam="1">  1       21 0.93411721E-01 0.24065509E+03</pdfrwt>
<pdfrwt beam="2">  1       21 0.16220661E-01 0.24065509E+03</pdfrwt>
<totfact> 0.31956945E+04</totfact>
</mgrwt>
</event>
<event>
 4    1  0.4056666E+000  0.1888181E+03  0.7546771E-02  0.1159532E+00
         21   -1    0    0  503  502  0.00000000000E+00  0.00000000000E+00  0.50810356842E+03  0.50810356842E+03  0.00000000000E+00 0. -1.
         21   -1    0    0  501  503 -0.00000000000E+00 -0.00000000000E+00 -0.82546303688E+02  0.82546303688E+02  0.00000000000E+00 0. -1.
          6    1    1    2  501    0 -0.75198713923E+02  0.82710496421E+01  0.98413377095E+02  0.21292592522E+03  0.17300000000E+03 0. -1.
         -6    1    1    2    0  502  0.75198713923E+02 -0.82710496421E+01  0.32714388764E+03  0.37772394690E+03  0.17300000000E+03 0. -1.
<mgrwt>
<rscale>  2 0.18881805E+03</rscale>
<asrwt>0</asrwt>
<pdfrwt beam="1">  1       21 0.78169778E-01 0.18881805E+03</pdfrwt>
<pdfrwt beam="2">  1       21 0.12699432E-01 0.18881805E+03</pdfrwt>
<totfact> 0.76947063E+04</totfact>
</mgrwt>
</event>
<event>
 4    1  0.4056666E+000  0.1946285E+03  0.7546771E-02  0.1154352E+00
         21   -1    0    0  503  502  0.00000000000E+00  0.00000000000E+00  0.21823470315E+03  0.21823470315E+03  0.00000000000E+00 0.  1.
         21   -1    0    0  501  503 -0.00000000000E+00 -0.00000000000E+00 -0.49205481425E+03  0.49205481425E+03  0.00000000000E+00 0.  1.
          6    1    1    2  501    0 -0.44920112854E+02 -0.77028918112E+02 -0.42262901086E+03  0.46529082473E+03  0.17300000000E+03 0.  1.
         -6    1    1    2    0  502  0.44920112854E+02  0.77028918112E+02  0.14880889976E+03  0.24499869267E+03  0.17300000000E+03 0.  1.
<mgrwt>
<rscale>  2 0.19462855E+03</rscale>
<asrwt>0</asrwt>
<pdfrwt beam="1">  1       21 0.33574570E-01 0.19462855E+03</pdfrwt>
<pdfrwt beam="2">  1       21 0.75700740E-01 0.19462855E+03</pdfrwt>
<totfact> 0.13289137E+04</totfact>
</mgrwt>
</event>
<event>
 4    1  0.4056666E+000  0.2126524E+03  0.7546771E-02  0.1139483E+00
         21   -1    0    0  503  502  0.00000000000E+00  0.00000000000E+00  0.18358493109E+03  0.18358493109E+03  0.00000000000E+00 0. -1.
         21   -1    0    0  501  503 -0.00000000000E+00 -0.00000000000E+00 -0.75297878872E+03  0.75297878872E+03  0.00000000000E+00 0. -1.
          6    1    1    2  501    0 -0.12100649878E+03  0.25484495721E+02 -0.66882216335E+03  0.70181487477E+03  0.17300000000E+03 0. -1.
         -6    1    1    2    0  502  0.12100649878E+03 -0.25484495721E+02  0.99428305712E+02  0.23474884504E+03  0.17300000000E+03 0. -1.
<mgrwt>
<rscale>  2 0.21265237E+03</rscale>
<asrwt>0</asrwt>
<pdfrwt beam="1">  1       21 0.28243836E-01 0.21265237E+03</pdfrwt>
<pdfrwt beam="2">  1       21 0.11584289E+00 0.21265237E+03</pdfrwt>
<totfact> 0.67970734E+03</totfact>
</mgrwt>
</event>
<event>
 4    1  0.4056666E+000  0.1819757E+03  0.7546771E-02  0.1165905E+00
         21   -1    0    0  503  502  0.00000000000E+00  0.00000000000E+00  0.62211964800E+03  0.62211964800E+03  0.00000000000E+00 0.  1.
         21   -1    0    0  501  503 -0.00000000000E+00 -0.00000000000E+00 -0.61892672276E+02  0.61892672276E+02  0.00000000000E+00 0.  1.
          6    1    1    2  501    0 -0.31079794618E+02 -0.47119097743E+02  0.15216034267E+03  0.23720862735E+03  0.17300000000E+03 0.  1.
         -6    1    1    2    0  502  0.31079794618E+02  0.47119097743E+02  0.40806663305E+03  0.44680369293E+03  0.17300000000E+03 0.  1.
<mgrwt>
<rscale>  2 0.18197572E+03</rscale>
<asrwt>0</asrwt>
<pdfrwt beam="1">  1       21 0.95710711E-01 0.18197572E+03</pdfrwt>
<pdfrwt beam="2">  1       21 0.95219500E-02 0.18197572E+03</pdfrwt>
<totfact> 0.80905835E+04</totfact>
</mgrwt>
</event>
<event>
 4    1  0.4056666E+000  0.2146659E+03  0.7546771E-02  0.1137923E+00
         21   -1    0    0  501  502  0.00000000000E+00  0.00000000000E+00  0.31377857073E+03  0.31377857073E+03  0.00000000000E+00 0.  1.
         21   -1    0    0  502  503 -0.00000000000E+00 -0.00000000000E+00 -0.14882956459E+03  0.14882956459E+03  0.00000000000E+00 0. -1.
          6    1    1    2  501    0 -0.10819803719E+03 -0.66675525377E+02  0.10908493181E+03  0.24079236551E+03  0.17300000000E+03 0.  1.
         -6    1    1    2    0  503  0.10819803719E+03  0.66675525377E+02  0.55864074329E+02  0.22181576981E+03  0.17300000000E+03 0. -1.
<mgrwt>
<rscale>  2 0.21466588E+03</rscale>
<asrwt>0</asrwt>
<pdfrwt beam="1">  1       21 0.48273626E-01 0.21466588E+03</pdfrwt>
<pdfrwt beam="2">  1       21 0.22896856E-01 0.21466588E+03</pdfrwt>
<totfact> 0.72677907E+04</totfact>
</mgrwt>
</event>
<event>
 4    1  0.4056666E+000  0.1984903E+03  0.7546771E-02  0.1151019E+00
         21   -1    0    0  503  502  0.00000000000E+00  0.00000000000E+00  0.25012377269E+03  0.25012377269E+03  0.00000000000E+00 0. -1.
         21   -1    0    0  501  503 -0.00000000000E+00 -0.00000000000E+00 -0.19062735721E+03  0.19062735721E+03  0.00000000000E+00 0. -1.
          6    1    1    2  501    0 -0.96355085296E+02  0.13604368239E+02  0.12159464794E+03  0.23277379515E+03  0.17300000000E+03 0. -1.
         -6    1    1    2    0  502  0.96355085296E+02 -0.13604368239E+02 -0.62098232456E+02  0.20797733475E+03  0.17300000000E+03 0. -1.
<mgrwt>
<rscale>  2 0.19849025E+03</rscale>
<asrwt>0</asrwt>
<pdfrwt beam="1">  1       21 0.38480580E-01 0.19849025E+03</pdfrwt>
<pdfrwt beam="2">  1       21 0.29327286E-01 0.19849025E+03</pdfrwt>
<totfact> 0.72341502E+04</totfact>
</mgrwt>
</event>
<event>
 4    1  0.4056666E+000  0.2029058E+03  0.7546771E-02  0.1147310E+00
         21   -1    0    0  503  502  0.00000000000E+00  0.00000000000E+00  0.12842293668E+03  0.12842293668E+03  0.00000000000E+00 0.  1.
         21   -1    0    0  501  503 -0.00000000000E+00 -0.00000000000E+00 -0.32064616815E+03  0.32064616815E+03  0.00000000000E+00 0. -1.
          6    1    1    2  501    0  0.10028406922E+03 -0.34421821141E+02 -0.93068006922E+02  0.22323174107E+03  0.17300000000E+03 0. -1.
         -6    1    1    2    0  502 -0.10028406922E+03  0.34421821141E+02 -0.99155224547E+02  0.22583736375E+03  0.17300000000E+03 0. -1.
<mgrwt>
<rscale>  2 0.20290578E+03</rscale>
<asrwt>0</asrwt>
<pdfrwt beam="1">  1       21 0.19757375E-01 0.20290578E+03</pdfrwt>
<pdfrwt beam="2">  1       21 0.49330179E-01 0.20290578E+03</pdfrwt>
<totfact> 0.92154177E+04</totfact>
</mgrwt>
</event>
<event>
 4    1  0.4056666E+000  0.2238792E+03  0.7546771E-02  0.1131024E+00
         21   -1    0    0  501  502  0.00000000000E+00  0.00000000000E+00  0.62080244432E+02  0.62080244432E+02  0.00000000000E+00 0.  1.
         21   -1    0    0  502  503 -0.00000000000E+00 -0.00000000000E+00 -0.13145070749E+04  0.13145070749E+04  0.00000000000E+00 0. -1.
          6    1    1    2  501    0 -0.29732891320E+02  0.13895622246E+03 -0.19869585933E+03  0.29933579990E+03  0.17300000000E+03 0.  1.
         -6    1    1    2    0  503  0.29732891320E+02 -0.13895622246E+03 -0.10537309712E+04  0.10772515195E+04  0.17300000000E+03 0. -1.
<mgrwt>
<rscale>  2 0.22387916E+03</rscale>
<asrwt>0</asrwt>
<pdfrwt beam="1">  1       21 0.95508067E-02 0.22387916E+03</pdfrwt>
<pdfrwt beam="2">  1       21 0.20223186E+00 0.22387916E+03</pdfrwt>
<totfact> 0.11152528E+04</totfact>
</mgrwt>
</event>
<event>
 4    1  0.4056666E+000  0.2083316E+03  0.7546771E-02  0.1142894E+00
         21   -1    0    0  501  502  0.00000000000E+00  0.00000000000E+00  0.14771790718E+03  0.14771790718E+03  0.00000000000E+00 0. -1.
         21   -1    0    0  502  503 -0.00000000000E+00 -0.00000000000E+00 -0.31537187122E+03  0.31537187122E+03  0.00000000000E+00 0.  1.
          6    1    1    2  501    0  0.10542386648E+03 -0.48568312064E+02 -0.23293773390E+02  0.20962984625E+03  0.17300000000E+03 0. -1.
         -6    1    1    2    0  503 -0.10542386648E+03  0.48568312064E+02 -0.14436019065E+03  0.25345993215E+03  0.17300000000E+03 0. -1.
<mgrwt>
<rscale>  2 0.20833164E+03</rscale>
<asrwt>0</asrwt>
<pdfrwt beam="1">  1       21 0.22725832E-01 0.20833164E+03</pdfrwt>
<pdfrwt beam="2">  1       21 0.48518749E-01 0.20833164E+03</pdfrwt>
<totfact> 0.73141701E+04</totfact>
</mgrwt>
</event>
<event>
 4    1  0.4056666E+000  0.3067410E+03  0.7546771E-02  0.1081919E+00
         21   -1    0    0  503  502  0.00000000000E+00  0.00000000000E+00  0.11336008514E+03  0.11336008514E+03  0.00000000000E+00 0.  1.
         21   -1    0    0  501  503 -0.00000000000E+00 -0.00000000000E+00 -0.86165984358E+03  0.86165984358E+03  0.00000000000E+00 0. -1.
          6    1    1    2  501    0 -0.15250875124E+03 -0.20224268145E+03 -0.46758288420E+03  0.55921710901E+03  0.17300000000E+03 0.  1.
         -6    1    1    2    0  502  0.15250875124E+03  0.20224268145E+03 -0.28071687424E+03  0.41580281972E+03  0.17300000000E+03 0. -1.
<mgrwt>
<rscale>  2 0.30674097E+03</rscale>
<asrwt>0</asrwt>
<pdfrwt beam="1">  1       21 0.17440013E-01 0.30674097E+03</pdfrwt>
<pdfrwt beam="2">  1       21 0.13256305E+00 0.30674097E+03</pdfrwt>
<totfact> 0.11462101E+04</totfact>
</mgrwt>
</event>
<event>
 4    1  0.4056666E+000  0.1750626E+03  0.7546771E-02  0.1172669E+00
         21   -1    0    0  503  502  0.00000000000E+00  0.00000000000E+00  0.11111399248E+03  0.11111399248E+03  0.00000000000E+00 0.  1.
         21   -1    0    0  501  503 -0.00000000000E+00 -0.00000000000E+00 -0.33403003847E+03  0.33403003847E+03  0.00000000000E+00 0.  1.
          6    1    1    2  501    0 -0.86372216521E+01 -0.25363424081E+02 -0.20437507518E+03  0.26910235271E+03  0.17300000000E+03 0.  1.
         -6    1    1    2    0  502  0.86372216521E+01  0.25363424081E+02 -0.18540970809E+02  0.17604167824E+03  0.17300000000E+03 0.  1.
<mgrwt>
<rscale>  2 0.17506257E+03</rscale>
<asrwt>0</asrwt>
<pdfrwt beam="1">  1       21 0.17094460E-01 0.17506257E+03</pdfrwt>
<pdfrwt beam="2">  1       21 0.51389237E-01 0.17506257E+03</pdfrwt>
<totfact> 0.11184124E+05</totfact>
</mgrwt>
</event>
<event>
 4    1  0.4056666E+000  0.1793399E+03  0.7546771E-02  0.1168443E+00
         21   -1    0    0  503  502  0.00000000000E+00  0.00000000000E+00  0.21505924631E+03  0.21505924631E+03  0.00000000000E+00 0. -1.
         21   -1    0    0  501  503 -0.00000000000E+00 -0.00000000000E+00 -0.15128686733E+03  0.15128686733E+03  0.00000000000E+00 0. -1.
          6    1    1    2  501    0 -0.36007306007E+02  0.30614765812E+02  0.12277488968E+02  0.17975963592E+03  0.17300000000E+03 0.  1.
         -6    1    1    2    0  502  0.36007306007E+02 -0.30614765812E+02  0.51494890007E+02  0.18658647772E+03  0.17300000000E+03 0.  1.
<mgrwt>
<rscale>  2 0.17933987E+03</rscale>
<asrwt>0</asrwt>
<pdfrwt beam="1">  1       21 0.33086038E-01 0.17933987E+03</pdfrwt>
<pdfrwt beam="2">  1       21 0.23274903E-01 0.17933987E+03</pdfrwt>
<totfact> 0.15327784E+05</totfact>
</mgrwt>
</event>
<event>
 4    1  0.4056666E+000  0.1976091E+03  0.7546771E-02  0.1151772E+00
         21   -1    0    0  501  502  0.00000000000E+00  0.00000000000E+00  0.22461994806E+03  0.22461994806E+03  0.00000000000E+00 0. -1.
         21   -1    0    0  502  503 -0.00000000000E+00 -0.00000000000E+00 -0.25546842057E+03  0.25546842057E+03  0.00000000000E+00 0. -1.
          6    1    1    2  501    0  0.93974390580E+02  0.17004840513E+02 -0.15110755848E+03  0.24876262765E+03  0.17300000000E+03 0. -1.
         -6    1    1    2    0  503 -0.93974390580E+02 -0.17004840513E+02  0.12025908597E+03  0.23132574099E+03  0.17300000000E+03 0. -1.
<mgrwt>
<rscale>  2 0.19760909E+03</rscale>
<asrwt>0</asrwt>
<pdfrwt beam="1">  1       21 0.34556915E-01 0.19760909E+03</pdfrwt>
<pdfrwt beam="2">  1       21 0.39302834E-01 0.19760909E+03</pdfrwt>
<totfact> 0.50249673E+04</totfact>
</mgrwt>
</event>
<event>
 4    1  0.4056666E+000  0.1772555E+03  0.7546771E-02  0.1170486E+00
         21   -1    0    0  501  502  0.00000000000E+00  0.00000000000E+00  0.24201261067E+03  0.24201261067E+03  0.00000000000E+00 0.  1.
         21   -1    0    0  502  503 -0.00000000000E+00 -0.00000000000E+00 -0.18532483196E+03  0.18532483196E+03  0.00000000000E+00 0.  1.
          6    1    1    2  501    0 -0.52560509681E+01  0.38247479177E+02  0.14527137366E+03  0.22917955349E+03  0.17300000000E+03 0. -1.
         -6    1    1    2    0  503  0.52560509681E+01 -0.38247479177E+02 -0.88583594948E+02  0.19815788914E+03  0.17300000000E+03 0. -1.
<mgrwt>
<rscale>  2 0.17725545E+03</rscale>
<asrwt>0</asrwt>
<pdfrwt beam="1">  1       21 0.37232709E-01 0.17725545E+03</pdfrwt>
<pdfrwt beam="2">  1       21 0.28511513E-01 0.17725545E+03</pdfrwt>
<totfact> 0.82353584E+04</totfact>
</mgrwt>
</event>
<event>
 4    1  0.4056666E+000  0.2145830E+03  0.7546771E-02  0.1137987E+00
         21   -1    0    0  503  502  0.00000000000E+00  0.00000000000E+00  0.80043928656E+03  0.80043928656E+03  0.00000000000E+00 0. -1.
         21   -1    0    0  501  503 -0.00000000000E+00 -0.00000000000E+00 -0.77650887347E+02  0.77650887347E+02  0.00000000000E+00 0.  1.
          6    1    1    2  501    0  0.58222781060E+01 -0.12681862040E+03  0.13787982613E+03  0.25506216469E+03  0.17300000000E+03 0.  1.
         -6    1    1    2    0  502 -0.58222781060E+01  0.12681862040E+03  0.58490857309E+03  0.62302800922E+03  0.17300000000E+03 0. -1.
<mgrwt>
<rscale>  2 0.21458299E+03</rscale>
<asrwt>0</asrwt>
<pdfrwt beam="1">  1       21 0.12314450E+00 0.21458299E+03</pdfrwt>
<pdfrwt beam="2">  1       21 0.11946291E-01 0.21458299E+03</pdfrwt>
<totfact> 0.28918382E+04</totfact>
</mgrwt>
</event>
<event>
 4    1  0.4056666E+000  0.2710086E+03  0.7546771E-02  0.1100704E+00
         21   -1    0    0  501  502  0.00000000000E+00  0.00000000000E+00  0.59677736810E+03  0.59677736810E+03  0.00000000000E+00 0.  1.
         21   -1    0    0  502  503 -0.00000000000E+00 -0.00000000000E+00 -0.16002193562E+03  0.16002193562E+03  0.00000000000E+00 0. -1.
          6    1    1    2  501    0 -0.20544169436E+03  0.36199129754E+02  0.40021245050E+03  0.48333805179E+03  0.17300000000E+03 0.  1.
         -6    1    1    2    0  503  0.20544169436E+03 -0.36199129754E+02  0.36542981971E+02  0.27346125193E+03  0.17300000000E+03 0. -1.
<mgrwt>
<rscale>  2 0.27100861E+03</rscale>
<asrwt>0</asrwt>
<pdfrwt beam="1">  1       21 0.91811901E-01 0.27100861E+03</pdfrwt>
<pdfrwt beam="2">  1       21 0.24618760E-01 0.27100861E+03</pdfrwt>
<totfact> 0.14969209E+04</totfact>
</mgrwt>
</event>
<event>
 4    1  0.4056666E+000  0.1826994E+03  0.7546771E-02  0.1165216E+00
         21   -1    0    0  501  502  0.00000000000E+00  0.00000000000E+00  0.13716552234E+03  0.13716552234E+03  0.00000000000E+00 0. -1.
         21   -1    0    0  502  503 -0.00000000000E+00 -0.00000000000E+00 -0.30297231075E+03  0.30297231075E+03  0.00000000000E+00 0. -1.
          6    1    1    2  501    0 -0.51788295661E+02  0.27713829925E+02  0.14722609549E+02  0.18329167785E+03  0.17300000000E+03 0. -1.
         -6    1    1    2    0  503  0.51788295661E+02 -0.27713829925E+02 -0.18052939795E+03  0.25684615524E+03  0.17300000000E+03 0. -1.
<mgrwt>
<rscale>  2 0.18269944E+03</rscale>
<asrwt>0</asrwt>
<pdfrwt beam="1">  1       21 0.21102388E-01 0.18269944E+03</pdfrwt>
<pdfrwt beam="2">  1       21 0.46611124E-01 0.18269944E+03</pdfrwt>
<totfact> 0.92370779E+04</totfact>
</mgrwt>
</event>
<event>
 4    1  0.4056666E+000  0.2502981E+03  0.7546771E-02  0.1113117E+00
         21   -1    0    0  501  502  0.00000000000E+00  0.00000000000E+00  0.22155463821E+03  0.22155463821E+03  0.00000000000E+00 0. -1.
         21   -1    0    0  502  503 -0.00000000000E+00 -0.00000000000E+00 -0.28382324555E+03  0.28382324555E+03  0.00000000000E+00 0.  1.
          6    1    1    2  501    0 -0.20510791077E+02  0.17972053098E+03 -0.46522267236E+02  0.25458492327E+03  0.17300000000E+03 0. -1.
         -6    1    1    2    0  503  0.20510791077E+02 -0.17972053098E+03 -0.15746340100E+02  0.25079296049E+03  0.17300000000E+03 0. -1.
<mgrwt>
<rscale>  2 0.25029815E+03</rscale>
<asrwt>0</asrwt>
<pdfrwt beam="1">  1       21 0.34085329E-01 0.25029815E+03</pdfrwt>
<pdfrwt beam="2">  1       21 0.43665115E-01 0.25029815E+03</pdfrwt>
<totfact> 0.40692786E+04</totfact>
</mgrwt>
</event>
<event>
 4    1  0.4056666E+000  0.2037914E+03  0.7546771E-02  0.1146579E+00
         21   -1    0    0  501  502  0.00000000000E+00  0.00000000000E+00  0.35499527841E+03  0.35499527841E+03  0.00000000000E+00 0. -1.
         21   -1    0    0  502  503 -0.00000000000E+00 -0.00000000000E+00 -0.29013008171E+03  0.29013008171E+03  0.00000000000E+00 0. -1.
          6    1    1    2  501    0 -0.45629504572E+02 -0.97569920381E+02  0.28161444174E+03  0.34761708078E+03  0.17300000000E+03 0. -1.
         -6    1    1    2    0  503  0.45629504572E+02  0.97569920381E+02 -0.21674924505E+03  0.29750827935E+03  0.17300000000E+03 0. -1.
<mgrwt>
<rscale>  2 0.20379142E+03</rscale>
<asrwt>0</asrwt>
<pdfrwt beam="1">  1       21 0.54614658E-01 0.20379142E+03</pdfrwt>
<pdfrwt beam="2">  1       21 0.44635397E-01 0.20379142E+03</pdfrwt>
<totfact> 0.15147084E+04</totfact>
</mgrwt>
</event>
<event>
 4    1  0.4056666E+000  0.1948061E+03  0.7546771E-02  0.1154197E+00
         21   -1    0    0  503  502  0.00000000000E+00  0.00000000000E+00  0.47630641363E+03  0.47630641363E+03  0.00000000000E+00 0.  1.
         21   -1    0    0  501  503 -0.00000000000E+00 -0.00000000000E+00 -0.12677896585E+03  0.12677896585E+03  0.00000000000E+00 0.  1.
          6    1    1    2  501    0 -0.63007962668E+02  0.63642735948E+02 -0.90411238089E+01  0.19501575095E+03  0.17300000000E+03 0.  1.
         -6    1    1    2    0  502  0.63007962668E+02 -0.63642735948E+02  0.35856857159E+03  0.40806962853E+03  0.17300000000E+03 0.  1.
<mgrwt>
<rscale>  2 0.19480606E+03</rscale>
<asrwt>0</asrwt>
<pdfrwt beam="1">  1       21 0.73277909E-01 0.19480606E+03</pdfrwt>
<pdfrwt beam="2">  1       21 0.19504457E-01 0.19480606E+03</pdfrwt>
<totfact> 0.40458174E+04</totfact>
</mgrwt>
</event>
<event>
 4    1  0.4056666E+000  0.2880985E+03  0.7546771E-02  0.1091346E+00
         21   -1    0    0  501  502  0.00000000000E+00  0.00000000000E+00  0.19733934140E+03  0.19733934140E+03  0.00000000000E+00 0. -1.
         21   -1    0    0  502  503 -0.00000000000E+00 -0.00000000000E+00 -0.47263060320E+03  0.47263060320E+03  0.00000000000E+00 0.  1.
          6    1    1    2  501    0  0.31946139386E+02  0.22814726338E+03 -0.26498563130E+02  0.28931454069E+03  0.17300000000E+03 0. -1.
         -6    1    1    2    0  503 -0.31946139386E+02 -0.22814726338E+03 -0.24879269868E+03  0.38065540391E+03  0.17300000000E+03 0.  1.
<mgrwt>
<rscale>  2 0.28809847E+03</rscale>
<asrwt>0</asrwt>
<pdfrwt beam="1">  1       21 0.30359899E-01 0.28809847E+03</pdfrwt>
<pdfrwt beam="2">  1       21 0.72712399E-01 0.28809847E+03</pdfrwt>
<totfact> 0.16866983E+04</totfact>
</mgrwt>
</event>
<event>
 4    1  0.4056666E+000  0.1871683E+03  0.7546771E-02  0.1161040E+00
         21   -1    0    0  503  502  0.00000000000E+00  0.00000000000E+00  0.46151498011E+02  0.46151498011E+02  0.00000000000E+00 0. -1.
         21   -1    0    0  501  503 -0.00000000000E+00 -0.00000000000E+00 -0.19572307011E+04  0.19572307011E+04  0.00000000000E+00 0. -1.
          6    1    1    2  501    0 -0.44065013447E+02  0.56225019827E+02 -0.17392782804E+04  0.17493201293E+04  0.17300000000E+03 0. -1.
         -6    1    1    2    0  502  0.44065013447E+02 -0.56225019827E+02 -0.17180092274E+03  0.25406206981E+03  0.17300000000E+03 0. -1.
<mgrwt>
<rscale>  2 0.18716832E+03</rscale>
<asrwt>0</asrwt>
<pdfrwt beam="1">  1       21 0.71002301E-02 0.18716832E+03</pdfrwt>
<pdfrwt beam="2">  1       21 0.30111243E+00 0.18716832E+03</pdfrwt>
<totfact> 0.49968439E+03</totfact>
</mgrwt>
</event>
<event>
 4    1  0.4056666E+000  0.1744282E+03  0.7546771E-02  0.1173307E+00
         21   -1    0    0  501  502  0.00000000000E+00  0.00000000000E+00  0.53713336678E+03  0.53713336678E+03  0.00000000000E+00 0. -1.
         21   -1    0    0  502  503 -0.00000000000E+00 -0.00000000000E+00 -0.10845808644E+03  0.10845808644E+03  0.00000000000E+00 0. -1.
          6    1    1    2  501    0  0.22212684105E+02 -0.16691022012E+01  0.43744928488E+03  0.47094274183E+03  0.17300000000E+03 0. -1.
         -6    1    1    2    0  503 -0.22212684105E+02  0.16691022012E+01 -0.87740045429E+01  0.17464871140E+03  0.17300000000E+03 0. -1.
<mgrwt>
<rscale>  2 0.17442818E+03</rscale>
<asrwt>0</asrwt>
<pdfrwt beam="1">  1       21 0.82635901E-01 0.17442818E+03</pdfrwt>
<pdfrwt beam="2">  1       21 0.16685860E-01 0.17442818E+03</pdfrwt>
<totfact> 0.41646671E+04</totfact>
</mgrwt>
</event>
<event>
 4    1  0.4056666E+000  0.2049166E+03  0.7546771E-02  0.1145656E+00
         21   -1    0    0  503  502  0.00000000000E+00  0.00000000000E+00  0.32077587288E+03  0.32077587288E+03  0.00000000000E+00 0. -1.
         21   -1    0    0  501  503 -0.00000000000E+00 -0.00000000000E+00 -0.29857428156E+03  0.29857428156E+03  0.00000000000E+00 0. -1.
          6    1    1    2  501    0  0.10616256988E+03  0.28130173126E+02 -0.22096348184E+03  0.30135636411E+03  0.17300000000E+03 0. -1.
         -6    1    1    2    0  502 -0.10616256988E+03 -0.28130173126E+02  0.24316507316E+03  0.31799379033E+03  0.17300000000E+03 0. -1.
<mgrwt>
<rscale>  2 0.20491656E+03</rscale>
<asrwt>0</asrwt>
<pdfrwt beam="1">  1       21 0.49350134E-01 0.20491656E+03</pdfrwt>
<pdfrwt beam="2">  1       21 0.45934505E-01 0.20491656E+03</pdfrwt>
<totfact> 0.17653419E+04</totfact>
</mgrwt>
</event>
<event>
 4    1  0.4056666E+000  0.2143214E+03  0.7546771E-02  0.1138189E+00
         21   -1    0    0  503  502  0.00000000000E+00  0.00000000000E+00  0.12327235356E+04  0.12327235356E+04  0.00000000000E+00 0. -1.
         21   -1    0    0  501  503 -0.00000000000E+00 -0.00000000000E+00 -0.37447781363E+02  0.37447781363E+02  0.00000000000E+00 0.  1.
          6    1    1    2  501    0  0.12561718929E+03 -0.14999861466E+02  0.64237694952E+03  0.67718669461E+03  0.17300000000E+03 0. -1.
         -6    1    1    2    0  502 -0.12561718929E+03  0.14999861466E+02  0.55289880476E+03  0.59298462240E+03  0.17300000000E+03 0. -1.
<mgrwt>
<rscale>  2 0.21432143E+03</rscale>
<asrwt>0</asrwt>
<pdfrwt beam="1">  1       21 0.18964974E+00 0.21432143E+03</pdfrwt>
<pdfrwt beam="2">  1       21 0.57611981E-02 0.21432143E+03</pdfrwt>
<totfact> 0.32664564E+04</totfact>
</mgrwt>
</event>
<event>
 4    1  0.4056666E+000  0.1822244E+03  0.7546771E-02  0.1165667E+00
         21   -1    0    0  503  502  0.00000000000E+00  0.00000000000E+00  0.15113684504E+03  0.15113684504E+03  0.00000000000E+00 0.  1.
         21   -1    0    0  501  503 -0.00000000000E+00 -0.00000000000E+00 -0.31908112157E+03  0.31908112157E+03  0.00000000000E+00 0.  1.
          6    1    1    2  501    0 -0.39507667077E+02 -0.41423334591E+02 -0.21517895396E+03  0.28197115213E+03  0.17300000000E+03 0.  1.
         -6    1    1    2    0  502  0.39507667077E+02  0.41423334591E+02  0.47234677441E+02  0.18824681447E+03  0.17300000000E+03 0.  1.
<mgrwt>
<rscale>  2 0.18222445E+03</rscale>
<asrwt>0</asrwt>
<pdfrwt beam="1">  1       21 0.23251822E-01 0.18222445E+03</pdfrwt>
<pdfrwt beam="2">  1       21 0.49089403E-01 0.18222445E+03</pdfrwt>
<totfact> 0.69139772E+04</totfact>
</mgrwt>
</event>
<event>
 4    1  0.4056666E+000  0.2019562E+03  0.7546771E-02  0.1148099E+00
         21   -1    0    0  503  502  0.00000000000E+00  0.00000000000E+00  0.11666356430E+03  0.11666356430E+03  0.00000000000E+00 0. -1.
         21   -1    0    0  501  503 -0.00000000000E+00 -0.00000000000E+00 -0.40832064901E+03  0.40832064901E+03  0.00000000000E+00 0. -1.
          6    1    1    2  501    0 -0.10267676864E+03 -0.17742452684E+02 -0.24536629166E+03  0.31779070239E+03  0.17300000000E+03 0. -1.
         -6    1    1    2    0  502  0.10267676864E+03  0.17742452684E+02 -0.46290793052E+02  0.20719351092E+03  0.17300000000E+03 0. -1.
<mgrwt>
<rscale>  2 0.20195622E+03</rscale>
<asrwt>0</asrwt>
<pdfrwt beam="1">  1       21 0.17948241E-01 0.20195622E+03</pdfrwt>
<pdfrwt beam="2">  1       21 0.62818561E-01 0.20195622E+03</pdfrwt>
<totfact> 0.65965059E+04</totfact>
</mgrwt>
</event>
<event>
 4    1  0.4056666E+000  0.3275368E+03  0.7546771E-02  0.1072232E+00
         21   -1    0    0  503  502  0.00000000000E+00  0.00000000000E+00  0.78737792740E+02  0.78737792740E+02  0.00000000000E+00 0.  1.
         21   -1    0    0  501  503 -0.00000000000E+00 -0.00000000000E+00 -0.14555361386E+04  0.14555361386E+04  0.00000000000E+00 0. -1.
          6    1    1    2  501    0  0.21059364441E+03  0.18166361907E+03 -0.88234657362E+03  0.94117789473E+03  0.17300000000E+03 0. -1.
         -6    1    1    2    0  502 -0.21059364441E+03 -0.18166361907E+03 -0.49445177223E+03  0.59309603659E+03  0.17300000000E+03 0.  1.
<mgrwt>
<rscale>  2 0.32753680E+03</rscale>
<asrwt>0</asrwt>
<pdfrwt beam="1">  1       21 0.12113507E-01 0.32753680E+03</pdfrwt>
<pdfrwt beam="2">  1       21 0.22392863E+00 0.32753680E+03</pdfrwt>
<totfact> 0.49662652E+03</totfact>
</mgrwt>
</event>
<event>
 4    1  0.4056666E+000  0.2091502E+03  0.7546771E-02  0.1142241E+00
         21   -1    0    0  501  502  0.00000000000E+00  0.00000000000E+00  0.87164678130E+03  0.87164678130E+03  0.00000000000E+00 0. -1.
         21   -1    0    0  502  503 -0.00000000000E+00 -0.00000000000E+00 -0.52002694789E+02  0.52002694789E+02  0.00000000000E+00 0.  1.
          6    1    1    2  501    0 -0.11752237110E+03  0.18128708672E+01  0.32348498062E+03  0.38520945847E+03  0.17300000000E+03 0. -1.
         -6    1    1    2    0  503  0.11752237110E+03 -0.18128708672E+01  0.49615910589E+03  0.53844001761E+03  0.17300000000E+03 0.  1.
<mgrwt>
<rscale>  2 0.20915017E+03</rscale>
<asrwt>0</asrwt>
<pdfrwt beam="1">  1       21 0.13409949E+00 0.20915017E+03</pdfrwt>
<pdfrwt beam="2">  1       21 0.80004152E-02 0.20915017E+03</pdfrwt>
<totfact> 0.47514289E+04</totfact>
</mgrwt>
</event>
<event>
 4    1  0.4056666E+000  0.2604811E+03  0.7546771E-02  0.1106855E+00
         21   -1    0    0  501  502  0.00000000000E+00  0.00000000000E+00  0.17951429710E+03  0.17951429710E+03  0.00000000000E+00 0. -1.
         21   -1    0    0  502  503 -0.00000000000E+00 -0.00000000000E+00 -0.47624705493E+03  0.47624705493E+03  0.00000000000E+00 0.  1.
          6    1    1    2  501    0 -0.15191670069E+03  0.12183072746E+03 -0.29731388294E+03  0.39527959104E+03  0.17300000000E+03 0.  1.
         -6    1    1    2    0  503  0.15191670069E+03 -0.12183072746E+03  0.58112510744E+00  0.26048176099E+03  0.17300000000E+03 0. -1.
<mgrwt>
<rscale>  2 0.26048111E+03</rscale>
<asrwt>0</asrwt>
<pdfrwt beam="1">  1       21 0.27617584E-01 0.26048111E+03</pdfrwt>
<pdfrwt beam="2">  1       21 0.73268777E-01 0.26048111E+03</pdfrwt>
<totfact> 0.20205755E+04</totfact>
</mgrwt>
</event>
<event>
 4    1  0.4056666E+000  0.1821966E+03  0.7546771E-02  0.1165694E+00
         21   -1    0    0  501  502  0.00000000000E+00  0.00000000000E+00  0.74458486712E+02  0.74458486712E+02  0.00000000000E+00 0. -1.
         21   -1    0    0  502  503 -0.00000000000E+00 -0.00000000000E+00 -0.49886896929E+03  0.49886896929E+03  0.00000000000E+00 0. -1.
          6    1    1    2  501    0 -0.57153935016E+02  0.18032951423E+00 -0.11873157845E+03  0.21746906108E+03  0.17300000000E+03 0. -1.
         -6    1    1    2    0  503  0.57153935016E+02 -0.18032951423E+00 -0.30567890413E+03  0.35585839492E+03  0.17300000000E+03 0. -1.
<mgrwt>
<rscale>  2 0.18219661E+03</rscale>
<asrwt>0</asrwt>
<pdfrwt beam="1">  1       21 0.11455152E-01 0.18219661E+03</pdfrwt>
<pdfrwt beam="2">  1       21 0.76749069E-01 0.18219661E+03</pdfrwt>
<totfact> 0.96675683E+04</totfact>
</mgrwt>
</event>
<event>
 4    1  0.4056666E+000  0.1893946E+03  0.7546771E-02  0.1159008E+00
         21   -1    0    0  501  502  0.00000000000E+00  0.00000000000E+00  0.17591529158E+03  0.17591529158E+03  0.00000000000E+00 0. -1.
         21   -1    0    0  502  503 -0.00000000000E+00 -0.00000000000E+00 -0.23921342958E+03  0.23921342958E+03  0.00000000000E+00 0.  1.
          6    1    1    2  501    0  0.60995667428E+02 -0.47125899403E+02  0.48093132158E+02  0.19540540218E+03  0.17300000000E+03 0. -1.
         -6    1    1    2    0  503 -0.60995667428E+02  0.47125899403E+02 -0.11139127015E+03  0.21972331898E+03  0.17300000000E+03 0.  1.
<mgrwt>
<rscale>  2 0.18939462E+03</rscale>
<asrwt>0</asrwt>
<pdfrwt beam="1">  1       21 0.27063891E-01 0.18939462E+03</pdfrwt>
<pdfrwt beam="2">  1       21 0.36802066E-01 0.18939462E+03</pdfrwt>
<totfact> 0.92759020E+04</totfact>
</mgrwt>
</event>
<event>
 4    1  0.4056666E+000  0.1735171E+03  0.7546771E-02  0.1174229E+00
         21   -1    0    0  501  502  0.00000000000E+00  0.00000000000E+00  0.37654146239E+02  0.37654146239E+02  0.00000000000E+00 0.  1.
         21   -1    0    0  502  503 -0.00000000000E+00 -0.00000000000E+00 -0.96165968509E+03  0.96165968509E+03  0.00000000000E+00 0.  1.
          6    1    1    2  501    0 -0.63508086753E+01  0.11783173118E+02 -0.25688583442E+03  0.30999759332E+03  0.17300000000E+03 0.  1.
         -6    1    1    2    0  503  0.63508086753E+01 -0.11783173118E+02 -0.66711970443E+03  0.68931623801E+03  0.17300000000E+03 0.  1.
<mgrwt>
<rscale>  2 0.17351708E+03</rscale>
<asrwt>0</asrwt>
<pdfrwt beam="1">  1       21 0.57929453E-02 0.17351708E+03</pdfrwt>
<pdfrwt beam="2">  1       21 0.14794765E+00 0.17351708E+03</pdfrwt>
<totfact> 0.65555517E+04</totfact>
</mgrwt>
</event>
<event>
 4    1  0.4056666E+000  0.1977077E+03  0.7546771E-02  0.1151688E+00
         21   -1    0    0  503  502  0.00000000000E+00  0.00000000000E+00  0.32432751718E+03  0.32432751718E+03  0.00000000000E+00 0. -1.
         21   -1    0    0  501  503 -0.00000000000E+00 -0.00000000000E+00 -0.12052559944E+03  0.12052559944E+03  0.00000000000E+00 0.  1.
          6    1    1    2  501    0  0.54277327753E+02 -0.78824613359E+02  0.10324176928E+03  0.22304082788E+03  0.17300000000E+03 0. -1.
         -6    1    1    2    0  502 -0.54277327753E+02  0.78824613359E+02  0.10056014846E+03  0.22181228874E+03  0.17300000000E+03 0. -1.
<mgrwt>
<rscale>  2 0.19770773E+03</rscale>
<asrwt>0</asrwt>
<pdfrwt beam="1">  1       21 0.49896541E-01 0.19770773E+03</pdfrwt>
<pdfrwt beam="2">  1       21 0.18542400E-01 0.19770773E+03</pdfrwt>
<totfact> 0.10149183E+05</totfact>
</mgrwt>
</event>
<event>
 4    1  0.4056666E+000  0.1869897E+03  0.7546771E-02  0.1161205E+00
         21   -1    0    0  501  502  0.00000000000E+00  0.00000000000E+00  0.75040454152E+02  0.75040454152E+02  0.00000000000E+00 0.  1.
         21   -1    0    0  502  503 -0.00000000000E+00 -0.00000000000E+00 -0.87809819643E+03  0.87809819643E+03  0.00000000000E+00 0.  1.
          6    1    1    2  501    0 -0.67308187906E+01 -0.70645820834E+02 -0.75030522090E+02  0.20148130228E+03  0.17300000000E+03 0.  1.
         -6    1    1    2    0  503  0.67308187906E+01  0.70645820834E+02 -0.72802722019E+03  0.75165734831E+03  0.17300000000E+03 0.  1.
<mgrwt>
<rscale>  2 0.18698967E+03</rscale>
<asrwt>0</asrwt>
<pdfrwt beam="1">  1       21 0.11544686E-01 0.18698967E+03</pdfrwt>
<pdfrwt beam="2">  1       21 0.13509202E+00 0.18698967E+03</pdfrwt>
<totfact> 0.24746222E+04</totfact>
</mgrwt>
</event>
<event>
 4    1  0.4056666E+000  0.1817079E+03  0.7546771E-02  0.1166160E+00
         21   -1    0    0  503  502  0.00000000000E+00  0.00000000000E+00  0.85347914434E+03  0.85347914434E+03  0.00000000000E+00 0.  1.
         21   -1    0    0  501  503 -0.00000000000E+00 -0.00000000000E+00 -0.86509669082E+02  0.86509669082E+02  0.00000000000E+00 0.  1.
          6    1    1    2  501    0 -0.32215473113E+02 -0.45287050634E+02  0.34037594748E+02  0.18486836268E+03  0.17300000000E+03 0.  1.
         -6    1    1    2    0  502  0.32215473113E+02  0.45287050634E+02  0.73293188051E+03  0.75512045074E+03  0.17300000000E+03 0.  1.
<mgrwt>
<rscale>  2 0.18170788E+03</rscale>
<asrwt>0</asrwt>
<pdfrwt beam="1">  1       21 0.13130448E+00 0.18170788E+03</pdfrwt>
<pdfrwt beam="2">  1       21 0.13309180E-01 0.18170788E+03</pdfrwt>
<totfact> 0.20681489E+04</totfact>
</mgrwt>
</event>
<event>
 4    1  0.4056666E+000  0.3351335E+03  0.7546771E-02  0.1068888E+00
         21   -1    0    0  503  502  0.00000000000E+00  0.00000000000E+00  0.20203573339E+04  0.20203573339E+04  0.00000000000E+00 0. -1.
         21   -1    0    0  501  503 -0.00000000000E+00 -0.00000000000E+00 -0.85960010007E+02  0.85960010007E+02  0.00000000000E+00 0. -1.
          6    1    1    2  501    0  0.11494663535E+03  0.26300708979E+03  0.34122197593E+03  0.47827491583E+03  0.17300000000E+03 0. -1.
         -6    1    1    2    0  502 -0.11494663535E+03 -0.26300708979E+03  0.15931753480E+04  0.16280424281E+04  0.17300000000E+03 0. -1.
<mgrwt>
<rscale>  2 0.33513349E+03</rscale>
<asrwt>0</asrwt>
<pdfrwt beam="1">  1       21 0.31082417E+00 0.33513349E+03</pdfrwt>
<pdfrwt beam="2">  1       21 0.13224618E-01 0.33513349E+03</pdfrwt>
<totfact> 0.12644485E+03</totfact>
</mgrwt>
</event>
<event>
 4    1  0.4056666E+000  0.2288642E+03  0.7546771E-02  0.1127442E+00
         21   -1    0    0  503  502  0.00000000000E+00  0.00000000000E+00  0.90449506713E+03  0.90449506713E+03  0.00000000000E+00 0.  1.
         21   -1    0    0  501  503 -0.00000000000E+00 -0.00000000000E+00 -0.43202016293E+03  0.43202016293E+03  0.00000000000E+00 0.  1.
          6    1    1    2  501    0  0.10451801286E+03  0.10735822724E+03 -0.38562163596E+03  0.44842262442E+03  0.17300000000E+03 0.  1.
         -6    1    1    2    0  502 -0.10451801286E+03 -0.10735822724E+03  0.85809654016E+03  0.88809260564E+03  0.17300000000E+03 0.  1.
<mgrwt>
<rscale>  2 0.22886416E+03</rscale>
<asrwt>0</asrwt>
<pdfrwt beam="1">  1       21 0.13915309E+00 0.22886416E+03</pdfrwt>
<pdfrwt beam="2">  1       21 0.66464641E-01 0.22886416E+03</pdfrwt>
<totfact> 0.72753746E+02</totfact>
</mgrwt>
</event>
<event>
 4    1  0.4056666E+000  0.2079456E+03  0.7546771E-02  0.1143203E+00
         21   -1    0    0  503  502  0.00000000000E+00  0.00000000000E+00  0.16932541715E+02  0.16932541715E+02  0.00000000000E+00 0.  1.
         21   -1    0    0  501  503 -0.00000000000E+00 -0.00000000000E+00 -0.26517837689E+04  0.26517837689E+04  0.00000000000E+00 0.  1.
          6    1    1    2  501    0 -0.74645802292E+02  0.87979363958E+02 -0.15739957695E+04  0.15876725251E+04  0.17300000000E+03 0.  1.
         -6    1    1    2    0  502  0.74645802292E+02 -0.87979363958E+02 -0.10608554576E+04  0.10810437855E+04  0.17300000000E+03 0.  1.
<mgrwt>
<rscale>  2 0.20794558E+03</rscale>
<asrwt>0</asrwt>
<pdfrwt beam="1">  1       21 0.26050050E-02 0.20794558E+03</pdfrwt>
<pdfrwt beam="2">  1       21 0.40796695E+00 0.20794558E+03</pdfrwt>
<totfact> 0.60828959E+03</totfact>
</mgrwt>
</event>
<event>
 4    1  0.4056666E+000  0.1804083E+03  0.7546771E-02  0.1167408E+00
         21   -1    0    0  501  502  0.00000000000E+00  0.00000000000E+00  0.39907380597E+03  0.39907380597E+03  0.00000000000E+00 0.  1.
         21   -1    0    0  502  503 -0.00000000000E+00 -0.00000000000E+00 -0.27488296322E+03  0.27488296322E+03  0.00000000000E+00 0.  1.
          6    1    1    2  501    0  0.49173949017E+02 -0.14145443259E+02  0.34469628269E+03  0.38905359287E+03  0.17300000000E+03 0.  1.
         -6    1    1    2    0  503 -0.49173949017E+02  0.14145443259E+02 -0.22050543995E+03  0.28490317631E+03  0.17300000000E+03 0.  1.
<mgrwt>
<rscale>  2 0.18040834E+03</rscale>
<asrwt>0</asrwt>
<pdfrwt beam="1">  1       21 0.61395971E-01 0.18040834E+03</pdfrwt>
<pdfrwt beam="2">  1       21 0.42289686E-01 0.18040834E+03</pdfrwt>
<totfact> 0.13375238E+04</totfact>
</mgrwt>
</event>
<event>
 4    1  0.4056666E+000  0.2007284E+03  0.7546771E-02  0.1149126E+00
         21   -1    0    0  503  502  0.00000000000E+00  0.00000000000E+00  0.65888280450E+02  0.65888280450E+02  0.00000000000E+00 0.  1.
         21   -1    0    0  501  503 -0.00000000000E+00 -0.00000000000E+00 -0.61464230064E+03  0.61464230064E+03  0.00000000000E+00 0.  1.
          6    1    1    2  501    0 -0.63079102055E+02 -0.79899506448E+02 -0.29863451700E+03  0.35982562303E+03  0.17300000000E+03 0.  1.
         -6    1    1    2    0  502  0.63079102055E+02  0.79899506448E+02 -0.25011950319E+03  0.32070495806E+03  0.17300000000E+03 0.  1.
<mgrwt>
<rscale>  2 0.20072843E+03</rscale>
<asrwt>0</asrwt>
<pdfrwt beam="1">  1       21 0.10136659E-01 0.20072843E+03</pdfrwt>
<pdfrwt beam="2">  1       21 0.94560353E-01 0.20072843E+03</pdfrwt>
<totfact> 0.73910030E+04</totfact>
</mgrwt>
</event>
<event>
 4    1  0.4056666E+000  0.1755888E+03  0.7546771E-02  0.1172142E+00
         21   -1    0    0  501  502  0.00000000000E+00  0.00000000000E+00  0.83686991399E+03  0.83686991399E+03  0.00000000000E+00 0. -1.
         21   -1    0    0  502  503 -0.00000000000E+00 -0.00000000000E+00 -0.51197516902E+02  0.51197516902E+02  0.00000000000E+00 0. -1.
          6    1    1    2  501    0 -0.24827246058E+02 -0.16912796400E+02  0.62796749191E+03  0.65205414325E+03  0.17300000000E+03 0.  1.
         -6    1    1    2    0  503  0.24827246058E+02  0.16912796400E+02  0.15770490518E+03  0.23601328765E+03  0.17300000000E+03 0.  1.
<mgrwt>
<rscale>  2 0.17558882E+03</rscale>
<asrwt>0</asrwt>
<pdfrwt beam="1">  1       21 0.12874921E+00 0.17558882E+03</pdfrwt>
<pdfrwt beam="2">  1       21 0.78765417E-02 0.17558882E+03</pdfrwt>
<totfact> 0.55098618E+04</totfact>
</mgrwt>
</event>
<event>
 4    1  0.4056666E+000  0.2140019E+03  0.7546771E-02  0.1138436E+00
         21   -1    0    0  503  502  0.00000000000E+00  0.00000000000E+00  0.10803015223E+03  0.10803015223E+03  0.00000000000E+00 0. -1.
         21   -1    0    0  501  503 -0.00000000000E+00 -0.00000000000E+00 -0.22337710058E+04  0.22337710058E+04  0.00000000000E+00 0. -1.
          6    1    1    2  501    0  0.11076007977E+03  0.60000139563E+02 -0.21168237164E+04  0.21276135595E+04  0.17300000000E+03 0. -1.
         -6    1    1    2    0  502 -0.11076007977E+03 -0.60000139563E+02 -0.89171370908E+01  0.21418759850E+03  0.17300000000E+03 0. -1.
<mgrwt>
<rscale>  2 0.21400190E+03</rscale>
<asrwt>0</asrwt>
<pdfrwt beam="1">  1       21 0.16620023E-01 0.21400190E+03</pdfrwt>
<pdfrwt beam="2">  1       21 0.34365708E+00 0.21400190E+03</pdfrwt>
<totfact> 0.60102109E+02</totfact>
</mgrwt>
</event>
<event>
 4    1  0.4056666E+000  0.1821542E+03  0.7546771E-02  0.1165734E+00
         21   -1    0    0  503  502  0.00000000000E+00  0.00000000000E+00  0.13007008217E+04  0.13007008217E+04  0.00000000000E+00 0. -1.
         21   -1    0    0  501  503 -0.00000000000E+00 -0.00000000000E+00 -0.39166107239E+02  0.39166107239E+02  0.00000000000E+00 0. -1.
          6    1    1    2  501    0 -0.49049730186E+02 -0.29073849687E+02  0.23517431388E+03  0.29746785150E+03  0.17300000000E+03 0.  1.
         -6    1    1    2    0  502  0.49049730186E+02  0.29073849687E+02  0.10263604005E+04  0.10423990774E+04  0.17300000000E+03 0.  1.
<mgrwt>
<rscale>  2 0.18215423E+03</rscale>
<asrwt>0</asrwt>
<pdfrwt beam="1">  1       21 0.20010779E+00 0.18215423E+03</pdfrwt>
<pdfrwt beam="2">  1       21 0.60255560E-02 0.18215423E+03</pdfrwt>
<totfact> 0.26444436E+04</totfact>
</mgrwt>
</event>
<event>
 4    1  0.4056666E+000  0.2118993E+03  0.7546771E-02  0.1140071E+00
         21   -1    0    0  501  502  0.00000000000E+00  0.00000000000E+00  0.58399605237E+02  0.58399605237E+02  0.00000000000E+00 0. -1.
         21   -1    0    0  502  503 -0.00000000000E+00 -0.00000000000E+00 -0.12615392716E+04  0.12615392716E+04  0.00000000000E+00 0. -1.
          6    1    1    2  501    0  0.10859865895E+03  0.56379471316E+02 -0.18913615048E+03  0.28403133090E+03  0.17300000000E+03 0. -1.
         -6    1    1    2    0  503 -0.10859865895E+03 -0.56379471316E+02 -0.10140035159E+04  0.10359075459E+04  0.17300000000E+03 0. -1.
<mgrwt>
<rscale>  2 0.21189930E+03</rscale>
<asrwt>0</asrwt>
<pdfrwt beam="1">  1       21 0.89845545E-02 0.21189930E+03</pdfrwt>
<pdfrwt beam="2">  1       21 0.19408297E+00 0.21189930E+03</pdfrwt>
<totfact> 0.14155989E+04</totfact>
</mgrwt>
</event>
<event>
 4    1  0.4056666E+000  0.1767603E+03  0.7546771E-02  0.1170976E+00
         21   -1    0    0  501  502  0.00000000000E+00  0.00000000000E+00  0.24514240406E+02  0.24514240406E+02  0.00000000000E+00 0.  1.
         21   -1    0    0  502  503 -0.00000000000E+00 -0.00000000000E+00 -0.20792617870E+04  0.20792617870E+04  0.00000000000E+00 0.  1.
          6    1    1    2  501    0 -0.19069686689E+02  0.30847404407E+02 -0.37297931552E+03  0.41274421270E+03  0.17300000000E+03 0.  1.
         -6    1    1    2    0  503  0.19069686689E+02 -0.30847404407E+02 -0.16817682311E+04  0.16910318147E+04  0.17300000000E+03 0.  1.
<mgrwt>
<rscale>  2 0.17676033E+03</rscale>
<asrwt>0</asrwt>
<pdfrwt beam="1">  1       21 0.37714198E-02 0.17676033E+03</pdfrwt>
<pdfrwt beam="2">  1       21 0.31988658E+00 0.17676033E+03</pdfrwt>
<totfact> 0.11544904E+04</totfact>
</mgrwt>
</event>
<event>
 4    1  0.4056666E+000  0.2196534E+03  0.7546771E-02  0.1134142E+00
         21   -1    0    0  501  502  0.00000000000E+00  0.00000000000E+00  0.19385536701E+03  0.19385536701E+03  0.00000000000E+00 0.  1.
         21   -1    0    0  502  503 -0.00000000000E+00 -0.00000000000E+00 -0.65527820057E+03  0.65527820057E+03  0.00000000000E+00 0. -1.
          6    1    1    2  501    0  0.13533886050E+03  0.14232214337E+01  0.10364259345E+03  0.24287737626E+03  0.17300000000E+03 0.  1.
         -6    1    1    2    0  503 -0.13533886050E+03 -0.14232214337E+01 -0.56506542701E+03  0.60625619133E+03  0.17300000000E+03 0. -1.
<mgrwt>
<rscale>  2 0.21965344E+03</rscale>
<asrwt>0</asrwt>
<pdfrwt beam="1">  1       21 0.29823903E-01 0.21965344E+03</pdfrwt>
<pdfrwt beam="2">  1       21 0.10081203E+00 0.21965344E+03</pdfrwt>
<totfact> 0.85176056E+03</totfact>
</mgrwt>
</event>
<event>
 4    1  0.4056666E+000  0.2156381E+03  0.7546771E-02  0.1137177E+00
         21   -1    0    0  501  502  0.00000000000E+00  0.00000000000E+00  0.72245139262E+03  0.72245139262E+03  0.00000000000E+00 0.  1.
         21   -1    0    0  502  503 -0.00000000000E+00 -0.00000000000E+00 -0.94149536384E+02  0.94149536384E+02  0.00000000000E+00 0.  1.
          6    1    1    2  501    0  0.52443448606E+02  0.11756057963E+03  0.54380495312E+03  0.58499883096E+03  0.17300000000E+03 0.  1.
         -6    1    1    2    0  503 -0.52443448606E+02 -0.11756057963E+03  0.84496903117E+02  0.23160209805E+03  0.17300000000E+03 0.  1.
<mgrwt>
<rscale>  2 0.21563813E+03</rscale>
<asrwt>0</asrwt>
<pdfrwt beam="1">  1       21 0.11114636E+00 0.21563813E+03</pdfrwt>
<pdfrwt beam="2">  1       21 0.14484545E-01 0.21563813E+03</pdfrwt>
<totfact> 0.26269298E+04</totfact>
</mgrwt>
</event>
<event>
 4    1  0.4056666E+000  0.2787185E+03  0.7546771E-02  0.1096391E+00
         21   -1    0    0  503  502  0.00000000000E+00  0.00000000000E+00  0.22086299188E+03  0.22086299188E+03  0.00000000000E+00 0.  1.
         21   -1    0    0  501  503 -0.00000000000E+00 -0.00000000000E+00 -0.43425692303E+03  0.43425692303E+03  0.00000000000E+00 0.  1.
          6    1    1    2  501    0  0.11076764993E+03 -0.18837607882E+03 -0.24949318062E+03  0.37407334377E+03  0.17300000000E+03 0.  1.
         -6    1    1    2    0  502 -0.11076764993E+03  0.18837607882E+03  0.36099249467E+02  0.28104657115E+03  0.17300000000E+03 0.  1.
<mgrwt>
<rscale>  2 0.27871853E+03</rscale>
<asrwt>0</asrwt>
<pdfrwt beam="1">  1       21 0.33978922E-01 0.27871853E+03</pdfrwt>
<pdfrwt beam="2">  1       21 0.66808756E-01 0.27871853E+03</pdfrwt>
<totfact> 0.16356491E+04</totfact>
</mgrwt>
</event>
<event>
 4    1  0.4056666E+000  0.1738633E+03  0.7546771E-02  0.1173878E+00
         21   -1    0    0  501  502  0.00000000000E+00  0.00000000000E+00  0.15680387984E+03  0.15680387984E+03  0.00000000000E+00 0. -1.
         21   -1    0    0  502  503 -0.00000000000E+00 -0.00000000000E+00 -0.33457043037E+03  0.33457043037E+03  0.00000000000E+00 0. -1.
          6    1    1    2  501    0  0.14671522254E+02 -0.91748995639E+01  0.71059371741E+02  0.18782403110E+03  0.17300000000E+03 0. -1.
         -6    1    1    2    0  503 -0.14671522254E+02  0.91748995639E+01 -0.24882592227E+03  0.30355027910E+03  0.17300000000E+03 0. -1.
<mgrwt>
<rscale>  2 0.17386326E+03</rscale>
<asrwt>0</asrwt>
<pdfrwt beam="1">  1       21 0.24123674E-01 0.17386326E+03</pdfrwt>
<pdfrwt beam="2">  1       21 0.51472374E-01 0.17386326E+03</pdfrwt>
<totfact> 0.58642048E+04</totfact>
</mgrwt>
</event>
<event>
 4    1  0.4056666E+000  0.1989353E+03  0.7546771E-02  0.1150640E+00
         21   -1    0    0  503  502  0.00000000000E+00  0.00000000000E+00  0.26838358595E+03  0.26838358595E+03  0.00000000000E+00 0.  1.
         21   -1    0    0  501  503 -0.00000000000E+00 -0.00000000000E+00 -0.42140905063E+03  0.42140905063E+03  0.00000000000E+00 0. -1.
          6    1    1    2  501    0  0.90512908813E+02  0.38126796249E+02 -0.35459501115E+03  0.40658684335E+03  0.17300000000E+03 0. -1.
         -6    1    1    2    0  502 -0.90512908813E+02 -0.38126796249E+02  0.20156954647E+03  0.28320579323E+03  0.17300000000E+03 0.  1.
<mgrwt>
<rscale>  2 0.19893526E+03</rscale>
<asrwt>0</asrwt>
<pdfrwt beam="1">  1       21 0.41289783E-01 0.19893526E+03</pdfrwt>
<pdfrwt beam="2">  1       21 0.64832161E-01 0.19893526E+03</pdfrwt>
<totfact> 0.12328956E+04</totfact>
</mgrwt>
</event>
<event>
 4    1  0.4056666E+000  0.2753154E+03  0.7546771E-02  0.1098275E+00
         21   -1    0    0  501  502  0.00000000000E+00  0.00000000000E+00  0.11278020908E+03  0.11278020908E+03  0.00000000000E+00 0. -1.
         21   -1    0    0  502  503 -0.00000000000E+00 -0.00000000000E+00 -0.68315669167E+03  0.68315669167E+03  0.00000000000E+00 0.  1.
          6    1    1    2  501    0  0.54204456476E+02  0.20719906145E+03 -0.23453865438E+03  0.36167244098E+03  0.17300000000E+03 0. -1.
         -6    1    1    2    0  503 -0.54204456476E+02 -0.20719906145E+03 -0.33583782821E+03  0.43426445977E+03  0.17300000000E+03 0.  1.
<mgrwt>
<rscale>  2 0.27531541E+03</rscale>
<asrwt>0</asrwt>
<pdfrwt beam="1">  1       21 0.17350801E-01 0.27531541E+03</pdfrwt>
<pdfrwt beam="2">  1       21 0.10510103E+00 0.27531541E+03</pdfrwt>
<totfact> 0.20954914E+04</totfact>
</mgrwt>
</event>
<event>
 4    1  0.4056666E+000  0.2207891E+03  0.7546771E-02  0.1133296E+00
         21   -1    0    0  501  502  0.00000000000E+00  0.00000000000E+00  0.62051652867E+03  0.62051652867E+03  0.00000000000E+00 0. -1.
         21   -1    0    0  502  503 -0.00000000000E+00 -0.00000000000E+00 -0.46932287086E+03  0.46932287086E+03  0.00000000000E+00 0. -1.
          6    1    1    2  501    0 -0.83001258888E+02  0.10922281932E+03  0.57282216060E+03  0.61389987858E+03  0.17300000000E+03 0. -1.
         -6    1    1    2    0  503  0.83001258888E+02 -0.10922281932E+03 -0.42162850280E+03  0.47593952096E+03  0.17300000000E+03 0. -1.
<mgrwt>
<rscale>  2 0.22078911E+03</rscale>
<asrwt>0</asrwt>
<pdfrwt beam="1">  1       21 0.95464082E-01 0.22078911E+03</pdfrwt>
<pdfrwt beam="2">  1       21 0.72203518E-01 0.22078911E+03</pdfrwt>
<totfact> 0.15447657E+03</totfact>
</mgrwt>
</event>
<event>
 4    1  0.4056666E+000  0.1829622E+03  0.7546771E-02  0.1164967E+00
         21   -1    0    0  503  502  0.00000000000E+00  0.00000000000E+00  0.27121295349E+03  0.27121295349E+03  0.00000000000E+00 0.  1.
         21   -1    0    0  501  503 -0.00000000000E+00 -0.00000000000E+00 -0.14174923229E+03  0.14174923229E+03  0.00000000000E+00 0.  1.
          6    1    1    2  501    0 -0.59540082941E+02 -0.10628316773E+01 -0.95020903133E+01  0.18320873562E+03  0.17300000000E+03 0. -1.
         -6    1    1    2    0  502  0.59540082941E+02  0.10628316773E+01  0.13896581151E+03  0.22975345015E+03  0.17300000000E+03 0. -1.
<mgrwt>
<rscale>  2 0.18296216E+03</rscale>
<asrwt>0</asrwt>
<pdfrwt beam="1">  1       21 0.41725070E-01 0.18296216E+03</pdfrwt>
<pdfrwt beam="2">  1       21 0.21807574E-01 0.18296216E+03</pdfrwt>
<totfact> 0.10890277E+05</totfact>
</mgrwt>
</event>
<event>
 4    1  0.4056666E+000  0.1885248E+03  0.7546771E-02  0.1159799E+00
         21   -1    0    0  503  502  0.00000000000E+00  0.00000000000E+00  0.27166159591E+03  0.27166159591E+03  0.00000000000E+00 0. -1.
         21   -1    0    0  501  503 -0.00000000000E+00 -0.00000000000E+00 -0.92759636799E+03  0.92759636799E+03  0.00000000000E+00 0. -1.
          6    1    1    2  501    0 -0.66669370325E+02 -0.34172863464E+02 -0.88370333308E+03  0.90358904954E+03  0.17300000000E+03 0. -1.
         -6    1    1    2    0  502  0.66669370325E+02  0.34172863464E+02  0.22776856100E+03  0.29566891436E+03  0.17300000000E+03 0. -1.
<mgrwt>
<rscale>  2 0.18852477E+03</rscale>
<asrwt>0</asrwt>
<pdfrwt beam="1">  1       21 0.41794091E-01 0.18852477E+03</pdfrwt>
<pdfrwt beam="2">  1       21 0.14270713E+00 0.18852477E+03</pdfrwt>
<totfact> 0.18840684E+03</totfact>
</mgrwt>
</event>
<event>
 4    1  0.4056666E+000  0.2827504E+03  0.7546771E-02  0.1094196E+00
         21   -1    0    0  503  502  0.00000000000E+00  0.00000000000E+00  0.13712466625E+03  0.13712466625E+03  0.00000000000E+00 0. -1.
         21   -1    0    0  501  503 -0.00000000000E+00 -0.00000000000E+00 -0.59862275098E+03  0.59862275098E+03  0.00000000000E+00 0. -1.
          6    1    1    2  501    0 -0.27866745208E+02 -0.22190587920E+03 -0.29012156317E+03  0.40511516403E+03  0.17300000000E+03 0. -1.
         -6    1    1    2    0  502  0.27866745208E+02  0.22190587920E+03 -0.17137652156E+03  0.33063225319E+03  0.17300000000E+03 0. -1.
<mgrwt>
<rscale>  2 0.28275038E+03</rscale>
<asrwt>0</asrwt>
<pdfrwt beam="1">  1       21 0.21096103E-01 0.28275038E+03</pdfrwt>
<pdfrwt beam="2">  1       21 0.92095808E-01 0.28275038E+03</pdfrwt>
<totfact> 0.19844752E+04</totfact>
</mgrwt>
</event>
<event>
 4    1  0.4056666E+000  0.1874597E+03  0.7546771E-02  0.1160773E+00
         21   -1    0    0  503  502  0.00000000000E+00  0.00000000000E+00  0.14301362128E+03  0.14301362128E+03  0.00000000000E+00 0.  1.
         21   -1    0    0  501  503 -0.00000000000E+00 -0.00000000000E+00 -0.32913387393E+03  0.32913387393E+03  0.00000000000E+00 0.  1.
          6    1    1    2  501    0 -0.72131674144E+02  0.30293585639E+01 -0.21190578137E+03  0.28292263184E+03  0.17300000000E+03 0.  1.
         -6    1    1    2    0  502  0.72131674144E+02 -0.30293585639E+01  0.25785528720E+02  0.18922486338E+03  0.17300000000E+03 0.  1.
<mgrwt>
<rscale>  2 0.18745974E+03</rscale>
<asrwt>0</asrwt>
<pdfrwt beam="1">  1       21 0.22002096E-01 0.18745974E+03</pdfrwt>
<pdfrwt beam="2">  1       21 0.50635980E-01 0.18745974E+03</pdfrwt>
<totfact> 0.71782451E+04</totfact>
</mgrwt>
</event>
<event>
 4    1  0.4056666E+000  0.2492082E+03  0.7546771E-02  0.1113806E+00
         21   -1    0    0  501  502  0.00000000000E+00  0.00000000000E+00  0.61208683891E+03  0.61208683891E+03  0.00000000000E+00 0. -1.
         21   -1    0    0  502  503 -0.00000000000E+00 -0.00000000000E+00 -0.11762003211E+03  0.11762003211E+03  0.00000000000E+00 0.  1.
          6    1    1    2  501    0 -0.17923160447E+03 -0.71949366128E+01  0.38245501583E+03  0.45648283022E+03  0.17300000000E+03 0. -1.
         -6    1    1    2    0  503  0.17923160447E+03  0.71949366128E+01  0.11201179096E+03  0.27322404079E+03  0.17300000000E+03 0.  1.
<mgrwt>
<rscale>  2 0.24920822E+03</rscale>
<asrwt>0</asrwt>
<pdfrwt beam="1">  1       21 0.94167204E-01 0.24920822E+03</pdfrwt>
<pdfrwt beam="2">  1       21 0.18095390E-01 0.24920822E+03</pdfrwt>
<totfact> 0.25506974E+04</totfact>
</mgrwt>
</event>
<event>
 4    1  0.4056666E+000  0.2225955E+03  0.7546771E-02  0.1131963E+00
         21   -1    0    0  501  502  0.00000000000E+00  0.00000000000E+00  0.44480411642E+03  0.44480411642E+03  0.00000000000E+00 0.  1.
         21   -1    0    0  502  503 -0.00000000000E+00 -0.00000000000E+00 -0.11521612388E+03  0.11521612388E+03  0.00000000000E+00 0. -1.
          6    1    1    2  501    0  0.13858004849E+03  0.20379951278E+02  0.11379801590E+03  0.24999752134E+03  0.17300000000E+03 0. -1.
         -6    1    1    2    0  503 -0.13858004849E+03 -0.20379951278E+02  0.21578997664E+03  0.31002271896E+03  0.17300000000E+03 0.  1.
<mgrwt>
<rscale>  2 0.22259554E+03</rscale>
<asrwt>0</asrwt>
<pdfrwt beam="1">  1       21 0.68431402E-01 0.22259554E+03</pdfrwt>
<pdfrwt beam="2">  1       21 0.17725558E-01 0.22259554E+03</pdfrwt>
<totfact> 0.55477439E+04</totfact>
</mgrwt>
</event>
<event>
 4    1  0.4056666E+000  0.2117019E+03  0.7546771E-02  0.1140225E+00
         21   -1    0    0  503  502  0.00000000000E+00  0.00000000000E+00  0.67781548131E+03  0.67781548131E+03  0.00000000000E+00 0.  1.
         21   -1    0    0  501  503 -0.00000000000E+00 -0.00000000000E+00 -0.13173350301E+03  0.13173350301E+03  0.00000000000E+00 0.  1.
          6    1    1    2  501    0 -0.43038950759E+02  0.11417681586E+03 -0.12625309026E+02  0.21207803986E+03  0.17300000000E+03 0.  1.
         -6    1    1    2    0  502  0.43038950759E+02 -0.11417681586E+03  0.55870728733E+03  0.59747094446E+03  0.17300000000E+03 0.  1.
<mgrwt>
<rscale>  2 0.21170190E+03</rscale>
<asrwt>0</asrwt>
<pdfrwt beam="1">  1       21 0.10427930E+00 0.21170190E+03</pdfrwt>
<pdfrwt beam="2">  1       21 0.20266693E-01 0.21170190E+03</pdfrwt>
<totfact> 0.16524444E+04</totfact>
</mgrwt>
</event>
<event>
 4    1  0.4056666E+000  0.2110127E+03  0.7546771E-02  0.1140767E+00
         21   -1    0    0  503  502  0.00000000000E+00  0.00000000000E+00  0.36985553107E+03  0.36985553107E+03  0.00000000000E+00 0. -1.
         21   -1    0    0  501  503 -0.00000000000E+00 -0.00000000000E+00 -0.12039864951E+03  0.12039864951E+03  0.00000000000E+00 0.  1.
          6    1    1    2  501    0 -0.11864400256E+03  0.22824426969E+02  0.12697870318E+03  0.24627209519E+03  0.17300000000E+03 0. -1.
         -6    1    1    2    0  502  0.11864400256E+03 -0.22824426969E+02  0.12247817838E+03  0.24398208538E+03  0.17300000000E+03 0.  1.
<mgrwt>
<rscale>  2 0.21101269E+03</rscale>
<asrwt>0</asrwt>
<pdfrwt beam="1">  1       21 0.56900850E-01 0.21101269E+03</pdfrwt>
<pdfrwt beam="2">  1       21 0.18522869E-01 0.21101269E+03</pdfrwt>
<totfact> 0.76662748E+04</totfact>
</mgrwt>
</event>
<event>
 4    1  0.4056666E+000  0.2109651E+03  0.7546771E-02  0.1140804E+00
         21   -1    0    0  501  502  0.00000000000E+00  0.00000000000E+00  0.70820221209E+03  0.70820221209E+03  0.00000000000E+00 0.  1.
         21   -1    0    0  502  503 -0.00000000000E+00 -0.00000000000E+00 -0.69025519506E+02  0.69025519506E+02  0.00000000000E+00 0.  1.
          6    1    1    2  501    0  0.58950185312E+02  0.10536677243E+03  0.43588307169E+03  0.48425234461E+03  0.17300000000E+03 0.  1.
         -6    1    1    2    0  503 -0.58950185312E+02 -0.10536677243E+03  0.20329362090E+03  0.29297538699E+03  0.17300000000E+03 0.  1.
<mgrwt>
<rscale>  2 0.21096512E+03</rscale>
<asrwt>0</asrwt>
<pdfrwt beam="1">  1       21 0.10895418E+00 0.21096512E+03</pdfrwt>
<pdfrwt beam="2">  1       21 0.10619311E-01 0.21096512E+03</pdfrwt>
<totfact> 0.48300934E+04</totfact>
</mgrwt>
</event>
<event>
 4    1  0.4056666E+000  0.1869139E+03  0.7546771E-02  0.1161275E+00
         21   -1    0    0  501  502  0.00000000000E+00  0.00000000000E+00  0.71345370860E+03  0.71345370860E+03  0.00000000000E+00 0. -1.
         21   -1    0    0  502  503 -0.00000000000E+00 -0.00000000000E+00 -0.10521151562E+03  0.10521151562E+03  0.00000000000E+00 0. -1.
          6    1    1    2  501    0 -0.54103814124E+00 -0.70763803805E+02  0.60340181181E+03  0.63168865365E+03  0.17300000000E+03 0. -1.
         -6    1    1    2    0  503  0.54103814124E+00  0.70763803805E+02  0.48403811672E+01  0.18697657057E+03  0.17300000000E+03 0. -1.
<mgrwt>
<rscale>  2 0.18691391E+03</rscale>
<asrwt>0</asrwt>
<pdfrwt beam="1">  1       21 0.10976211E+00 0.18691391E+03</pdfrwt>
<pdfrwt beam="2">  1       21 0.16186387E-01 0.18691391E+03</pdfrwt>
<totfact> 0.22489985E+04</totfact>
</mgrwt>
</event>
<event>
 4    1  0.4056666E+000  0.1824497E+03  0.7546771E-02  0.1165453E+00
         21   -1    0    0  503  502  0.00000000000E+00  0.00000000000E+00  0.13725753583E+04  0.13725753583E+04  0.00000000000E+00 0.  1.
         21   -1    0    0  501  503 -0.00000000000E+00 -0.00000000000E+00 -0.69948535797E+02  0.69948535797E+02  0.00000000000E+00 0.  1.
          6    1    1    2  501    0 -0.18066411261E+02 -0.55068090756E+02  0.68345460943E+02  0.19483067486E+03  0.17300000000E+03 0.  1.
         -6    1    1    2    0  502  0.18066411261E+02  0.55068090756E+02  0.12342813616E+04  0.12476932193E+04  0.17300000000E+03 0.  1.
<mgrwt>
<rscale>  2 0.18244969E+03</rscale>
<asrwt>0</asrwt>
<pdfrwt beam="1">  1       21 0.21116542E+00 0.18244969E+03</pdfrwt>
<pdfrwt beam="2">  1       21 0.10761314E-01 0.18244969E+03</pdfrwt>
<totfact> 0.82064681E+03</totfact>
</mgrwt>
</event>
<event>
 4    1  0.4056666E+000  0.2228360E+03  0.7546771E-02  0.1131786E+00
         21   -1    0    0  501  502  0.00000000000E+00  0.00000000000E+00  0.81961872669E+03  0.81961872669E+03  0.00000000000E+00 0. -1.
         21   -1    0    0  502  503 -0.00000000000E+00 -0.00000000000E+00 -0.60937406455E+02  0.60937406455E+02  0.00000000000E+00 0.  1.
          6    1    1    2  501    0 -0.20628763262E+02  0.13892932414E+03  0.41286272768E+03  0.46916045751E+03  0.17300000000E+03 0.  1.
         -6    1    1    2    0  503  0.20628763262E+02 -0.13892932414E+03  0.34581859255E+03  0.41139567563E+03  0.17300000000E+03 0.  1.
<mgrwt>
<rscale>  2 0.22283605E+03</rscale>
<asrwt>0</asrwt>
<pdfrwt beam="1">  1       21 0.12609518E+00 0.22283605E+03</pdfrwt>
<pdfrwt beam="2">  1       21 0.93749862E-02 0.22283605E+03</pdfrwt>
<totfact> 0.41749621E+04</totfact>
</mgrwt>
</event>
<event>
 4    1  0.4056666E+000  0.1884498E+03  0.7546771E-02  0.1159867E+00
         21   -1    0    0  501  502  0.00000000000E+00  0.00000000000E+00  0.16148748335E+03  0.16148748335E+03  0.00000000000E+00 0.  1.
         21   -1    0    0  502  503 -0.00000000000E+00 -0.00000000000E+00 -0.12394147032E+04  0.12394147032E+04  0.00000000000E+00 0.  1.
          6    1    1    2  501    0  0.71617054420E+01 -0.74384323308E+02  0.96313656446E+02  0.21163562554E+03  0.17300000000E+03 0.  1.
         -6    1    1    2    0  503 -0.71617054420E+01  0.74384323308E+02 -0.11742408763E+04  0.11892665610E+04  0.17300000000E+03 0.  1.
<mgrwt>
<rscale>  2 0.18844977E+03</rscale>
<asrwt>0</asrwt>
<pdfrwt beam="1">  1       21 0.24844228E-01 0.18844977E+03</pdfrwt>
<pdfrwt beam="2">  1       21 0.19067919E+00 0.18844977E+03</pdfrwt>
<totfact> 0.23764223E+03</totfact>
</mgrwt>
</event>
<event>
 4    1  0.4056666E+000  0.1820403E+03  0.7546771E-02  0.1165843E+00
         21   -1    0    0  503  502  0.00000000000E+00  0.00000000000E+00  0.95149262551E+02  0.95149262551E+02  0.00000000000E+00 0.  1.
         21   -1    0    0  501  503 -0.00000000000E+00 -0.00000000000E+00 -0.44085954943E+03  0.44085954943E+03  0.00000000000E+00 0.  1.
          6    1    1    2  501    0 -0.49426904678E+02 -0.27688585774E+02 -0.29566891903E+03  0.34721576342E+03  0.17300000000E+03 0.  1.
         -6    1    1    2    0  502  0.49426904678E+02  0.27688585774E+02 -0.50041367850E+02  0.18879304856E+03  0.17300000000E+03 0.  1.
<mgrwt>
<rscale>  2 0.18204032E+03</rscale>
<asrwt>0</asrwt>
<pdfrwt beam="1">  1       21 0.14638348E-01 0.18204032E+03</pdfrwt>
<pdfrwt beam="2">  1       21 0.67824546E-01 0.18204032E+03</pdfrwt>
<totfact> 0.81804753E+04</totfact>
</mgrwt>
</event>
<event>
 4    1  0.4056666E+000  0.1946810E+03  0.7546771E-02  0.1154306E+00
         21   -1    0    0  503  502  0.00000000000E+00  0.00000000000E+00  0.90385723349E+02  0.90385723349E+02  0.00000000000E+00 0. -1.
         21   -1    0    0  501  503 -0.00000000000E+00 -0.00000000000E+00 -0.58507600165E+03  0.58507600165E+03  0.00000000000E+00 0. -1.
          6    1    1    2  501    0 -0.31705951497E+02  0.83465114868E+02 -0.42710678912E+03  0.46938353409E+03  0.17300000000E+03 0. -1.
         -6    1    1    2    0  502  0.31705951497E+02 -0.83465114868E+02 -0.67583489183E+02  0.20607819091E+03  0.17300000000E+03 0. -1.
<mgrwt>
<rscale>  2 0.19468100E+03</rscale>
<asrwt>0</asrwt>
<pdfrwt beam="1">  1       21 0.13905496E-01 0.19468100E+03</pdfrwt>
<pdfrwt beam="2">  1       21 0.90011690E-01 0.19468100E+03</pdfrwt>
<totfact> 0.47228411E+04</totfact>
</mgrwt>
</event>
<event>
 4    1  0.4056666E+000  0.1818944E+03  0.7546771E-02  0.1165982E+00
         21   -1    0    0  501  502  0.00000000000E+00  0.00000000000E+00  0.13792772666E+04  0.13792772666E+04  0.00000000000E+00 0. -1.
         21   -1    0    0  502  503 -0.00000000000E+00 -0.00000000000E+00 -0.23993709406E+02  0.23993709406E+02  0.00000000000E+00 0. -1.
          6    1    1    2  501    0 -0.42427475937E+02 -0.36830583791E+02  0.68881698073E+03  0.71242853365E+03  0.17300000000E+03 0.  1.
         -6    1    1    2    0  503  0.42427475937E+02  0.36830583791E+02  0.66646657646E+03  0.69084244235E+03  0.17300000000E+03 0.  1.
<mgrwt>
<rscale>  2 0.18189443E+03</rscale>
<asrwt>0</asrwt>
<pdfrwt beam="1">  1       21 0.21219644E+00 0.18189443E+03</pdfrwt>
<pdfrwt beam="2">  1       21 0.36913410E-02 0.18189443E+03</pdfrwt>
<totfact> 0.50763594E+04</totfact>
</mgrwt>
</event>
<event>
 4    1  0.4056666E+000  0.1859626E+03  0.7546771E-02  0.1162154E+00
         21   -1    0    0  503  502  0.00000000000E+00  0.00000000000E+00  0.60946393342E+03  0.60946393342E+03  0.00000000000E+00 0. -1.
         21   -1    0    0  501  503 -0.00000000000E+00 -0.00000000000E+00 -0.59562872334E+02  0.59562872334E+02  0.00000000000E+00 0. -1.
          6    1    1    2  501    0  0.47528187136E+02 -0.48930188749E+02  0.34775053189E+03  0.39435076312E+03  0.17300000000E+03 0. -1.
         -6    1    1    2    0  502 -0.47528187136E+02  0.48930188749E+02  0.20215052920E+03  0.27467604263E+03  0.17300000000E+03 0. -1.
<mgrwt>
<rscale>  2 0.18596261E+03</rscale>
<asrwt>0</asrwt>
<pdfrwt beam="1">  1       21 0.93763678E-01 0.18596261E+03</pdfrwt>
<pdfrwt beam="2">  1       21 0.91635192E-02 0.18596261E+03</pdfrwt>
<totfact> 0.90650674E+04</totfact>
</mgrwt>
</event>
<event>
 4    1  0.4056666E+000  0.1795338E+03  0.7546771E-02  0.1168255E+00
         21   -1    0    0  501  502  0.00000000000E+00  0.00000000000E+00  0.50547981121E+03  0.50547981121E+03  0.00000000000E+00 0. -1.
         21   -1    0    0  502  503 -0.00000000000E+00 -0.00000000000E+00 -0.75785364878E+02  0.75785364878E+02  0.00000000000E+00 0. -1.
          6    1    1    2  501    0 -0.47611974587E+02 -0.60413496776E+01  0.33058986286E+03  0.37619417254E+03  0.17300000000E+03 0. -1.
         -6    1    1    2    0  503  0.47611974587E+02  0.60413496776E+01  0.99104583475E+02  0.20507100355E+03  0.17300000000E+03 0. -1.
<mgrwt>
<rscale>  2 0.17953384E+03</rscale>
<asrwt>0</asrwt>
<pdfrwt beam="1">  1       21 0.77766123E-01 0.17953384E+03</pdfrwt>
<pdfrwt beam="2">  1       21 0.11659287E-01 0.17953384E+03</pdfrwt>
<totfact> 0.91055766E+04</totfact>
</mgrwt>
</event>
<event>
 4    1  0.4056666E+000  0.2216626E+03  0.7546771E-02  0.1132650E+00
         21   -1    0    0  501  502  0.00000000000E+00  0.00000000000E+00  0.17810701991E+04  0.17810701991E+04  0.00000000000E+00 0.  1.
         21   -1    0    0  502  503 -0.00000000000E+00 -0.00000000000E+00 -0.35752319519E+02  0.35752319519E+02  0.00000000000E+00 0. -1.
          6    1    1    2  501    0  0.95089582474E+02  0.10081319330E+03  0.43853092799E+03  0.49136921295E+03  0.17300000000E+03 0. -1.
         -6    1    1    2    0  503 -0.95089582474E+02 -0.10081319330E+03  0.13067869516E+04  0.13254533056E+04  0.17300000000E+03 0.  1.
<mgrwt>
<rscale>  2 0.22166265E+03</rscale>
<asrwt>0</asrwt>
<pdfrwt beam="1">  1       21 0.27401073E+00 0.22166265E+03</pdfrwt>
<pdfrwt beam="2">  1       21 0.55003583E-02 0.22166265E+03</pdfrwt>
<totfact> 0.10721934E+04</totfact>
</mgrwt>
</event>
<event>
 4    1  0.4056666E+000  0.1830643E+03  0.7546771E-02  0.1164870E+00
         21   -1    0    0  501  502  0.00000000000E+00  0.00000000000E+00  0.11370068959E+03  0.11370068959E+03  0.00000000000E+00 0.  1.
         21   -1    0    0  502  503 -0.00000000000E+00 -0.00000000000E+00 -0.47813375962E+03  0.47813375962E+03  0.00000000000E+00 0.  1.
          6    1    1    2  501    0  0.56396958097E+02  0.20072834591E+02  0.10502288224E+01  0.18306730607E+03  0.17300000000E+03 0.  1.
         -6    1    1    2    0  503 -0.56396958097E+02 -0.20072834591E+02 -0.36548329885E+03  0.40876714314E+03  0.17300000000E+03 0.  1.
<mgrwt>
<rscale>  2 0.18306429E+03</rscale>
<asrwt>0</asrwt>
<pdfrwt beam="1">  1       21 0.17492414E-01 0.18306429E+03</pdfrwt>
<pdfrwt beam="2">  1       21 0.73559039E-01 0.18306429E+03</pdfrwt>
<totfact> 0.49365263E+04</totfact>
</mgrwt>
</event>
<event>
 4    1  0.4056666E+000  0.3313856E+03  0.7546771E-02  0.1070525E+00
         21   -1    0    0  503  502  0.00000000000E+00  0.00000000000E+00  0.10379100354E+03  0.10379100354E+03  0.00000000000E+00 0.  1.
         21   -1    0    0  501  503 -0.00000000000E+00 -0.00000000000E+00 -0.12696723871E+04  0.12696723871E+04  0.00000000000E+00 0.  1.
          6    1    1    2  501    0  0.63930222945E+02 -0.27531864675E+03 -0.86330227685E+03  0.92472009379E+03  0.17300000000E+03 0.  1.
         -6    1    1    2    0  502 -0.63930222945E+02  0.27531864675E+03 -0.30257910672E+03  0.44874329686E+03  0.17300000000E+03 0.  1.
<mgrwt>
<rscale>  2 0.33138562E+03</rscale>
<asrwt>0</asrwt>
<pdfrwt beam="1">  1       21 0.15967845E-01 0.33138562E+03</pdfrwt>
<pdfrwt beam="2">  1       21 0.19533423E+00 0.33138562E+03</pdfrwt>
<totfact> 0.45663224E+03</totfact>
</mgrwt>
</event>
<event>
 4    1  0.4056666E+000  0.2041991E+03  0.7546771E-02  0.1146244E+00
         21   -1    0    0  503  502  0.00000000000E+00  0.00000000000E+00  0.55885617147E+03  0.55885617147E+03  0.00000000000E+00 0.  1.
         21   -1    0    0  501  503 -0.00000000000E+00 -0.00000000000E+00 -0.76130746749E+02  0.76130746749E+02  0.00000000000E+00 0. -1.
          6    1    1    2  501    0  0.81919337604E+02 -0.71115972581E+02  0.19651633056E+03  0.28340064857E+03  0.17300000000E+03 0. -1.
         -6    1    1    2    0  502 -0.81919337604E+02  0.71115972581E+02  0.28620909416E+03  0.35158626965E+03  0.17300000000E+03 0.  1.
<mgrwt>
<rscale>  2 0.20419907E+03</rscale>
<asrwt>0</asrwt>
<pdfrwt beam="1">  1       21 0.85977870E-01 0.20419907E+03</pdfrwt>
<pdfrwt beam="2">  1       21 0.11712423E-01 0.20419907E+03</pdfrwt>
<totfact> 0.71152845E+04</totfact>
</mgrwt>
</event>
<event>
 4    1  0.4056666E+000  0.1934834E+03  0.7546771E-02  0.1155357E+00
         21   -1    0    0  501  502  0.00000000000E+00  0.00000000000E+00  0.10066264116E+03  0.10066264116E+03  0.00000000000E+00 0. -1.
         21   -1    0    0  502  503 -0.00000000000E+00 -0.00000000000E+00 -0.37615229889E+03  0.37615229889E+03  0.00000000000E+00 0. -1.
          6    1    1    2  501    0 -0.41321418816E+02  0.76153467584E+02 -0.11237793969E+03  0.22375122705E+03  0.17300000000E+03 0.  1.
         -6    1    1    2    0  503  0.41321418816E+02 -0.76153467584E+02 -0.16311171803E+03  0.25306371300E+03  0.17300000000E+03 0.  1.
<mgrwt>
<rscale>  2 0.19348336E+03</rscale>
<asrwt>0</asrwt>
<pdfrwt beam="1">  1       21 0.15486560E-01 0.19348336E+03</pdfrwt>
<pdfrwt beam="2">  1       21 0.57869585E-01 0.19348336E+03</pdfrwt>
<totfact> 0.10359137E+05</totfact>
</mgrwt>
</event>
<event>
 4    1  0.4056666E+000  0.2250354E+03  0.7546771E-02  0.1130184E+00
         21   -1    0    0  501  502  0.00000000000E+00  0.00000000000E+00  0.13305307215E+03  0.13305307215E+03  0.00000000000E+00 0.  1.
         21   -1    0    0  502  503 -0.00000000000E+00 -0.00000000000E+00 -0.66984909672E+03  0.66984909672E+03  0.00000000000E+00 0. -1.
          6    1    1    2  501    0 -0.10317358374E+01  0.14391265985E+03 -0.45979046707E+01  0.22508233798E+03  0.17300000000E+03 0. -1.
         -6    1    1    2    0  503  0.10317358374E+01 -0.14391265985E+03 -0.53219811990E+03  0.57781983089E+03  0.17300000000E+03 0.  1.
<mgrwt>
<rscale>  2 0.22503537E+03</rscale>
<asrwt>0</asrwt>
<pdfrwt beam="1">  1       21 0.20469704E-01 0.22503537E+03</pdfrwt>
<pdfrwt beam="2">  1       21 0.10305371E+00 0.22503537E+03</pdfrwt>
<totfact> 0.16553435E+04</totfact>
</mgrwt>
</event>
<event>
 4    1  0.4056666E+000  0.2851661E+03  0.7546771E-02  0.1092900E+00
         21   -1    0    0  503  502  0.00000000000E+00  0.00000000000E+00  0.71530632309E+02  0.71530632309E+02  0.00000000000E+00 0.  1.
         21   -1    0    0  501  503 -0.00000000000E+00 -0.00000000000E+00 -0.11409714705E+04  0.11409714705E+04  0.00000000000E+00 0.  1.
          6    1    1    2  501    0  0.22624420104E+03 -0.14292392017E+02 -0.57115040212E+03  0.63838271657E+03  0.17300000000E+03 0.  1.
         -6    1    1    2    0  502 -0.22624420104E+03  0.14292392017E+02 -0.49829043604E+03  0.57411938621E+03  0.17300000000E+03 0.  1.
<mgrwt>
<rscale>  2 0.28516611E+03</rscale>
<asrwt>0</asrwt>
<pdfrwt beam="1">  1       21 0.11004713E-01 0.28516611E+03</pdfrwt>
<pdfrwt beam="2">  1       21 0.17553406E+00 0.28516611E+03</pdfrwt>
<totfact> 0.12595710E+04</totfact>
</mgrwt>
</event>
<event>
 4    1  0.4056666E+000  0.1867751E+03  0.7546771E-02  0.1161403E+00
         21   -1    0    0  501  502  0.00000000000E+00  0.00000000000E+00  0.35746255985E+02  0.35746255985E+02  0.00000000000E+00 0. -1.
         21   -1    0    0  502  503 -0.00000000000E+00 -0.00000000000E+00 -0.12638660076E+04  0.12638660076E+04  0.00000000000E+00 0. -1.
          6    1    1    2  501    0  0.63666805606E+02  0.30041135552E+02 -0.92423039005E+03  0.94291396524E+03  0.17300000000E+03 0. -1.
         -6    1    1    2    0  503 -0.63666805606E+02 -0.30041135552E+02 -0.30388936152E+03  0.35669829829E+03  0.17300000000E+03 0. -1.
<mgrwt>
<rscale>  2 0.18677508E+03</rscale>
<asrwt>0</asrwt>
<pdfrwt beam="1">  1       21 0.54994244E-02 0.18677508E+03</pdfrwt>
<pdfrwt beam="2">  1       21 0.19444091E+00 0.18677508E+03</pdfrwt>
<totfact> 0.33508741E+04</totfact>
</mgrwt>
</event>
<event>
 4    1  0.4056666E+000  0.2528733E+03  0.7546771E-02  0.1111502E+00
         21   -1    0    0  501  502  0.00000000000E+00  0.00000000000E+00  0.10069977542E+03  0.10069977542E+03  0.00000000000E+00 0. -1.
         21   -1    0    0  502  503 -0.00000000000E+00 -0.00000000000E+00 -0.64176147766E+03  0.64176147766E+03  0.00000000000E+00 0.  1.
          6    1    1    2  501    0 -0.17036253163E+03 -0.70657843040E+02 -0.30861965512E+03  0.39898748664E+03  0.17300000000E+03 0.  1.
         -6    1    1    2    0  503  0.17036253163E+03  0.70657843040E+02 -0.23244204711E+03  0.34347376644E+03  0.17300000000E+03 0.  1.
<mgrwt>
<rscale>  2 0.25287333E+03</rscale>
<asrwt>0</asrwt>
<pdfrwt beam="1">  1       21 0.15492273E-01 0.25287333E+03</pdfrwt>
<pdfrwt beam="2">  1       21 0.98732533E-01 0.25287333E+03</pdfrwt>
<totfact> 0.30336569E+04</totfact>
</mgrwt>
</event>
<event>
 4    1  0.4056666E+000  0.1736129E+03  0.7546771E-02  0.1174132E+00
         21   -1    0    0  501  502  0.00000000000E+00  0.00000000000E+00  0.17484760121E+03  0.17484760121E+03  0.00000000000E+00 0. -1.
         21   -1    0    0  502  503 -0.00000000000E+00 -0.00000000000E+00 -0.28942285244E+03  0.28942285244E+03  0.00000000000E+00 0. -1.
          6    1    1    2  501    0 -0.10911717593E+02 -0.96624625271E+01  0.90328690712E+02  0.19570564920E+03  0.17300000000E+03 0. -1.
         -6    1    1    2    0  503  0.10911717593E+02  0.96624625271E+01 -0.20490394194E+03  0.26856480444E+03  0.17300000000E+03 0. -1.
<mgrwt>
<rscale>  2 0.17361287E+03</rscale>
<asrwt>0</asrwt>
<pdfrwt beam="1">  1       21 0.26899631E-01 0.17361287E+03</pdfrwt>
<pdfrwt beam="2">  1       21 0.44526592E-01 0.17361287E+03</pdfrwt>
<totfact> 0.64283838E+04</totfact>
</mgrwt>
</event>
<event>
 4    1  0.4056666E+000  0.1968050E+03  0.7546771E-02  0.1152463E+00
         21   -1    0    0  501  502  0.00000000000E+00  0.00000000000E+00  0.14355473679E+03  0.14355473679E+03  0.00000000000E+00 0. -1.
         21   -1    0    0  502  503 -0.00000000000E+00 -0.00000000000E+00 -0.26981495923E+03  0.26981495923E+03  0.00000000000E+00 0.  1.
          6    1    1    2  501    0 -0.39835955933E+02 -0.84948846877E+02 -0.64183174358E+02  0.20700649710E+03  0.17300000000E+03 0. -1.
         -6    1    1    2    0  503  0.39835955933E+02  0.84948846877E+02 -0.62077048078E+02  0.20636319892E+03  0.17300000000E+03 0.  1.
<mgrwt>
<rscale>  2 0.19680500E+03</rscale>
<asrwt>0</asrwt>
<pdfrwt beam="1">  1       21 0.22085344E-01 0.19680500E+03</pdfrwt>
<pdfrwt beam="2">  1       21 0.41509993E-01 0.19680500E+03</pdfrwt>
<totfact> 0.10690748E+05</totfact>
</mgrwt>
</event>
<event>
 4    1  0.4056666E+000  0.2211388E+03  0.7546771E-02  0.1133037E+00
         21   -1    0    0  503  502  0.00000000000E+00  0.00000000000E+00  0.23838855020E+03  0.23838855020E+03  0.00000000000E+00 0.  1.
         21   -1    0    0  501  503 -0.00000000000E+00 -0.00000000000E+00 -0.21031308599E+03  0.21031308599E+03  0.00000000000E+00 0. -1.
          6    1    1    2  501    0  0.13274308005E+03 -0.36778534521E+02 -0.21157371580E+02  0.22214864455E+03  0.17300000000E+03 0.  1.
         -6    1    1    2    0  502 -0.13274308005E+03  0.36778534521E+02  0.49232835788E+02  0.22655299164E+03  0.17300000000E+03 0. -1.
<mgrwt>
<rscale>  2 0.22113884E+03</rscale>
<asrwt>0</asrwt>
<pdfrwt beam="1">  1       21 0.36675162E-01 0.22113884E+03</pdfrwt>
<pdfrwt beam="2">  1       21 0.32355859E-01 0.22113884E+03</pdfrwt>
<totfact> 0.65073211E+04</totfact>
</mgrwt>
</event>
<event>
 4    1  0.4056666E+000  0.3078985E+03  0.7546771E-02  0.1081358E+00
         21   -1    0    0  501  502  0.00000000000E+00  0.00000000000E+00  0.19245953048E+04  0.19245953048E+04  0.00000000000E+00 0. -1.
         21   -1    0    0  502  503 -0.00000000000E+00 -0.00000000000E+00 -0.49285034399E+02  0.49285034399E+02  0.00000000000E+00 0.  1.
          6    1    1    2  501    0  0.18162088271E+03  0.17856741957E+03  0.91448541924E+03  0.96492748452E+03  0.17300000000E+03 0.  1.
         -6    1    1    2    0  503 -0.18162088271E+03 -0.17856741957E+03  0.96082485114E+03  0.10089528547E+04  0.17300000000E+03 0. -1.
<mgrwt>
<rscale>  2 0.30789847E+03</rscale>
<asrwt>0</asrwt>
<pdfrwt beam="1">  1       21 0.29609153E+00 0.30789847E+03</pdfrwt>
<pdfrwt beam="2">  1       21 0.75823144E-02 0.30789847E+03</pdfrwt>
<totfact> 0.42627030E+03</totfact>
</mgrwt>
</event>
<event>
 4    1  0.4056666E+000  0.2121526E+03  0.7546771E-02  0.1139873E+00
         21   -1    0    0  501  502  0.00000000000E+00  0.00000000000E+00  0.24638576003E+03  0.24638576003E+03  0.00000000000E+00 0. -1.
         21   -1    0    0  502  503 -0.00000000000E+00 -0.00000000000E+00 -0.20095580708E+03  0.20095580708E+03  0.00000000000E+00 0. -1.
          6    1    1    2  501    0 -0.19817282429E+02  0.12118992642E+03 -0.44745097810E+02  0.21681984855E+03  0.17300000000E+03 0. -1.
         -6    1    1    2    0  503  0.19817282429E+02 -0.12118992642E+03  0.90175050759E+02  0.23052171856E+03  0.17300000000E+03 0. -1.
<mgrwt>
<rscale>  2 0.21215259E+03</rscale>
<asrwt>0</asrwt>
<pdfrwt beam="1">  1       21 0.37905502E-01 0.21215259E+03</pdfrwt>
<pdfrwt beam="2">  1       21 0.30916278E-01 0.21215259E+03</pdfrwt>
<totfact> 0.66860840E+04</totfact>
</mgrwt>
</event>
<event>
 4    1  0.4056666E+000  0.2011739E+03  0.7546771E-02  0.1148752E+00
         21   -1    0    0  503  502  0.00000000000E+00  0.00000000000E+00  0.14803759902E+03  0.14803759902E+03  0.00000000000E+00 0.  1.
         21   -1    0    0  501  503 -0.00000000000E+00 -0.00000000000E+00 -0.32502379247E+03  0.32502379247E+03  0.00000000000E+00 0.  1.
          6    1    1    2  501    0  0.16356458383E+02 -0.10136268961E+03 -0.18277478649E+03  0.27180425153E+03  0.17300000000E+03 0.  1.
         -6    1    1    2    0  502 -0.16356458383E+02  0.10136268961E+03  0.57885930401E+01  0.20125713996E+03  0.17300000000E+03 0.  1.
<mgrwt>
<rscale>  2 0.20117388E+03</rscale>
<asrwt>0</asrwt>
<pdfrwt beam="1">  1       21 0.22775015E-01 0.20117388E+03</pdfrwt>
<pdfrwt beam="2">  1       21 0.50003660E-01 0.20117388E+03</pdfrwt>
<totfact> 0.68624146E+04</totfact>
</mgrwt>
</event>
<event>
 4    1  0.4056666E+000  0.2236830E+03  0.7546771E-02  0.1131167E+00
         21   -1    0    0  501  502  0.00000000000E+00  0.00000000000E+00  0.33035713711E+03  0.33035713711E+03  0.00000000000E+00 0.  1.
         21   -1    0    0  502  503 -0.00000000000E+00 -0.00000000000E+00 -0.21407339993E+03  0.21407339993E+03  0.00000000000E+00 0.  1.
          6    1    1    2  501    0 -0.32471282497E+02 -0.13802434647E+03  0.20536753751E+03  0.30366087972E+03  0.17300000000E+03 0. -1.
         -6    1    1    2    0  503  0.32471282497E+02  0.13802434647E+03 -0.89083800330E+02  0.24076965732E+03  0.17300000000E+03 0. -1.
<mgrwt>
<rscale>  2 0.22368304E+03</rscale>
<asrwt>0</asrwt>
<pdfrwt beam="1">  1       21 0.50824175E-01 0.22368304E+03</pdfrwt>
<pdfrwt beam="2">  1       21 0.32934369E-01 0.22368304E+03</pdfrwt>
<totfact> 0.32158684E+04</totfact>
</mgrwt>
</event>
<event>
 4    1  0.4056666E+000  0.1840868E+03  0.7546771E-02  0.1163905E+00
         21   -1    0    0  501  502  0.00000000000E+00  0.00000000000E+00  0.42000551467E+03  0.42000551467E+03  0.00000000000E+00 0. -1.
         21   -1    0    0  502  503 -0.00000000000E+00 -0.00000000000E+00 -0.10589401649E+03  0.10589401649E+03  0.00000000000E+00 0.  1.
          6    1    1    2  501    0  0.54554080373E+02 -0.31349898822E+02  0.28535341131E+03  0.33957993638E+03  0.17300000000E+03 0. -1.
         -6    1    1    2    0  503 -0.54554080373E+02  0.31349898822E+02  0.28758086861E+02  0.18631959479E+03  0.17300000000E+03 0.  1.
<mgrwt>
<rscale>  2 0.18408684E+03</rscale>
<asrwt>0</asrwt>
<pdfrwt beam="1">  1       21 0.64616232E-01 0.18408684E+03</pdfrwt>
<pdfrwt beam="2">  1       21 0.16291387E-01 0.18408684E+03</pdfrwt>
<totfact> 0.74745758E+04</totfact>
</mgrwt>
</event>
<event>
 4    1  0.4056666E+000  0.2129175E+03  0.7546771E-02  0.1139276E+00
         21   -1    0    0  503  502  0.00000000000E+00  0.00000000000E+00  0.84246072742E+03  0.84246072742E+03  0.00000000000E+00 0. -1.
         21   -1    0    0  501  503 -0.00000000000E+00 -0.00000000000E+00 -0.95068528033E+02  0.95068528033E+02  0.00000000000E+00 0. -1.
          6    1    1    2  501    0  0.29261036147E+02 -0.12061785409E+03  0.64889430744E+02  0.22258596807E+03  0.17300000000E+03 0. -1.
         -6    1    1    2    0  502 -0.29261036147E+02  0.12061785409E+03  0.68250276864E+03  0.71494328737E+03  0.17300000000E+03 0. -1.
<mgrwt>
<rscale>  2 0.21291753E+03</rscale>
<asrwt>0</asrwt>
<pdfrwt beam="1">  1       21 0.12960934E+00 0.21291753E+03</pdfrwt>
<pdfrwt beam="2">  1       21 0.14625928E-01 0.21291753E+03</pdfrwt>
<totfact> 0.17654272E+04</totfact>
</mgrwt>
</event>
<event>
 4    1  0.4056666E+000  0.2347936E+03  0.7546771E-02  0.1123311E+00
         21   -1    0    0  503  502  0.00000000000E+00  0.00000000000E+00  0.31124264716E+03  0.31124264716E+03  0.00000000000E+00 0. -1.
         21   -1    0    0  501  503 -0.00000000000E+00 -0.00000000000E+00 -0.42122875500E+03  0.42122875500E+03  0.00000000000E+00 0. -1.
          6    1    1    2  501    0 -0.12802109902E+03  0.93859625186E+02 -0.33379208119E+03  0.40809947868E+03  0.17300000000E+03 0. -1.
         -6    1    1    2    0  502  0.12802109902E+03 -0.93859625186E+02  0.22380597336E+03  0.32437192348E+03  0.17300000000E+03 0. -1.
<mgrwt>
<rscale>  2 0.23479359E+03</rscale>
<asrwt>0</asrwt>
<pdfrwt beam="1">  1       21 0.47883484E-01 0.23479359E+03</pdfrwt>
<pdfrwt beam="2">  1       21 0.64804424E-01 0.23479359E+03</pdfrwt>
<totfact> 0.88949538E+03</totfact>
</mgrwt>
</event>
<event>
 4    1  0.4056666E+000  0.1846865E+03  0.7546771E-02  0.1163343E+00
         21   -1    0    0  501  502  0.00000000000E+00  0.00000000000E+00  0.34950238389E+02  0.34950238389E+02  0.00000000000E+00 0.  1.
         21   -1    0    0  502  503 -0.00000000000E+00 -0.00000000000E+00 -0.10112514377E+04  0.10112514377E+04  0.00000000000E+00 0.  1.
          6    1    1    2  501    0 -0.36330183879E+02  0.53480877395E+02 -0.39039145956E+03  0.43187333584E+03  0.17300000000E+03 0.  1.
         -6    1    1    2    0  503  0.36330183879E+02 -0.53480877395E+02 -0.58590973980E+03  0.61432834030E+03  0.17300000000E+03 0.  1.
<mgrwt>
<rscale>  2 0.18468645E+03</rscale>
<asrwt>0</asrwt>
<pdfrwt beam="1">  1       21 0.53769609E-02 0.18468645E+03</pdfrwt>
<pdfrwt beam="2">  1       21 0.15557711E+00 0.18468645E+03</pdfrwt>
<totfact> 0.64794085E+04</totfact>
</mgrwt>
</event>
<event>
 4    1  0.4056666E+000  0.1984978E+03  0.7546771E-02  0.1151013E+00
         21   -1    0    0  503  502  0.00000000000E+00  0.00000000000E+00  0.22668357893E+04  0.22668357893E+04  0.00000000000E+00 0.  1.
         21   -1    0    0  501  503 -0.00000000000E+00 -0.00000000000E+00 -0.17668570028E+02  0.17668570028E+02  0.00000000000E+00 0. -1.
          6    1    1    2  501    0  0.96385893287E+02  0.13495985488E+02  0.97902771771E+03  0.99894777346E+03  0.17300000000E+03 0.  1.
         -6    1    1    2    0  502 -0.96385893287E+02 -0.13495985488E+02  0.12701395016E+04  0.12855565859E+04  0.17300000000E+03 0.  1.
<mgrwt>
<rscale>  2 0.19849781E+03</rscale>
<asrwt>0</asrwt>
<pdfrwt beam="1">  1       21 0.34874374E+00 0.19849781E+03</pdfrwt>
<pdfrwt beam="2">  1       21 0.27182433E-02 0.19849781E+03</pdfrwt>
<totfact> 0.13157533E+04</totfact>
</mgrwt>
</event>
<event>
 4    1  0.4056666E+000  0.2993571E+03  0.7546771E-02  0.1085562E+00
         21   -1    0    0  503  502  0.00000000000E+00  0.00000000000E+00  0.22519120195E+03  0.22519120195E+03  0.00000000000E+00 0. -1.
         21   -1    0    0  501  503 -0.00000000000E+00 -0.00000000000E+00 -0.42607193882E+03  0.42607193882E+03  0.00000000000E+00 0.  1.
          6    1    1    2  501    0  0.19429493176E+03 -0.14810525202E+03 -0.18409941303E+03  0.35143602556E+03  0.17300000000E+03 0.  1.
         -6    1    1    2    0  502 -0.19429493176E+03  0.14810525202E+03 -0.16781323833E+02  0.29982711521E+03  0.17300000000E+03 0. -1.
<mgrwt>
<rscale>  2 0.29935712E+03</rscale>
<asrwt>0</asrwt>
<pdfrwt beam="1">  1       21 0.34644801E-01 0.29935712E+03</pdfrwt>
<pdfrwt beam="2">  1       21 0.65549528E-01 0.29935712E+03</pdfrwt>
<totfact> 0.16263569E+04</totfact>
</mgrwt>
</event>
<event>
 4    1  0.4056666E+000  0.1756234E+03  0.7546771E-02  0.1172107E+00
         21   -1    0    0  501  502  0.00000000000E+00  0.00000000000E+00  0.19141630285E+03  0.19141630285E+03  0.00000000000E+00 0. -1.
         21   -1    0    0  502  503 -0.00000000000E+00 -0.00000000000E+00 -0.42027462588E+03  0.42027462588E+03  0.00000000000E+00 0. -1.
          6    1    1    2  501    0 -0.24455596614E+02 -0.17790522512E+02  0.12573247243E+03  0.21599128112E+03  0.17300000000E+03 0. -1.
         -6    1    1    2    0  503  0.24455596614E+02  0.17790522512E+02 -0.35459079545E+03  0.39569964761E+03  0.17300000000E+03 0. -1.
<mgrwt>
<rscale>  2 0.17562340E+03</rscale>
<asrwt>0</asrwt>
<pdfrwt beam="1">  1       21 0.29448662E-01 0.17562340E+03</pdfrwt>
<pdfrwt beam="2">  1       21 0.64657634E-01 0.17562340E+03</pdfrwt>
<totfact> 0.24597779E+04</totfact>
</mgrwt>
</event>
<event>
 4    1  0.4056666E+000  0.1819727E+03  0.7546771E-02  0.1165907E+00
         21   -1    0    0  503  502  0.00000000000E+00  0.00000000000E+00  0.41816981475E+03  0.41816981475E+03  0.00000000000E+00 0. -1.
         21   -1    0    0  501  503 -0.00000000000E+00 -0.00000000000E+00 -0.10739829623E+03  0.10739829623E+03  0.00000000000E+00 0. -1.
          6    1    1    2  501    0  0.30633826499E+02  0.47398501689E+02  0.20705542439E+02  0.18314685030E+03  0.17300000000E+03 0.  1.
         -6    1    1    2    0  502 -0.30633826499E+02 -0.47398501689E+02  0.29006597608E+03  0.34242126068E+03  0.17300000000E+03 0.  1.
<mgrwt>
<rscale>  2 0.18197266E+03</rscale>
<asrwt>0</asrwt>
<pdfrwt beam="1">  1       21 0.64333817E-01 0.18197266E+03</pdfrwt>
<pdfrwt beam="2">  1       21 0.16522815E-01 0.18197266E+03</pdfrwt>
<totfact> 0.73600978E+04</totfact>
</mgrwt>
</event>
<event>
 4    1  0.4056666E+000  0.2317722E+03  0.7546771E-02  0.1125399E+00
         21   -1    0    0  503  502  0.00000000000E+00  0.00000000000E+00  0.10526654910E+04  0.10526654910E+04  0.00000000000E+00 0. -1.
         21   -1    0    0  501  503 -0.00000000000E+00 -0.00000000000E+00 -0.56264502946E+02  0.56264502946E+02  0.00000000000E+00 0.  1.
          6    1    1    2  501    0 -0.19803696567E+02 -0.15296135626E+03  0.32909356778E+03  0.40251824712E+03  0.17300000000E+03 0.  1.
         -6    1    1    2    0  502  0.19803696567E+02  0.15296135626E+03  0.66730742027E+03  0.70641174682E+03  0.17300000000E+03 0. -1.
<mgrwt>
<rscale>  2 0.23177222E+03</rscale>
<asrwt>0</asrwt>
<pdfrwt beam="1">  1       21 0.16194852E+00 0.23177222E+03</pdfrwt>
<pdfrwt beam="2">  1       21 0.86560782E-02 0.23177222E+03</pdfrwt>
<totfact> 0.24854161E+04</totfact>
</mgrwt>
</event>
<event>
 4    1  0.4056666E+000  0.1806371E+03  0.7546771E-02  0.1167188E+00
         21   -1    0    0  501  502  0.00000000000E+00  0.00000000000E+00  0.87186714091E+02  0.87186714091E+02  0.00000000000E+00 0.  1.
         21   -1    0    0  502  503 -0.00000000000E+00 -0.00000000000E+00 -0.37780621733E+03  0.37780621733E+03  0.00000000000E+00 0.  1.
          6    1    1    2  501    0  0.34868495454E+02  0.38534951207E+02 -0.12275764035E+03  0.21840144850E+03  0.17300000000E+03 0.  1.
         -6    1    1    2    0  503 -0.34868495454E+02 -0.38534951207E+02 -0.16786186288E+03  0.24659148292E+03  0.17300000000E+03 0.  1.
<mgrwt>
<rscale>  2 0.18063708E+03</rscale>
<asrwt>0</asrwt>
<pdfrwt beam="1">  1       21 0.13413341E-01 0.18063708E+03</pdfrwt>
<pdfrwt beam="2">  1       21 0.58124033E-01 0.18063708E+03</pdfrwt>
<totfact> 0.13380148E+05</totfact>
</mgrwt>
</event>
<event>
 4    1  0.4056666E+000  0.1973964E+03  0.7546771E-02  0.1151954E+00
         21   -1    0    0  501  502  0.00000000000E+00  0.00000000000E+00  0.35449538524E+03  0.35449538524E+03  0.00000000000E+00 0. -1.
         21   -1    0    0  502  503 -0.00000000000E+00 -0.00000000000E+00 -0.13237705079E+03  0.13237705079E+03  0.00000000000E+00 0. -1.
          6    1    1    2  501    0  0.62089977173E+02  0.71980447574E+02  0.21133044499E+03  0.28918144318E+03  0.17300000000E+03 0. -1.
         -6    1    1    2    0  503 -0.62089977173E+02 -0.71980447574E+02  0.10787889458E+02  0.19769099286E+03  0.17300000000E+03 0. -1.
<mgrwt>
<rscale>  2 0.19739643E+03</rscale>
<asrwt>0</asrwt>
<pdfrwt beam="1">  1       21 0.54537751E-01 0.19739643E+03</pdfrwt>
<pdfrwt beam="2">  1       21 0.20365700E-01 0.19739643E+03</pdfrwt>
<totfact> 0.70706039E+04</totfact>
</mgrwt>
</event>
<event>
 4    1  0.4056666E+000  0.1955202E+03  0.7546771E-02  0.1153575E+00
         21   -1    0    0  503  502  0.00000000000E+00  0.00000000000E+00  0.11496998528E+03  0.11496998528E+03  0.00000000000E+00 0.  1.
         21   -1    0    0  501  503 -0.00000000000E+00 -0.00000000000E+00 -0.35556941460E+03  0.35556941460E+03  0.00000000000E+00 0.  1.
          6    1    1    2  501    0 -0.90127149359E+02 -0.13275025348E+02 -0.18021976943E+03  0.26590843282E+03  0.17300000000E+03 0.  1.
         -6    1    1    2    0  502  0.90127149359E+02  0.13275025348E+02 -0.60379659885E+02  0.20463096705E+03  0.17300000000E+03 0.  1.
<mgrwt>
<rscale>  2 0.19552015E+03</rscale>
<asrwt>0</asrwt>
<pdfrwt beam="1">  1       21 0.17687690E-01 0.19552015E+03</pdfrwt>
<pdfrwt beam="2">  1       21 0.54702987E-01 0.19552015E+03</pdfrwt>
<totfact> 0.91387191E+04</totfact>
</mgrwt>
</event>
<event>
 4    1  0.4056666E+000  0.3011034E+03  0.7546771E-02  0.1084690E+00
         21   -1    0    0  501  502  0.00000000000E+00  0.00000000000E+00  0.98282717519E+03  0.98282717519E+03  0.00000000000E+00 0.  1.
         21   -1    0    0  502  503 -0.00000000000E+00 -0.00000000000E+00 -0.92327727548E+02  0.92327727548E+02  0.00000000000E+00 0. -1.
          6    1    1    2  501    0  0.11077413263E+03  0.22014399579E+03  0.42939682140E+03  0.52444724956E+03  0.17300000000E+03 0. -1.
         -6    1    1    2    0  503 -0.11077413263E+03 -0.22014399579E+03  0.46110262625E+03  0.55070765318E+03  0.17300000000E+03 0. -1.
<mgrwt>
<rscale>  2 0.30110345E+03</rscale>
<asrwt>0</asrwt>
<pdfrwt beam="1">  1       21 0.15120417E+00 0.30110345E+03</pdfrwt>
<pdfrwt beam="2">  1       21 0.14204266E-01 0.30110345E+03</pdfrwt>
<totfact> 0.11876122E+04</totfact>
</mgrwt>
</event>
<event>
 4    1  0.4056666E+000  0.1864298E+03  0.7546771E-02  0.1161721E+00
         21   -1    0    0  501  502  0.00000000000E+00  0.00000000000E+00  0.98487929728E+03  0.98487929728E+03  0.00000000000E+00 0. -1.
         21   -1    0    0  502  503 -0.00000000000E+00 -0.00000000000E+00 -0.44211687194E+02  0.44211687194E+02  0.00000000000E+00 0. -1.
          6    1    1    2  501    0  0.62761895357E+02  0.29799273378E+02  0.23918742980E+03  0.30326008438E+03  0.17300000000E+03 0. -1.
         -6    1    1    2    0  503 -0.62761895357E+02 -0.29799273378E+02  0.70148018028E+03  0.72583090009E+03  0.17300000000E+03 0. -1.
<mgrwt>
<rscale>  2 0.18642975E+03</rscale>
<asrwt>0</asrwt>
<pdfrwt beam="1">  1       21 0.15151988E+00 0.18642975E+03</pdfrwt>
<pdfrwt beam="2">  1       21 0.68017988E-02 0.18642975E+03</pdfrwt>
<totfact> 0.46429555E+04</totfact>
</mgrwt>
</event>
<event>
 4    1  0.4056666E+000  0.1855960E+03  0.7546771E-02  0.1162495E+00
         21   -1    0    0  501  502  0.00000000000E+00  0.00000000000E+00  0.39631518305E+02  0.39631518305E+02  0.00000000000E+00 0.  1.
         21   -1    0    0  502  503 -0.00000000000E+00 -0.00000000000E+00 -0.90181170383E+03  0.90181170383E+03  0.00000000000E+00 0. -1.
          6    1    1    2  501    0 -0.54270952489E+02  0.39642605978E+02 -0.34151187643E+03  0.38868526373E+03  0.17300000000E+03 0.  1.
         -6    1    1    2    0  503  0.54270952489E+02 -0.39642605978E+02 -0.52066830909E+03  0.55275795841E+03  0.17300000000E+03 0.  1.
<mgrwt>
<rscale>  2 0.18559599E+03</rscale>
<asrwt>0</asrwt>
<pdfrwt beam="1">  1       21 0.60971572E-02 0.18559599E+03</pdfrwt>
<pdfrwt beam="2">  1       21 0.13874025E+00 0.18559599E+03</pdfrwt>
<totfact> 0.70510152E+04</totfact>
</mgrwt>
</event>
<event>
 4    1  0.4056666E+000  0.1813322E+03  0.7546771E-02  0.1166520E+00
         21   -1    0    0  501  502  0.00000000000E+00  0.00000000000E+00  0.33560999213E+03  0.33560999213E+03  0.00000000000E+00 0.  1.
         21   -1    0    0  502  503 -0.00000000000E+00 -0.00000000000E+00 -0.15441544666E+03  0.15441544666E+03  0.00000000000E+00 0.  1.
          6    1    1    2  501    0 -0.29225402646E+02  0.45806449098E+02  0.23872585657E+03  0.29978557259E+03  0.17300000000E+03 0.  1.
         -6    1    1    2    0  503  0.29225402646E+02 -0.45806449098E+02 -0.57531311094E+02  0.19023986621E+03  0.17300000000E+03 0.  1.
<mgrwt>
<rscale>  2 0.18133217E+03</rscale>
<asrwt>0</asrwt>
<pdfrwt beam="1">  1       21 0.51632306E-01 0.18133217E+03</pdfrwt>
<pdfrwt beam="2">  1       21 0.23756223E-01 0.18133217E+03</pdfrwt>
<totfact> 0.59776421E+04</totfact>
</mgrwt>
</event>
<event>
 4    1  0.4056666E+000  0.2990001E+03  0.7546771E-02  0.1085742E+00
         21   -1    0    0  503  502  0.00000000000E+00  0.00000000000E+00  0.19804751311E+04  0.19804751311E+04  0.00000000000E+00 0. -1.
         21   -1    0    0  501  503 -0.00000000000E+00 -0.00000000000E+00 -0.60133827613E+02  0.60133827613E+02  0.00000000000E+00 0.  1.
          6    1    1    2  501    0 -0.57789962691E+02  0.23692266935E+03  0.14696295999E+04  0.14997373744E+04  0.17300000000E+03 0. -1.
         -6    1    1    2    0  502  0.57789962691E+02 -0.23692266935E+03  0.45071170352E+03  0.54087158432E+03  0.17300000000E+03 0.  1.
<mgrwt>
<rscale>  2 0.29900005E+03</rscale>
<asrwt>0</asrwt>
<pdfrwt beam="1">  1       21 0.30468843E+00 0.29900005E+03</pdfrwt>
<pdfrwt beam="2">  1       21 0.92513596E-02 0.29900005E+03</pdfrwt>
<totfact> 0.26883389E+03</totfact>
</mgrwt>
</event>
<event>
 4    1  0.4056666E+000  0.1812849E+03  0.7546771E-02  0.1166565E+00
         21   -1    0    0  501  502  0.00000000000E+00  0.00000000000E+00  0.28512867672E+03  0.28512867672E+03  0.00000000000E+00 0.  1.
         21   -1    0    0  502  503 -0.00000000000E+00 -0.00000000000E+00 -0.12829029388E+03  0.12829029388E+03  0.00000000000E+00 0.  1.
          6    1    1    2  501    0  0.53142477645E+02  0.10540132343E+02  0.14429468652E+03  0.23170061260E+03  0.17300000000E+03 0.  1.
         -6    1    1    2    0  503 -0.53142477645E+02 -0.10540132343E+02  0.12543696320E+02  0.18171835801E+03  0.17300000000E+03 0.  1.
<mgrwt>
<rscale>  2 0.18128491E+03</rscale>
<asrwt>0</asrwt>
<pdfrwt beam="1">  1       21 0.43865950E-01 0.18128491E+03</pdfrwt>
<pdfrwt beam="2">  1       21 0.19736968E-01 0.18128491E+03</pdfrwt>
<totfact> 0.11861818E+05</totfact>
</mgrwt>
</event>
<event>
 4    1  0.4056666E+000  0.2319298E+03  0.7546771E-02  0.1125289E+00
         21   -1    0    0  503  502  0.00000000000E+00  0.00000000000E+00  0.11120467131E+04  0.11120467131E+04  0.00000000000E+00 0.  1.
         21   -1    0    0  501  503 -0.00000000000E+00 -0.00000000000E+00 -0.50548328931E+02  0.50548328931E+02  0.00000000000E+00 0.  1.
          6    1    1    2  501    0  0.51669132302E+02 -0.14557719033E+03  0.41011991223E+03  0.47115789284E+03  0.17300000000E+03 0.  1.
         -6    1    1    2    0  502 -0.51669132302E+02  0.14557719033E+03  0.65137847193E+03  0.69143714918E+03  0.17300000000E+03 0.  1.
<mgrwt>
<rscale>  2 0.23192977E+03</rscale>
<asrwt>0</asrwt>
<pdfrwt beam="1">  1       21 0.17108409E+00 0.23192977E+03</pdfrwt>
<pdfrwt beam="2">  1       21 0.77766668E-02 0.23192977E+03</pdfrwt>
<totfact> 0.25774551E+04</totfact>
</mgrwt>
</event>
<event>
 4    1  0.4056666E+000  0.2268181E+03  0.7546771E-02  0.1128900E+00
         21   -1    0    0  503  502  0.00000000000E+00  0.00000000000E+00  0.12948721926E+04  0.12948721926E+04  0.00000000000E+00 0.  1.
         21   -1    0    0  501  503 -0.00000000000E+00 -0.00000000000E+00 -0.99944984933E+02  0.99944984933E+02  0.00000000000E+00 0.  1.
          6    1    1    2  501    0 -0.78988277742E+02  0.12360545298E+03  0.56141473636E+02  0.23366283635E+03  0.17300000000E+03 0.  1.
         -6    1    1    2    0  502  0.78988277742E+02 -0.12360545298E+03  0.11387857340E+04  0.11611543412E+04  0.17300000000E+03 0.  1.
<mgrwt>
<rscale>  2 0.22681811E+03</rscale>
<asrwt>0</asrwt>
<pdfrwt beam="1">  1       21 0.19921109E+00 0.22681811E+03</pdfrwt>
<pdfrwt beam="2">  1       21 0.15376152E-01 0.22681811E+03</pdfrwt>
<totfact> 0.49436903E+03</totfact>
</mgrwt>
</event>
<event>
 4    1  0.4056666E+000  0.1834809E+03  0.7546771E-02  0.1164476E+00
         21   -1    0    0  501  502  0.00000000000E+00  0.00000000000E+00  0.23759626177E+04  0.23759626177E+04  0.00000000000E+00 0. -1.
         21   -1    0    0  502  503 -0.00000000000E+00 -0.00000000000E+00 -0.45824280635E+02  0.45824280635E+02  0.00000000000E+00 0. -1.
          6    1    1    2  501    0  0.88737614214E+00  0.61118456477E+02  0.21714920364E+04  0.21792298909E+04  0.17300000000E+03 0. -1.
         -6    1    1    2    0  503 -0.88737614214E+00 -0.61118456477E+02  0.15864630071E+03  0.24255700750E+03  0.17300000000E+03 0. -1.
<mgrwt>
<rscale>  2 0.18348093E+03</rscale>
<asrwt>0</asrwt>
<pdfrwt beam="1">  1       21 0.36553261E+00 0.18348093E+03</pdfrwt>
<pdfrwt beam="2">  1       21 0.70498912E-02 0.18348093E+03</pdfrwt>
<totfact> 0.21408067E+03</totfact>
</mgrwt>
</event>
<event>
 4    1  0.4056666E+000  0.1746848E+03  0.7546771E-02  0.1173049E+00
         21   -1    0    0  503  502  0.00000000000E+00  0.00000000000E+00  0.21840622859E+02  0.21840622859E+02  0.00000000000E+00 0. -1.
         21   -1    0    0  501  503 -0.00000000000E+00 -0.00000000000E+00 -0.14558341323E+04  0.14558341323E+04  0.00000000000E+00 0. -1.
          6    1    1    2  501    0 -0.23623491599E+02  0.52647509079E+01 -0.86532573820E+03  0.88278163787E+03  0.17300000000E+03 0.  1.
         -6    1    1    2    0  502  0.23623491599E+02 -0.52647509079E+01 -0.56866777126E+03  0.59489311731E+03  0.17300000000E+03 0.  1.
<mgrwt>
<rscale>  2 0.17468482E+03</rscale>
<asrwt>0</asrwt>
<pdfrwt beam="1">  1       21 0.33600967E-02 0.17468482E+03</pdfrwt>
<pdfrwt beam="2">  1       21 0.22397442E+00 0.17468482E+03</pdfrwt>
<totfact> 0.50521912E+04</totfact>
</mgrwt>
</event>
<event>
 4    1  0.4056666E+000  0.2018924E+03  0.7546771E-02  0.1148152E+00
         21   -1    0    0  503  502  0.00000000000E+00  0.00000000000E+00  0.57455010695E+02  0.57455010695E+02  0.00000000000E+00 0. -1.
         21   -1    0    0  501  503 -0.00000000000E+00 -0.00000000000E+00 -0.11975903855E+04  0.11975903855E+04  0.00000000000E+00 0.  1.
          6    1    1    2  501    0  0.10394560489E+03 -0.51837479768E+01 -0.97070796326E+03  0.99148096802E+03  0.17300000000E+03 0.  1.
         -6    1    1    2    0  502 -0.10394560489E+03  0.51837479768E+01 -0.16942741157E+03  0.26356442819E+03  0.17300000000E+03 0. -1.
<mgrwt>
<rscale>  2 0.20189245E+03</rscale>
<asrwt>0</asrwt>
<pdfrwt beam="1">  1       21 0.88392322E-02 0.20189245E+03</pdfrwt>
<pdfrwt beam="2">  1       21 0.18424468E+00 0.20189245E+03</pdfrwt>
<totfact> 0.17054481E+04</totfact>
</mgrwt>
</event>
<event>
 4    1  0.4056666E+000  0.2177980E+03  0.7546771E-02  0.1135535E+00
         21   -1    0    0  501  502  0.00000000000E+00  0.00000000000E+00  0.17912603961E+04  0.17912603961E+04  0.00000000000E+00 0.  1.
         21   -1    0    0  502  503 -0.00000000000E+00 -0.00000000000E+00 -0.27706378392E+02  0.27706378392E+02  0.00000000000E+00 0.  1.
          6    1    1    2  501    0  0.12391909431E+03 -0.46379045215E+02  0.69057937064E+03  0.72411036792E+03  0.17300000000E+03 0.  1.
         -6    1    1    2    0  503 -0.12391909431E+03  0.46379045215E+02  0.10729746470E+04  0.10948564066E+04  0.17300000000E+03 0.  1.
<mgrwt>
<rscale>  2 0.21779797E+03</rscale>
<asrwt>0</asrwt>
<pdfrwt beam="1">  1       21 0.27557843E+00 0.21779797E+03</pdfrwt>
<pdfrwt beam="2">  1       21 0.42625212E-02 0.21779797E+03</pdfrwt>
<totfact> 0.16241272E+04</totfact>
</mgrwt>
</event>
<event>
 4    1  0.4056666E+000  0.1749523E+03  0.7546771E-02  0.1172780E+00
         21   -1    0    0  503  502  0.00000000000E+00  0.00000000000E+00  0.87280134402E+02  0.87280134402E+02  0.00000000000E+00 0. -1.
         21   -1    0    0  501  503 -0.00000000000E+00 -0.00000000000E+00 -0.39811367815E+03  0.39811367815E+03  0.00000000000E+00 0. -1.
          6    1    1    2  501    0 -0.55201726951E+01  0.25472460938E+02 -0.71653086416E+02  0.18905682576E+03  0.17300000000E+03 0. -1.
         -6    1    1    2    0  502  0.55201726951E+01 -0.25472460938E+02 -0.23918045734E+03  0.29633698680E+03  0.17300000000E+03 0. -1.
<mgrwt>
<rscale>  2 0.17495233E+03</rscale>
<asrwt>0</asrwt>
<pdfrwt beam="1">  1       21 0.13427713E-01 0.17495233E+03</pdfrwt>
<pdfrwt beam="2">  1       21 0.61248258E-01 0.17495233E+03</pdfrwt>
<totfact> 0.11963084E+05</totfact>
</mgrwt>
</event>
<event>
 4    1  0.4056666E+000  0.2000683E+03  0.7546771E-02  0.1149681E+00
         21   -1    0    0  501  502  0.00000000000E+00  0.00000000000E+00  0.57170665739E+02  0.57170665739E+02  0.00000000000E+00 0. -1.
         21   -1    0    0  502  503 -0.00000000000E+00 -0.00000000000E+00 -0.70667296642E+03  0.70667296642E+03  0.00000000000E+00 0. -1.
          6    1    1    2  501    0  0.96216800580E+02 -0.28994171424E+02 -0.36147929944E+03  0.41315205265E+03  0.17300000000E+03 0. -1.
         -6    1    1    2    0  503 -0.96216800580E+02  0.28994171424E+02 -0.28802300124E+03  0.35069157950E+03  0.17300000000E+03 0. -1.
<mgrwt>
<rscale>  2 0.20006833E+03</rscale>
<asrwt>0</asrwt>
<pdfrwt beam="1">  1       21 0.87954874E-02 0.20006833E+03</pdfrwt>
<pdfrwt beam="2">  1       21 0.10871891E+00 0.20006833E+03</pdfrwt>
<totfact> 0.68082020E+04</totfact>
</mgrwt>
</event>
<event>
 4    1  0.4056666E+000  0.1778259E+03  0.7546771E-02  0.1169924E+00
         21   -1    0    0  503  502  0.00000000000E+00  0.00000000000E+00  0.16412071520E+03  0.16412071520E+03  0.00000000000E+00 0.  1.
         21   -1    0    0  501  503 -0.00000000000E+00 -0.00000000000E+00 -0.21552764881E+03  0.21552764881E+03  0.00000000000E+00 0.  1.
          6    1    1    2  501    0  0.39683156520E+02  0.10877026139E+02 -0.87513973539E+02  0.19819373899E+03  0.17300000000E+03 0.  1.
         -6    1    1    2    0  502 -0.39683156520E+02 -0.10877026139E+02  0.36107039933E+02  0.18145462502E+03  0.17300000000E+03 0.  1.
<mgrwt>
<rscale>  2 0.17782593E+03</rscale>
<asrwt>0</asrwt>
<pdfrwt beam="1">  1       21 0.25249341E-01 0.17782593E+03</pdfrwt>
<pdfrwt beam="2">  1       21 0.33158099E-01 0.17782593E+03</pdfrwt>
<totfact> 0.13081845E+05</totfact>
</mgrwt>
</event>
<event>
 4    1  0.4056666E+000  0.1963348E+03  0.7546771E-02  0.1152869E+00
         21   -1    0    0  503  502  0.00000000000E+00  0.00000000000E+00  0.53705253351E+02  0.53705253351E+02  0.00000000000E+00 0. -1.
         21   -1    0    0  501  503 -0.00000000000E+00 -0.00000000000E+00 -0.81529285856E+03  0.81529285856E+03  0.00000000000E+00 0. -1.
          6    1    1    2  501    0 -0.83595487671E+02 -0.40374930839E+02 -0.53107802314E+03  0.56620774214E+03  0.17300000000E+03 0. -1.
         -6    1    1    2    0  502  0.83595487671E+02  0.40374930839E+02 -0.23050958207E+03  0.30279036977E+03  0.17300000000E+03 0. -1.
<mgrwt>
<rscale>  2 0.19633477E+03</rscale>
<asrwt>0</asrwt>
<pdfrwt beam="1">  1       21 0.82623466E-02 0.19633477E+03</pdfrwt>
<pdfrwt beam="2">  1       21 0.12542967E+00 0.19633477E+03</pdfrwt>
<totfact> 0.53547744E+04</totfact>
</mgrwt>
</event>
<event>
 4    1  0.4056666E+000  0.1936234E+03  0.7546771E-02  0.1155233E+00
         21   -1    0    0  503  502  0.00000000000E+00  0.00000000000E+00  0.75240418175E+02  0.75240418175E+02  0.00000000000E+00 0.  1.
         21   -1    0    0  501  503 -0.00000000000E+00 -0.00000000000E+00 -0.53498852779E+03  0.53498852779E+03  0.00000000000E+00 0.  1.
          6    1    1    2  501    0 -0.52928634417E+02 -0.68989794170E+02 -0.30980852088E+03  0.36533731216E+03  0.17300000000E+03 0.  1.
         -6    1    1    2    0  502  0.52928634417E+02  0.68989794170E+02 -0.14993958873E+03  0.24489163381E+03  0.17300000000E+03 0.  1.
<mgrwt>
<rscale>  2 0.19362343E+03</rscale>
<asrwt>0</asrwt>
<pdfrwt beam="1">  1       21 0.11575449E-01 0.19362343E+03</pdfrwt>
<pdfrwt beam="2">  1       21 0.82305927E-01 0.19362343E+03</pdfrwt>
<totfact> 0.80675347E+04</totfact>
</mgrwt>
</event>
<event>
 4    1  0.4056666E+000  0.1809574E+03  0.7546771E-02  0.1166880E+00
         21   -1    0    0  501  502  0.00000000000E+00  0.00000000000E+00  0.13574122038E+03  0.13574122038E+03  0.00000000000E+00 0. -1.
         21   -1    0    0  502  503 -0.00000000000E+00 -0.00000000000E+00 -0.14485967416E+04  0.14485967416E+04  0.00000000000E+00 0. -1.
          6    1    1    2  501    0 -0.47673019866E+02 -0.23320588080E+02  0.66779439951E+02  0.19288613287E+03  0.17300000000E+03 0. -1.
         -6    1    1    2    0  503  0.47673019866E+02  0.23320588080E+02 -0.13796349611E+04  0.13914518291E+04  0.17300000000E+03 0. -1.
<mgrwt>
<rscale>  2 0.18095736E+03</rscale>
<asrwt>0</asrwt>
<pdfrwt beam="1">  1       21 0.20883265E-01 0.18095736E+03</pdfrwt>
<pdfrwt beam="2">  1       21 0.22286103E+00 0.18095736E+03</pdfrwt>
<totfact> 0.20840098E+03</totfact>
</mgrwt>
</event>
<event>
 4    1  0.4056666E+000  0.2637402E+03  0.7546771E-02  0.1104917E+00
         21   -1    0    0  503  502  0.00000000000E+00  0.00000000000E+00  0.70957152233E+02  0.70957152233E+02  0.00000000000E+00 0. -1.
         21   -1    0    0  501  503 -0.00000000000E+00 -0.00000000000E+00 -0.16543771396E+04  0.16543771396E+04  0.00000000000E+00 0.  1.
          6    1    1    2  501    0 -0.89795391319E+02 -0.17767019274E+03 -0.13423687545E+04  0.13680324495E+04  0.17300000000E+03 0.  1.
         -6    1    1    2    0  502  0.89795391319E+02  0.17767019274E+03 -0.24105123282E+03  0.35730184234E+03  0.17300000000E+03 0. -1.
<mgrwt>
<rscale>  2 0.26374023E+03</rscale>
<asrwt>0</asrwt>
<pdfrwt beam="1">  1       21 0.10916486E-01 0.26374023E+03</pdfrwt>
<pdfrwt beam="2">  1       21 0.25451954E+00 0.26374023E+03</pdfrwt>
<totfact> 0.40694020E+03</totfact>
</mgrwt>
</event>
<event>
 4    1  0.4056666E+000  0.2165439E+03  0.7546771E-02  0.1136486E+00
         21   -1    0    0  503  502  0.00000000000E+00  0.00000000000E+00  0.18125204811E+03  0.18125204811E+03  0.00000000000E+00 0.  1.
         21   -1    0    0  501  503 -0.00000000000E+00 -0.00000000000E+00 -0.25888450789E+03  0.25888450789E+03  0.00000000000E+00 0. -1.
          6    1    1    2  501    0  0.76111947701E+02  0.10568466251E+03 -0.33062918496E+02  0.21905349359E+03  0.17300000000E+03 0. -1.
         -6    1    1    2    0  502 -0.76111947701E+02 -0.10568466251E+03 -0.44569541289E+02  0.22108306241E+03  0.17300000000E+03 0.  1.
<mgrwt>
<rscale>  2 0.21654394E+03</rscale>
<asrwt>0</asrwt>
<pdfrwt beam="1">  1       21 0.27884930E-01 0.21654394E+03</pdfrwt>
<pdfrwt beam="2">  1       21 0.39828386E-01 0.21654394E+03</pdfrwt>
<totfact> 0.73856485E+04</totfact>
</mgrwt>
</event>
<event>
 4    1  0.4056666E+000  0.1787849E+03  0.7546771E-02  0.1168984E+00
         21   -1    0    0  501  502  0.00000000000E+00  0.00000000000E+00  0.44226193548E+02  0.44226193548E+02  0.00000000000E+00 0.  1.
         21   -1    0    0  502  503 -0.00000000000E+00 -0.00000000000E+00 -0.14672340850E+04  0.14672340850E+04  0.00000000000E+00 0.  1.
          6    1    1    2  501    0  0.28651490963E+02 -0.34844533004E+02 -0.17317516782E+03  0.24890497818E+03  0.17300000000E+03 0.  1.
         -6    1    1    2    0  503 -0.28651490963E+02  0.34844533004E+02 -0.12498327236E+04  0.12625553003E+04  0.17300000000E+03 0.  1.
<mgrwt>
<rscale>  2 0.17878493E+03</rscale>
<asrwt>0</asrwt>
<pdfrwt beam="1">  1       21 0.68040299E-02 0.17878493E+03</pdfrwt>
<pdfrwt beam="2">  1       21 0.22572832E+00 0.17878493E+03</pdfrwt>
<totfact> 0.14924470E+04</totfact>
</mgrwt>
</event>
<event>
 4    1  0.4056666E+000  0.1741961E+03  0.7546771E-02  0.1173541E+00
         21   -1    0    0  501  502  0.00000000000E+00  0.00000000000E+00  0.72925019224E+02  0.72925019224E+02  0.00000000000E+00 0. -1.
         21   -1    0    0  502  503 -0.00000000000E+00 -0.00000000000E+00 -0.44884898172E+03  0.44884898172E+03  0.00000000000E+00 0. -1.
          6    1    1    2  501    0  0.10020735229E+02  0.17744472290E+02 -0.11749514619E+03  0.21011756426E+03  0.17300000000E+03 0. -1.
         -6    1    1    2    0  503 -0.10020735229E+02 -0.17744472290E+02 -0.25842881630E+03  0.31165643668E+03  0.17300000000E+03 0. -1.
<mgrwt>
<rscale>  2 0.17419610E+03</rscale>
<asrwt>0</asrwt>
<pdfrwt beam="1">  1       21 0.11219234E-01 0.17419610E+03</pdfrwt>
<pdfrwt beam="2">  1       21 0.69053688E-01 0.17419610E+03</pdfrwt>
<totfact> 0.12717821E+05</totfact>
</mgrwt>
</event>
<event>
 4    1  0.4056666E+000  0.1943866E+03  0.7546771E-02  0.1154563E+00
         21   -1    0    0  501  502  0.00000000000E+00  0.00000000000E+00  0.19100818181E+03  0.19100818181E+03  0.00000000000E+00 0.  1.
         21   -1    0    0  502  503 -0.00000000000E+00 -0.00000000000E+00 -0.33088455864E+03  0.33088455864E+03  0.00000000000E+00 0.  1.
          6    1    1    2  501    0  0.75893431539E+02 -0.45796654636E+02  0.95538359064E+02  0.21659576307E+03  0.17300000000E+03 0.  1.
         -6    1    1    2    0  503 -0.75893431539E+02  0.45796654636E+02 -0.23541473589E+03  0.30529697739E+03  0.17300000000E+03 0.  1.
<mgrwt>
<rscale>  2 0.19438659E+03</rscale>
<asrwt>0</asrwt>
<pdfrwt beam="1">  1       21 0.29385875E-01 0.19438659E+03</pdfrwt>
<pdfrwt beam="2">  1       21 0.50905316E-01 0.19438659E+03</pdfrwt>
<totfact> 0.40684341E+04</totfact>
</mgrwt>
</event>
<event>
 4    1  0.4056666E+000  0.1926782E+03  0.7546771E-02  0.1156068E+00
         21   -1    0    0  501  502  0.00000000000E+00  0.00000000000E+00  0.42686951892E+02  0.42686951892E+02  0.00000000000E+00 0.  1.
         21   -1    0    0  502  503 -0.00000000000E+00 -0.00000000000E+00 -0.14547200256E+04  0.14547200256E+04  0.00000000000E+00 0.  1.
          6    1    1    2  501    0  0.72542103647E+02  0.43972142590E+02 -0.23122282632E+03  0.30097990222E+03  0.17300000000E+03 0.  1.
         -6    1    1    2    0  503 -0.72542103647E+02 -0.43972142590E+02 -0.11808102474E+04  0.11964270753E+04  0.17300000000E+03 0.  1.
<mgrwt>
<rscale>  2 0.19267825E+03</rscale>
<asrwt>0</asrwt>
<pdfrwt beam="1">  1       21 0.65672240E-02 0.19267825E+03</pdfrwt>
<pdfrwt beam="2">  1       21 0.22380306E+00 0.19267825E+03</pdfrwt>
<totfact> 0.16101199E+04</totfact>
</mgrwt>
</event>
<event>
 4    1  0.4056666E+000  0.1919621E+03  0.7546771E-02  0.1156703E+00
         21   -1    0    0  503  502  0.00000000000E+00  0.00000000000E+00  0.45049489718E+03  0.45049489718E+03  0.00000000000E+00 0.  1.
         21   -1    0    0  501  503 -0.00000000000E+00 -0.00000000000E+00 -0.11024650628E+03  0.11024650628E+03  0.00000000000E+00 0. -1.
          6    1    1    2  501    0  0.82098624292E+02 -0.13426383612E+02  0.27700535227E+02  0.19395043578E+03  0.17300000000E+03 0. -1.
         -6    1    1    2    0  502 -0.82098624292E+02  0.13426383612E+02  0.31254785567E+03  0.36679096768E+03  0.17300000000E+03 0.  1.
<mgrwt>
<rscale>  2 0.19196211E+03</rscale>
<asrwt>0</asrwt>
<pdfrwt beam="1">  1       21 0.69306906E-01 0.19196211E+03</pdfrwt>
<pdfrwt beam="2">  1       21 0.16961001E-01 0.19196211E+03</pdfrwt>
<totfact> 0.59358097E+04</totfact>
</mgrwt>
</event>
<event>
 4    1  0.4056666E+000  0.1775722E+03  0.7546771E-02  0.1170174E+00
         21   -1    0    0  501  502  0.00000000000E+00  0.00000000000E+00  0.16461123913E+03  0.16461123913E+03  0.00000000000E+00 0. -1.
         21   -1    0    0  502  503 -0.00000000000E+00 -0.00000000000E+00 -0.29907757518E+03  0.29907757518E+03  0.00000000000E+00 0. -1.
          6    1    1    2  501    0 -0.38046412788E+02 -0.12463806738E+02  0.71780450311E+02  0.19153148319E+03  0.17300000000E+03 0. -1.
         -6    1    1    2    0  503  0.38046412788E+02  0.12463806738E+02 -0.20624678636E+03  0.27215733113E+03  0.17300000000E+03 0. -1.
<mgrwt>
<rscale>  2 0.17757217E+03</rscale>
<asrwt>0</asrwt>
<pdfrwt beam="1">  1       21 0.25324806E-01 0.17757217E+03</pdfrwt>
<pdfrwt beam="2">  1       21 0.46011934E-01 0.17757217E+03</pdfrwt>
<totfact> 0.67333607E+04</totfact>
</mgrwt>
</event>
<event>
 4    1  0.4056666E+000  0.2308366E+03  0.7546771E-02  0.1126052E+00
         21   -1    0    0  501  502  0.00000000000E+00  0.00000000000E+00  0.28334711399E+02  0.28334711399E+02  0.00000000000E+00 0.  1.
         21   -1    0    0  502  503 -0.00000000000E+00 -0.00000000000E+00 -0.19087867975E+04  0.19087867975E+04  0.00000000000E+00 0.  1.
          6    1    1    2  501    0 -0.14369446482E+03  0.52042487399E+02 -0.82247311033E+03  0.85425261891E+03  0.17300000000E+03 0.  1.
         -6    1    1    2    0  503  0.14369446482E+03 -0.52042487399E+02 -0.10579789758E+04  0.10828688900E+04  0.17300000000E+03 0.  1.
<mgrwt>
<rscale>  2 0.23083656E+03</rscale>
<asrwt>0</asrwt>
<pdfrwt beam="1">  1       21 0.43591856E-02 0.23083656E+03</pdfrwt>
<pdfrwt beam="2">  1       21 0.29365956E+00 0.23083656E+03</pdfrwt>
<totfact> 0.12134281E+04</totfact>
</mgrwt>
</event>
<event>
 4    1  0.4056666E+000  0.1873030E+03  0.7546771E-02  0.1160917E+00
         21   -1    0    0  501  502  0.00000000000E+00  0.00000000000E+00  0.26646800114E+03  0.26646800114E+03  0.00000000000E+00 0.  1.
         21   -1    0    0  502  503 -0.00000000000E+00 -0.00000000000E+00 -0.13190333067E+03  0.13190333067E+03  0.00000000000E+00 0.  1.
          6    1    1    2  501    0 -0.55606740561E+02  0.45401635747E+02  0.58677245079E+02  0.19627897802E+03  0.17300000000E+03 0. -1.
         -6    1    1    2    0  503  0.55606740561E+02 -0.45401635747E+02  0.75887425387E+02  0.20209235378E+03  0.17300000000E+03 0. -1.
<mgrwt>
<rscale>  2 0.18730301E+03</rscale>
<asrwt>0</asrwt>
<pdfrwt beam="1">  1       21 0.40995077E-01 0.18730301E+03</pdfrwt>
<pdfrwt beam="2">  1       21 0.20292820E-01 0.18730301E+03</pdfrwt>
<totfact> 0.12898581E+05</totfact>
</mgrwt>
</event>
<event>
 4    1  0.4056666E+000  0.1895599E+03  0.7546771E-02  0.1158859E+00
         21   -1    0    0  501  502  0.00000000000E+00  0.00000000000E+00  0.60085093013E+02  0.60085093013E+02  0.00000000000E+00 0.  1.
         21   -1    0    0  502  503 -0.00000000000E+00 -0.00000000000E+00 -0.79779097547E+03  0.79779097547E+03  0.00000000000E+00 0. -1.
          6    1    1    2  501    0 -0.31652373399E+02 -0.70725384482E+02 -0.15421794463E+03  0.24436883434E+03  0.17300000000E+03 0.  1.
         -6    1    1    2    0  503  0.31652373399E+02  0.70725384482E+02 -0.58348793782E+03  0.61350723414E+03  0.17300000000E+03 0. -1.
<mgrwt>
<rscale>  2 0.18955989E+03</rscale>
<asrwt>0</asrwt>
<pdfrwt beam="1">  1       21 0.92438605E-02 0.18955989E+03</pdfrwt>
<pdfrwt beam="2">  1       21 0.12273707E+00 0.18955989E+03</pdfrwt>
<totfact> 0.46612606E+04</totfact>
</mgrwt>
</event>
<event>
 4    1  0.4056666E+000  0.1883732E+03  0.7546771E-02  0.1159937E+00
         21   -1    0    0  503  502  0.00000000000E+00  0.00000000000E+00  0.69255305588E+03  0.69255305588E+03  0.00000000000E+00 0.  1.
         21   -1    0    0  501  503 -0.00000000000E+00 -0.00000000000E+00 -0.51884724752E+02  0.51884724752E+02  0.00000000000E+00 0.  1.
          6    1    1    2  501    0  0.91289075877E+01  0.73973866758E+02  0.27875158408E+03  0.33643263151E+03  0.17300000000E+03 0. -1.
         -6    1    1    2    0  502 -0.91289075877E+01 -0.73973866758E+02  0.36191674705E+03  0.40800514912E+03  0.17300000000E+03 0. -1.
<mgrwt>
<rscale>  2 0.18837322E+03</rscale>
<asrwt>0</asrwt>
<pdfrwt beam="1">  1       21 0.10654662E+00 0.18837322E+03</pdfrwt>
<pdfrwt beam="2">  1       21 0.79822659E-02 0.18837322E+03</pdfrwt>
<totfact> 0.85133464E+04</totfact>
</mgrwt>
</event>
<event>
 4    1  0.4056666E+000  0.1927158E+03  0.7546771E-02  0.1156034E+00
         21   -1    0    0  501  502  0.00000000000E+00  0.00000000000E+00  0.93597136532E+03  0.93597136532E+03  0.00000000000E+00 0. -1.
         21   -1    0    0  502  503 -0.00000000000E+00 -0.00000000000E+00 -0.42213757974E+02  0.42213757974E+02  0.00000000000E+00 0.  1.
          6    1    1    2  501    0 -0.31721825545E+02  0.78766236736E+02  0.56670230095E+03  0.59857404902E+03  0.17300000000E+03 0.  1.
         -6    1    1    2    0  503  0.31721825545E+02 -0.78766236736E+02  0.32705530640E+03  0.37961107427E+03  0.17300000000E+03 0.  1.
<mgrwt>
<rscale>  2 0.19271584E+03</rscale>
<asrwt>0</asrwt>
<pdfrwt beam="1">  1       21 0.14399558E+00 0.19271584E+03</pdfrwt>
<pdfrwt beam="2">  1       21 0.64944250E-02 0.19271584E+03</pdfrwt>
<totfact> 0.57257393E+04</totfact>
</mgrwt>
</event>
<event>
 4    1  0.4056666E+000  0.1840986E+03  0.7546771E-02  0.1163894E+00
         21   -1    0    0  503  502  0.00000000000E+00  0.00000000000E+00  0.61062237642E+03  0.61062237642E+03  0.00000000000E+00 0.  1.
         21   -1    0    0  501  503 -0.00000000000E+00 -0.00000000000E+00 -0.87401735042E+02  0.87401735042E+02  0.00000000000E+00 0. -1.
          6    1    1    2  501    0  0.41917063459E+02 -0.46970671204E+02  0.50768390814E+02  0.19097045234E+03  0.17300000000E+03 0. -1.
         -6    1    1    2    0  502 -0.41917063459E+02  0.46970671204E+02  0.47245225057E+03  0.50705365912E+03  0.17300000000E+03 0.  1.
<mgrwt>
<rscale>  2 0.18409857E+03</rscale>
<asrwt>0</asrwt>
<pdfrwt beam="1">  1       21 0.93941901E-01 0.18409857E+03</pdfrwt>
<pdfrwt beam="2">  1       21 0.13446421E-01 0.18409857E+03</pdfrwt>
<totfact> 0.45677995E+04</totfact>
</mgrwt>
</event>
<event>
 4    1  0.4056666E+000  0.2105713E+03  0.7546771E-02  0.1141114E+00
         21   -1    0    0  503  502  0.00000000000E+00  0.00000000000E+00  0.72737020171E+03  0.72737020171E+03  0.00000000000E+00 0.  1.
         21   -1    0    0  501  503 -0.00000000000E+00 -0.00000000000E+00 -0.62780285418E+02  0.62780285418E+02  0.00000000000E+00 0.  1.
          6    1    1    2  501    0  0.46611249564E+02  0.11062855074E+03  0.26501725512E+03  0.33848844934E+03  0.17300000000E+03 0.  1.
         -6    1    1    2    0  502 -0.46611249564E+02 -0.11062855074E+03  0.39957266117E+03  0.45166203779E+03  0.17300000000E+03 0.  1.
<mgrwt>
<rscale>  2 0.21057133E+03</rscale>
<asrwt>0</asrwt>
<pdfrwt beam="1">  1       21 0.11190310E+00 0.21057133E+03</pdfrwt>
<pdfrwt beam="2">  1       21 0.96585059E-02 0.21057133E+03</pdfrwt>
<totfact> 0.53561051E+04</totfact>
</mgrwt>
</event>
<event>
 4    1  0.4056666E+000  0.1967802E+03  0.7546771E-02  0.1152484E+00
         21   -1    0    0  503  502  0.00000000000E+00  0.00000000000E+00  0.64686835623E+03  0.64686835623E+03  0.00000000000E+00 0. -1.
         21   -1    0    0  501  503 -0.00000000000E+00 -0.00000000000E+00 -0.62980811652E+02  0.62980811652E+02  0.00000000000E+00 0. -1.
          6    1    1    2  501    0 -0.44020246192E+02 -0.82798873052E+02  0.37093327375E+03  0.41989752206E+03  0.17300000000E+03 0. -1.
         -6    1    1    2    0  502  0.44020246192E+02  0.82798873052E+02  0.21295427083E+03  0.28995164583E+03  0.17300000000E+03 0. -1.
<mgrwt>
<rscale>  2 0.19678017E+03</rscale>
<asrwt>0</asrwt>
<pdfrwt beam="1">  1       21 0.99518204E-01 0.19678017E+03</pdfrwt>
<pdfrwt beam="2">  1       21 0.96893561E-02 0.19678017E+03</pdfrwt>
<totfact> 0.71105244E+04</totfact>
</mgrwt>
</event>
<event>
 4    1  0.4056666E+000  0.1805864E+03  0.7546771E-02  0.1167237E+00
         21   -1    0    0  503  502  0.00000000000E+00  0.00000000000E+00  0.28054467000E+03  0.28054467000E+03  0.00000000000E+00 0. -1.
         21   -1    0    0  501  503 -0.00000000000E+00 -0.00000000000E+00 -0.14303278753E+03  0.14303278753E+03  0.00000000000E+00 0. -1.
          6    1    1    2  501    0 -0.36487734885E+01  0.51663827382E+02 -0.22901237079E+02  0.18203277526E+03  0.17300000000E+03 0. -1.
         -6    1    1    2    0  502  0.36487734885E+01 -0.51663827382E+02  0.16041311955E+03  0.24154468227E+03  0.17300000000E+03 0. -1.
<mgrwt>
<rscale>  2 0.18058645E+03</rscale>
<asrwt>0</asrwt>
<pdfrwt beam="1">  1       21 0.43160718E-01 0.18058645E+03</pdfrwt>
<pdfrwt beam="2">  1       21 0.22005044E-01 0.18058645E+03</pdfrwt>
<totfact> 0.10004115E+05</totfact>
</mgrwt>
</event>
<event>
 4    1  0.4056666E+000  0.3164023E+03  0.7546771E-02  0.1077317E+00
         21   -1    0    0  503  502  0.00000000000E+00  0.00000000000E+00  0.34214610031E+03  0.34214610031E+03  0.00000000000E+00 0. -1.
         21   -1    0    0  501  503 -0.00000000000E+00 -0.00000000000E+00 -0.29308922522E+03  0.29308922522E+03  0.00000000000E+00 0.  1.
          6    1    1    2  501    0 -0.15518740501E+03  0.21470514780E+03  0.37563684164E+02  0.31862432666E+03  0.17300000000E+03 0.  1.
         -6    1    1    2    0  502  0.15518740501E+03 -0.21470514780E+03  0.11493190923E+02  0.31661099887E+03  0.17300000000E+03 0. -1.
<mgrwt>
<rscale>  2 0.31640232E+03</rscale>
<asrwt>0</asrwt>
<pdfrwt beam="1">  1       21 0.52637861E-01 0.31640232E+03</pdfrwt>
<pdfrwt beam="2">  1       21 0.45090650E-01 0.31640232E+03</pdfrwt>
<totfact> 0.15169835E+04</totfact>
</mgrwt>
</event>
<event>
 4    1  0.4056666E+000  0.1915404E+03  0.7546771E-02  0.1157079E+00
         21   -1    0    0  501  502  0.00000000000E+00  0.00000000000E+00  0.19834949129E+03  0.19834949129E+03  0.00000000000E+00 0. -1.
         21   -1    0    0  502  503 -0.00000000000E+00 -0.00000000000E+00 -0.22677561728E+03  0.22677561728E+03  0.00000000000E+00 0. -1.
          6    1    1    2  501    0  0.81851532805E+02 -0.76835149974E+01  0.77057760996E+02  0.20645970153E+03  0.17300000000E+03 0.  1.
         -6    1    1    2    0  503 -0.81851532805E+02  0.76835149974E+01 -0.10548388698E+03  0.21866540704E+03  0.17300000000E+03 0.  1.
<mgrwt>
<rscale>  2 0.19154036E+03</rscale>
<asrwt>0</asrwt>
<pdfrwt beam="1">  1       21 0.30515306E-01 0.19154036E+03</pdfrwt>
<pdfrwt beam="2">  1       21 0.34888556E-01 0.19154036E+03</pdfrwt>
<totfact> 0.81672680E+04</totfact>
</mgrwt>
</event>
<event>
 4    1  0.4056666E+000  0.1921300E+03  0.7546771E-02  0.1156554E+00
         21   -1    0    0  503  502  0.00000000000E+00  0.00000000000E+00  0.36474827584E+02  0.36474827584E+02  0.00000000000E+00 0.  1.
         21   -1    0    0  501  503 -0.00000000000E+00 -0.00000000000E+00 -0.10526211660E+04  0.10526211660E+04  0.00000000000E+00 0.  1.
          6    1    1    2  501    0  0.83473591482E+02 -0.41356507285E+01 -0.61499547270E+03  0.64430844750E+03  0.17300000000E+03 0.  1.
         -6    1    1    2    0  502 -0.83473591482E+02  0.41356507285E+01 -0.40115086568E+03  0.44478754605E+03  0.17300000000E+03 0.  1.
<mgrwt>
<rscale>  2 0.19213002E+03</rscale>
<asrwt>0</asrwt>
<pdfrwt beam="1">  1       21 0.56115110E-02 0.19213002E+03</pdfrwt>
<pdfrwt beam="2">  1       21 0.16194174E+00 0.19213002E+03</pdfrwt>
<totfact> 0.53875127E+04</totfact>
</mgrwt>
</event>
<event>
 4    1  0.4056666E+000  0.2001000E+03  0.7546771E-02  0.1149655E+00
         21   -1    0    0  503  502  0.00000000000E+00  0.00000000000E+00  0.14112348264E+03  0.14112348264E+03  0.00000000000E+00 0. -1.
         21   -1    0    0  501  503 -0.00000000000E+00 -0.00000000000E+00 -0.39069859525E+03  0.39069859525E+03  0.00000000000E+00 0. -1.
          6    1    1    2  501    0 -0.43934113605E+02  0.90447756534E+02 -0.26392929833E+03  0.33120790678E+03  0.17300000000E+03 0. -1.
         -6    1    1    2    0  502  0.43934113605E+02 -0.90447756534E+02  0.14354185714E+02  0.20061417110E+03  0.17300000000E+03 0. -1.
<mgrwt>
<rscale>  2 0.20009998E+03</rscale>
<asrwt>0</asrwt>
<pdfrwt beam="1">  1       21 0.21711305E-01 0.20009998E+03</pdfrwt>
<pdfrwt beam="2">  1       21 0.60107476E-01 0.20009998E+03</pdfrwt>
<totfact> 0.50895863E+04</totfact>
</mgrwt>
</event>
<event>
 4    1  0.4056666E+000  0.1900256E+03  0.7546771E-02  0.1158438E+00
         21   -1    0    0  501  502  0.00000000000E+00  0.00000000000E+00  0.10473663130E+04  0.10473663130E+04  0.00000000000E+00 0. -1.
         21   -1    0    0  502  503 -0.00000000000E+00 -0.00000000000E+00 -0.51549828710E+02  0.51549828710E+02  0.00000000000E+00 0. -1.
          6    1    1    2  501    0  0.38550237090E+02 -0.68517230473E+02  0.81411964831E+03  0.83600271137E+03  0.17300000000E+03 0. -1.
         -6    1    1    2    0  503 -0.38550237090E+02  0.68517230473E+02  0.18169683600E+03  0.26291343036E+03  0.17300000000E+03 0. -1.
<mgrwt>
<rscale>  2 0.19002561E+03</rscale>
<asrwt>0</asrwt>
<pdfrwt beam="1">  1       21 0.16113326E+00 0.19002561E+03</pdfrwt>
<pdfrwt beam="2">  1       21 0.79307437E-02 0.19002561E+03</pdfrwt>
<totfact> 0.30136352E+04</totfact>
</mgrwt>
</event>
<event>
 4    1  0.4056666E+000  0.4050574E+03  0.7546771E-02  0.1042042E+00
         21   -1    0    0  501  502  0.00000000000E+00  0.00000000000E+00  0.76950984715E+03  0.76950984715E+03  0.00000000000E+00 0. -1.
         21   -1    0    0  502  503 -0.00000000000E+00 -0.00000000000E+00 -0.21336722607E+03  0.21336722607E+03  0.00000000000E+00 0.  1.
          6    1    1    2  501    0 -0.19392404597E+03  0.31070236409E+03  0.29117245530E+03  0.49885157450E+03  0.17300000000E+03 0. -1.
         -6    1    1    2    0  503  0.19392404597E+03 -0.31070236409E+03  0.26497016577E+03  0.48402549872E+03  0.17300000000E+03 0.  1.
<mgrwt>
<rscale>  2 0.40505740E+03</rscale>
<asrwt>0</asrwt>
<pdfrwt beam="1">  1       21 0.11838613E+00 0.40505740E+03</pdfrwt>
<pdfrwt beam="2">  1       21 0.32825728E-01 0.40505740E+03</pdfrwt>
<totfact> 0.43319002E+03</totfact>
</mgrwt>
</event>
<event>
 4    1  0.4056666E+000  0.2645641E+03  0.7546771E-02  0.1104432E+00
         21   -1    0    0  503  502  0.00000000000E+00  0.00000000000E+00  0.12697496802E+03  0.12697496802E+03  0.00000000000E+00 0.  1.
         21   -1    0    0  501  503 -0.00000000000E+00 -0.00000000000E+00 -0.59360924033E+03  0.59360924033E+03  0.00000000000E+00 0. -1.
          6    1    1    2  501    0 -0.56104996889E+02  0.19213903909E+03 -0.32956909767E+03  0.42262272910E+03  0.17300000000E+03 0. -1.
         -6    1    1    2    0  502  0.56104996889E+02 -0.19213903909E+03 -0.13706517464E+03  0.29796147925E+03  0.17300000000E+03 0.  1.
<mgrwt>
<rscale>  2 0.26456413E+03</rscale>
<asrwt>0</asrwt>
<pdfrwt beam="1">  1       21 0.19534610E-01 0.26456413E+03</pdfrwt>
<pdfrwt beam="2">  1       21 0.91324498E-01 0.26456413E+03</pdfrwt>
<totfact> 0.23589199E+04</totfact>
</mgrwt>
</event>
<event>
 4    1  0.4056666E+000  0.2745791E+03  0.7546771E-02  0.1098687E+00
         21   -1    0    0  501  502  0.00000000000E+00  0.00000000000E+00  0.22504093881E+03  0.22504093881E+03  0.00000000000E+00 0. -1.
         21   -1    0    0  502  503 -0.00000000000E+00 -0.00000000000E+00 -0.61883836730E+03  0.61883836730E+03  0.00000000000E+00 0.  1.
          6    1    1    2  501    0 -0.20576713432E+03  0.55897921626E+02  0.88847415192E+02  0.28859583225E+03  0.17300000000E+03 0. -1.
         -6    1    1    2    0  503  0.20576713432E+03 -0.55897921626E+02 -0.48264484368E+03  0.55528347386E+03  0.17300000000E+03 0.  1.
<mgrwt>
<rscale>  2 0.27457912E+03</rscale>
<asrwt>0</asrwt>
<pdfrwt beam="1">  1       21 0.34621683E-01 0.27457912E+03</pdfrwt>
<pdfrwt beam="2">  1       21 0.95205902E-01 0.27457912E+03</pdfrwt>
<totfact> 0.70327228E+03</totfact>
</mgrwt>
</event>
<event>
 4    1  0.4056666E+000  0.2187880E+03  0.7546771E-02  0.1134790E+00
         21   -1    0    0  503  502  0.00000000000E+00  0.00000000000E+00  0.43543579125E+03  0.43543579125E+03  0.00000000000E+00 0.  1.
         21   -1    0    0  501  503 -0.00000000000E+00 -0.00000000000E+00 -0.11121619191E+03  0.11121619191E+03  0.00000000000E+00 0.  1.
          6    1    1    2  501    0 -0.12681849607E+03 -0.43084397460E+02  0.13273581854E+03  0.25590426681E+03  0.17300000000E+03 0.  1.
         -6    1    1    2    0  502  0.12681849607E+03  0.43084397460E+02  0.19148378081E+03  0.29074771635E+03  0.17300000000E+03 0.  1.
<mgrwt>
<rscale>  2 0.21878802E+03</rscale>
<asrwt>0</asrwt>
<pdfrwt beam="1">  1       21 0.66990121E-01 0.21878802E+03</pdfrwt>
<pdfrwt beam="2">  1       21 0.17110184E-01 0.21878802E+03</pdfrwt>
<totfact> 0.62166027E+04</totfact>
</mgrwt>
</event>
<event>
 4    1  0.4056666E+000  0.2463667E+03  0.7546771E-02  0.1115623E+00
         21   -1    0    0  501  502  0.00000000000E+00  0.00000000000E+00  0.33135408829E+03  0.33135408829E+03  0.00000000000E+00 0. -1.
         21   -1    0    0  502  503 -0.00000000000E+00 -0.00000000000E+00 -0.34847328027E+03  0.34847328027E+03  0.00000000000E+00 0. -1.
          6    1    1    2  501    0 -0.16386887755E+03  0.62566272297E+02  0.22554775584E+03  0.33401846898E+03  0.17300000000E+03 0. -1.
         -6    1    1    2    0  503  0.16386887755E+03 -0.62566272297E+02 -0.24266694783E+03  0.34580889958E+03  0.17300000000E+03 0. -1.
<mgrwt>
<rscale>  2 0.24636669E+03</rscale>
<asrwt>0</asrwt>
<pdfrwt beam="1">  1       21 0.50977552E-01 0.24636669E+03</pdfrwt>
<pdfrwt beam="2">  1       21 0.53611274E-01 0.24636669E+03</pdfrwt>
<totfact> 0.11659276E+04</totfact>
</mgrwt>
</event>
<event>
 4    1  0.4056666E+000  0.2463822E+03  0.7546771E-02  0.1115613E+00
         21   -1    0    0  503  502  0.00000000000E+00  0.00000000000E+00  0.81959936877E+03  0.81959936877E+03  0.00000000000E+00 0. -1.
         21   -1    0    0  501  503 -0.00000000000E+00 -0.00000000000E+00 -0.76987179185E+02  0.76987179185E+02  0.00000000000E+00 0. -1.
          6    1    1    2  501    0  0.20096046846E+02 -0.17427371406E+03  0.28397750359E+03  0.37596196756E+03  0.17300000000E+03 0. -1.
         -6    1    1    2    0  502 -0.20096046846E+02  0.17427371406E+03  0.45863468600E+03  0.52062458040E+03  0.17300000000E+03 0. -1.
<mgrwt>
<rscale>  2 0.24638218E+03</rscale>
<asrwt>0</asrwt>
<pdfrwt beam="1">  1       21 0.12609221E+00 0.24638218E+03</pdfrwt>
<pdfrwt beam="2">  1       21 0.11844182E-01 0.24638218E+03</pdfrwt>
<totfact> 0.27210098E+04</totfact>
</mgrwt>
</event>
<event>
 4    1  0.4056666E+000  0.1990282E+03  0.7546771E-02  0.1150562E+00
         21   -1    0    0  503  502  0.00000000000E+00  0.00000000000E+00  0.10710986434E+03  0.10710986434E+03  0.00000000000E+00 0.  1.
         21   -1    0    0  501  503 -0.00000000000E+00 -0.00000000000E+00 -0.65119490221E+03  0.65119490221E+03  0.00000000000E+00 0.  1.
          6    1    1    2  501    0 -0.98079847427E+02 -0.79729017720E+01 -0.52126936544E+03  0.55797309521E+03  0.17300000000E+03 0.  1.
         -6    1    1    2    0  502  0.98079847427E+02  0.79729017720E+01 -0.22815672427E+02  0.20033167134E+03  0.17300000000E+03 0.  1.
<mgrwt>
<rscale>  2 0.19902820E+03</rscale>
<asrwt>0</asrwt>
<pdfrwt beam="1">  1       21 0.16478441E-01 0.19902820E+03</pdfrwt>
<pdfrwt beam="2">  1       21 0.10018383E+00 0.19902820E+03</pdfrwt>
<totfact> 0.26901876E+04</totfact>
</mgrwt>
</event>
<event>
 4    1  0.4056666E+000  0.2195947E+03  0.7546771E-02  0.1134186E+00
         21   -1    0    0  503  502  0.00000000000E+00  0.00000000000E+00  0.18681162771E+03  0.18681162771E+03  0.00000000000E+00 0.  1.
         21   -1    0    0  501  503 -0.00000000000E+00 -0.00000000000E+00 -0.30442698730E+03  0.30442698730E+03  0.00000000000E+00 0.  1.
          6    1    1    2  501    0 -0.39514628532E+01  0.13519321093E+03  0.36976537978E+02  0.22268606310E+03  0.17300000000E+03 0.  1.
         -6    1    1    2    0  502  0.39514628532E+01 -0.13519321093E+03 -0.15459189757E+03  0.26855255190E+03  0.17300000000E+03 0.  1.
<mgrwt>
<rscale>  2 0.21959467E+03</rscale>
<asrwt>0</asrwt>
<pdfrwt beam="1">  1       21 0.28740251E-01 0.21959467E+03</pdfrwt>
<pdfrwt beam="2">  1       21 0.46834921E-01 0.21959467E+03</pdfrwt>
<totfact> 0.49909277E+04</totfact>
</mgrwt>
</event>
<event>
 4    1  0.4056666E+000  0.2526736E+03  0.7546771E-02  0.1111627E+00
         21   -1    0    0  503  502  0.00000000000E+00  0.00000000000E+00  0.19491175159E+03  0.19491175159E+03  0.00000000000E+00 0. -1.
         21   -1    0    0  501  503 -0.00000000000E+00 -0.00000000000E+00 -0.33073475232E+03  0.33073475232E+03  0.00000000000E+00 0.  1.
          6    1    1    2  501    0  0.14292634124E+03 -0.11613357742E+03 -0.93689594246E+02  0.26948411251E+03  0.17300000000E+03 0. -1.
         -6    1    1    2    0  502 -0.14292634124E+03  0.11613357742E+03 -0.42133406488E+02  0.25616239140E+03  0.17300000000E+03 0.  1.
<mgrwt>
<rscale>  2 0.25267360E+03</rscale>
<asrwt>0</asrwt>
<pdfrwt beam="1">  1       21 0.29986424E-01 0.25267360E+03</pdfrwt>
<pdfrwt beam="2">  1       21 0.50882269E-01 0.25267360E+03</pdfrwt>
<totfact> 0.38088911E+04</totfact>
</mgrwt>
</event>
<event>
 4    1  0.4056666E+000  0.2619255E+03  0.7546771E-02  0.1105992E+00
         21   -1    0    0  501  502  0.00000000000E+00  0.00000000000E+00  0.15654419209E+04  0.15654419209E+04  0.00000000000E+00 0.  1.
         21   -1    0    0  502  503 -0.00000000000E+00 -0.00000000000E+00 -0.50537269490E+02  0.50537269490E+02  0.00000000000E+00 0.  1.
          6    1    1    2  501    0 -0.16859412107E+03  0.10125217056E+03  0.10519251110E+04  0.10840440115E+04  0.17300000000E+03 0.  1.
         -6    1    1    2    0  503  0.16859412107E+03 -0.10125217056E+03  0.46297954036E+03  0.53193517884E+03  0.17300000000E+03 0.  1.
<mgrwt>
<rscale>  2 0.26192552E+03</rscale>
<asrwt>0</asrwt>
<pdfrwt beam="1">  1       21 0.24083718E+00 0.26192552E+03</pdfrwt>
<pdfrwt beam="2">  1       21 0.77749657E-02 0.26192552E+03</pdfrwt>
<totfact> 0.89727373E+03</totfact>
</mgrwt>
</event>
<event>
 4    1  0.4056666E+000  0.2081393E+03  0.7546771E-02  0.1143048E+00
         21   -1    0    0  503  502  0.00000000000E+00  0.00000000000E+00  0.12459489177E+04  0.12459489177E+04  0.00000000000E+00 0. -1.
         21   -1    0    0  501  503 -0.00000000000E+00 -0.00000000000E+00 -0.51768364368E+02  0.51768364368E+02  0.00000000000E+00 0. -1.
          6    1    1    2  501    0 -0.74627544780E+02  0.88451753912E+02  0.22528293699E+03  0.30671547876E+03  0.17300000000E+03 0. -1.
         -6    1    1    2    0  502  0.74627544780E+02 -0.88451753912E+02  0.96889761629E+03  0.99100180326E+03  0.17300000000E+03 0. -1.
<mgrwt>
<rscale>  2 0.20813934E+03</rscale>
<asrwt>0</asrwt>
<pdfrwt beam="1">  1       21 0.19168443E+00 0.20813934E+03</pdfrwt>
<pdfrwt beam="2">  1       21 0.79643647E-02 0.20813934E+03</pdfrwt>
<totfact> 0.18177126E+04</totfact>
</mgrwt>
</event>
<event>
 4    1  0.4056666E+000  0.1767426E+03  0.7546771E-02  0.1170993E+00
         21   -1    0    0  503  502  0.00000000000E+00  0.00000000000E+00  0.18442377972E+02  0.18442377972E+02  0.00000000000E+00 0.  1.
         21   -1    0    0  501  503 -0.00000000000E+00 -0.00000000000E+00 -0.18038432599E+04  0.18038432599E+04  0.00000000000E+00 0.  1.
          6    1    1    2  501    0 -0.21147726102E+02  0.29354980319E+02 -0.11177317532E+04  0.11316192881E+04  0.17300000000E+03 0. -1.
         -6    1    1    2    0  502  0.21147726102E+02 -0.29354980319E+02 -0.66766912874E+03  0.69066634974E+03  0.17300000000E+03 0. -1.
<mgrwt>
<rscale>  2 0.17674258E+03</rscale>
<asrwt>0</asrwt>
<pdfrwt beam="1">  1       21 0.28372885E-02 0.17674258E+03</pdfrwt>
<pdfrwt beam="2">  1       21 0.27751439E+00 0.17674258E+03</pdfrwt>
<totfact> 0.32382474E+04</totfact>
</mgrwt>
</event>
<event>
 4    1  0.4056666E+000  0.1748327E+03  0.7546771E-02  0.1172900E+00
         21   -1    0    0  501  502  0.00000000000E+00  0.00000000000E+00  0.15883351536E+03  0.15883351536E+03  0.00000000000E+00 0.  1.
         21   -1    0    0  502  503 -0.00000000000E+00 -0.00000000000E+00 -0.53776840672E+03  0.53776840672E+03  0.00000000000E+00 0.  1.
          6    1    1    2  501    0 -0.24614828637E+02 -0.56205858113E+01  0.89639709180E+02  0.19647330158E+03  0.17300000000E+03 0.  1.
         -6    1    1    2    0  503  0.24614828637E+02  0.56205858113E+01 -0.46857460054E+03  0.50012862050E+03  0.17300000000E+03 0.  1.
<mgrwt>
<rscale>  2 0.17483272E+03</rscale>
<asrwt>0</asrwt>
<pdfrwt beam="1">  1       21 0.24435925E-01 0.17483272E+03</pdfrwt>
<pdfrwt beam="2">  1       21 0.82733601E-01 0.17483272E+03</pdfrwt>
<totfact> 0.20383478E+04</totfact>
</mgrwt>
</event>
<event>
 4    1  0.4056666E+000  0.1790099E+03  0.7546771E-02  0.1168765E+00
         21   -1    0    0  503  502  0.00000000000E+00  0.00000000000E+00  0.44041934356E+02  0.44041934356E+02  0.00000000000E+00 0.  1.
         21   -1    0    0  501  503 -0.00000000000E+00 -0.00000000000E+00 -0.89344304038E+03  0.89344304038E+03  0.00000000000E+00 0.  1.
          6    1    1    2  501    0 -0.44523232448E+02 -0.11542434266E+02 -0.62665823358E+03  0.65172470241E+03  0.17300000000E+03 0. -1.
         -6    1    1    2    0  502  0.44523232448E+02  0.11542434266E+02 -0.22274287244E+03  0.28576027233E+03  0.17300000000E+03 0. -1.
<mgrwt>
<rscale>  2 0.17900990E+03</rscale>
<asrwt>0</asrwt>
<pdfrwt beam="1">  1       21 0.67756832E-02 0.17900990E+03</pdfrwt>
<pdfrwt beam="2">  1       21 0.13745276E+00 0.17900990E+03</pdfrwt>
<totfact> 0.60459716E+04</totfact>
</mgrwt>
</event>
<event>
 4    1  0.4056666E+000  0.1996628E+03  0.7546771E-02  0.1150024E+00
         21   -1    0    0  501  502  0.00000000000E+00  0.00000000000E+00  0.62265679250E+02  0.62265679250E+02  0.00000000000E+00 0. -1.
         21   -1    0    0  502  503 -0.00000000000E+00 -0.00000000000E+00 -0.12607869551E+04  0.12607869551E+04  0.00000000000E+00 0. -1.
          6    1    1    2  501    0  0.66955182614E+02 -0.73846108151E+02 -0.13516006538E+03  0.24110887052E+03  0.17300000000E+03 0.  1.
         -6    1    1    2    0  503 -0.66955182614E+02  0.73846108151E+02 -0.10633612105E+04  0.10819437638E+04  0.17300000000E+03 0.  1.
<mgrwt>
<rscale>  2 0.19966283E+03</rscale>
<asrwt>0</asrwt>
<pdfrwt beam="1">  1       21 0.95793360E-02 0.19966283E+03</pdfrwt>
<pdfrwt beam="2">  1       21 0.19396721E+00 0.19966283E+03</pdfrwt>
<totfact> 0.12787230E+04</totfact>
</mgrwt>
</event>
<event>
 4    1  0.4056666E+000  0.1781584E+03  0.7546771E-02  0.1169597E+00
         21   -1    0    0  501  502  0.00000000000E+00  0.00000000000E+00  0.26606628057E+03  0.26606628057E+03  0.00000000000E+00 0.  1.
         21   -1    0    0  502  503 -0.00000000000E+00 -0.00000000000E+00 -0.11980521538E+03  0.11980521538E+03  0.00000000000E+00 0.  1.
          6    1    1    2  501    0 -0.96261889189E+01 -0.41457652599E+02  0.85720191671E+02  0.19770774323E+03  0.17300000000E+03 0.  1.
         -6    1    1    2    0  503  0.96261889189E+01  0.41457652599E+02  0.60540873521E+02  0.18816375272E+03  0.17300000000E+03 0.  1.
<mgrwt>
<rscale>  2 0.17815836E+03</rscale>
<asrwt>0</asrwt>
<pdfrwt beam="1">  1       21 0.40933274E-01 0.17815836E+03</pdfrwt>
<pdfrwt beam="2">  1       21 0.18431572E-01 0.17815836E+03</pdfrwt>
<totfact> 0.15519310E+05</totfact>
</mgrwt>
</event>
<event>
 4    1  0.4056666E+000  0.2602457E+03  0.7546771E-02  0.1106996E+00
         21   -1    0    0  501  502  0.00000000000E+00  0.00000000000E+00  0.71031502629E+03  0.71031502629E+03  0.00000000000E+00 0.  1.
         21   -1    0    0  502  503 -0.00000000000E+00 -0.00000000000E+00 -0.98307671098E+02  0.98307671098E+02  0.00000000000E+00 0. -1.
          6    1    1    2  501    0  0.92488359344E+02 -0.17101086619E+03  0.37614469610E+03  0.45739768842E+03  0.17300000000E+03 0.  1.
         -6    1    1    2    0  503 -0.92488359344E+02  0.17101086619E+03  0.23586265909E+03  0.35122500897E+03  0.17300000000E+03 0. -1.
<mgrwt>
<rscale>  2 0.26024568E+03</rscale>
<asrwt>0</asrwt>
<pdfrwt beam="1">  1       21 0.10927923E+00 0.26024568E+03</pdfrwt>
<pdfrwt beam="2">  1       21 0.15124258E-01 0.26024568E+03</pdfrwt>
<totfact> 0.24729281E+04</totfact>
</mgrwt>
</event>
<event>
 4    1  0.4056666E+000  0.2167931E+03  0.7546771E-02  0.1136297E+00
         21   -1    0    0  501  502  0.00000000000E+00  0.00000000000E+00  0.10815630135E+03  0.10815630135E+03  0.00000000000E+00 0. -1.
         21   -1    0    0  502  503 -0.00000000000E+00 -0.00000000000E+00 -0.63891562609E+03  0.63891562609E+03  0.00000000000E+00 0.  1.
          6    1    1    2  501    0 -0.12683083801E+03 -0.31371689084E+02 -0.54120602691E+02  0.22344637831E+03  0.17300000000E+03 0. -1.
         -6    1    1    2    0  503  0.12683083801E+03  0.31371689084E+02 -0.47663872205E+03  0.52362554913E+03  0.17300000000E+03 0.  1.
<mgrwt>
<rscale>  2 0.21679309E+03</rscale>
<asrwt>0</asrwt>
<pdfrwt beam="1">  1       21 0.16639431E-01 0.21679309E+03</pdfrwt>
<pdfrwt beam="2">  1       21 0.98294713E-01 0.21679309E+03</pdfrwt>
<totfact> 0.27367937E+04</totfact>
</mgrwt>
</event>
<event>
 4    1  0.4056666E+000  0.1837436E+03  0.7546771E-02  0.1164228E+00
         21   -1    0    0  501  502  0.00000000000E+00  0.00000000000E+00  0.44210936865E+03  0.44210936865E+03  0.00000000000E+00 0.  1.
         21   -1    0    0  502  503 -0.00000000000E+00 -0.00000000000E+00 -0.97976871545E+02  0.97976871545E+02  0.00000000000E+00 0.  1.
          6    1    1    2  501    0 -0.53943819650E+02 -0.30377311553E+02  0.29889471205E+03  0.35085576185E+03  0.17300000000E+03 0.  1.
         -6    1    1    2    0  503  0.53943819650E+02  0.30377311553E+02  0.45237785055E+02  0.18923047834E+03  0.17300000000E+03 0.  1.
<mgrwt>
<rscale>  2 0.18374362E+03</rscale>
<asrwt>0</asrwt>
<pdfrwt beam="1">  1       21 0.68016825E-01 0.18374362E+03</pdfrwt>
<pdfrwt beam="2">  1       21 0.15073365E-01 0.18374362E+03</pdfrwt>
<totfact> 0.77030947E+04</totfact>
</mgrwt>
</event>
<event>
 4    1  0.4056666E+000  0.1994637E+03  0.7546771E-02  0.1150192E+00
         21   -1    0    0  501  502  0.00000000000E+00  0.00000000000E+00  0.88919301788E+02  0.88919301788E+02  0.00000000000E+00 0.  1.
         21   -1    0    0  502  503 -0.00000000000E+00 -0.00000000000E+00 -0.60916560284E+03  0.60916560284E+03  0.00000000000E+00 0. -1.
          6    1    1    2  501    0  0.56300138128E+02  0.81774546394E+02 -0.80275802841E+02  0.21501159623E+03  0.17300000000E+03 0.  1.
         -6    1    1    2    0  503 -0.56300138128E+02 -0.81774546394E+02 -0.43997049821E+03  0.48307330839E+03  0.17300000000E+03 0. -1.
<mgrwt>
<rscale>  2 0.19946374E+03</rscale>
<asrwt>0</asrwt>
<pdfrwt beam="1">  1       21 0.13679892E-01 0.19946374E+03</pdfrwt>
<pdfrwt beam="2">  1       21 0.93717789E-01 0.19946374E+03</pdfrwt>
<totfact> 0.44178054E+04</totfact>
</mgrwt>
</event>
<event>
 4    1  0.4056666E+000  0.1827133E+03  0.7546771E-02  0.1165203E+00
         21   -1    0    0  501  502  0.00000000000E+00  0.00000000000E+00  0.10075757540E+03  0.10075757540E+03  0.00000000000E+00 0. -1.
         21   -1    0    0  502  503 -0.00000000000E+00 -0.00000000000E+00 -0.50849425877E+03  0.50849425877E+03  0.00000000000E+00 0. -1.
          6    1    1    2  501    0  0.51476799952E+02 -0.28377594520E+02 -0.24059866118E+02  0.18429060194E+03  0.17300000000E+03 0. -1.
         -6    1    1    2    0  503 -0.51476799952E+02  0.28377594520E+02 -0.38367681725E+03  0.42496123223E+03  0.17300000000E+03 0. -1.
<mgrwt>
<rscale>  2 0.18271330E+03</rscale>
<asrwt>0</asrwt>
<pdfrwt beam="1">  1       21 0.15501165E-01 0.18271330E+03</pdfrwt>
<pdfrwt beam="2">  1       21 0.78229886E-01 0.18271330E+03</pdfrwt>
<totfact> 0.53695937E+04</totfact>
</mgrwt>
</event>
<event>
 4    1  0.4056666E+000  0.2281002E+03  0.7546771E-02  0.1127984E+00
         21   -1    0    0  501  502  0.00000000000E+00  0.00000000000E+00  0.30038379795E+02  0.30038379795E+02  0.00000000000E+00 0.  1.
         21   -1    0    0  502  503 -0.00000000000E+00 -0.00000000000E+00 -0.28618416938E+04  0.28618416938E+04  0.00000000000E+00 0. -1.
          6    1    1    2  501    0 -0.11975341731E+03 -0.88089832613E+02 -0.50742109760E+03  0.55633251735E+03  0.17300000000E+03 0.  1.
         -6    1    1    2    0  503  0.11975341731E+03  0.88089832613E+02 -0.23243822164E+04  0.23355475563E+04  0.17300000000E+03 0. -1.
<mgrwt>
<rscale>  2 0.22810020E+03</rscale>
<asrwt>0</asrwt>
<pdfrwt beam="1">  1       21 0.46212883E-02 0.22810020E+03</pdfrwt>
<pdfrwt beam="2">  1       21 0.44028343E+00 0.22810020E+03</pdfrwt>
<totfact> 0.14084009E+03</totfact>
</mgrwt>
</event>
<event>
 4    1  0.4056666E+000  0.1882733E+03  0.7546771E-02  0.1160028E+00
         21   -1    0    0  501  502  0.00000000000E+00  0.00000000000E+00  0.21233416433E+03  0.21233416433E+03  0.00000000000E+00 0.  1.
         21   -1    0    0  502  503 -0.00000000000E+00 -0.00000000000E+00 -0.40316683716E+03  0.40316683716E+03  0.00000000000E+00 0.  1.
          6    1    1    2  501    0  0.31176726541E+02  0.67422931850E+02  0.14015473693E+03  0.23471299559E+03  0.17300000000E+03 0.  1.
         -6    1    1    2    0  503 -0.31176726541E+02 -0.67422931850E+02 -0.33098740976E+03  0.38078800590E+03  0.17300000000E+03 0.  1.
<mgrwt>
<rscale>  2 0.18827331E+03</rscale>
<asrwt>0</asrwt>
<pdfrwt beam="1">  1       21 0.32666795E-01 0.18827331E+03</pdfrwt>
<pdfrwt beam="2">  1       21 0.62025667E-01 0.18827331E+03</pdfrwt>
<totfact> 0.21813433E+04</totfact>
</mgrwt>
</event>
<event>
 4    1  0.4056666E+000  0.1925071E+03  0.7546771E-02  0.1156219E+00
         21   -1    0    0  501  502  0.00000000000E+00  0.00000000000E+00  0.46358792160E+02  0.46358792160E+02  0.00000000000E+00 0. -1.
         21   -1    0    0  502  503 -0.00000000000E+00 -0.00000000000E+00 -0.13507729956E+04  0.13507729956E+04  0.00000000000E+00 0. -1.
          6    1    1    2  501    0  0.54355950387E+02  0.64617373705E+02 -0.20589258454E+03  0.28187005995E+03  0.17300000000E+03 0. -1.
         -6    1    1    2    0  503 -0.54355950387E+02 -0.64617373705E+02 -0.10985216189E+04  0.11152617278E+04  0.17300000000E+03 0. -1.
<mgrwt>
<rscale>  2 0.19250708E+03</rscale>
<asrwt>0</asrwt>
<pdfrwt beam="1">  1       21 0.71321213E-02 0.19250708E+03</pdfrwt>
<pdfrwt beam="2">  1       21 0.20781125E+00 0.19250708E+03</pdfrwt>
<totfact> 0.17543398E+04</totfact>
</mgrwt>
</event>
<event>
 4    1  0.4056666E+000  0.2255718E+03  0.7546771E-02  0.1129796E+00
         21   -1    0    0  501  502  0.00000000000E+00  0.00000000000E+00  0.58030075591E+03  0.58030075591E+03  0.00000000000E+00 0.  1.
         21   -1    0    0  502  503 -0.00000000000E+00 -0.00000000000E+00 -0.89423305930E+02  0.89423305930E+02  0.00000000000E+00 0.  1.
          6    1    1    2  501    0 -0.10034582079E+03 -0.10432815330E+03  0.19872719726E+03  0.30062459356E+03  0.17300000000E+03 0. -1.
         -6    1    1    2    0  503  0.10034582079E+03  0.10432815330E+03  0.29215025273E+03  0.36909946829E+03  0.17300000000E+03 0. -1.
<mgrwt>
<rscale>  2 0.22557182E+03</rscale>
<asrwt>0</asrwt>
<pdfrwt beam="1">  1       21 0.89277037E-01 0.22557182E+03</pdfrwt>
<pdfrwt beam="2">  1       21 0.13757432E-01 0.22557182E+03</pdfrwt>
<totfact> 0.48337594E+04</totfact>
</mgrwt>
</event>
<event>
 4    1  0.4056666E+000  0.3540350E+03  0.7546771E-02  0.1060971E+00
         21   -1    0    0  501  502  0.00000000000E+00  0.00000000000E+00  0.16047671634E+04  0.16047671634E+04  0.00000000000E+00 0. -1.
         21   -1    0    0  502  503 -0.00000000000E+00 -0.00000000000E+00 -0.10687705096E+03  0.10687705096E+03  0.00000000000E+00 0.  1.
          6    1    1    2  501    0 -0.30874881713E+03 -0.92717683945E+01  0.11929875408E+04  0.12444115358E+04  0.17300000000E+03 0. -1.
         -6    1    1    2    0  503  0.30874881713E+03  0.92717683945E+01  0.30490257159E+03  0.46723267858E+03  0.17300000000E+03 0.  1.
<mgrwt>
<rscale>  2 0.35403502E+03</rscale>
<asrwt>0</asrwt>
<pdfrwt beam="1">  1       21 0.24688724E+00 0.35403502E+03</pdfrwt>
<pdfrwt beam="2">  1       21 0.16442624E-01 0.35403502E+03</pdfrwt>
<totfact> 0.20142986E+03</totfact>
</mgrwt>
</event>
<event>
 4    1  0.4056666E+000  0.1739465E+03  0.7546771E-02  0.1173794E+00
         21   -1    0    0  503  502  0.00000000000E+00  0.00000000000E+00  0.31627931179E+03  0.31627931179E+03  0.00000000000E+00 0. -1.
         21   -1    0    0  501  503 -0.00000000000E+00 -0.00000000000E+00 -0.14850791695E+03  0.14850791695E+03  0.00000000000E+00 0. -1.
          6    1    1    2  501    0  0.15756267436E+02 -0.89520193061E+01 -0.54737459585E+02  0.18235566373E+03  0.17300000000E+03 0. -1.
         -6    1    1    2    0  502 -0.15756267436E+02  0.89520193061E+01  0.22250885443E+03  0.28243156501E+03  0.17300000000E+03 0. -1.
<mgrwt>
<rscale>  2 0.17394654E+03</rscale>
<asrwt>0</asrwt>
<pdfrwt beam="1">  1       21 0.48658356E-01 0.17394654E+03</pdfrwt>
<pdfrwt beam="2">  1       21 0.22847372E-01 0.17394654E+03</pdfrwt>
<totfact> 0.73054246E+04</totfact>
</mgrwt>
</event>
<event>
 4    1  0.4056666E+000  0.1892354E+03  0.7546771E-02  0.1159153E+00
         21   -1    0    0  503  502  0.00000000000E+00  0.00000000000E+00  0.26125191982E+02  0.26125191982E+02  0.00000000000E+00 0. -1.
         21   -1    0    0  501  503 -0.00000000000E+00 -0.00000000000E+00 -0.13717199570E+04  0.13717199570E+04  0.00000000000E+00 0. -1.
          6    1    1    2  501    0  0.22459836932E+02  0.73325127044E+02 -0.65381702333E+03  0.68065168664E+03  0.17300000000E+03 0. -1.
         -6    1    1    2    0  502 -0.22459836932E+02 -0.73325127044E+02 -0.69177774171E+03  0.71719346236E+03  0.17300000000E+03 0. -1.
<mgrwt>
<rscale>  2 0.18923535E+03</rscale>
<asrwt>0</asrwt>
<pdfrwt beam="1">  1       21 0.40192604E-02 0.18923535E+03</pdfrwt>
<pdfrwt beam="2">  1       21 0.21103383E+00 0.18923535E+03</pdfrwt>
<totfact> 0.44543915E+04</totfact>
</mgrwt>
</event>
<event>
 4    1  0.4056666E+000  0.1741757E+03  0.7546771E-02  0.1173562E+00
         21   -1    0    0  501  502  0.00000000000E+00  0.00000000000E+00  0.76420746476E+02  0.76420746476E+02  0.00000000000E+00 0.  1.
         21   -1    0    0  502  503 -0.00000000000E+00 -0.00000000000E+00 -0.18777314352E+04  0.18777314352E+04  0.00000000000E+00 0.  1.
          6    1    1    2  501    0 -0.19200761262E+02  0.62847991404E+01 -0.32987742855E+02  0.17727199190E+03  0.17300000000E+03 0.  1.
         -6    1    1    2    0  503  0.19200761262E+02 -0.62847991404E+01 -0.17683229458E+04  0.17768801898E+04  0.17300000000E+03 0.  1.
<mgrwt>
<rscale>  2 0.17417568E+03</rscale>
<asrwt>0</asrwt>
<pdfrwt beam="1">  1       21 0.11757040E-01 0.17417568E+03</pdfrwt>
<pdfrwt beam="2">  1       21 0.28888172E+00 0.17417568E+03</pdfrwt>
<totfact> 0.24650476E+03</totfact>
</mgrwt>
</event>
<event>
 4    1  0.4056666E+000  0.2279407E+03  0.7546771E-02  0.1128098E+00
         21   -1    0    0  501  502  0.00000000000E+00  0.00000000000E+00  0.17721935200E+03  0.17721935200E+03  0.00000000000E+00 0.  1.
         21   -1    0    0  502  503 -0.00000000000E+00 -0.00000000000E+00 -0.29701944674E+03  0.29701944674E+03  0.00000000000E+00 0.  1.
          6    1    1    2  501    0 -0.11076964773E+03  0.98782875642E+02 -0.32936798295E+02  0.23030806339E+03  0.17300000000E+03 0.  1.
         -6    1    1    2    0  503  0.11076964773E+03 -0.98782875642E+02 -0.86863296446E+02  0.24393073535E+03  0.17300000000E+03 0.  1.
<mgrwt>
<rscale>  2 0.22794072E+03</rscale>
<asrwt>0</asrwt>
<pdfrwt beam="1">  1       21 0.27264516E-01 0.22794072E+03</pdfrwt>
<pdfrwt beam="2">  1       21 0.45695300E-01 0.22794072E+03</pdfrwt>
<totfact> 0.57967043E+04</totfact>
</mgrwt>
</event>
<event>
 4    1  0.4056666E+000  0.1857850E+03  0.7546771E-02  0.1162319E+00
         21   -1    0    0  503  502  0.00000000000E+00  0.00000000000E+00  0.25598660055E+03  0.25598660055E+03  0.00000000000E+00 0. -1.
         21   -1    0    0  501  503 -0.00000000000E+00 -0.00000000000E+00 -0.18669946236E+03  0.18669946236E+03  0.00000000000E+00 0.  1.
          6    1    1    2  501    0  0.47866947025E+02  0.47914816304E+02 -0.82017857209E+02  0.20308373431E+03  0.17300000000E+03 0.  1.
         -6    1    1    2    0  502 -0.47866947025E+02 -0.47914816304E+02  0.15130499539E+03  0.23960232860E+03  0.17300000000E+03 0. -1.
<mgrwt>
<rscale>  2 0.18578502E+03</rscale>
<asrwt>0</asrwt>
<pdfrwt beam="1">  1       21 0.39382554E-01 0.18578502E+03</pdfrwt>
<pdfrwt beam="2">  1       21 0.28722994E-01 0.18578502E+03</pdfrwt>
<totfact> 0.72287476E+04</totfact>
</mgrwt>
</event>
<event>
 4    1  0.4056666E+000  0.1927314E+03  0.7546771E-02  0.1156021E+00
         21   -1    0    0  503  502  0.00000000000E+00  0.00000000000E+00  0.55001601944E+03  0.55001601944E+03  0.00000000000E+00 0. -1.
         21   -1    0    0  501  503 -0.00000000000E+00 -0.00000000000E+00 -0.88732945483E+02  0.88732945483E+02  0.00000000000E+00 0. -1.
          6    1    1    2  501    0 -0.34679459081E+02  0.77548104737E+02  0.38674188673E+03  0.43210491826E+03  0.17300000000E+03 0. -1.
         -6    1    1    2    0  502  0.34679459081E+02 -0.77548104737E+02  0.74541187232E+02  0.20664404667E+03  0.17300000000E+03 0. -1.
<mgrwt>
<rscale>  2 0.19273135E+03</rscale>
<asrwt>0</asrwt>
<pdfrwt beam="1">  1       21 0.84617848E-01 0.19273135E+03</pdfrwt>
<pdfrwt beam="2">  1       21 0.13651223E-01 0.19273135E+03</pdfrwt>
<totfact> 0.56346425E+04</totfact>
</mgrwt>
</event>
<event>
 4    1  0.4056666E+000  0.1871521E+03  0.7546771E-02  0.1161055E+00
         21   -1    0    0  503  502  0.00000000000E+00  0.00000000000E+00  0.87421590751E+03  0.87421590751E+03  0.00000000000E+00 0.  1.
         21   -1    0    0  501  503 -0.00000000000E+00 -0.00000000000E+00 -0.13414700000E+03  0.13414700000E+03  0.00000000000E+00 0.  1.
          6    1    1    2  501    0 -0.23166143211E+02  0.67529657579E+02 -0.52194905248E+02  0.19429419183E+03  0.17300000000E+03 0.  1.
         -6    1    1    2    0  502  0.23166143211E+02 -0.67529657579E+02  0.79226381276E+03  0.81406871568E+03  0.17300000000E+03 0.  1.
<mgrwt>
<rscale>  2 0.18715214E+03</rscale>
<asrwt>0</asrwt>
<pdfrwt beam="1">  1       21 0.13449475E+00 0.18715214E+03</pdfrwt>
<pdfrwt beam="2">  1       21 0.20638001E-01 0.18715214E+03</pdfrwt>
<totfact> 0.86685151E+03</totfact>
</mgrwt>
</event>
<event>
 4    1  0.4056666E+000  0.3083737E+03  0.7546771E-02  0.1081128E+00
         21   -1    0    0  503  502  0.00000000000E+00  0.00000000000E+00  0.21075033307E+03  0.21075033307E+03  0.00000000000E+00 0.  1.
         21   -1    0    0  501  503 -0.00000000000E+00 -0.00000000000E+00 -0.58565453536E+03  0.58565453536E+03  0.00000000000E+00 0.  1.
          6    1    1    2  501    0  0.23344823207E+03 -0.10328256504E+03 -0.37823596760E+03  0.48801312737E+03  0.17300000000E+03 0.  1.
         -6    1    1    2    0  502 -0.23344823207E+03  0.10328256504E+03  0.33317653021E+01  0.30839174107E+03  0.17300000000E+03 0.  1.
<mgrwt>
<rscale>  2 0.30837374E+03</rscale>
<asrwt>0</asrwt>
<pdfrwt beam="1">  1       21 0.32423128E-01 0.30837374E+03</pdfrwt>
<pdfrwt beam="2">  1       21 0.90100699E-01 0.30837374E+03</pdfrwt>
<totfact> 0.89766239E+03</totfact>
</mgrwt>
</event>
<event>
 4    1  0.4056666E+000  0.1811534E+03  0.7546771E-02  0.1166691E+00
         21   -1    0    0  501  502  0.00000000000E+00  0.00000000000E+00  0.63529402475E+02  0.63529402475E+02  0.00000000000E+00 0.  1.
         21   -1    0    0  502  503 -0.00000000000E+00 -0.00000000000E+00 -0.61955060623E+03  0.61955060623E+03  0.00000000000E+00 0.  1.
          6    1    1    2  501    0  0.12787509314E+02 -0.52192191748E+02 -0.13875626599E+03  0.22818818248E+03  0.17300000000E+03 0.  1.
         -6    1    1    2    0  503 -0.12787509314E+02  0.52192191748E+02 -0.41726493777E+03  0.45489182622E+03  0.17300000000E+03 0.  1.
<mgrwt>
<rscale>  2 0.18115337E+03</rscale>
<asrwt>0</asrwt>
<pdfrwt beam="1">  1       21 0.97737546E-02 0.18115337E+03</pdfrwt>
<pdfrwt beam="2">  1       21 0.95315475E-01 0.18115337E+03</pdfrwt>
<totfact> 0.78053507E+04</totfact>
</mgrwt>
</event>
<event>
 4    1  0.4056666E+000  0.2299826E+03  0.7546771E-02  0.1126652E+00
         21   -1    0    0  503  502  0.00000000000E+00  0.00000000000E+00  0.27495054646E+03  0.27495054646E+03  0.00000000000E+00 0. -1.
         21   -1    0    0  501  503 -0.00000000000E+00 -0.00000000000E+00 -0.48830333364E+03  0.48830333364E+03  0.00000000000E+00 0. -1.
          6    1    1    2  501    0 -0.28255262729E+02  0.14887792254E+03 -0.40376894719E+03  0.46467338896E+03  0.17300000000E+03 0. -1.
         -6    1    1    2    0  502  0.28255262729E+02 -0.14887792254E+03  0.19041616002E+03  0.29858049114E+03  0.17300000000E+03 0. -1.
<mgrwt>
<rscale>  2 0.22998260E+03</rscale>
<asrwt>0</asrwt>
<pdfrwt beam="1">  1       21 0.42300084E-01 0.22998260E+03</pdfrwt>
<pdfrwt beam="2">  1       21 0.75123589E-01 0.22998260E+03</pdfrwt>
<totfact> 0.83060997E+03</totfact>
</mgrwt>
</event>
<event>
 4    1  0.4056666E+000  0.1837094E+03  0.7546771E-02  0.1164261E+00
         21   -1    0    0  503  502  0.00000000000E+00  0.00000000000E+00  0.10005186226E+03  0.10005186226E+03  0.00000000000E+00 0.  1.
         21   -1    0    0  501  503 -0.00000000000E+00 -0.00000000000E+00 -0.75320709969E+03  0.75320709969E+03  0.00000000000E+00 0. -1.
          6    1    1    2  501    0 -0.24834728679E+02  0.56598317937E+02 -0.64359514147E+03  0.66930100812E+03  0.17300000000E+03 0. -1.
         -6    1    1    2    0  502  0.24834728679E+02 -0.56598317937E+02 -0.95600959540E+01  0.18395795383E+03  0.17300000000E+03 0.  1.
<mgrwt>
<rscale>  2 0.18370937E+03</rscale>
<asrwt>0</asrwt>
<pdfrwt beam="1">  1       21 0.15392593E-01 0.18370937E+03</pdfrwt>
<pdfrwt beam="2">  1       21 0.11587802E+00 0.18370937E+03</pdfrwt>
<totfact> 0.21656299E+04</totfact>
</mgrwt>
</event>
<event>
 4    1  0.4056666E+000  0.1941635E+03  0.7546771E-02  0.1154759E+00
         21   -1    0    0  501  502  0.00000000000E+00  0.00000000000E+00  0.44226708851E+03  0.44226708851E+03  0.00000000000E+00 0. -1.
         21   -1    0    0  502  503 -0.00000000000E+00 -0.00000000000E+00 -0.89595616930E+02  0.89595616930E+02  0.00000000000E+00 0. -1.
          6    1    1    2  501    0 -0.41123190840E+02  0.77970279825E+02  0.23496027427E+03  0.30480454695E+03  0.17300000000E+03 0.  1.
         -6    1    1    2    0  503  0.41123190840E+02 -0.77970279825E+02  0.11771119731E+03  0.22705815848E+03  0.17300000000E+03 0.  1.
<mgrwt>
<rscale>  2 0.19416354E+03</rscale>
<asrwt>0</asrwt>
<pdfrwt beam="1">  1       21 0.68041089E-01 0.19416354E+03</pdfrwt>
<pdfrwt beam="2">  1       21 0.13783941E-01 0.19416354E+03</pdfrwt>
<totfact> 0.90146064E+04</totfact>
</mgrwt>
</event>
<event>
 4    1  0.4056666E+000  0.1814243E+03  0.7546771E-02  0.1166432E+00
         21   -1    0    0  501  502  0.00000000000E+00  0.00000000000E+00  0.32340614486E+03  0.32340614486E+03  0.00000000000E+00 0. -1.
         21   -1    0    0  502  503 -0.00000000000E+00 -0.00000000000E+00 -0.12373680086E+03  0.12373680086E+03  0.00000000000E+00 0. -1.
          6    1    1    2  501    0  0.16619841878E+01  0.54616847594E+02  0.19402315610E+03  0.26563084786E+03  0.17300000000E+03 0. -1.
         -6    1    1    2    0  503 -0.16619841878E+01 -0.54616847594E+02  0.56461878978E+01  0.18151209786E+03  0.17300000000E+03 0. -1.
<mgrwt>
<rscale>  2 0.18142426E+03</rscale>
<asrwt>0</asrwt>
<pdfrwt beam="1">  1       21 0.49754791E-01 0.18142426E+03</pdfrwt>
<pdfrwt beam="2">  1       21 0.19036431E-01 0.18142426E+03</pdfrwt>
<totfact> 0.97845064E+04</totfact>
</mgrwt>
</event>
<event>
 4    1  0.4056666E+000  0.2065355E+03  0.7546771E-02  0.1144339E+00
         21   -1    0    0  503  502  0.00000000000E+00  0.00000000000E+00  0.12279700037E+03  0.12279700037E+03  0.00000000000E+00 0.  1.
         21   -1    0    0  501  503 -0.00000000000E+00 -0.00000000000E+00 -0.49699044448E+03  0.49699044448E+03  0.00000000000E+00 0.  1.
          6    1    1    2  501    0 -0.89022937632E+02 -0.69302495832E+02 -0.35712583653E+03  0.41254791536E+03  0.17300000000E+03 0.  1.
         -6    1    1    2    0  502  0.89022937632E+02  0.69302495832E+02 -0.17067607578E+02  0.20723952949E+03  0.17300000000E+03 0.  1.
<mgrwt>
<rscale>  2 0.20653552E+03</rscale>
<asrwt>0</asrwt>
<pdfrwt beam="1">  1       21 0.18891846E-01 0.20653552E+03</pdfrwt>
<pdfrwt beam="2">  1       21 0.76460069E-01 0.20653552E+03</pdfrwt>
<totfact> 0.38805226E+04</totfact>
</mgrwt>
</event>
<event>
 4    1  0.4056666E+000  0.2446621E+03  0.7546771E-02  0.1116725E+00
         21   -1    0    0  503  502  0.00000000000E+00  0.00000000000E+00  0.37622410893E+03  0.37622410893E+03  0.00000000000E+00 0. -1.
         21   -1    0    0  501  503 -0.00000000000E+00 -0.00000000000E+00 -0.19853255187E+03  0.19853255187E+03  0.00000000000E+00 0.  1.
          6    1    1    2  501    0 -0.11477856921E+03  0.12944664560E+03 -0.39219663823E+02  0.24778566552E+03  0.17300000000E+03 0.  1.
         -6    1    1    2    0  502  0.11477856921E+03 -0.12944664560E+03  0.21691122088E+03  0.32697099528E+03  0.17300000000E+03 0. -1.
<mgrwt>
<rscale>  2 0.24466212E+03</rscale>
<asrwt>0</asrwt>
<pdfrwt beam="1">  1       21 0.57880632E-01 0.24466212E+03</pdfrwt>
<pdfrwt beam="2">  1       21 0.30543470E-01 0.24466212E+03</pdfrwt>
<totfact> 0.28034688E+04</totfact>
</mgrwt>
</event>
<event>
 4    1  0.4056666E+000  0.1985061E+03  0.7546771E-02  0.1151006E+00
         21   -1    0    0  501  502  0.00000000000E+00  0.00000000000E+00  0.17780260233E+03  0.17780260233E+03  0.00000000000E+00 0.  1.
         21   -1    0    0  502  503 -0.00000000000E+00 -0.00000000000E+00 -0.23931764052E+03  0.23931764052E+03  0.00000000000E+00 0.  1.
          6    1    1    2  501    0  0.97097268373E+02  0.69131735770E+01  0.25957429671E+02  0.20019605303E+03  0.17300000000E+03 0.  1.
         -6    1    1    2    0  503 -0.97097268373E+02 -0.69131735770E+01 -0.87472467868E+02  0.21692418982E+03  0.17300000000E+03 0.  1.
<mgrwt>
<rscale>  2 0.19850610E+03</rscale>
<asrwt>0</asrwt>
<pdfrwt beam="1">  1       21 0.27354247E-01 0.19850610E+03</pdfrwt>
<pdfrwt beam="2">  1       21 0.36818098E-01 0.19850610E+03</pdfrwt>
<totfact> 0.90457397E+04</totfact>
</mgrwt>
</event>
<event>
 4    1  0.4056666E+000  0.1863619E+03  0.7546771E-02  0.1161784E+00
         21   -1    0    0  501  502  0.00000000000E+00  0.00000000000E+00  0.19748946411E+03  0.19748946411E+03  0.00000000000E+00 0. -1.
         21   -1    0    0  502  503 -0.00000000000E+00 -0.00000000000E+00 -0.17712996289E+03  0.17712996289E+03  0.00000000000E+00 0.  1.
          6    1    1    2  501    0  0.59206343394E+02  0.36005297000E+02  0.26031283556E+02  0.18817119927E+03  0.17300000000E+03 0. -1.
         -6    1    1    2    0  503 -0.59206343394E+02 -0.36005297000E+02 -0.56717823298E+01  0.18644822773E+03  0.17300000000E+03 0.  1.
<mgrwt>
<rscale>  2 0.18636194E+03</rscale>
<asrwt>0</asrwt>
<pdfrwt beam="1">  1       21 0.30382994E-01 0.18636194E+03</pdfrwt>
<pdfrwt beam="2">  1       21 0.27250764E-01 0.18636194E+03</pdfrwt>
<totfact> 0.13374932E+05</totfact>
</mgrwt>
</event>
<event>
 4    1  0.4056666E+000  0.1819553E+03  0.7546771E-02  0.1165924E+00
         21   -1    0    0  503  502  0.00000000000E+00  0.00000000000E+00  0.11125601942E+03  0.11125601942E+03  0.00000000000E+00 0. -1.
         21   -1    0    0  501  503 -0.00000000000E+00 -0.00000000000E+00 -0.13580626391E+04  0.13580626391E+04  0.00000000000E+00 0. -1.
          6    1    1    2  501    0 -0.56245717424E+02 -0.38913525502E+01 -0.12726019323E+04  0.12855440099E+04  0.17300000000E+03 0. -1.
         -6    1    1    2    0  502  0.56245717424E+02  0.38913525502E+01  0.25795312529E+02  0.18377464869E+03  0.17300000000E+03 0. -1.
<mgrwt>
<rscale>  2 0.18195528E+03</rscale>
<asrwt>0</asrwt>
<pdfrwt beam="1">  1       21 0.17116311E-01 0.18195528E+03</pdfrwt>
<pdfrwt beam="2">  1       21 0.20893271E+00 0.18195528E+03</pdfrwt>
<totfact> 0.36697245E+03</totfact>
</mgrwt>
</event>
<event>
 4    1  0.4056666E+000  0.2586423E+03  0.7546771E-02  0.1107962E+00
         21   -1    0    0  503  502  0.00000000000E+00  0.00000000000E+00  0.16097910505E+03  0.16097910505E+03  0.00000000000E+00 0. -1.
         21   -1    0    0  501  503 -0.00000000000E+00 -0.00000000000E+00 -0.57176698571E+03  0.57176698571E+03  0.00000000000E+00 0.  1.
          6    1    1    2  501    0  0.14430641542E+03 -0.12705307845E+03 -0.13893480498E+02  0.25901516380E+03  0.17300000000E+03 0. -1.
         -6    1    1    2    0  502 -0.14430641542E+03  0.12705307845E+03 -0.39689440017E+03  0.47373092696E+03  0.17300000000E+03 0.  1.
<mgrwt>
<rscale>  2 0.25864227E+03</rscale>
<asrwt>0</asrwt>
<pdfrwt beam="1">  1       21 0.24766016E-01 0.25864227E+03</pdfrwt>
<pdfrwt beam="2">  1       21 0.87964151E-01 0.25864227E+03</pdfrwt>
<totfact> 0.16452961E+04</totfact>
</mgrwt>
</event>
<event>
 4    1  0.4056666E+000  0.1740808E+03  0.7546771E-02  0.1173658E+00
         21   -1    0    0  503  502  0.00000000000E+00  0.00000000000E+00  0.85662119932E+02  0.85662119932E+02  0.00000000000E+00 0.  1.
         21   -1    0    0  501  503 -0.00000000000E+00 -0.00000000000E+00 -0.35378892547E+03  0.35378892547E+03  0.00000000000E+00 0.  1.
          6    1    1    2  501    0  0.17624773001E+02 -0.80315085940E+01 -0.13592336852E+03  0.22086036282E+03  0.17300000000E+03 0.  1.
         -6    1    1    2    0  502 -0.17624773001E+02  0.80315085940E+01 -0.13220343702E+03  0.21859068258E+03  0.17300000000E+03 0.  1.
<mgrwt>
<rscale>  2 0.17408084E+03</rscale>
<asrwt>0</asrwt>
<pdfrwt beam="1">  1       21 0.13178788E-01 0.17408084E+03</pdfrwt>
<pdfrwt beam="2">  1       21 0.54429066E-01 0.17408084E+03</pdfrwt>
<totfact> 0.15909969E+05</totfact>
</mgrwt>
</event>
<event>
 4    1  0.4056666E+000  0.1966647E+03  0.7546771E-02  0.1152584E+00
         21   -1    0    0  503  502  0.00000000000E+00  0.00000000000E+00  0.11202610171E+03  0.11202610171E+03  0.00000000000E+00 0. -1.
         21   -1    0    0  501  503 -0.00000000000E+00 -0.00000000000E+00 -0.74132335110E+03  0.74132335110E+03  0.00000000000E+00 0.  1.
          6    1    1    2  501    0 -0.43324555627E+02  0.82891528892E+02 -0.62652382063E+03  0.65666515097E+03  0.17300000000E+03 0.  1.
         -6    1    1    2    0  502  0.43324555627E+02 -0.82891528892E+02 -0.27734287631E+01  0.19668430184E+03  0.17300000000E+03 0. -1.
<mgrwt>
<rscale>  2 0.19666475E+03</rscale>
<asrwt>0</asrwt>
<pdfrwt beam="1">  1       21 0.17234784E-01 0.19666475E+03</pdfrwt>
<pdfrwt beam="2">  1       21 0.11404975E+00 0.19666475E+03</pdfrwt>
<totfact> 0.18150856E+04</totfact>
</mgrwt>
</event>
<event>
 4    1  0.4056666E+000  0.2084774E+03  0.7546771E-02  0.1142777E+00
         21   -1    0    0  501  502  0.00000000000E+00  0.00000000000E+00  0.17114048232E+03  0.17114048232E+03  0.00000000000E+00 0. -1.
         21   -1    0    0  502  503 -0.00000000000E+00 -0.00000000000E+00 -0.29014963685E+03  0.29014963685E+03  0.00000000000E+00 0. -1.
          6    1    1    2  501    0 -0.77410288730E+02 -0.86841666108E+02  0.21951890386E+02  0.20962994363E+03  0.17300000000E+03 0. -1.
         -6    1    1    2    0  503  0.77410288730E+02  0.86841666108E+02 -0.14096104492E+03  0.25166017555E+03  0.17300000000E+03 0. -1.
<mgrwt>
<rscale>  2 0.20847740E+03</rscale>
<asrwt>0</asrwt>
<pdfrwt beam="1">  1       21 0.26329305E-01 0.20847740E+03</pdfrwt>
<pdfrwt beam="2">  1       21 0.44638405E-01 0.20847740E+03</pdfrwt>
<totfact> 0.65613122E+04</totfact>
</mgrwt>
</event>
<event>
 4    1  0.4056666E+000  0.1836221E+03  0.7546771E-02  0.1164343E+00
         21   -1    0    0  503  502  0.00000000000E+00  0.00000000000E+00  0.42721153590E+02  0.42721153590E+02  0.00000000000E+00 0. -1.
         21   -1    0    0  501  503 -0.00000000000E+00 -0.00000000000E+00 -0.11302218763E+04  0.11302218763E+04  0.00000000000E+00 0. -1.
          6    1    1    2  501    0  0.15166751690E+01  0.61528698637E+02 -0.86588181665E+03  0.88513750427E+03  0.17300000000E+03 0. -1.
         -6    1    1    2    0  502 -0.15166751690E+01 -0.61528698637E+02 -0.22161890610E+03  0.28780552566E+03  0.17300000000E+03 0. -1.
<mgrwt>
<rscale>  2 0.18362211E+03</rscale>
<asrwt>0</asrwt>
<pdfrwt beam="1">  1       21 0.65724857E-02 0.18362211E+03</pdfrwt>
<pdfrwt beam="2">  1       21 0.17388028E+00 0.18362211E+03</pdfrwt>
<totfact> 0.34004520E+04</totfact>
</mgrwt>
</event>
<event>
 4    1  0.4056666E+000  0.2693685E+03  0.7546771E-02  0.1101642E+00
         21   -1    0    0  501  502  0.00000000000E+00  0.00000000000E+00  0.25370790043E+04  0.25370790043E+04  0.00000000000E+00 0. -1.
         21   -1    0    0  502  503 -0.00000000000E+00 -0.00000000000E+00 -0.35804255862E+02  0.35804255862E+02  0.00000000000E+00 0. -1.
          6    1    1    2  501    0  0.12664562898E+03 -0.16306832597E+03  0.18277093433E+04  0.18474525265E+04  0.17300000000E+03 0. -1.
         -6    1    1    2    0  503 -0.12664562898E+03  0.16306832597E+03  0.67356540517E+03  0.72543073364E+03  0.17300000000E+03 0. -1.
<mgrwt>
<rscale>  2 0.26936851E+03</rscale>
<asrwt>0</asrwt>
<pdfrwt beam="1">  1       21 0.39031971E+00 0.26936851E+03</pdfrwt>
<pdfrwt beam="2">  1       21 0.55083490E-02 0.26936851E+03</pdfrwt>
<totfact> 0.20791634E+03</totfact>
</mgrwt>
</event>
<event>
 4    1  0.4056666E+000  0.2931761E+03  0.7546771E-02  0.1088702E+00
         21   -1    0    0  501  502  0.00000000000E+00  0.00000000000E+00  0.62878892078E+03  0.62878892078E+03  0.00000000000E+00 0.  1.
         21   -1    0    0  502  503 -0.00000000000E+00 -0.00000000000E+00 -0.17444466613E+03  0.17444466613E+03  0.00000000000E+00 0.  1.
          6    1    1    2  501    0  0.22035387095E+03 -0.86414252703E+02  0.41399929587E+03  0.50729445936E+03  0.17300000000E+03 0.  1.
         -6    1    1    2    0  503 -0.22035387095E+03  0.86414252703E+02  0.40344958774E+02  0.29593912755E+03  0.17300000000E+03 0.  1.
<mgrwt>
<rscale>  2 0.29317614E+03</rscale>
<asrwt>0</asrwt>
<pdfrwt beam="1">  1       21 0.96736756E-01 0.29317614E+03</pdfrwt>
<pdfrwt beam="2">  1       21 0.26837641E-01 0.29317614E+03</pdfrwt>
<totfact> 0.11082644E+04</totfact>
</mgrwt>
</event>
<event>
 4    1  0.4056666E+000  0.1962041E+03  0.7546771E-02  0.1152982E+00
         21   -1    0    0  501  502  0.00000000000E+00  0.00000000000E+00  0.12082216948E+03  0.12082216948E+03  0.00000000000E+00 0.  1.
         21   -1    0    0  502  503 -0.00000000000E+00 -0.00000000000E+00 -0.35111853151E+03  0.35111853151E+03  0.00000000000E+00 0.  1.
          6    1    1    2  501    0 -0.92379074222E+02  0.57567087429E+01 -0.43355447234E+02  0.20093712413E+03  0.17300000000E+03 0.  1.
         -6    1    1    2    0  503  0.92379074222E+02 -0.57567087429E+01 -0.18694091479E+03  0.27100357686E+03  0.17300000000E+03 0.  1.
<mgrwt>
<rscale>  2 0.19620406E+03</rscale>
<asrwt>0</asrwt>
<pdfrwt beam="1">  1       21 0.18588026E-01 0.19620406E+03</pdfrwt>
<pdfrwt beam="2">  1       21 0.54018236E-01 0.19620406E+03</pdfrwt>
<totfact> 0.85586723E+04</totfact>
</mgrwt>
</event>
<event>
 4    1  0.4056666E+000  0.2492708E+03  0.7546771E-02  0.1113767E+00
         21   -1    0    0  501  502  0.00000000000E+00  0.00000000000E+00  0.89570755253E+03  0.89570755253E+03  0.00000000000E+00 0. -1.
         21   -1    0    0  502  503 -0.00000000000E+00 -0.00000000000E+00 -0.96900392594E+02  0.96900392594E+02  0.00000000000E+00 0.  1.
          6    1    1    2  501    0 -0.13100637752E+03 -0.12265508907E+03  0.66393967767E+03  0.70919097387E+03  0.17300000000E+03 0. -1.
         -6    1    1    2    0  503  0.13100637752E+03  0.12265508907E+03  0.13486748226E+03  0.28341697126E+03  0.17300000000E+03 0.  1.
<mgrwt>
<rscale>  2 0.24927082E+03</rscale>
<asrwt>0</asrwt>
<pdfrwt beam="1">  1       21 0.13780116E+00 0.24927082E+03</pdfrwt>
<pdfrwt beam="2">  1       21 0.14907753E-01 0.24927082E+03</pdfrwt>
<totfact> 0.14266558E+04</totfact>
</mgrwt>
</event>
<event>
 4    1  0.4056666E+000  0.2299145E+03  0.7546771E-02  0.1126700E+00
         21   -1    0    0  503  502  0.00000000000E+00  0.00000000000E+00  0.21676748842E+03  0.21676748842E+03  0.00000000000E+00 0.  1.
         21   -1    0    0  501  503 -0.00000000000E+00 -0.00000000000E+00 -0.31468148016E+03  0.31468148016E+03  0.00000000000E+00 0.  1.
          6    1    1    2  501    0 -0.10240800343E+03  0.11155391104E+03 -0.17501834558E+03  0.28894998793E+03  0.17300000000E+03 0.  1.
         -6    1    1    2    0  502  0.10240800343E+03 -0.11155391104E+03  0.77104353842E+02  0.24249898065E+03  0.17300000000E+03 0.  1.
<mgrwt>
<rscale>  2 0.22991449E+03</rscale>
<asrwt>0</asrwt>
<pdfrwt beam="1">  1       21 0.33348845E-01 0.22991449E+03</pdfrwt>
<pdfrwt beam="2">  1       21 0.48412535E-01 0.22991449E+03</pdfrwt>
<totfact> 0.34625803E+04</totfact>
</mgrwt>
</event>
<event>
 4    1  0.4056666E+000  0.1889244E+03  0.7546771E-02  0.1159435E+00
         21   -1    0    0  501  502  0.00000000000E+00  0.00000000000E+00  0.12038169551E+04  0.12038169551E+04  0.00000000000E+00 0.  1.
         21   -1    0    0  502  503 -0.00000000000E+00 -0.00000000000E+00 -0.45407242585E+02  0.45407242585E+02  0.00000000000E+00 0. -1.
          6    1    1    2  501    0 -0.86084646192E+01 -0.75427697727E+02  0.94716119476E+03  0.96581922331E+03  0.17300000000E+03 0.  1.
         -6    1    1    2    0  503  0.86084646192E+01  0.75427697727E+02  0.21124851774E+03  0.28340497437E+03  0.17300000000E+03 0. -1.
<mgrwt>
<rscale>  2 0.18892444E+03</rscale>
<asrwt>0</asrwt>
<pdfrwt beam="1">  1       21 0.18520258E+00 0.18892444E+03</pdfrwt>
<pdfrwt beam="2">  1       21 0.69857306E-02 0.18892444E+03</pdfrwt>
<totfact> 0.25544075E+04</totfact>
</mgrwt>
</event>
<event>
 4    1  0.4056666E+000  0.1985404E+03  0.7546771E-02  0.1150976E+00
         21   -1    0    0  503  502  0.00000000000E+00  0.00000000000E+00  0.49371108585E+03  0.49371108585E+03  0.00000000000E+00 0.  1.
         21   -1    0    0  501  503 -0.00000000000E+00 -0.00000000000E+00 -0.83856514610E+02  0.83856514610E+02  0.00000000000E+00 0.  1.
          6    1    1    2  501    0 -0.80424252218E+02 -0.54965545669E+02  0.14173156773E+03  0.24393873994E+03  0.17300000000E+03 0.  1.
         -6    1    1    2    0  502  0.80424252218E+02  0.54965545669E+02  0.26812300351E+03  0.33362886051E+03  0.17300000000E+03 0.  1.
<mgrwt>
<rscale>  2 0.19854035E+03</rscale>
<asrwt>0</asrwt>
<pdfrwt beam="1">  1       21 0.75955550E-01 0.19854035E+03</pdfrwt>
<pdfrwt beam="2">  1       21 0.12901003E-01 0.19854035E+03</pdfrwt>
<totfact> 0.79443776E+04</totfact>
</mgrwt>
</event>
<event>
 4    1  0.4056666E+000  0.1996797E+03  0.7546771E-02  0.1150010E+00
         21   -1    0    0  501  502  0.00000000000E+00  0.00000000000E+00  0.31422306880E+03  0.31422306880E+03  0.00000000000E+00 0. -1.
         21   -1    0    0  502  503 -0.00000000000E+00 -0.00000000000E+00 -0.27260425525E+03  0.27260425525E+03  0.00000000000E+00 0. -1.
          6    1    1    2  501    0  0.39473194185E+02 -0.91568745410E+02  0.23532757217E+03  0.30862766308E+03  0.17300000000E+03 0. -1.
         -6    1    1    2    0  503 -0.39473194185E+02  0.91568745410E+02 -0.19370875863E+03  0.27819966097E+03  0.17300000000E+03 0. -1.
<mgrwt>
<rscale>  2 0.19967966E+03</rscale>
<asrwt>0</asrwt>
<pdfrwt beam="1">  1       21 0.48342011E-01 0.19967966E+03</pdfrwt>
<pdfrwt beam="2">  1       21 0.41939116E-01 0.19967966E+03</pdfrwt>
<totfact> 0.22274754E+04</totfact>
</mgrwt>
</event>
<event>
 4    1  0.4056666E+000  0.2126531E+03  0.7546771E-02  0.1139482E+00
         21   -1    0    0  501  502  0.00000000000E+00  0.00000000000E+00  0.96308538937E+03  0.96308538937E+03  0.00000000000E+00 0.  1.
         21   -1    0    0  502  503 -0.00000000000E+00 -0.00000000000E+00 -0.70477674653E+02  0.70477674653E+02  0.00000000000E+00 0. -1.
          6    1    1    2  501    0 -0.79721646153E+01 -0.12340493421E+03  0.74486124621E+03  0.77462223651E+03  0.17300000000E+03 0. -1.
         -6    1    1    2    0  503  0.79721646153E+01  0.12340493421E+03  0.14774646851E+03  0.25894082751E+03  0.17300000000E+03 0. -1.
<mgrwt>
<rscale>  2 0.21265308E+03</rscale>
<asrwt>0</asrwt>
<pdfrwt beam="1">  1       21 0.14816697E+00 0.21265308E+03</pdfrwt>
<pdfrwt beam="2">  1       21 0.10842720E-01 0.21265308E+03</pdfrwt>
<totfact> 0.21424539E+04</totfact>
</mgrwt>
</event>
<event>
 4    1  0.4056666E+000  0.2570062E+03  0.7546771E-02  0.1108955E+00
         21   -1    0    0  501  502  0.00000000000E+00  0.00000000000E+00  0.81858268565E+03  0.81858268565E+03  0.00000000000E+00 0. -1.
         21   -1    0    0  502  503 -0.00000000000E+00 -0.00000000000E+00 -0.88902954055E+02  0.88902954055E+02  0.00000000000E+00 0. -1.
          6    1    1    2  501    0 -0.13760838025E+03  0.13109972733E+03  0.50274377006E+03  0.56462687073E+03  0.17300000000E+03 0. -1.
         -6    1    1    2    0  503  0.13760838025E+03 -0.13109972733E+03  0.22693596154E+03  0.34285876897E+03  0.17300000000E+03 0. -1.
<mgrwt>
<rscale>  2 0.25700623E+03</rscale>
<asrwt>0</asrwt>
<pdfrwt beam="1">  1       21 0.12593579E+00 0.25700623E+03</pdfrwt>
<pdfrwt beam="2">  1       21 0.13677378E-01 0.25700623E+03</pdfrwt>
<totfact> 0.20931089E+04</totfact>
</mgrwt>
</event>
<event>
 4    1  0.4056666E+000  0.2166299E+03  0.7546771E-02  0.1136421E+00
         21   -1    0    0  501  502  0.00000000000E+00  0.00000000000E+00  0.25260178846E+02  0.25260178846E+02  0.00000000000E+00 0.  1.
         21   -1    0    0  502  503 -0.00000000000E+00 -0.00000000000E+00 -0.20675350816E+04  0.20675350816E+04  0.00000000000E+00 0.  1.
          6    1    1    2  501    0  0.33035736008E+02  0.12612747317E+03 -0.68786444220E+03  0.72116987609E+03  0.17300000000E+03 0.  1.
         -6    1    1    2    0  503 -0.33035736008E+02 -0.12612747317E+03 -0.13544104605E+04  0.13716253843E+04  0.17300000000E+03 0.  1.
<mgrwt>
<rscale>  2 0.21662987E+03</rscale>
<asrwt>0</asrwt>
<pdfrwt beam="1">  1       21 0.38861807E-02 0.21662987E+03</pdfrwt>
<pdfrwt beam="2">  1       21 0.31808238E+00 0.21662987E+03</pdfrwt>
<totfact> 0.10765691E+04</totfact>
</mgrwt>
</event>
<event>
 4    1  0.4056666E+000  0.1788534E+03  0.7546771E-02  0.1168917E+00
         21   -1    0    0  501  502  0.00000000000E+00  0.00000000000E+00  0.59741479065E+03  0.59741479065E+03  0.00000000000E+00 0.  1.
         21   -1    0    0  502  503 -0.00000000000E+00 -0.00000000000E+00 -0.53756143057E+02  0.53756143057E+02  0.00000000000E+00 0.  1.
          6    1    1    2  501    0 -0.28513892511E+02  0.35305900361E+02  0.29223658067E+03  0.34262336136E+03  0.17300000000E+03 0.  1.
         -6    1    1    2    0  503  0.28513892511E+02 -0.35305900361E+02  0.25142206692E+03  0.30854757235E+03  0.17300000000E+03 0.  1.
<mgrwt>
<rscale>  2 0.17885343E+03</rscale>
<asrwt>0</asrwt>
<pdfrwt beam="1">  1       21 0.91909963E-01 0.17885343E+03</pdfrwt>
<pdfrwt beam="2">  1       21 0.82701763E-02 0.17885343E+03</pdfrwt>
<totfact> 0.11393442E+05</totfact>
</mgrwt>
</event>
<event>
 4    1  0.4056666E+000  0.2239971E+03  0.7546771E-02  0.1130938E+00
         21   -1    0    0  501  502  0.00000000000E+00  0.00000000000E+00  0.24064678565E+02  0.24064678565E+02  0.00000000000E+00 0.  1.
         21   -1    0    0  502  503 -0.00000000000E+00 -0.00000000000E+00 -0.21735287028E+04  0.21735287028E+04  0.00000000000E+00 0. -1.
          6    1    1    2  501    0 -0.36712006254E+02  0.13746967823E+03 -0.85296643807E+03  0.88188799079E+03  0.17300000000E+03 0. -1.
         -6    1    1    2    0  503  0.36712006254E+02 -0.13746967823E+03 -0.12964975862E+04  0.13157053906E+04  0.17300000000E+03 0.  1.
<mgrwt>
<rscale>  2 0.22399706E+03</rscale>
<asrwt>0</asrwt>
<pdfrwt beam="1">  1       21 0.37022578E-02 0.22399706E+03</pdfrwt>
<pdfrwt beam="2">  1       21 0.33438907E+00 0.22399706E+03</pdfrwt>
<totfact> 0.93050956E+03</totfact>
</mgrwt>
</event>
<event>
 4    1  0.4056666E+000  0.1906218E+03  0.7546771E-02  0.1157902E+00
         21   -1    0    0  503  502  0.00000000000E+00  0.00000000000E+00  0.71995081074E+02  0.71995081074E+02  0.00000000000E+00 0.  1.
         21   -1    0    0  501  503 -0.00000000000E+00 -0.00000000000E+00 -0.10855724580E+04  0.10855724580E+04  0.00000000000E+00 0.  1.
          6    1    1    2  501    0 -0.79908619329E+02 -0.47185621164E+01 -0.93016203406E+03  0.94949358180E+03  0.17300000000E+03 0.  1.
         -6    1    1    2    0  502  0.79908619329E+02  0.47185621164E+01 -0.83415342868E+02  0.20807395728E+03  0.17300000000E+03 0.  1.
<mgrwt>
<rscale>  2 0.19062175E+03</rscale>
<asrwt>0</asrwt>
<pdfrwt beam="1">  1       21 0.11076167E-01 0.19062175E+03</pdfrwt>
<pdfrwt beam="2">  1       21 0.16701114E+00 0.19062175E+03</pdfrwt>
<totfact> 0.15188392E+04</totfact>
</mgrwt>
</event>
<event>
 4    1  0.4056666E+000  0.2200212E+03  0.7546771E-02  0.1133867E+00
         21   -1    0    0  503  502  0.00000000000E+00  0.00000000000E+00  0.22277741784E+04  0.22277741784E+04  0.00000000000E+00 0. -1.
         21   -1    0    0  501  503 -0.00000000000E+00 -0.00000000000E+00 -0.22020971640E+02  0.22020971640E+02  0.00000000000E+00 0. -1.
          6    1    1    2  501    0  0.39093317792E+02 -0.13019994081E+03  0.12322050410E+04  0.12516942818E+04  0.17300000000E+03 0. -1.
         -6    1    1    2    0  502 -0.39093317792E+02  0.13019994081E+03  0.97354816576E+03  0.99810086822E+03  0.17300000000E+03 0. -1.
<mgrwt>
<rscale>  2 0.22002116E+03</rscale>
<asrwt>0</asrwt>
<pdfrwt beam="1">  1       21 0.34273431E+00 0.22002116E+03</pdfrwt>
<pdfrwt beam="2">  1       21 0.33878435E-02 0.22002116E+03</pdfrwt>
<totfact> 0.96787878E+03</totfact>
</mgrwt>
</event>
<event>
 4    1  0.4056666E+000  0.4485628E+03  0.7546771E-02  0.1028151E+00
         21   -1    0    0  503  502  0.00000000000E+00  0.00000000000E+00  0.22938959800E+03  0.22938959800E+03  0.00000000000E+00 0.  1.
         21   -1    0    0  501  503 -0.00000000000E+00 -0.00000000000E+00 -0.89570097619E+03  0.89570097619E+03  0.00000000000E+00 0. -1.
          6    1    1    2  501    0  0.23438028225E+03 -0.34109453988E+03 -0.41411821508E+03  0.61049365099E+03  0.17300000000E+03 0. -1.
         -6    1    1    2    0  502 -0.23438028225E+03  0.34109453988E+03 -0.25219316311E+03  0.51459692320E+03  0.17300000000E+03 0.  1.
<mgrwt>
<rscale>  2 0.44856282E+03</rscale>
<asrwt>0</asrwt>
<pdfrwt beam="1">  1       21 0.35290708E-01 0.44856282E+03</pdfrwt>
<pdfrwt beam="2">  1       21 0.13780015E+00 0.44856282E+03</pdfrwt>
<totfact> 0.24880865E+03</totfact>
</mgrwt>
</event>
<event>
 4    1  0.4056666E+000  0.2319843E+03  0.7546771E-02  0.1125251E+00
         21   -1    0    0  503  502  0.00000000000E+00  0.00000000000E+00  0.41042706141E+03  0.41042706141E+03  0.00000000000E+00 0. -1.
         21   -1    0    0  501  503 -0.00000000000E+00 -0.00000000000E+00 -0.88743192363E+03  0.88743192363E+03  0.00000000000E+00 0. -1.
          6    1    1    2  501    0 -0.28386297301E+02 -0.15192743533E+03 -0.83757494087E+03  0.86910788114E+03  0.17300000000E+03 0. -1.
         -6    1    1    2    0  502  0.28386297301E+02  0.15192743533E+03  0.36057007865E+03  0.42875110390E+03  0.17300000000E+03 0. -1.
<mgrwt>
<rscale>  2 0.23198433E+03</rscale>
<asrwt>0</asrwt>
<pdfrwt beam="1">  1       21 0.63142626E-01 0.23198433E+03</pdfrwt>
<pdfrwt beam="2">  1       21 0.13652799E+00 0.23198433E+03</pdfrwt>
<totfact> 0.85248282E+02</totfact>
</mgrwt>
</event>
<event>
 4    1  0.4056666E+000  0.2328314E+03  0.7546771E-02  0.1124663E+00
         21   -1    0    0  503  502  0.00000000000E+00  0.00000000000E+00  0.17495155899E+03  0.17495155899E+03  0.00000000000E+00 0. -1.
         21   -1    0    0  501  503 -0.00000000000E+00 -0.00000000000E+00 -0.38555040736E+03  0.38555040736E+03  0.00000000000E+00 0.  1.
          6    1    1    2  501    0  0.15191223919E+03 -0.34700509221E+02 -0.22947253990E+03  0.32690686796E+03  0.17300000000E+03 0.  1.
         -6    1    1    2    0  502 -0.15191223919E+03  0.34700509221E+02  0.18873691526E+02  0.23359509838E+03  0.17300000000E+03 0. -1.
<mgrwt>
<rscale>  2 0.23283138E+03</rscale>
<asrwt>0</asrwt>
<pdfrwt beam="1">  1       21 0.26915624E-01 0.23283138E+03</pdfrwt>
<pdfrwt beam="2">  1       21 0.59315448E-01 0.23283138E+03</pdfrwt>
<totfact> 0.34214865E+04</totfact>
</mgrwt>
</event>
<event>
 4    1  0.4056666E+000  0.2163339E+03  0.7546771E-02  0.1136646E+00
         21   -1    0    0  501  502  0.00000000000E+00  0.00000000000E+00  0.37132651454E+03  0.37132651454E+03  0.00000000000E+00 0. -1.
         21   -1    0    0  502  503 -0.00000000000E+00 -0.00000000000E+00 -0.12662779593E+03  0.12662779593E+03  0.00000000000E+00 0. -1.
          6    1    1    2  501    0  0.99121763257E+02  0.83941756066E+02  0.10532208407E+03  0.24060981642E+03  0.17300000000E+03 0. -1.
         -6    1    1    2    0  503 -0.99121763257E+02 -0.83941756066E+02  0.13937663454E+03  0.25734449405E+03  0.17300000000E+03 0. -1.
<mgrwt>
<rscale>  2 0.21633387E+03</rscale>
<asrwt>0</asrwt>
<pdfrwt beam="1">  1       21 0.57127155E-01 0.21633387E+03</pdfrwt>
<pdfrwt beam="2">  1       21 0.19481200E-01 0.21633387E+03</pdfrwt>
<totfact> 0.69041732E+04</totfact>
</mgrwt>
</event>
<event>
 4    1  0.4056666E+000  0.1794053E+03  0.7546771E-02  0.1168380E+00
         21   -1    0    0  501  502  0.00000000000E+00  0.00000000000E+00  0.80388782500E+02  0.80388782500E+02  0.00000000000E+00 0. -1.
         21   -1    0    0  502  503 -0.00000000000E+00 -0.00000000000E+00 -0.71824107540E+03  0.71824107540E+03  0.00000000000E+00 0. -1.
          6    1    1    2  501    0 -0.48352342439E+00  0.47508120280E+02 -0.53283713651E+02  0.18715076657E+03  0.17300000000E+03 0. -1.
         -6    1    1    2    0  503  0.48352342439E+00 -0.47508120280E+02 -0.58456857925E+03  0.61147909133E+03  0.17300000000E+03 0. -1.
<mgrwt>
<rscale>  2 0.17940528E+03</rscale>
<asrwt>0</asrwt>
<pdfrwt beam="1">  1       21 0.12367505E-01 0.17940528E+03</pdfrwt>
<pdfrwt beam="2">  1       21 0.11049863E+00 0.17940528E+03</pdfrwt>
<totfact> 0.36178003E+04</totfact>
</mgrwt>
</event>
<event>
 4    1  0.4056666E+000  0.1941901E+03  0.7546771E-02  0.1154735E+00
         21   -1    0    0  503  502  0.00000000000E+00  0.00000000000E+00  0.48304805053E+03  0.48304805053E+03  0.00000000000E+00 0. -1.
         21   -1    0    0  501  503 -0.00000000000E+00 -0.00000000000E+00 -0.21959142681E+03  0.21959142681E+03  0.00000000000E+00 0. -1.
          6    1    1    2  501    0  0.85860738651E+01 -0.87789985114E+02 -0.15031223479E+03  0.24556785229E+03  0.17300000000E+03 0. -1.
         -6    1    1    2    0  502 -0.85860738651E+01  0.87789985114E+02  0.41376885851E+03  0.45707162505E+03  0.17300000000E+03 0. -1.
<mgrwt>
<rscale>  2 0.19419012E+03</rscale>
<asrwt>0</asrwt>
<pdfrwt beam="1">  1       21 0.74315084E-01 0.19419012E+03</pdfrwt>
<pdfrwt beam="2">  1       21 0.33783297E-01 0.19419012E+03</pdfrwt>
<totfact> 0.13684366E+04</totfact>
</mgrwt>
</event>
<event>
 4    1  0.4056666E+000  0.1807820E+03  0.7546771E-02  0.1167048E+00
         21   -1    0    0  501  502  0.00000000000E+00  0.00000000000E+00  0.75711926512E+03  0.75711926512E+03  0.00000000000E+00 0. -1.
         21   -1    0    0  502  503 -0.00000000000E+00 -0.00000000000E+00 -0.18910509703E+03  0.18910509703E+03  0.00000000000E+00 0. -1.
          6    1    1    2  501    0  0.18796181526E+02  0.48988157083E+02  0.69962829143E+03  0.72260769587E+03  0.17300000000E+03 0. -1.
         -6    1    1    2    0  503 -0.18796181526E+02 -0.48988157083E+02 -0.13161412333E+03  0.22361666627E+03  0.17300000000E+03 0. -1.
<mgrwt>
<rscale>  2 0.18078201E+03</rscale>
<asrwt>0</asrwt>
<pdfrwt beam="1">  1       21 0.11647989E+00 0.18078201E+03</pdfrwt>
<pdfrwt beam="2">  1       21 0.29093092E-01 0.18078201E+03</pdfrwt>
<totfact> 0.64880161E+03</totfact>
</mgrwt>
</event>
<event>
 4    1  0.4056666E+000  0.1735762E+03  0.7546771E-02  0.1174169E+00
         21   -1    0    0  503  502  0.00000000000E+00  0.00000000000E+00  0.43180531836E+02  0.43180531836E+02  0.00000000000E+00 0.  1.
         21   -1    0    0  501  503 -0.00000000000E+00 -0.00000000000E+00 -0.93063249198E+03  0.93063249198E+03  0.00000000000E+00 0.  1.
          6    1    1    2  501    0 -0.13250791754E+02 -0.49117853441E+01 -0.68730273720E+03  0.70888205061E+03  0.17300000000E+03 0.  1.
         -6    1    1    2    0  502  0.13250791754E+02  0.49117853441E+01 -0.20014922295E+03  0.26493097320E+03  0.17300000000E+03 0.  1.
<mgrwt>
<rscale>  2 0.17357623E+03</rscale>
<asrwt>0</asrwt>
<pdfrwt beam="1">  1       21 0.66431586E-02 0.17357623E+03</pdfrwt>
<pdfrwt beam="2">  1       21 0.14317423E+00 0.17357623E+03</pdfrwt>
<totfact> 0.56476371E+04</totfact>
</mgrwt>
</event>
<event>
 4    1  0.4056666E+000  0.2301260E+03  0.7546771E-02  0.1126551E+00
         21   -1    0    0  503  502  0.00000000000E+00  0.00000000000E+00  0.44223800186E+03  0.44223800186E+03  0.00000000000E+00 0. -1.
         21   -1    0    0  501  503 -0.00000000000E+00 -0.00000000000E+00 -0.13507170162E+03  0.13507170162E+03  0.00000000000E+00 0. -1.
          6    1    1    2  501    0 -0.13521163460E+03  0.68897072890E+02  0.56364311041E+02  0.23692810796E+03  0.17300000000E+03 0. -1.
         -6    1    1    2    0  502  0.13521163460E+03 -0.68897072890E+02  0.25080198919E+03  0.34038159552E+03  0.17300000000E+03 0. -1.
<mgrwt>
<rscale>  2 0.23012604E+03</rscale>
<asrwt>0</asrwt>
<pdfrwt beam="1">  1       21 0.68036615E-01 0.23012604E+03</pdfrwt>
<pdfrwt beam="2">  1       21 0.20780262E-01 0.23012604E+03</pdfrwt>
<totfact> 0.41613695E+04</totfact>
</mgrwt>
</event>
<event>
 4    1  0.4056666E+000  0.1892932E+03  0.7546771E-02  0.1159100E+00
         21   -1    0    0  501  502  0.00000000000E+00  0.00000000000E+00  0.35215897005E+03  0.35215897005E+03  0.00000000000E+00 0. -1.
         21   -1    0    0  502  503 -0.00000000000E+00 -0.00000000000E+00 -0.58505521554E+03  0.58505521554E+03  0.00000000000E+00 0. -1.
          6    1    1    2  501    0  0.28323687268E+02  0.71419106862E+02  0.30946546608E+03  0.36276823838E+03  0.17300000000E+03 0. -1.
         -6    1    1    2    0  503 -0.28323687268E+02 -0.71419106862E+02 -0.54236171157E+03  0.57444594720E+03  0.17300000000E+03 0. -1.
<mgrwt>
<rscale>  2 0.18929321E+03</rscale>
<asrwt>0</asrwt>
<pdfrwt beam="1">  1       21 0.54178304E-01 0.18929321E+03</pdfrwt>
<pdfrwt beam="2">  1       21 0.90008494E-01 0.18929321E+03</pdfrwt>
<totfact> 0.33917769E+03</totfact>
</mgrwt>
</event>
<event>
 4    1  0.4056666E+000  0.2105451E+03  0.7546771E-02  0.1141135E+00
         21   -1    0    0  503  502  0.00000000000E+00  0.00000000000E+00  0.76227792082E+02  0.76227792082E+02  0.00000000000E+00 0. -1.
         21   -1    0    0  501  503 -0.00000000000E+00 -0.00000000000E+00 -0.65827396599E+03  0.65827396599E+03  0.00000000000E+00 0. -1.
          6    1    1    2  501    0 -0.54545109459E+02 -0.10688816028E+03 -0.16563303880E+03  0.26788719886E+03  0.17300000000E+03 0. -1.
         -6    1    1    2    0  502  0.54545109459E+02  0.10688816028E+03 -0.41641313511E+03  0.46661455921E+03  0.17300000000E+03 0. -1.
<mgrwt>
<rscale>  2 0.21054512E+03</rscale>
<asrwt>0</asrwt>
<pdfrwt beam="1">  1       21 0.11727352E-01 0.21054512E+03</pdfrwt>
<pdfrwt beam="2">  1       21 0.10127292E+00 0.21054512E+03</pdfrwt>
<totfact> 0.48262407E+04</totfact>
</mgrwt>
</event>
<event>
 4    1  0.4056666E+000  0.2477214E+03  0.7546771E-02  0.1114753E+00
         21   -1    0    0  501  502  0.00000000000E+00  0.00000000000E+00  0.18078733984E+03  0.18078733984E+03  0.00000000000E+00 0.  1.
         21   -1    0    0  502  503 -0.00000000000E+00 -0.00000000000E+00 -0.36060518769E+03  0.36060518769E+03  0.00000000000E+00 0. -1.
          6    1    1    2  501    0 -0.92674303769E+02  0.15115671561E+03 -0.24323098490E+02  0.24891261996E+03  0.17300000000E+03 0.  1.
         -6    1    1    2    0  503  0.92674303769E+02 -0.15115671561E+03 -0.15549474936E+03  0.29247990757E+03  0.17300000000E+03 0.  1.
<mgrwt>
<rscale>  2 0.24772137E+03</rscale>
<asrwt>0</asrwt>
<pdfrwt beam="1">  1       21 0.27813437E-01 0.24772137E+03</pdfrwt>
<pdfrwt beam="2">  1       21 0.55477721E-01 0.24772137E+03</pdfrwt>
<totfact> 0.36809672E+04</totfact>
</mgrwt>
</event>
<event>
 4    1  0.4056666E+000  0.2496764E+03  0.7546771E-02  0.1113509E+00
         21   -1    0    0  501  502  0.00000000000E+00  0.00000000000E+00  0.24086033490E+03  0.24086033490E+03  0.00000000000E+00 0.  1.
         21   -1    0    0  502  503 -0.00000000000E+00 -0.00000000000E+00 -0.41811476319E+03  0.41811476319E+03  0.00000000000E+00 0. -1.
          6    1    1    2  501    0  0.11068689435E+03 -0.14197793088E+03  0.11474823117E+03  0.27478260133E+03  0.17300000000E+03 0. -1.
         -6    1    1    2    0  503 -0.11068689435E+03  0.14197793088E+03 -0.29200265946E+03  0.38419249676E+03  0.17300000000E+03 0.  1.
<mgrwt>
<rscale>  2 0.24967643E+03</rscale>
<asrwt>0</asrwt>
<pdfrwt beam="1">  1       21 0.37055437E-01 0.24967643E+03</pdfrwt>
<pdfrwt beam="2">  1       21 0.64325347E-01 0.24967643E+03</pdfrwt>
<totfact> 0.15151986E+04</totfact>
</mgrwt>
</event>
<event>
 4    1  0.4056666E+000  0.1891628E+03  0.7546771E-02  0.1159219E+00
         21   -1    0    0  501  502  0.00000000000E+00  0.00000000000E+00  0.58317513452E+03  0.58317513452E+03  0.00000000000E+00 0. -1.
         21   -1    0    0  502  503 -0.00000000000E+00 -0.00000000000E+00 -0.13953192842E+03  0.13953192842E+03  0.00000000000E+00 0. -1.
          6    1    1    2  501    0  0.29490138701E+02 -0.70596810385E+02  0.49229584446E+03  0.52738769078E+03  0.17300000000E+03 0. -1.
         -6    1    1    2    0  503 -0.29490138701E+02  0.70596810385E+02 -0.48652638360E+02  0.19531937215E+03  0.17300000000E+03 0. -1.
<mgrwt>
<rscale>  2 0.18916283E+03</rscale>
<asrwt>0</asrwt>
<pdfrwt beam="1">  1       21 0.89719250E-01 0.18916283E+03</pdfrwt>
<pdfrwt beam="2">  1       21 0.21466451E-01 0.18916283E+03</pdfrwt>
<totfact> 0.21437906E+04</totfact>
</mgrwt>
</event>
<event>
 4    1  0.4056666E+000  0.1783967E+03  0.7546771E-02  0.1169364E+00
         21   -1    0    0  501  502  0.00000000000E+00  0.00000000000E+00  0.11144041500E+04  0.11144041500E+04  0.00000000000E+00 0.  1.
         21   -1    0    0  502  503 -0.00000000000E+00 -0.00000000000E+00 -0.55492183412E+02  0.55492183412E+02  0.00000000000E+00 0.  1.
          6    1    1    2  501    0  0.33059808074E+02 -0.28345078038E+02  0.93697853161E+03  0.95381033914E+03  0.17300000000E+03 0.  1.
         -6    1    1    2    0  503 -0.33059808074E+02  0.28345078038E+02  0.12193343501E+03  0.21608599430E+03  0.17300000000E+03 0.  1.
<mgrwt>
<rscale>  2 0.17839673E+03</rscale>
<asrwt>0</asrwt>
<pdfrwt beam="1">  1       21 0.17144678E+00 0.17839673E+03</pdfrwt>
<pdfrwt beam="2">  1       21 0.85372598E-02 0.17839673E+03</pdfrwt>
<totfact> 0.22558455E+04</totfact>
</mgrwt>
</event>
<event>
 4    1  0.4056666E+000  0.3972968E+03  0.7546771E-02  0.1044720E+00
         21   -1    0    0  501  502  0.00000000000E+00  0.00000000000E+00  0.69744771505E+03  0.69744771505E+03  0.00000000000E+00 0.  1.
         21   -1    0    0  502  503 -0.00000000000E+00 -0.00000000000E+00 -0.23921922801E+03  0.23921922801E+03  0.00000000000E+00 0. -1.
          6    1    1    2  501    0  0.33455520955E+03 -0.12644572486E+03  0.33787670135E+03  0.52154134533E+03  0.17300000000E+03 0. -1.
         -6    1    1    2    0  503 -0.33455520955E+03  0.12644572486E+03  0.12035178568E+03  0.41512559773E+03  0.17300000000E+03 0.  1.
<mgrwt>
<rscale>  2 0.39729675E+03</rscale>
<asrwt>0</asrwt>
<pdfrwt beam="1">  1       21 0.10729965E+00 0.39729675E+03</pdfrwt>
<pdfrwt beam="2">  1       21 0.36802958E-01 0.39729675E+03</pdfrwt>
<totfact> 0.44045509E+03</totfact>
</mgrwt>
</event>
<event>
 4    1  0.4056666E+000  0.2124626E+03  0.7546771E-02  0.1139631E+00
         21   -1    0    0  503  502  0.00000000000E+00  0.00000000000E+00  0.11625872459E+03  0.11625872459E+03  0.00000000000E+00 0. -1.
         21   -1    0    0  501  503 -0.00000000000E+00 -0.00000000000E+00 -0.75947805059E+03  0.75947805059E+03  0.00000000000E+00 0. -1.
          6    1    1    2  501    0 -0.42352371639E+02 -0.11583458586E+03 -0.62772962751E+03  0.66271023828E+03  0.17300000000E+03 0. -1.
         -6    1    1    2    0  502  0.42352371639E+02  0.11583458586E+03 -0.15489698493E+02  0.21302653690E+03  0.17300000000E+03 0. -1.
<mgrwt>
<rscale>  2 0.21246264E+03</rscale>
<asrwt>0</asrwt>
<pdfrwt beam="1">  1       21 0.17885957E-01 0.21246264E+03</pdfrwt>
<pdfrwt beam="2">  1       21 0.11684278E+00 0.21246264E+03</pdfrwt>
<totfact> 0.15814450E+04</totfact>
</mgrwt>
</event>
<event>
 4    1  0.4056666E+000  0.1746868E+03  0.7546771E-02  0.1173047E+00
         21   -1    0    0  501  502  0.00000000000E+00  0.00000000000E+00  0.27916827001E+03  0.27916827001E+03  0.00000000000E+00 0. -1.
         21   -1    0    0  502  503 -0.00000000000E+00 -0.00000000000E+00 -0.10944514031E+03  0.10944514031E+03  0.00000000000E+00 0. -1.
          6    1    1    2  501    0  0.10673575474E+02  0.21738588917E+02  0.77998353245E+02  0.19130926420E+03  0.17300000000E+03 0.  1.
         -6    1    1    2    0  503 -0.10673575474E+02 -0.21738588917E+02  0.91724776455E+02  0.19730414612E+03  0.17300000000E+03 0.  1.
<mgrwt>
<rscale>  2 0.17468684E+03</rscale>
<asrwt>0</asrwt>
<pdfrwt beam="1">  1       21 0.42948964E-01 0.17468684E+03</pdfrwt>
<pdfrwt beam="2">  1       21 0.16837714E-01 0.17468684E+03</pdfrwt>
<totfact> 0.16647041E+05</totfact>
</mgrwt>
</event>
<event>
 4    1  0.4056666E+000  0.1785008E+03  0.7546771E-02  0.1169262E+00
         21   -1    0    0  501  502  0.00000000000E+00  0.00000000000E+00  0.36692014134E+03  0.36692014134E+03  0.00000000000E+00 0.  1.
         21   -1    0    0  502  503 -0.00000000000E+00 -0.00000000000E+00 -0.89212352314E+02  0.89212352314E+02  0.00000000000E+00 0.  1.
          6    1    1    2  501    0  0.41127502191E+02 -0.15558249751E+02  0.17606231248E+03  0.25071990038E+03  0.17300000000E+03 0.  1.
         -6    1    1    2    0  503 -0.41127502191E+02  0.15558249751E+02  0.10164547654E+03  0.20541259327E+03  0.17300000000E+03 0.  1.
<mgrwt>
<rscale>  2 0.17850079E+03</rscale>
<asrwt>0</asrwt>
<pdfrwt beam="1">  1       21 0.56449252E-01 0.17850079E+03</pdfrwt>
<pdfrwt beam="2">  1       21 0.13724977E-01 0.17850079E+03</pdfrwt>
<totfact> 0.13670788E+05</totfact>
</mgrwt>
</event>
<event>
 4    1  0.4056666E+000  0.2218565E+03  0.7546771E-02  0.1132506E+00
         21   -1    0    0  503  502  0.00000000000E+00  0.00000000000E+00  0.20259008163E+04  0.20259008163E+04  0.00000000000E+00 0. -1.
         21   -1    0    0  501  503 -0.00000000000E+00 -0.00000000000E+00 -0.36243956426E+02  0.36243956426E+02  0.00000000000E+00 0. -1.
          6    1    1    2  501    0 -0.10897992054E+03  0.86108619654E+02  0.15868354572E+04  0.16022693549E+04  0.17300000000E+03 0. -1.
         -6    1    1    2    0  502  0.10897992054E+03 -0.86108619654E+02  0.40282140268E+03  0.45987541782E+03  0.17300000000E+03 0. -1.
<mgrwt>
<rscale>  2 0.22185652E+03</rscale>
<asrwt>0</asrwt>
<pdfrwt beam="1">  1       21 0.31167696E+00 0.22185652E+03</pdfrwt>
<pdfrwt beam="2">  1       21 0.55759949E-02 0.22185652E+03</pdfrwt>
<totfact> 0.63286542E+03</totfact>
</mgrwt>
</event>
<event>
 4    1  0.4056666E+000  0.1904347E+03  0.7546771E-02  0.1158070E+00
         21   -1    0    0  501  502  0.00000000000E+00  0.00000000000E+00  0.11227594219E+03  0.11227594219E+03  0.00000000000E+00 0.  1.
         21   -1    0    0  502  503 -0.00000000000E+00 -0.00000000000E+00 -0.33228327995E+03  0.33228327995E+03  0.00000000000E+00 0. -1.
          6    1    1    2  501    0  0.24380834646E+02  0.75775550780E+02 -0.72854576066E+02  0.20389494464E+03  0.17300000000E+03 0.  1.
         -6    1    1    2    0  503 -0.24380834646E+02 -0.75775550780E+02 -0.14715276169E+03  0.24066427751E+03  0.17300000000E+03 0.  1.
<mgrwt>
<rscale>  2 0.19043466E+03</rscale>
<asrwt>0</asrwt>
<pdfrwt beam="1">  1       21 0.17273222E-01 0.19043466E+03</pdfrwt>
<pdfrwt beam="2">  1       21 0.51120504E-01 0.19043466E+03</pdfrwt>
<totfact> 0.11030650E+05</totfact>
</mgrwt>
</event>
<event>
 4    1  0.4056666E+000  0.2296740E+03  0.7546771E-02  0.1126869E+00
         21   -1    0    0  503  502  0.00000000000E+00  0.00000000000E+00  0.20373180626E+04  0.20373180626E+04  0.00000000000E+00 0.  1.
         21   -1    0    0  501  503 -0.00000000000E+00 -0.00000000000E+00 -0.38425848786E+02  0.38425848786E+02  0.00000000000E+00 0.  1.
          6    1    1    2  501    0 -0.69059408953E+02 -0.13435751267E+03  0.40669129935E+03  0.46706311795E+03  0.17300000000E+03 0.  1.
         -6    1    1    2    0  502  0.69059408953E+02  0.13435751267E+03  0.15922009144E+04  0.16086807934E+04  0.17300000000E+03 0.  1.
<mgrwt>
<rscale>  2 0.22967399E+03</rscale>
<asrwt>0</asrwt>
<pdfrwt beam="1">  1       21 0.31343346E+00 0.22967399E+03</pdfrwt>
<pdfrwt beam="2">  1       21 0.59116706E-02 0.22967399E+03</pdfrwt>
<totfact> 0.55472013E+03</totfact>
</mgrwt>
</event>
<event>
 4    1  0.4056666E+000  0.1976285E+03  0.7546771E-02  0.1151755E+00
         21   -1    0    0  503  502  0.00000000000E+00  0.00000000000E+00  0.16505505050E+03  0.16505505050E+03  0.00000000000E+00 0.  1.
         21   -1    0    0  501  503 -0.00000000000E+00 -0.00000000000E+00 -0.53866436872E+03  0.53866436872E+03  0.00000000000E+00 0.  1.
          6    1    1    2  501    0 -0.55432941076E+02 -0.77815361795E+02 -0.45027899289E+03  0.49173998508E+03  0.17300000000E+03 0.  1.
         -6    1    1    2    0  502  0.55432941076E+02  0.77815361795E+02  0.76669674669E+02  0.21197943415E+03  0.17300000000E+03 0.  1.
<mgrwt>
<rscale>  2 0.19762854E+03</rscale>
<asrwt>0</asrwt>
<pdfrwt beam="1">  1       21 0.25393085E-01 0.19762854E+03</pdfrwt>
<pdfrwt beam="2">  1       21 0.82871441E-01 0.19762854E+03</pdfrwt>
<totfact> 0.18608789E+04</totfact>
</mgrwt>
</event>
<event>
 4    1  0.4056666E+000  0.1901446E+03  0.7546771E-02  0.1158331E+00
         21   -1    0    0  501  502  0.00000000000E+00  0.00000000000E+00  0.17790054858E+03  0.17790054858E+03  0.00000000000E+00 0. -1.
         21   -1    0    0  502  503 -0.00000000000E+00 -0.00000000000E+00 -0.24280332253E+03  0.24280332253E+03  0.00000000000E+00 0. -1.
          6    1    1    2  501    0 -0.75000319890E+02  0.24513773104E+02  0.52469185565E+02  0.19725107982E+03  0.17300000000E+03 0. -1.
         -6    1    1    2    0  503  0.75000319890E+02 -0.24513773104E+02 -0.11737195952E+03  0.22345279129E+03  0.17300000000E+03 0. -1.
<mgrwt>
<rscale>  2 0.19014461E+03</rscale>
<asrwt>0</asrwt>
<pdfrwt beam="1">  1       21 0.27369315E-01 0.19014461E+03</pdfrwt>
<pdfrwt beam="2">  1       21 0.37354357E-01 0.19014461E+03</pdfrwt>
<totfact> 0.88087875E+04</totfact>
</mgrwt>
</event>
<event>
 4    1  0.4056666E+000  0.1784246E+03  0.7546771E-02  0.1169337E+00
         21   -1    0    0  503  502  0.00000000000E+00  0.00000000000E+00  0.14463326521E+04  0.14463326521E+04  0.00000000000E+00 0. -1.
         21   -1    0    0  501  503 -0.00000000000E+00 -0.00000000000E+00 -0.22792523298E+02  0.22792523298E+02  0.00000000000E+00 0. -1.
          6    1    1    2  501    0 -0.29139838743E+02  0.32514477083E+02  0.57575543589E+03  0.60276831650E+03  0.17300000000E+03 0.  1.
         -6    1    1    2    0  502  0.29139838743E+02 -0.32514477083E+02  0.84778469295E+03  0.86635685893E+03  0.17300000000E+03 0.  1.
<mgrwt>
<rscale>  2 0.17842455E+03</rscale>
<asrwt>0</asrwt>
<pdfrwt beam="1">  1       21 0.22251264E+00 0.17842455E+03</pdfrwt>
<pdfrwt beam="2">  1       21 0.35065432E-02 0.17842455E+03</pdfrwt>
<totfact> 0.47902225E+04</totfact>
</mgrwt>
</event>
<event>
 4    1  0.4056666E+000  0.1899273E+03  0.7546771E-02  0.1158527E+00
         21   -1    0    0  501  502  0.00000000000E+00  0.00000000000E+00  0.36893608140E+03  0.36893608140E+03  0.00000000000E+00 0. -1.
         21   -1    0    0  502  503 -0.00000000000E+00 -0.00000000000E+00 -0.22823044145E+03  0.22823044145E+03  0.00000000000E+00 0. -1.
          6    1    1    2  501    0 -0.31584651940E+02 -0.71734280922E+02  0.29609423959E+03  0.35177293247E+03  0.17300000000E+03 0. -1.
         -6    1    1    2    0  503  0.31584651940E+02  0.71734280922E+02 -0.15538859965E+03  0.24539359038E+03  0.17300000000E+03 0. -1.
<mgrwt>
<rscale>  2 0.18992735E+03</rscale>
<asrwt>0</asrwt>
<pdfrwt beam="1">  1       21 0.56759397E-01 0.18992735E+03</pdfrwt>
<pdfrwt beam="2">  1       21 0.35112376E-01 0.18992735E+03</pdfrwt>
<totfact> 0.22850951E+04</totfact>
</mgrwt>
</event>
<event>
 4    1  0.4056666E+000  0.1748731E+03  0.7546771E-02  0.1172859E+00
         21   -1    0    0  503  502  0.00000000000E+00  0.00000000000E+00  0.57043278099E+03  0.57043278099E+03  0.00000000000E+00 0. -1.
         21   -1    0    0  501  503 -0.00000000000E+00 -0.00000000000E+00 -0.10216830108E+03  0.10216830108E+03  0.00000000000E+00 0. -1.
          6    1    1    2  501    0 -0.22338413378E+01  0.25428297131E+02  0.22840679747E+01  0.17488797931E+03  0.17300000000E+03 0. -1.
         -6    1    1    2    0  502  0.22338413378E+01 -0.25428297131E+02  0.46598041194E+03  0.49771310275E+03  0.17300000000E+03 0. -1.
<mgrwt>
<rscale>  2 0.17487306E+03</rscale>
<asrwt>0</asrwt>
<pdfrwt beam="1">  1       21 0.87758887E-01 0.17487306E+03</pdfrwt>
<pdfrwt beam="2">  1       21 0.15718201E-01 0.17487306E+03</pdfrwt>
<totfact> 0.40484797E+04</totfact>
</mgrwt>
</event>
<event>
 4    1  0.4056666E+000  0.2293148E+03  0.7546771E-02  0.1127123E+00
         21   -1    0    0  503  502  0.00000000000E+00  0.00000000000E+00  0.75901479599E+02  0.75901479599E+02  0.00000000000E+00 0.  1.
         21   -1    0    0  501  503 -0.00000000000E+00 -0.00000000000E+00 -0.71909799155E+03  0.71909799155E+03  0.00000000000E+00 0.  1.
          6    1    1    2  501    0  0.12202660716E+03  0.88123627645E+02 -0.39760035524E+03  0.45898944333E+03  0.17300000000E+03 0.  1.
         -6    1    1    2    0  502 -0.12202660716E+03 -0.88123627645E+02 -0.24559615672E+03  0.33601002782E+03  0.17300000000E+03 0.  1.
<mgrwt>
<rscale>  2 0.22931478E+03</rscale>
<asrwt>0</asrwt>
<pdfrwt beam="1">  1       21 0.11677151E-01 0.22931478E+03</pdfrwt>
<pdfrwt beam="2">  1       21 0.11063046E+00 0.22931478E+03</pdfrwt>
<totfact> 0.38929476E+04</totfact>
</mgrwt>
</event>
<event>
 4    1  0.4056666E+000  0.1964701E+03  0.7546771E-02  0.1152752E+00
         21   -1    0    0  501  502  0.00000000000E+00  0.00000000000E+00  0.11560220378E+04  0.11560220378E+04  0.00000000000E+00 0. -1.
         21   -1    0    0  502  503 -0.00000000000E+00 -0.00000000000E+00 -0.35139499383E+02  0.35139499383E+02  0.00000000000E+00 0. -1.
          6    1    1    2  501    0 -0.55526813885E+02 -0.74754663979E+02  0.69330362327E+03  0.72060419156E+03  0.17300000000E+03 0. -1.
         -6    1    1    2    0  503  0.55526813885E+02  0.74754663979E+02  0.42757891514E+03  0.47055734562E+03  0.17300000000E+03 0. -1.
<mgrwt>
<rscale>  2 0.19647007E+03</rscale>
<asrwt>0</asrwt>
<pdfrwt beam="1">  1       21 0.17784952E+00 0.19647007E+03</pdfrwt>
<pdfrwt beam="2">  1       21 0.54060777E-02 0.19647007E+03</pdfrwt>
<totfact> 0.44233567E+04</totfact>
</mgrwt>
</event>
<event>
 4    1  0.4056666E+000  0.1827651E+03  0.7546771E-02  0.1165154E+00
         21   -1    0    0  503  502  0.00000000000E+00  0.00000000000E+00  0.17366853006E+03  0.17366853006E+03  0.00000000000E+00 0. -1.
         21   -1    0    0  501  503 -0.00000000000E+00 -0.00000000000E+00 -0.32241865997E+03  0.32241865997E+03  0.00000000000E+00 0. -1.
          6    1    1    2  501    0  0.48619892662E+02  0.33319220628E+02 -0.23192717879E+03  0.29528508376E+03  0.17300000000E+03 0. -1.
         -6    1    1    2    0  502 -0.48619892662E+02 -0.33319220628E+02  0.83177048884E+02  0.20080210628E+03  0.17300000000E+03 0. -1.
<mgrwt>
<rscale>  2 0.18276505E+03</rscale>
<asrwt>0</asrwt>
<pdfrwt beam="1">  1       21 0.26718236E-01 0.18276505E+03</pdfrwt>
<pdfrwt beam="2">  1       21 0.49602870E-01 0.18276505E+03</pdfrwt>
<totfact> 0.51903742E+04</totfact>
</mgrwt>
</event>
<event>
 4    1  0.4056666E+000  0.2176129E+03  0.7546771E-02  0.1135675E+00
         21   -1    0    0  503  502  0.00000000000E+00  0.00000000000E+00  0.41910661552E+03  0.41910661552E+03  0.00000000000E+00 0.  1.
         21   -1    0    0  501  503 -0.00000000000E+00 -0.00000000000E+00 -0.18982695108E+03  0.18982695108E+03  0.00000000000E+00 0.  1.
          6    1    1    2  501    0 -0.34585917972E+02  0.12739772964E+03 -0.79065956963E+02  0.23153140779E+03  0.17300000000E+03 0.  1.
         -6    1    1    2    0  502  0.34585917972E+02 -0.12739772964E+03  0.30834562140E+03  0.37740215882E+03  0.17300000000E+03 0.  1.
<mgrwt>
<rscale>  2 0.21761288E+03</rscale>
<asrwt>0</asrwt>
<pdfrwt beam="1">  1       21 0.64477941E-01 0.21761288E+03</pdfrwt>
<pdfrwt beam="2">  1       21 0.29204146E-01 0.21761288E+03</pdfrwt>
<totfact> 0.24557735E+04</totfact>
</mgrwt>
</event>
<event>
 4    1  0.4056666E+000  0.1880747E+03  0.7546771E-02  0.1160209E+00
         21   -1    0    0  501  502  0.00000000000E+00  0.00000000000E+00  0.16347741285E+03  0.16347741285E+03  0.00000000000E+00 0. -1.
         21   -1    0    0  502  503 -0.00000000000E+00 -0.00000000000E+00 -0.21639901783E+03  0.21639901783E+03  0.00000000000E+00 0. -1.
          6    1    1    2  501    0  0.46025214008E+02  0.57660939813E+02 -0.24379616320E+02  0.18964827971E+03  0.17300000000E+03 0. -1.
         -6    1    1    2    0  503 -0.46025214008E+02 -0.57660939813E+02 -0.28541988659E+02  0.19022815097E+03  0.17300000000E+03 0. -1.
<mgrwt>
<rscale>  2 0.18807473E+03</rscale>
<asrwt>0</asrwt>
<pdfrwt beam="1">  1       21 0.25150371E-01 0.18807473E+03</pdfrwt>
<pdfrwt beam="2">  1       21 0.33292156E-01 0.18807473E+03</pdfrwt>
<totfact> 0.13030413E+05</totfact>
</mgrwt>
</event>
<event>
 4    1  0.4056666E+000  0.1783103E+03  0.7546771E-02  0.1169448E+00
         21   -1    0    0  503  502  0.00000000000E+00  0.00000000000E+00  0.81164962879E+02  0.81164962879E+02  0.00000000000E+00 0.  1.
         21   -1    0    0  501  503 -0.00000000000E+00 -0.00000000000E+00 -0.40201682883E+03  0.40201682883E+03  0.00000000000E+00 0.  1.
          6    1    1    2  501    0  0.18927874225E+02  0.38824158418E+02 -0.19907541939E+03  0.26725568714E+03  0.17300000000E+03 0.  1.
         -6    1    1    2    0  502 -0.18927874225E+02 -0.38824158418E+02 -0.12177644655E+03  0.21592610457E+03  0.17300000000E+03 0.  1.
<mgrwt>
<rscale>  2 0.17831035E+03</rscale>
<asrwt>0</asrwt>
<pdfrwt beam="1">  1       21 0.12486917E-01 0.17831035E+03</pdfrwt>
<pdfrwt beam="2">  1       21 0.61848745E-01 0.17831035E+03</pdfrwt>
<totfact> 0.13330576E+05</totfact>
</mgrwt>
</event>
<event>
 4    1  0.4056666E+000  0.1940053E+03  0.7546771E-02  0.1154898E+00
         21   -1    0    0  501  502  0.00000000000E+00  0.00000000000E+00  0.28124910361E+03  0.28124910361E+03  0.00000000000E+00 0.  1.
         21   -1    0    0  502  503 -0.00000000000E+00 -0.00000000000E+00 -0.13506780095E+03  0.13506780095E+03  0.00000000000E+00 0. -1.
          6    1    1    2  501    0 -0.37212370348E+02  0.79525532334E+02  0.53120786157E+02  0.20114643602E+03  0.17300000000E+03 0.  1.
         -6    1    1    2    0  503  0.37212370348E+02 -0.79525532334E+02  0.93060516500E+02  0.21517046854E+03  0.17300000000E+03 0. -1.
<mgrwt>
<rscale>  2 0.19400534E+03</rscale>
<asrwt>0</asrwt>
<pdfrwt beam="1">  1       21 0.43269093E-01 0.19400534E+03</pdfrwt>
<pdfrwt beam="2">  1       21 0.20779662E-01 0.19400534E+03</pdfrwt>
<totfact> 0.11029492E+05</totfact>
</mgrwt>
</event>
<event>
 4    1  0.4056666E+000  0.2384323E+03  0.7546771E-02  0.1120842E+00
         21   -1    0    0  503  502  0.00000000000E+00  0.00000000000E+00  0.11039604066E+03  0.11039604066E+03  0.00000000000E+00 0.  1.
         21   -1    0    0  501  503 -0.00000000000E+00 -0.00000000000E+00 -0.53443022952E+03  0.53443022952E+03  0.00000000000E+00 0.  1.
          6    1    1    2  501    0 -0.24004904939E+02  0.16231057465E+03 -0.15048367830E+03  0.28194910097E+03  0.17300000000E+03 0.  1.
         -6    1    1    2    0  502  0.24004904939E+02 -0.16231057465E+03 -0.27355051056E+03  0.36287716920E+03  0.17300000000E+03 0.  1.
<mgrwt>
<rscale>  2 0.23843229E+03</rscale>
<asrwt>0</asrwt>
<pdfrwt beam="1">  1       21 0.16984006E-01 0.23843229E+03</pdfrwt>
<pdfrwt beam="2">  1       21 0.82220036E-01 0.23843229E+03</pdfrwt>
<totfact> 0.39493670E+04</totfact>
</mgrwt>
</event>
<event>
 4    1  0.4056666E+000  0.2377090E+03  0.7546771E-02  0.1121329E+00
         21   -1    0    0  503  502  0.00000000000E+00  0.00000000000E+00  0.93611952350E+03  0.93611952350E+03  0.00000000000E+00 0. -1.
         21   -1    0    0  501  503 -0.00000000000E+00 -0.00000000000E+00 -0.10238170130E+03  0.10238170130E+03  0.00000000000E+00 0. -1.
          6    1    1    2  501    0 -0.10505650614E+03 -0.12465823453E+03  0.84213113586E+02  0.25218523632E+03  0.17300000000E+03 0. -1.
         -6    1    1    2    0  502  0.10505650614E+03  0.12465823453E+03  0.74952470861E+03  0.78631598848E+03  0.17300000000E+03 0. -1.
<mgrwt>
<rscale>  2 0.23770895E+03</rscale>
<asrwt>0</asrwt>
<pdfrwt beam="1">  1       21 0.14401838E+00 0.23770895E+03</pdfrwt>
<pdfrwt beam="2">  1       21 0.15751032E-01 0.23770895E+03</pdfrwt>
<totfact> 0.11570928E+04</totfact>
</mgrwt>
</event>
<event>
 4    1  0.4056666E+000  0.1876661E+03  0.7546771E-02  0.1160583E+00
         21   -1    0    0  501  502  0.00000000000E+00  0.00000000000E+00  0.23134515221E+03  0.23134515221E+03  0.00000000000E+00 0.  1.
         21   -1    0    0  502  503 -0.00000000000E+00 -0.00000000000E+00 -0.23111881677E+03  0.23111881677E+03  0.00000000000E+00 0. -1.
          6    1    1    2  501    0  0.10702250292E+02 -0.71937707316E+02  0.13520443435E+03  0.23129809978E+03  0.17300000000E+03 0.  1.
         -6    1    1    2    0  503 -0.10702250292E+02  0.71937707316E+02 -0.13497809892E+03  0.23116586920E+03  0.17300000000E+03 0. -1.
<mgrwt>
<rscale>  2 0.18766612E+03</rscale>
<asrwt>0</asrwt>
<pdfrwt beam="1">  1       21 0.35591562E-01 0.18766612E+03</pdfrwt>
<pdfrwt beam="2">  1       21 0.35556741E-01 0.18766612E+03</pdfrwt>
<totfact> 0.58179692E+04</totfact>
</mgrwt>
</event>
<event>
 4    1  0.4056666E+000  0.1759036E+03  0.7546771E-02  0.1171828E+00
         21   -1    0    0  503  502  0.00000000000E+00  0.00000000000E+00  0.21842832667E+04  0.21842832667E+04  0.00000000000E+00 0.  1.
         21   -1    0    0  501  503 -0.00000000000E+00 -0.00000000000E+00 -0.15613639561E+02  0.15613639561E+02  0.00000000000E+00 0. -1.
          6    1    1    2  501    0 -0.30175163893E+02 -0.10125630217E+02  0.74938173039E+03  0.76974998977E+03  0.17300000000E+03 0. -1.
         -6    1    1    2    0  502  0.30175163893E+02  0.10125630217E+02  0.14192878968E+04  0.14301469165E+04  0.17300000000E+03 0.  1.
<mgrwt>
<rscale>  2 0.17590358E+03</rscale>
<asrwt>0</asrwt>
<pdfrwt beam="1">  1       21 0.33604334E+00 0.17590358E+03</pdfrwt>
<pdfrwt beam="2">  1       21 0.24021001E-02 0.17590358E+03</pdfrwt>
<totfact> 0.19638675E+04</totfact>
</mgrwt>
</event>
<event>
 4    1  0.4056666E+000  0.1883652E+03  0.7546771E-02  0.1159944E+00
         21   -1    0    0  501  502  0.00000000000E+00  0.00000000000E+00  0.88294320281E+02  0.88294320281E+02  0.00000000000E+00 0. -1.
         21   -1    0    0  502  503 -0.00000000000E+00 -0.00000000000E+00 -0.40582370312E+03  0.40582370312E+03  0.00000000000E+00 0. -1.
          6    1    1    2  501    0  0.73608626541E+02 -0.11585452421E+02 -0.18319868124E+03  0.26276074558E+03  0.17300000000E+03 0.  1.
         -6    1    1    2    0  503 -0.73608626541E+02  0.11585452421E+02 -0.13433070160E+03  0.23135727782E+03  0.17300000000E+03 0.  1.
<mgrwt>
<rscale>  2 0.18836521E+03</rscale>
<asrwt>0</asrwt>
<pdfrwt beam="1">  1       21 0.13583742E-01 0.18836521E+03</pdfrwt>
<pdfrwt beam="2">  1       21 0.62434415E-01 0.18836521E+03</pdfrwt>
<totfact> 0.11186670E+05</totfact>
</mgrwt>
</event>
<event>
 4    1  0.4056666E+000  0.1764055E+03  0.7546771E-02  0.1171328E+00
         21   -1    0    0  503  502  0.00000000000E+00  0.00000000000E+00  0.22380592179E+04  0.22380592179E+04  0.00000000000E+00 0. -1.
         21   -1    0    0  501  503 -0.00000000000E+00 -0.00000000000E+00 -0.16319216189E+02  0.16319216189E+02  0.00000000000E+00 0. -1.
          6    1    1    2  501    0  0.24191364814E+02  0.24589942189E+02  0.67727073114E+03  0.69986750935E+03  0.17300000000E+03 0. -1.
         -6    1    1    2    0  502 -0.24191364814E+02 -0.24589942189E+02  0.15444692706E+04  0.15545109248E+04  0.17300000000E+03 0. -1.
<mgrwt>
<rscale>  2 0.17640546E+03</rscale>
<asrwt>0</asrwt>
<pdfrwt beam="1">  1       21 0.34431656E+00 0.17640546E+03</pdfrwt>
<pdfrwt beam="2">  1       21 0.25106504E-02 0.17640546E+03</pdfrwt>
<totfact> 0.16338147E+04</totfact>
</mgrwt>
</event>
<event>
 4    1  0.4056666E+000  0.2387326E+03  0.7546771E-02  0.1120640E+00
         21   -1    0    0  503  502  0.00000000000E+00  0.00000000000E+00  0.30070711788E+03  0.30070711788E+03  0.00000000000E+00 0. -1.
         21   -1    0    0  501  503 -0.00000000000E+00 -0.00000000000E+00 -0.19226743505E+03  0.19226743505E+03  0.00000000000E+00 0. -1.
          6    1    1    2  501    0  0.92582929949E+02 -0.13598768207E+03  0.24812669863E+02  0.24001857674E+03  0.17300000000E+03 0. -1.
         -6    1    1    2    0  502 -0.92582929949E+02  0.13598768207E+03  0.83627012962E+02  0.25295597619E+03  0.17300000000E+03 0. -1.
<mgrwt>
<rscale>  2 0.23873259E+03</rscale>
<asrwt>0</asrwt>
<pdfrwt beam="1">  1       21 0.46262634E-01 0.23873259E+03</pdfrwt>
<pdfrwt beam="2">  1       21 0.29579605E-01 0.23873259E+03</pdfrwt>
<totfact> 0.48002407E+04</totfact>
</mgrwt>
</event>
<event>
 4    1  0.4056666E+000  0.2555991E+03  0.7546771E-02  0.1109817E+00
         21   -1    0    0  503  502  0.00000000000E+00  0.00000000000E+00  0.16542520215E+03  0.16542520215E+03  0.00000000000E+00 0.  1.
         21   -1    0    0  501  503 -0.00000000000E+00 -0.00000000000E+00 -0.55660999828E+03  0.55660999828E+03  0.00000000000E+00 0.  1.
          6    1    1    2  501    0 -0.18566582389E+03 -0.30497383474E+02 -0.39016647166E+03  0.46643409413E+03  0.17300000000E+03 0.  1.
         -6    1    1    2    0  502  0.18566582389E+03  0.30497383474E+02 -0.10183244681E+01  0.25560110630E+03  0.17300000000E+03 0.  1.
<mgrwt>
<rscale>  2 0.25559908E+03</rscale>
<asrwt>0</asrwt>
<pdfrwt beam="1">  1       21 0.25450031E-01 0.25559908E+03</pdfrwt>
<pdfrwt beam="2">  1       21 0.85632306E-01 0.25559908E+03</pdfrwt>
<totfact> 0.16640468E+04</totfact>
</mgrwt>
</event>
<event>
 4    1  0.4056666E+000  0.1892101E+03  0.7546771E-02  0.1159176E+00
         21   -1    0    0  503  502  0.00000000000E+00  0.00000000000E+00  0.22311769360E+03  0.22311769360E+03  0.00000000000E+00 0.  1.
         21   -1    0    0  501  503 -0.00000000000E+00 -0.00000000000E+00 -0.25992650729E+03  0.25992650729E+03  0.00000000000E+00 0.  1.
          6    1    1    2  501    0  0.76102689175E+02 -0.89348578567E+01  0.13100569032E+03  0.23013678950E+03  0.17300000000E+03 0.  1.
         -6    1    1    2    0  502 -0.76102689175E+02  0.89348578567E+01 -0.16781450401E+03  0.25290741140E+03  0.17300000000E+03 0.  1.
<mgrwt>
<rscale>  2 0.18921007E+03</rscale>
<asrwt>0</asrwt>
<pdfrwt beam="1">  1       21 0.34325799E-01 0.18921007E+03</pdfrwt>
<pdfrwt beam="2">  1       21 0.39988693E-01 0.18921007E+03</pdfrwt>
<totfact> 0.49373635E+04</totfact>
</mgrwt>
</event>
<event>
 4    1  0.4056666E+000  0.3966277E+03  0.7546771E-02  0.1044954E+00
         21   -1    0    0  501  502  0.00000000000E+00  0.00000000000E+00  0.40159001254E+03  0.40159001254E+03  0.00000000000E+00 0.  1.
         21   -1    0    0  502  503 -0.00000000000E+00 -0.00000000000E+00 -0.39172744690E+03  0.39172744690E+03  0.00000000000E+00 0. -1.
          6    1    1    2  501    0  0.35454835904E+03  0.40987304494E+02  0.55077654710E+01  0.39666589658E+03  0.17300000000E+03 0. -1.
         -6    1    1    2    0  503 -0.35454835904E+03 -0.40987304494E+02  0.43548001643E+01  0.39665156285E+03  0.17300000000E+03 0. -1.
<mgrwt>
<rscale>  2 0.39662766E+03</rscale>
<asrwt>0</asrwt>
<pdfrwt beam="1">  1       21 0.61783079E-01 0.39662766E+03</pdfrwt>
<pdfrwt beam="2">  1       21 0.60265761E-01 0.39662766E+03</pdfrwt>
<totfact> 0.56091122E+03</totfact>
</mgrwt>
</event>
<event>
 4    1  0.4056666E+000  0.3991133E+03  0.7546771E-02  0.1044087E+00
         21   -1    0    0  503  502  0.00000000000E+00  0.00000000000E+00  0.39033992990E+03  0.39033992990E+03  0.00000000000E+00 0. -1.
         21   -1    0    0  501  503 -0.00000000000E+00 -0.00000000000E+00 -0.40954767846E+03  0.40954767846E+03  0.00000000000E+00 0.  1.
          6    1    1    2  501    0 -0.29792760368E+03  0.20149826885E+03 -0.33514800416E+02  0.40051797867E+03  0.17300000000E+03 0. -1.
         -6    1    1    2    0  502  0.29792760368E+03 -0.20149826885E+03  0.14307051858E+02  0.39936962969E+03  0.17300000000E+03 0.  1.
<mgrwt>
<rscale>  2 0.39911328E+03</rscale>
<asrwt>0</asrwt>
<pdfrwt beam="1">  1       21 0.60052297E-01 0.39911328E+03</pdfrwt>
<pdfrwt beam="2">  1       21 0.63007335E-01 0.39911328E+03</pdfrwt>
<totfact> 0.54089496E+03</totfact>
</mgrwt>
</event>
<event>
 4    1  0.4056666E+000  0.2224891E+03  0.7546771E-02  0.1132041E+00
         21   -1    0    0  503  502  0.00000000000E+00  0.00000000000E+00  0.69535626713E+03  0.69535626713E+03  0.00000000000E+00 0. -1.
         21   -1    0    0  501  503 -0.00000000000E+00 -0.00000000000E+00 -0.11857958914E+03  0.11857958914E+03  0.00000000000E+00 0. -1.
          6    1    1    2  501    0  0.43392846690E+02 -0.13300166514E+03  0.31109849448E+02  0.22465352169E+03  0.17300000000E+03 0. -1.
         -6    1    1    2    0  502 -0.43392846690E+02  0.13300166514E+03  0.54566682854E+03  0.58928233457E+03  0.17300000000E+03 0. -1.
<mgrwt>
<rscale>  2 0.22248906E+03</rscale>
<asrwt>0</asrwt>
<pdfrwt beam="1">  1       21 0.10697789E+00 0.22248906E+03</pdfrwt>
<pdfrwt beam="2">  1       21 0.18243014E-01 0.22248906E+03</pdfrwt>
<totfact> 0.18785599E+04</totfact>
</mgrwt>
</event>
<event>
 4    1  0.4056666E+000  0.1818714E+03  0.7546771E-02  0.1166004E+00
         21   -1    0    0  501  502  0.00000000000E+00  0.00000000000E+00  0.27249475195E+02  0.27249475195E+02  0.00000000000E+00 0.  1.
         21   -1    0    0  502  503 -0.00000000000E+00 -0.00000000000E+00 -0.12396102115E+04  0.12396102115E+04  0.00000000000E+00 0. -1.
          6    1    1    2  501    0  0.10584981609E+02  0.55101346336E+02 -0.51489540827E+03  0.54607186492E+03  0.17300000000E+03 0.  1.
         -6    1    1    2    0  503 -0.10584981609E+02 -0.55101346336E+02 -0.69746532803E+03  0.72078782177E+03  0.17300000000E+03 0. -1.
<mgrwt>
<rscale>  2 0.18187138E+03</rscale>
<asrwt>0</asrwt>
<pdfrwt beam="1">  1       21 0.41922274E-02 0.18187138E+03</pdfrwt>
<pdfrwt beam="2">  1       21 0.19070925E+00 0.18187138E+03</pdfrwt>
<totfact> 0.56260228E+04</totfact>
</mgrwt>
</event>
<event>
 4    1  0.4056666E+000  0.3445602E+03  0.7546771E-02  0.1064870E+00
         21   -1    0    0  503  502  0.00000000000E+00  0.00000000000E+00  0.17001642406E+04  0.17001642406E+04  0.00000000000E+00 0.  1.
         21   -1    0    0  501  503 -0.00000000000E+00 -0.00000000000E+00 -0.79062808036E+02  0.79062808036E+02  0.00000000000E+00 0. -1.
          6    1    1    2  501    0  0.95084657732E+02 -0.28240326864E+03  0.50653724895E+03  0.61261870919E+03  0.17300000000E+03 0. -1.
         -6    1    1    2    0  502 -0.95084657732E+02  0.28240326864E+03  0.11145641836E+04  0.11666083394E+04  0.17300000000E+03 0.  1.
<mgrwt>
<rscale>  2 0.34456015E+03</rscale>
<asrwt>0</asrwt>
<pdfrwt beam="1">  1       21 0.26156370E+00 0.34456015E+03</pdfrwt>
<pdfrwt beam="2">  1       21 0.12163510E-01 0.34456015E+03</pdfrwt>
<totfact> 0.28727403E+03</totfact>
</mgrwt>
</event>
<event>
 4    1  0.4056666E+000  0.1842201E+03  0.7546771E-02  0.1163780E+00
         21   -1    0    0  501  502  0.00000000000E+00  0.00000000000E+00  0.49627851606E+03  0.49627851606E+03  0.00000000000E+00 0. -1.
         21   -1    0    0  502  503 -0.00000000000E+00 -0.00000000000E+00 -0.86288828551E+02  0.86288828551E+02  0.00000000000E+00 0. -1.
          6    1    1    2  501    0 -0.41152120210E+02  0.48109650847E+02  0.33768403113E+03  0.38466549154E+03  0.17300000000E+03 0. -1.
         -6    1    1    2    0  503  0.41152120210E+02 -0.48109650847E+02  0.72305656372E+02  0.19790185306E+03  0.17300000000E+03 0. -1.
<mgrwt>
<rscale>  2 0.18422007E+03</rscale>
<asrwt>0</asrwt>
<pdfrwt beam="1">  1       21 0.76350539E-01 0.18422007E+03</pdfrwt>
<pdfrwt beam="2">  1       21 0.13275205E-01 0.18422007E+03</pdfrwt>
<totfact> 0.75047672E+04</totfact>
</mgrwt>
</event>
<event>
 4    1  0.4056666E+000  0.1828481E+03  0.7546771E-02  0.1165075E+00
         21   -1    0    0  503  502  0.00000000000E+00  0.00000000000E+00  0.17994945878E+04  0.17994945878E+04  0.00000000000E+00 0.  1.
         21   -1    0    0  501  503 -0.00000000000E+00 -0.00000000000E+00 -0.29814526361E+02  0.29814526361E+02  0.00000000000E+00 0. -1.
          6    1    1    2  501    0 -0.22697886478E+02  0.54673885451E+02  0.32336141459E+03  0.37147817196E+03  0.17300000000E+03 0. -1.
         -6    1    1    2    0  502  0.22697886478E+02 -0.54673885451E+02  0.14463186469E+04  0.14578309422E+04  0.17300000000E+03 0.  1.
<mgrwt>
<rscale>  2 0.18284810E+03</rscale>
<asrwt>0</asrwt>
<pdfrwt beam="1">  1       21 0.27684524E+00 0.18284810E+03</pdfrwt>
<pdfrwt beam="2">  1       21 0.45868516E-02 0.18284810E+03</pdfrwt>
<totfact> 0.14585755E+04</totfact>
</mgrwt>
</event>
<event>
 4    1  0.4056666E+000  0.1791427E+03  0.7546771E-02  0.1168635E+00
         21   -1    0    0  501  502  0.00000000000E+00  0.00000000000E+00  0.21517070891E+03  0.21517070891E+03  0.00000000000E+00 0.  1.
         21   -1    0    0  502  503 -0.00000000000E+00 -0.00000000000E+00 -0.38982349292E+03  0.38982349292E+03  0.00000000000E+00 0.  1.
          6    1    1    2  501    0  0.34445971212E+02 -0.31250392059E+02  0.15035974699E+03  0.23388066498E+03  0.17300000000E+03 0.  1.
         -6    1    1    2    0  503 -0.34445971212E+02  0.31250392059E+02 -0.32501253100E+03  0.37111353686E+03  0.17300000000E+03 0.  1.
<mgrwt>
<rscale>  2 0.17914271E+03</rscale>
<asrwt>0</asrwt>
<pdfrwt beam="1">  1       21 0.33103187E-01 0.17914271E+03</pdfrwt>
<pdfrwt beam="2">  1       21 0.59972844E-01 0.17914271E+03</pdfrwt>
<totfact> 0.22968636E+04</totfact>
</mgrwt>
</event>
<event>
 4    1  0.4056666E+000  0.1746864E+03  0.7546771E-02  0.1173047E+00
         21   -1    0    0  501  502  0.00000000000E+00  0.00000000000E+00  0.28041335435E+03  0.28041335435E+03  0.00000000000E+00 0.  1.
         21   -1    0    0  502  503 -0.00000000000E+00 -0.00000000000E+00 -0.14691503616E+03  0.14691503616E+03  0.00000000000E+00 0.  1.
          6    1    1    2  501    0  0.20593635379E+02  0.12737610825E+02  0.17554625579E+03  0.24765264478E+03  0.17300000000E+03 0.  1.
         -6    1    1    2    0  503 -0.20593635379E+02 -0.12737610825E+02 -0.42047937593E+02  0.17967574573E+03  0.17300000000E+03 0.  1.
<mgrwt>
<rscale>  2 0.17468642E+03</rscale>
<asrwt>0</asrwt>
<pdfrwt beam="1">  1       21 0.43140516E-01 0.17468642E+03</pdfrwt>
<pdfrwt beam="2">  1       21 0.22602313E-01 0.17468642E+03</pdfrwt>
<totfact> 0.95431396E+04</totfact>
</mgrwt>
</event>
<event>
 4    1  0.4056666E+000  0.2134412E+03  0.7546771E-02  0.1138870E+00
         21   -1    0    0  503  502  0.00000000000E+00  0.00000000000E+00  0.39487763071E+03  0.39487763071E+03  0.00000000000E+00 0.  1.
         21   -1    0    0  501  503 -0.00000000000E+00 -0.00000000000E+00 -0.25090913106E+03  0.25090913106E+03  0.00000000000E+00 0. -1.
          6    1    1    2  501    0  0.10413287904E+03  0.69170004844E+02 -0.16533490659E+03  0.26998662449E+03  0.17300000000E+03 0. -1.
         -6    1    1    2    0  502 -0.10413287904E+03 -0.69170004844E+02  0.30930340625E+03  0.37580013728E+03  0.17300000000E+03 0.  1.
<mgrwt>
<rscale>  2 0.21344120E+03</rscale>
<asrwt>0</asrwt>
<pdfrwt beam="1">  1       21 0.60750405E-01 0.21344120E+03</pdfrwt>
<pdfrwt beam="2">  1       21 0.38601405E-01 0.21344120E+03</pdfrwt>
<totfact> 0.16118197E+04</totfact>
</mgrwt>
</event>
<event>
 4    1  0.4056666E+000  0.1771537E+03  0.7546771E-02  0.1170586E+00
         21   -1    0    0  501  502  0.00000000000E+00  0.00000000000E+00  0.17384983091E+04  0.17384983091E+04  0.00000000000E+00 0.  1.
         21   -1    0    0  502  503 -0.00000000000E+00 -0.00000000000E+00 -0.27876169736E+02  0.27876169736E+02  0.00000000000E+00 0.  1.
          6    1    1    2  501    0 -0.20291607278E+02  0.32290769190E+02  0.13796151693E+04  0.13909426510E+04  0.17300000000E+03 0.  1.
         -6    1    1    2    0  503  0.20291607278E+02 -0.32290769190E+02  0.33100697012E+03  0.37543182785E+03  0.17300000000E+03 0.  1.
<mgrwt>
<rscale>  2 0.17715373E+03</rscale>
<asrwt>0</asrwt>
<pdfrwt beam="1">  1       21 0.26746119E+00 0.17715373E+03</pdfrwt>
<pdfrwt beam="2">  1       21 0.42886429E-02 0.17715373E+03</pdfrwt>
<totfact> 0.18604450E+04</totfact>
</mgrwt>
</event>
<event>
 4    1  0.4056666E+000  0.2905682E+03  0.7546771E-02  0.1090053E+00
         21   -1    0    0  503  502  0.00000000000E+00  0.00000000000E+00  0.33702190033E+03  0.33702190033E+03  0.00000000000E+00 0. -1.
         21   -1    0    0  501  503 -0.00000000000E+00 -0.00000000000E+00 -0.46399146280E+03  0.46399146280E+03  0.00000000000E+00 0.  1.
          6    1    1    2  501    0 -0.15063198498E+03 -0.17835612163E+03 -0.33514570631E+03  0.44356797165E+03  0.17300000000E+03 0.  1.
         -6    1    1    2    0  502  0.15063198498E+03  0.17835612163E+03  0.20817614384E+03  0.35744539147E+03  0.17300000000E+03 0. -1.
<mgrwt>
<rscale>  2 0.29056824E+03</rscale>
<asrwt>0</asrwt>
<pdfrwt beam="1">  1       21 0.51849523E-01 0.29056824E+03</pdfrwt>
<pdfrwt beam="2">  1       21 0.71383302E-01 0.29056824E+03</pdfrwt>
<totfact> 0.58931904E+03</totfact>
</mgrwt>
</event>
<event>
 4    1  0.4056666E+000  0.2177424E+03  0.7546771E-02  0.1135577E+00
         21   -1    0    0  501  502  0.00000000000E+00  0.00000000000E+00  0.23167172839E+03  0.23167172839E+03  0.00000000000E+00 0. -1.
         21   -1    0    0  502  503 -0.00000000000E+00 -0.00000000000E+00 -0.21834216038E+03  0.21834216038E+03  0.00000000000E+00 0. -1.
          6    1    1    2  501    0  0.11250903595E+03  0.69458387530E+02  0.63009617965E+02  0.22667589798E+03  0.17300000000E+03 0. -1.
         -6    1    1    2    0  503 -0.11250903595E+03 -0.69458387530E+02 -0.49680049949E+02  0.22333799079E+03  0.17300000000E+03 0. -1.
<mgrwt>
<rscale>  2 0.21774240E+03</rscale>
<asrwt>0</asrwt>
<pdfrwt beam="1">  1       21 0.35641804E-01 0.21774240E+03</pdfrwt>
<pdfrwt beam="2">  1       21 0.33591102E-01 0.21774240E+03</pdfrwt>
<totfact> 0.64072514E+04</totfact>
</mgrwt>
</event>
<event>
 4    1  0.4056666E+000  0.2062472E+03  0.7546771E-02  0.1144573E+00
         21   -1    0    0  503  502  0.00000000000E+00  0.00000000000E+00  0.34042871272E+04  0.34042871272E+04  0.00000000000E+00 0. -1.
         21   -1    0    0  501  503 -0.00000000000E+00 -0.00000000000E+00 -0.49684084503E+02  0.49684084503E+02  0.00000000000E+00 0. -1.
          6    1    1    2  501    0 -0.30010819005E+02  0.10820469641E+03  0.18318137824E+03  0.27585018201E+03  0.17300000000E+03 0. -1.
         -6    1    1    2    0  502  0.30010819005E+02 -0.10820469641E+03  0.31714216644E+04  0.31781210297E+04  0.17300000000E+03 0. -1.
<mgrwt>
<rscale>  2 0.20624720E+03</rscale>
<asrwt>0</asrwt>
<pdfrwt beam="1">  1       21 0.52373630E+00 0.20624720E+03</pdfrwt>
<pdfrwt beam="2">  1       21 0.76437080E-02 0.20624720E+03</pdfrwt>
<totfact> 0.16254868E+02</totfact>
</mgrwt>
</event>
<event>
 4    1  0.4056666E+000  0.2051967E+03  0.7546771E-02  0.1145427E+00
         21   -1    0    0  501  502  0.00000000000E+00  0.00000000000E+00  0.64889569290E+03  0.64889569290E+03  0.00000000000E+00 0. -1.
         21   -1    0    0  502  503 -0.00000000000E+00 -0.00000000000E+00 -0.14032647209E+03  0.14032647209E+03  0.00000000000E+00 0. -1.
          6    1    1    2  501    0 -0.10545219459E+03 -0.32504002474E+02  0.54361585276E+03  0.58105410324E+03  0.17300000000E+03 0. -1.
         -6    1    1    2    0  503  0.10545219459E+03  0.32504002474E+02 -0.35046631958E+02  0.20816806175E+03  0.17300000000E+03 0. -1.
<mgrwt>
<rscale>  2 0.20519668E+03</rscale>
<asrwt>0</asrwt>
<pdfrwt beam="1">  1       21 0.99830105E-01 0.20519668E+03</pdfrwt>
<pdfrwt beam="2">  1       21 0.21588688E-01 0.20519668E+03</pdfrwt>
<totfact> 0.16354370E+04</totfact>
</mgrwt>
</event>
<event>
 4    1  0.4056666E+000  0.3576282E+03  0.7546771E-02  0.1059527E+00
         21   -1    0    0  501  502  0.00000000000E+00  0.00000000000E+00  0.12280185765E+04  0.12280185765E+04  0.00000000000E+00 0.  1.
         21   -1    0    0  502  503 -0.00000000000E+00 -0.00000000000E+00 -0.22441295896E+03  0.22441295896E+03  0.00000000000E+00 0. -1.
          6    1    1    2  501    0  0.11847000081E+02  0.31277562024E+03  0.10334309195E+04  0.10935617977E+04  0.17300000000E+03 0.  1.
         -6    1    1    2    0  503 -0.11847000081E+02 -0.31277562024E+03 -0.29825301964E+02  0.35886973774E+03  0.17300000000E+03 0. -1.
<mgrwt>
<rscale>  2 0.35762821E+03</rscale>
<asrwt>0</asrwt>
<pdfrwt beam="1">  1       21 0.18892593E+00 0.35762821E+03</pdfrwt>
<pdfrwt beam="2">  1       21 0.34525071E-01 0.35762821E+03</pdfrwt>
<totfact> 0.11258909E+03</totfact>
</mgrwt>
</event>
<event>
 4    1  0.4056666E+000  0.2303042E+03  0.7546771E-02  0.1126426E+00
         21   -1    0    0  501  502  0.00000000000E+00  0.00000000000E+00  0.59641760891E+03  0.59641760891E+03  0.00000000000E+00 0. -1.
         21   -1    0    0  502  503 -0.00000000000E+00 -0.00000000000E+00 -0.13903712160E+03  0.13903712160E+03  0.00000000000E+00 0. -1.
          6    1    1    2  501    0 -0.15185701953E+03 -0.71035105430E+01  0.79375757447E+01  0.23044092378E+03  0.17300000000E+03 0. -1.
         -6    1    1    2    0  503  0.15185701953E+03  0.71035105430E+01  0.44944291156E+03  0.50501380674E+03  0.17300000000E+03 0. -1.
<mgrwt>
<rscale>  2 0.23030418E+03</rscale>
<asrwt>0</asrwt>
<pdfrwt beam="1">  1       21 0.91756553E-01 0.23030418E+03</pdfrwt>
<pdfrwt beam="2">  1       21 0.21390327E-01 0.23030418E+03</pdfrwt>
<totfact> 0.19999089E+04</totfact>
</mgrwt>
</event>
<event>
 4    1  0.4056666E+000  0.2318834E+03  0.7546771E-02  0.1125321E+00
         21   -1    0    0  503  502  0.00000000000E+00  0.00000000000E+00  0.16028296508E+03  0.16028296508E+03  0.00000000000E+00 0.  1.
         21   -1    0    0  501  503 -0.00000000000E+00 -0.00000000000E+00 -0.38410399246E+03  0.38410399246E+03  0.00000000000E+00 0.  1.
          6    1    1    2  501    0  0.72461015799E+02 -0.13634631066E+03 -0.20876709729E+03  0.31201541012E+03  0.17300000000E+03 0.  1.
         -6    1    1    2    0  502 -0.72461015799E+02  0.13634631066E+03 -0.15053930090E+02  0.23237154742E+03  0.17300000000E+03 0.  1.
<mgrwt>
<rscale>  2 0.23188341E+03</rscale>
<asrwt>0</asrwt>
<pdfrwt beam="1">  1       21 0.24658918E-01 0.23188341E+03</pdfrwt>
<pdfrwt beam="2">  1       21 0.59092921E-01 0.23188341E+03</pdfrwt>
<totfact> 0.40839362E+04</totfact>
</mgrwt>
</event>
<event>
 4    1  0.4056666E+000  0.2204146E+03  0.7546771E-02  0.1133574E+00
         21   -1    0    0  503  502  0.00000000000E+00  0.00000000000E+00  0.37907285310E+03  0.37907285310E+03  0.00000000000E+00 0. -1.
         21   -1    0    0  501  503 -0.00000000000E+00 -0.00000000000E+00 -0.24691874373E+03  0.24691874373E+03  0.00000000000E+00 0.  1.
          6    1    1    2  501    0  0.21020509474E+02 -0.13495092179E+03 -0.15098864713E+03  0.26717070325E+03  0.17300000000E+03 0.  1.
         -6    1    1    2    0  502 -0.21020509474E+02  0.13495092179E+03  0.28314275650E+03  0.35882089358E+03  0.17300000000E+03 0. -1.
<mgrwt>
<rscale>  2 0.22041464E+03</rscale>
<asrwt>0</asrwt>
<pdfrwt beam="1">  1       21 0.58318900E-01 0.22041464E+03</pdfrwt>
<pdfrwt beam="2">  1       21 0.37987499E-01 0.22041464E+03</pdfrwt>
<totfact> 0.18102693E+04</totfact>
</mgrwt>
</event>
<event>
 4    1  0.4056666E+000  0.1794933E+03  0.7546771E-02  0.1168294E+00
         21   -1    0    0  503  502  0.00000000000E+00  0.00000000000E+00  0.20503134290E+04  0.20503134290E+04  0.00000000000E+00 0. -1.
         21   -1    0    0  501  503 -0.00000000000E+00 -0.00000000000E+00 -0.55923501299E+02  0.55923501299E+02  0.00000000000E+00 0. -1.
          6    1    1    2  501    0  0.27633951531E+02  0.39053840005E+02  0.10420522564E+03  0.20754895024E+03  0.17300000000E+03 0. -1.
         -6    1    1    2    0  502 -0.27633951531E+02 -0.39053840005E+02  0.18901847021E+04  0.18986879801E+04  0.17300000000E+03 0. -1.
<mgrwt>
<rscale>  2 0.17949328E+03</rscale>
<asrwt>0</asrwt>
<pdfrwt beam="1">  1       21 0.31543278E+00 0.17949328E+03</pdfrwt>
<pdfrwt beam="2">  1       21 0.86036172E-02 0.17949328E+03</pdfrwt>
<totfact> 0.29907234E+03</totfact>
</mgrwt>
</event>
<event>
 4    1  0.4056666E+000  0.3665045E+03  0.7546771E-02  0.1056038E+00
         21   -1    0    0  503  502  0.00000000000E+00  0.00000000000E+00  0.15852830361E+03  0.15852830361E+03  0.00000000000E+00 0.  1.
         21   -1    0    0  501  503 -0.00000000000E+00 -0.00000000000E+00 -0.86170098329E+03  0.86170098329E+03  0.00000000000E+00 0. -1.
          6    1    1    2  501    0  0.20001407457E+03  0.25375363275E+03 -0.41746681050E+03  0.55552144335E+03  0.17300000000E+03 0. -1.
         -6    1    1    2    0  502 -0.20001407457E+03 -0.25375363275E+03 -0.28570586919E+03  0.46470784354E+03  0.17300000000E+03 0.  1.
<mgrwt>
<rscale>  2 0.36650448E+03</rscale>
<asrwt>0</asrwt>
<pdfrwt beam="1">  1       21 0.24388969E-01 0.36650448E+03</pdfrwt>
<pdfrwt beam="2">  1       21 0.13256938E+00 0.36650448E+03</pdfrwt>
<totfact> 0.59078973E+03</totfact>
</mgrwt>
</event>
<event>
 4    1  0.4056666E+000  0.2036002E+03  0.7546771E-02  0.1146737E+00
         21   -1    0    0  503  502  0.00000000000E+00  0.00000000000E+00  0.12324694230E+04  0.12324694230E+04  0.00000000000E+00 0. -1.
         21   -1    0    0  501  503 -0.00000000000E+00 -0.00000000000E+00 -0.46955781693E+02  0.46955781693E+02  0.00000000000E+00 0. -1.
          6    1    1    2  501    0 -0.60282670618E+02  0.88825939895E+02  0.25201984970E+03  0.32398619202E+03  0.17300000000E+03 0. -1.
         -6    1    1    2    0  502  0.60282670618E+02 -0.88825939895E+02  0.93349379162E+03  0.95543901269E+03  0.17300000000E+03 0. -1.
<mgrwt>
<rscale>  2 0.20360022E+03</rscale>
<asrwt>0</asrwt>
<pdfrwt beam="1">  1       21 0.18961066E+00 0.20360022E+03</pdfrwt>
<pdfrwt beam="2">  1       21 0.72239673E-02 0.20360022E+03</pdfrwt>
<totfact> 0.22297723E+04</totfact>
</mgrwt>
</event>
<event>
 4    1  0.4056666E+000  0.1758693E+03  0.7546771E-02  0.1171862E+00
         21   -1    0    0  503  502  0.00000000000E+00  0.00000000000E+00  0.92735767962E+03  0.92735767962E+03  0.00000000000E+00 0.  1.
         21   -1    0    0  501  503 -0.00000000000E+00 -0.00000000000E+00 -0.97164991138E+02  0.97164991138E+02  0.00000000000E+00 0.  1.
          6    1    1    2  501    0 -0.31365162527E+02 -0.41522738001E+01 -0.37702543236E-01  0.17586931574E+03  0.17300000000E+03 0.  1.
         -6    1    1    2    0  502  0.31365162527E+02  0.41522738001E+01  0.83023039103E+03  0.84865335502E+03  0.17300000000E+03 0.  1.
<mgrwt>
<rscale>  2 0.17586931E+03</rscale>
<asrwt>0</asrwt>
<pdfrwt beam="1">  1       21 0.14267041E+00 0.17586931E+03</pdfrwt>
<pdfrwt beam="2">  1       21 0.14948461E-01 0.17586931E+03</pdfrwt>
<totfact> 0.13614738E+04</totfact>
</mgrwt>
</event>
<event>
 4    1  0.4056666E+000  0.2294772E+03  0.7546771E-02  0.1127008E+00
         21   -1    0    0  501  502  0.00000000000E+00  0.00000000000E+00  0.18343325138E+03  0.18343325138E+03  0.00000000000E+00 0.  1.
         21   -1    0    0  502  503 -0.00000000000E+00 -0.00000000000E+00 -0.29316031587E+03  0.29316031587E+03  0.00000000000E+00 0. -1.
          6    1    1    2  501    0  0.14607725541E+03 -0.37312708978E+02 -0.20541695820E+02  0.23039480043E+03  0.17300000000E+03 0.  1.
         -6    1    1    2    0  503 -0.14607725541E+03  0.37312708978E+02 -0.89185368664E+02  0.24619876682E+03  0.17300000000E+03 0. -1.
<mgrwt>
<rscale>  2 0.22947724E+03</rscale>
<asrwt>0</asrwt>
<pdfrwt beam="1">  1       21 0.28220500E-01 0.22947724E+03</pdfrwt>
<pdfrwt beam="2">  1       21 0.45101587E-01 0.22947724E+03</pdfrwt>
<totfact> 0.55666810E+04</totfact>
</mgrwt>
</event>
<event>
 4    1  0.4056666E+000  0.2244609E+03  0.7546771E-02  0.1130600E+00
         21   -1    0    0  501  502  0.00000000000E+00  0.00000000000E+00  0.48302364901E+03  0.48302364901E+03  0.00000000000E+00 0. -1.
         21   -1    0    0  502  503 -0.00000000000E+00 -0.00000000000E+00 -0.13473966187E+03  0.13473966187E+03  0.00000000000E+00 0. -1.
          6    1    1    2  501    0 -0.12903420488E+03  0.61675630118E+02  0.27345755236E+02  0.22612054243E+03  0.17300000000E+03 0. -1.
         -6    1    1    2    0  503  0.12903420488E+03 -0.61675630118E+02  0.32093823190E+03  0.39164276844E+03  0.17300000000E+03 0. -1.
<mgrwt>
<rscale>  2 0.22446093E+03</rscale>
<asrwt>0</asrwt>
<pdfrwt beam="1">  1       21 0.74311330E-01 0.22446093E+03</pdfrwt>
<pdfrwt beam="2">  1       21 0.20729179E-01 0.22446093E+03</pdfrwt>
<totfact> 0.34460451E+04</totfact>
</mgrwt>
</event>
<event>
 4    1  0.4056666E+000  0.2740318E+03  0.7546771E-02  0.1098994E+00
         21   -1    0    0  503  502  0.00000000000E+00  0.00000000000E+00  0.97590404179E+02  0.97590404179E+02  0.00000000000E+00 0. -1.
         21   -1    0    0  501  503 -0.00000000000E+00 -0.00000000000E+00 -0.80319244133E+03  0.80319244133E+03  0.00000000000E+00 0.  1.
          6    1    1    2  501    0  0.66788671533E+02  0.20175160034E+03 -0.44508020162E+03  0.52267563628E+03  0.17300000000E+03 0.  1.
         -6    1    1    2    0  502 -0.66788671533E+02 -0.20175160034E+03 -0.26052183553E+03  0.37810720923E+03  0.17300000000E+03 0. -1.
<mgrwt>
<rscale>  2 0.27403181E+03</rscale>
<asrwt>0</asrwt>
<pdfrwt beam="1">  1       21 0.15013909E-01 0.27403181E+03</pdfrwt>
<pdfrwt beam="2">  1       21 0.12356806E+00 0.27403181E+03</pdfrwt>
<totfact> 0.18366255E+04</totfact>
</mgrwt>
</event>
<event>
 4    1  0.4056666E+000  0.2148614E+03  0.7546771E-02  0.1137773E+00
         21   -1    0    0  503  502  0.00000000000E+00  0.00000000000E+00  0.24732261661E+03  0.24732261661E+03  0.00000000000E+00 0. -1.
         21   -1    0    0  501  503 -0.00000000000E+00 -0.00000000000E+00 -0.32983119240E+03  0.32983119240E+03  0.00000000000E+00 0. -1.
          6    1    1    2  501    0 -0.11598755441E+03  0.52757039896E+02 -0.23138069225E+03  0.31575693624E+03  0.17300000000E+03 0. -1.
         -6    1    1    2    0  502  0.11598755441E+03 -0.52757039896E+02  0.14887211646E+03  0.26139687277E+03  0.17300000000E+03 0. -1.
<mgrwt>
<rscale>  2 0.21486139E+03</rscale>
<asrwt>0</asrwt>
<pdfrwt beam="1">  1       21 0.38049633E-01 0.21486139E+03</pdfrwt>
<pdfrwt beam="2">  1       21 0.50743260E-01 0.21486139E+03</pdfrwt>
<totfact> 0.24304871E+04</totfact>
</mgrwt>
</event>
<event>
 4    1  0.4056666E+000  0.2324941E+03  0.7546771E-02  0.1124897E+00
         21   -1    0    0  503  502  0.00000000000E+00  0.00000000000E+00  0.77954261762E+02  0.77954261762E+02  0.00000000000E+00 0.  1.
         21   -1    0    0  501  503 -0.00000000000E+00 -0.00000000000E+00 -0.78877107798E+03  0.78877107798E+03  0.00000000000E+00 0.  1.
          6    1    1    2  501    0 -0.15002124945E+03  0.40225797398E+02 -0.50609833086E+03  0.55694614692E+03  0.17300000000E+03 0.  1.
         -6    1    1    2    0  502  0.15002124945E+03 -0.40225797398E+02 -0.20471848535E+03  0.30977919282E+03  0.17300000000E+03 0.  1.
<mgrwt>
<rscale>  2 0.23249406E+03</rscale>
<asrwt>0</asrwt>
<pdfrwt beam="1">  1       21 0.11992963E-01 0.23249406E+03</pdfrwt>
<pdfrwt beam="2">  1       21 0.12134940E+00 0.23249406E+03</pdfrwt>
<totfact> 0.29504688E+04</totfact>
</mgrwt>
</event>
<event>
 4    1  0.4056666E+000  0.2528371E+03  0.7546771E-02  0.1111525E+00
         21   -1    0    0  501  502  0.00000000000E+00  0.00000000000E+00  0.95583033823E+02  0.95583033823E+02  0.00000000000E+00 0.  1.
         21   -1    0    0  502  503 -0.00000000000E+00 -0.00000000000E+00 -0.10413761112E+04  0.10413761112E+04  0.00000000000E+00 0. -1.
          6    1    1    2  501    0  0.14801218281E+03  0.10995448370E+03 -0.13286866015E+03  0.28562331066E+03  0.17300000000E+03 0.  1.
         -6    1    1    2    0  503 -0.14801218281E+03 -0.10995448370E+03 -0.81292441726E+03  0.85133583440E+03  0.17300000000E+03 0. -1.
<mgrwt>
<rscale>  2 0.25283709E+03</rscale>
<asrwt>0</asrwt>
<pdfrwt beam="1">  1       21 0.14705082E-01 0.25283709E+03</pdfrwt>
<pdfrwt beam="2">  1       21 0.16021171E+00 0.25283709E+03</pdfrwt>
<totfact> 0.97829083E+03</totfact>
</mgrwt>
</event>
<event>
 4    1  0.4056666E+000  0.1762865E+03  0.7546771E-02  0.1171446E+00
         21   -1    0    0  501  502  0.00000000000E+00  0.00000000000E+00  0.16572850966E+04  0.16572850966E+04  0.00000000000E+00 0.  1.
         21   -1    0    0  502  503 -0.00000000000E+00 -0.00000000000E+00 -0.83047781800E+02  0.83047781800E+02  0.00000000000E+00 0.  1.
          6    1    1    2  501    0  0.31315357228E+02 -0.12933590546E+02  0.15527690884E+04  0.15627439877E+04  0.17300000000E+03 0.  1.
         -6    1    1    2    0  503 -0.31315357228E+02  0.12933590546E+02  0.21468226483E+02  0.17758889073E+03  0.17300000000E+03 0.  1.
<mgrwt>
<rscale>  2 0.17628650E+03</rscale>
<asrwt>0</asrwt>
<pdfrwt beam="1">  1       21 0.25496691E+00 0.17628650E+03</pdfrwt>
<pdfrwt beam="2">  1       21 0.12776583E-01 0.17628650E+03</pdfrwt>
<totfact> 0.33222274E+03</totfact>
</mgrwt>
</event>
<event>
 4    1  0.4056666E+000  0.2557442E+03  0.7546771E-02  0.1109728E+00
         21   -1    0    0  501  502  0.00000000000E+00  0.00000000000E+00  0.25756542583E+03  0.25756542583E+03  0.00000000000E+00 0. -1.
         21   -1    0    0  502  503 -0.00000000000E+00 -0.00000000000E+00 -0.61682504986E+03  0.61682504986E+03  0.00000000000E+00 0.  1.
          6    1    1    2  501    0 -0.28849931116E+02  0.18612834100E+03  0.15570719491E+03  0.29941577847E+03  0.17300000000E+03 0. -1.
         -6    1    1    2    0  503  0.28849931116E+02 -0.18612834100E+03 -0.51496681894E+03  0.57497469723E+03  0.17300000000E+03 0.  1.
<mgrwt>
<rscale>  2 0.25574416E+03</rscale>
<asrwt>0</asrwt>
<pdfrwt beam="1">  1       21 0.39625450E-01 0.25574416E+03</pdfrwt>
<pdfrwt beam="2">  1       21 0.94896161E-01 0.25574416E+03</pdfrwt>
<totfact> 0.54579218E+03</totfact>
</mgrwt>
</event>
<event>
 4    1  0.4056666E+000  0.1992288E+03  0.7546771E-02  0.1150391E+00
         21   -1    0    0  501  502  0.00000000000E+00  0.00000000000E+00  0.74200433052E+03  0.74200433052E+03  0.00000000000E+00 0. -1.
         21   -1    0    0  502  503 -0.00000000000E+00 -0.00000000000E+00 -0.11425530971E+03  0.11425530971E+03  0.00000000000E+00 0. -1.
          6    1    1    2  501    0  0.93637498142E+02  0.31545565368E+02  0.62608975245E+03  0.65702395837E+03  0.17300000000E+03 0. -1.
         -6    1    1    2    0  503 -0.93637498142E+02 -0.31545565368E+02  0.16592683565E+01  0.19923568186E+03  0.17300000000E+03 0. -1.
<mgrwt>
<rscale>  2 0.19922877E+03</rscale>
<asrwt>0</asrwt>
<pdfrwt beam="1">  1       21 0.11415451E+00 0.19922877E+03</pdfrwt>
<pdfrwt beam="2">  1       21 0.17577740E-01 0.19922877E+03</pdfrwt>
<totfact> 0.17434589E+04</totfact>
</mgrwt>
</event>
<event>
 4    1  0.4056666E+000  0.1786436E+03  0.7546771E-02  0.1169122E+00
         21   -1    0    0  503  502  0.00000000000E+00  0.00000000000E+00  0.52378954068E+02  0.52378954068E+02  0.00000000000E+00 0.  1.
         21   -1    0    0  501  503 -0.00000000000E+00 -0.00000000000E+00 -0.16209978533E+04  0.16209978533E+04  0.00000000000E+00 0.  1.
          6    1    1    2  501    0 -0.15805634145E+02 -0.41649806176E+02 -0.14453101633E+04  0.14563086872E+04  0.17300000000E+03 0.  1.
         -6    1    1    2    0  502  0.15805634145E+02  0.41649806176E+02 -0.12330873599E+03  0.21706812018E+03  0.17300000000E+03 0.  1.
<mgrwt>
<rscale>  2 0.17864357E+03</rscale>
<asrwt>0</asrwt>
<pdfrwt beam="1">  1       21 0.80583002E-02 0.17864357E+03</pdfrwt>
<pdfrwt beam="2">  1       21 0.24938430E+00 0.17864357E+03</pdfrwt>
<totfact> 0.80582410E+03</totfact>
</mgrwt>
</event>
<event>
 4    1  0.4056666E+000  0.1888933E+03  0.7546771E-02  0.1159463E+00
         21   -1    0    0  503  502  0.00000000000E+00  0.00000000000E+00  0.35423759291E+03  0.35423759291E+03  0.00000000000E+00 0. -1.
         21   -1    0    0  501  503 -0.00000000000E+00 -0.00000000000E+00 -0.10073082734E+03  0.10073082734E+03  0.00000000000E+00 0. -1.
          6    1    1    2  501    0 -0.70665313686E+02 -0.27533526642E+02  0.12844114459E+03  0.22842462492E+03  0.17300000000E+03 0.  1.
         -6    1    1    2    0  502  0.70665313686E+02  0.27533526642E+02  0.12506562099E+03  0.22654379533E+03  0.17300000000E+03 0.  1.
<mgrwt>
<rscale>  2 0.18889331E+03</rscale>
<asrwt>0</asrwt>
<pdfrwt beam="1">  1       21 0.54498091E-01 0.18889331E+03</pdfrwt>
<pdfrwt beam="2">  1       21 0.15497051E-01 0.18889331E+03</pdfrwt>
<totfact> 0.11771593E+05</totfact>
</mgrwt>
</event>
<event>
 4    1  0.4056666E+000  0.2204334E+03  0.7546771E-02  0.1133560E+00
         21   -1    0    0  503  502  0.00000000000E+00  0.00000000000E+00  0.22010330868E+03  0.22010330868E+03  0.00000000000E+00 0. -1.
         21   -1    0    0  501  503 -0.00000000000E+00 -0.00000000000E+00 -0.26354721266E+03  0.26354721266E+03  0.00000000000E+00 0. -1.
          6    1    1    2  501    0  0.13478036721E+03  0.22273811574E+02 -0.11915572810E+03  0.25057724878E+03  0.17300000000E+03 0. -1.
         -6    1    1    2    0  502 -0.13478036721E+03 -0.22273811574E+02  0.75711824121E+02  0.23307327256E+03  0.17300000000E+03 0. -1.
<mgrwt>
<rscale>  2 0.22043337E+03</rscale>
<asrwt>0</asrwt>
<pdfrwt beam="1">  1       21 0.33862047E-01 0.22043337E+03</pdfrwt>
<pdfrwt beam="2">  1       21 0.40545725E-01 0.22043337E+03</pdfrwt>
<totfact> 0.48593815E+04</totfact>
</mgrwt>
</event>
<event>
 4    1  0.4056666E+000  0.1905692E+03  0.7546771E-02  0.1157949E+00
         21   -1    0    0  501  502  0.00000000000E+00  0.00000000000E+00  0.89994151415E+02  0.89994151415E+02  0.00000000000E+00 0.  1.
         21   -1    0    0  502  503 -0.00000000000E+00 -0.00000000000E+00 -0.44388447561E+03  0.44388447561E+03  0.00000000000E+00 0. -1.
          6    1    1    2  501    0  0.20119841599E+02  0.77348544719E+02 -0.96472617217E+02  0.21359674920E+03  0.17300000000E+03 0.  1.
         -6    1    1    2    0  503 -0.20119841599E+02 -0.77348544719E+02 -0.25741770697E+03  0.32028187782E+03  0.17300000000E+03 0. -1.
<mgrwt>
<rscale>  2 0.19056916E+03</rscale>
<asrwt>0</asrwt>
<pdfrwt beam="1">  1       21 0.13845254E-01 0.19056916E+03</pdfrwt>
<pdfrwt beam="2">  1       21 0.68289920E-01 0.19056916E+03</pdfrwt>
<totfact> 0.88840263E+04</totfact>
</mgrwt>
</event>
<event>
 4    1  0.4056666E+000  0.1846073E+03  0.7546771E-02  0.1163417E+00
         21   -1    0    0  501  502  0.00000000000E+00  0.00000000000E+00  0.36793491070E+03  0.36793491070E+03  0.00000000000E+00 0. -1.
         21   -1    0    0  502  503 -0.00000000000E+00 -0.00000000000E+00 -0.10163054907E+03  0.10163054907E+03  0.00000000000E+00 0. -1.
          6    1    1    2  501    0 -0.39135472003E+02  0.51178659798E+02  0.20304260509E+03  0.27441964192E+03  0.17300000000E+03 0. -1.
         -6    1    1    2    0  503  0.39135472003E+02 -0.51178659798E+02  0.63261756542E+02  0.19514581786E+03  0.17300000000E+03 0. -1.
<mgrwt>
<rscale>  2 0.18460726E+03</rscale>
<asrwt>0</asrwt>
<pdfrwt beam="1">  1       21 0.56605370E-01 0.18460726E+03</pdfrwt>
<pdfrwt beam="2">  1       21 0.15635469E-01 0.18460726E+03</pdfrwt>
<totfact> 0.10704692E+05</totfact>
</mgrwt>
</event>
<event>
 4    1  0.4056666E+000  0.2039833E+03  0.7546771E-02  0.1146421E+00
         21   -1    0    0  503  502  0.00000000000E+00  0.00000000000E+00  0.59513993463E+03  0.59513993463E+03  0.00000000000E+00 0. -1.
         21   -1    0    0  501  503 -0.00000000000E+00 -0.00000000000E+00 -0.14053605290E+03  0.14053605290E+03  0.00000000000E+00 0.  1.
          6    1    1    2  501    0 -0.10531034770E+03  0.24288040479E+02 -0.33451447123E+02  0.20670795233E+03  0.17300000000E+03 0.  1.
         -6    1    1    2    0  502  0.10531034770E+03 -0.24288040479E+02  0.48805532885E+03  0.52896803520E+03  0.17300000000E+03 0. -1.
<mgrwt>
<rscale>  2 0.20398328E+03</rscale>
<asrwt>0</asrwt>
<pdfrwt beam="1">  1       21 0.91559989E-01 0.20398328E+03</pdfrwt>
<pdfrwt beam="2">  1       21 0.21620931E-01 0.20398328E+03</pdfrwt>
<totfact> 0.19995984E+04</totfact>
</mgrwt>
</event>
<event>
 4    1  0.4056666E+000  0.3254690E+03  0.7546771E-02  0.1073159E+00
         21   -1    0    0  503  502  0.00000000000E+00  0.00000000000E+00  0.21560683075E+03  0.21560683075E+03  0.00000000000E+00 0.  1.
         21   -1    0    0  501  503 -0.00000000000E+00 -0.00000000000E+00 -0.89160301144E+03  0.89160301144E+03  0.00000000000E+00 0. -1.
          6    1    1    2  501    0 -0.15550285936E+03  0.22763990024E+03  0.32940912117E+02  0.32713172751E+03  0.17300000000E+03 0.  1.
         -6    1    1    2    0  502  0.15550285936E+03 -0.22763990024E+03 -0.70893709280E+03  0.78007811468E+03  0.17300000000E+03 0. -1.
<mgrwt>
<rscale>  2 0.32546899E+03</rscale>
<asrwt>0</asrwt>
<pdfrwt beam="1">  1       21 0.33170282E-01 0.32546899E+03</pdfrwt>
<pdfrwt beam="2">  1       21 0.13716969E+00 0.32546899E+03</pdfrwt>
<totfact> 0.30135650E+03</totfact>
</mgrwt>
</event>
<event>
 4    1  0.4056666E+000  0.1751229E+03  0.7546771E-02  0.1172608E+00
         21   -1    0    0  503  502  0.00000000000E+00  0.00000000000E+00  0.37035266201E+02  0.37035266201E+02  0.00000000000E+00 0.  1.
         21   -1    0    0  501  503 -0.00000000000E+00 -0.00000000000E+00 -0.14023688713E+04  0.14023688713E+04  0.00000000000E+00 0.  1.
          6    1    1    2  501    0 -0.21226271465E+02 -0.16984957618E+02 -0.11432287400E+04  0.11565638743E+04  0.17300000000E+03 0.  1.
         -6    1    1    2    0  502  0.21226271465E+02  0.16984957618E+02 -0.22210486511E+03  0.28284026321E+03  0.17300000000E+03 0.  1.
<mgrwt>
<rscale>  2 0.17512294E+03</rscale>
<asrwt>0</asrwt>
<pdfrwt beam="1">  1       21 0.56977332E-02 0.17512294E+03</pdfrwt>
<pdfrwt beam="2">  1       21 0.21574906E+00 0.17512294E+03</pdfrwt>
<totfact> 0.23339527E+04</totfact>
</mgrwt>
</event>
<event>
 4    1  0.4056666E+000  0.1826987E+03  0.7546771E-02  0.1165217E+00
         21   -1    0    0  501  502  0.00000000000E+00  0.00000000000E+00  0.26171085818E+03  0.26171085818E+03  0.00000000000E+00 0.  1.
         21   -1    0    0  502  503 -0.00000000000E+00 -0.00000000000E+00 -0.17727446152E+03  0.17727446152E+03  0.00000000000E+00 0.  1.
          6    1    1    2  501    0  0.27266465886E+02 -0.52022535812E+02  0.15847604152E+03  0.24185421255E+03  0.17300000000E+03 0.  1.
         -6    1    1    2    0  503 -0.27266465886E+02  0.52022535812E+02 -0.74039644864E+02  0.19713110715E+03  0.17300000000E+03 0.  1.
<mgrwt>
<rscale>  2 0.18269867E+03</rscale>
<asrwt>0</asrwt>
<pdfrwt beam="1">  1       21 0.40263209E-01 0.18269867E+03</pdfrwt>
<pdfrwt beam="2">  1       21 0.27272994E-01 0.18269867E+03</pdfrwt>
<totfact> 0.76507194E+04</totfact>
</mgrwt>
</event>
<event>
 4    1  0.4056666E+000  0.2077944E+03  0.7546771E-02  0.1143325E+00
         21   -1    0    0  503  502  0.00000000000E+00  0.00000000000E+00  0.10565770735E+03  0.10565770735E+03  0.00000000000E+00 0. -1.
         21   -1    0    0  501  503 -0.00000000000E+00 -0.00000000000E+00 -0.42553952320E+03  0.42553952320E+03  0.00000000000E+00 0. -1.
          6    1    1    2  501    0 -0.95004146705E+01 -0.11471371755E+03 -0.21283233233E+03  0.29744931763E+03  0.17300000000E+03 0.  1.
         -6    1    1    2    0  502  0.95004146705E+01  0.11471371755E+03 -0.10704948352E+03  0.23374791292E+03  0.17300000000E+03 0.  1.
<mgrwt>
<rscale>  2 0.20779436E+03</rscale>
<asrwt>0</asrwt>
<pdfrwt beam="1">  1       21 0.16255032E-01 0.20779436E+03</pdfrwt>
<pdfrwt beam="2">  1       21 0.65467620E-01 0.20779436E+03</pdfrwt>
<totfact> 0.72191408E+04</totfact>
</mgrwt>
</event>
<event>
 4    1  0.4056666E+000  0.2140542E+03  0.7546771E-02  0.1138395E+00
         21   -1    0    0  501  502  0.00000000000E+00  0.00000000000E+00  0.17287071395E+03  0.17287071395E+03  0.00000000000E+00 0. -1.
         21   -1    0    0  502  503 -0.00000000000E+00 -0.00000000000E+00 -0.29125350084E+03  0.29125350084E+03  0.00000000000E+00 0. -1.
          6    1    1    2  501    0 -0.33227981254E+02  0.12159814960E+03  0.10416205737E+02  0.21430750352E+03  0.17300000000E+03 0. -1.
         -6    1    1    2    0  503  0.33227981254E+02 -0.12159814960E+03 -0.12879899263E+03  0.24981671127E+03  0.17300000000E+03 0. -1.
<mgrwt>
<rscale>  2 0.21405422E+03</rscale>
<asrwt>0</asrwt>
<pdfrwt beam="1">  1       21 0.26595495E-01 0.21405422E+03</pdfrwt>
<pdfrwt beam="2">  1       21 0.44808230E-01 0.21405422E+03</pdfrwt>
<totfact> 0.63698986E+04</totfact>
</mgrwt>
</event>
<event>
 4    1  0.4056666E+000  0.1904785E+03  0.7546771E-02  0.1158030E+00
         21   -1    0    0  503  502  0.00000000000E+00  0.00000000000E+00  0.11028383590E+04  0.11028383590E+04  0.00000000000E+00 0. -1.
         21   -1    0    0  501  503 -0.00000000000E+00 -0.00000000000E+00 -0.13187699788E+03  0.13187699788E+03  0.00000000000E+00 0. -1.
          6    1    1    2  501    0  0.14560791001E+02  0.78364772806E+02 -0.49357136829E+02  0.19676936044E+03  0.17300000000E+03 0. -1.
         -6    1    1    2    0  502 -0.14560791001E+02 -0.78364772806E+02  0.10203184980E+04  0.10379459964E+04  0.17300000000E+03 0. -1.
<mgrwt>
<rscale>  2 0.19047849E+03</rscale>
<asrwt>0</asrwt>
<pdfrwt beam="1">  1       21 0.16966743E+00 0.19047849E+03</pdfrwt>
<pdfrwt beam="2">  1       21 0.20288770E-01 0.19047849E+03</pdfrwt>
<totfact> 0.48304907E+03</totfact>
</mgrwt>
</event>
<event>
 4    1  0.4056666E+000  0.2835308E+03  0.7546771E-02  0.1093776E+00
         21   -1    0    0  501  502  0.00000000000E+00  0.00000000000E+00  0.33241251653E+03  0.33241251653E+03  0.00000000000E+00 0. -1.
         21   -1    0    0  502  503 -0.00000000000E+00 -0.00000000000E+00 -0.53199731910E+03  0.53199731910E+03  0.00000000000E+00 0. -1.
          6    1    1    2  501    0 -0.17577971088E+03  0.13986495748E+03  0.21940095314E+03  0.35850591533E+03  0.17300000000E+03 0. -1.
         -6    1    1    2    0  503  0.17577971088E+03 -0.13986495748E+03 -0.41898575571E+03  0.50590392030E+03  0.17300000000E+03 0. -1.
<mgrwt>
<rscale>  2 0.28353080E+03</rscale>
<asrwt>0</asrwt>
<pdfrwt beam="1">  1       21 0.51140387E-01 0.28353080E+03</pdfrwt>
<pdfrwt beam="2">  1       21 0.81845741E-01 0.28353080E+03</pdfrwt>
<totfact> 0.44677439E+03</totfact>
</mgrwt>
</event>
<event>
 4    1  0.4056666E+000  0.2037517E+03  0.7546771E-02  0.1146612E+00
         21   -1    0    0  501  502  0.00000000000E+00  0.00000000000E+00  0.50461963152E+03  0.50461963152E+03  0.00000000000E+00 0.  1.
         21   -1    0    0  502  503 -0.00000000000E+00 -0.00000000000E+00 -0.14868509511E+03  0.14868509511E+03  0.00000000000E+00 0. -1.
          6    1    1    2  501    0  0.91431486333E+02 -0.56798123965E+02  0.39628424961E+03  0.44559617376E+03  0.17300000000E+03 0.  1.
         -6    1    1    2    0  503 -0.91431486333E+02  0.56798123965E+02 -0.40349713207E+02  0.20770855287E+03  0.17300000000E+03 0. -1.
<mgrwt>
<rscale>  2 0.20375167E+03</rscale>
<asrwt>0</asrwt>
<pdfrwt beam="1">  1       21 0.77633789E-01 0.20375167E+03</pdfrwt>
<pdfrwt beam="2">  1       21 0.22874630E-01 0.20375167E+03</pdfrwt>
<totfact> 0.26222935E+04</totfact>
</mgrwt>
</event>
<event>
 4    1  0.4056666E+000  0.1841981E+03  0.7546771E-02  0.1163801E+00
         21   -1    0    0  503  502  0.00000000000E+00  0.00000000000E+00  0.33952306389E+03  0.33952306389E+03  0.00000000000E+00 0. -1.
         21   -1    0    0  501  503 -0.00000000000E+00 -0.00000000000E+00 -0.10208089730E+03  0.10208089730E+03  0.00000000000E+00 0. -1.
          6    1    1    2  501    0  0.47961122488E+02 -0.41226912449E+02  0.86678669949E+02  0.20357337597E+03  0.17300000000E+03 0. -1.
         -6    1    1    2    0  502 -0.47961122488E+02  0.41226912449E+02  0.15076349664E+03  0.23803058522E+03  0.17300000000E+03 0. -1.
<mgrwt>
<rscale>  2 0.18419807E+03</rscale>
<asrwt>0</asrwt>
<pdfrwt beam="1">  1       21 0.52234317E-01 0.18419807E+03</pdfrwt>
<pdfrwt beam="2">  1       21 0.15704754E-01 0.18419807E+03</pdfrwt>
<totfact> 0.12582229E+05</totfact>
</mgrwt>
</event>
<event>
 4    1  0.4056666E+000  0.1853555E+03  0.7546771E-02  0.1162718E+00
         21   -1    0    0  503  502  0.00000000000E+00  0.00000000000E+00  0.56517754997E+02  0.56517754997E+02  0.00000000000E+00 0.  1.
         21   -1    0    0  501  503 -0.00000000000E+00 -0.00000000000E+00 -0.64808931117E+03  0.64808931117E+03  0.00000000000E+00 0.  1.
          6    1    1    2  501    0  0.30760088724E+01  0.66469531342E+02 -0.20804509631E+03  0.27863851587E+03  0.17300000000E+03 0.  1.
         -6    1    1    2    0  502 -0.30760088724E+01 -0.66469531342E+02 -0.38352645987E+03  0.42596855030E+03  0.17300000000E+03 0.  1.
<mgrwt>
<rscale>  2 0.18535550E+03</rscale>
<asrwt>0</asrwt>
<pdfrwt beam="1">  1       21 0.86950388E-02 0.18535550E+03</pdfrwt>
<pdfrwt beam="2">  1       21 0.99706052E-01 0.18535550E+03</pdfrwt>
<totfact> 0.86050624E+04</totfact>
</mgrwt>
</event>
<event>
 4    1  0.4056666E+000  0.2104566E+03  0.7546771E-02  0.1141205E+00
         21   -1    0    0  501  502  0.00000000000E+00  0.00000000000E+00  0.54575425625E+03  0.54575425625E+03  0.00000000000E+00 0.  1.
         21   -1    0    0  502  503 -0.00000000000E+00 -0.00000000000E+00 -0.84139043533E+02  0.84139043533E+02  0.00000000000E+00 0.  1.
          6    1    1    2  501    0 -0.62746583894E+02 -0.10210697966E+03  0.17151920734E+03  0.27149734358E+03  0.17300000000E+03 0.  1.
         -6    1    1    2    0  503  0.62746583894E+02  0.10210697966E+03  0.29009600538E+03  0.35839595620E+03  0.17300000000E+03 0.  1.
<mgrwt>
<rscale>  2 0.21045657E+03</rscale>
<asrwt>0</asrwt>
<pdfrwt beam="1">  1       21 0.83962191E-01 0.21045657E+03</pdfrwt>
<pdfrwt beam="2">  1       21 0.12944469E-01 0.21045657E+03</pdfrwt>
<totfact> 0.62600204E+04</totfact>
</mgrwt>
</event>
<event>
 4    1  0.4056666E+000  0.1818660E+03  0.7546771E-02  0.1166009E+00
         21   -1    0    0  501  502  0.00000000000E+00  0.00000000000E+00  0.20173661937E+02  0.20173661937E+02  0.00000000000E+00 0.  1.
         21   -1    0    0  502  503 -0.00000000000E+00 -0.00000000000E+00 -0.22900256977E+04  0.22900256977E+04  0.00000000000E+00 0.  1.
          6    1    1    2  501    0  0.29594818564E+02 -0.47648740040E+02 -0.51929197230E+03  0.55021760078E+03  0.17300000000E+03 0.  1.
         -6    1    1    2    0  503 -0.29594818564E+02  0.47648740040E+02 -0.17505600634E+04  0.17599817588E+04  0.17300000000E+03 0.  1.
<mgrwt>
<rscale>  2 0.18186604E+03</rscale>
<asrwt>0</asrwt>
<pdfrwt beam="1">  1       21 0.31036404E-02 0.18186604E+03</pdfrwt>
<pdfrwt beam="2">  1       21 0.35231163E+00 0.18186604E+03</pdfrwt>
<totfact> 0.10271749E+04</totfact>
</mgrwt>
</event>
<event>
 4    1  0.4056666E+000  0.1962697E+03  0.7546771E-02  0.1152925E+00
         21   -1    0    0  503  502  0.00000000000E+00  0.00000000000E+00  0.76646769704E+03  0.76646769704E+03  0.00000000000E+00 0. -1.
         21   -1    0    0  501  503 -0.00000000000E+00 -0.00000000000E+00 -0.13767158665E+03  0.13767158665E+03  0.00000000000E+00 0. -1.
          6    1    1    2  501    0  0.90393353768E+02 -0.20538944805E+02 -0.45824143797E+02  0.20154815507E+03  0.17300000000E+03 0. -1.
         -6    1    1    2    0  502 -0.90393353768E+02  0.20538944805E+02  0.67462025418E+03  0.70259112862E+03  0.17300000000E+03 0. -1.
<mgrwt>
<rscale>  2 0.19626973E+03</rscale>
<asrwt>0</asrwt>
<pdfrwt beam="1">  1       21 0.11791810E+00 0.19626973E+03</pdfrwt>
<pdfrwt beam="2">  1       21 0.21180245E-01 0.19626973E+03</pdfrwt>
<totfact> 0.11403836E+04</totfact>
</mgrwt>
</event>
<event>
 4    1  0.4056666E+000  0.2745946E+03  0.7546771E-02  0.1098678E+00
         21   -1    0    0  501  502  0.00000000000E+00  0.00000000000E+00  0.71987001645E+03  0.71987001645E+03  0.00000000000E+00 0. -1.
         21   -1    0    0  502  503 -0.00000000000E+00 -0.00000000000E+00 -0.15668166058E+03  0.15668166058E+03  0.00000000000E+00 0.  1.
          6    1    1    2  501    0  0.17469899193E+03 -0.12228432064E+03  0.53392999284E+03  0.60040272327E+03  0.17300000000E+03 0. -1.
         -6    1    1    2    0  503 -0.17469899193E+03  0.12228432064E+03  0.29258363029E+02  0.27614895376E+03  0.17300000000E+03 0.  1.
<mgrwt>
<rscale>  2 0.27459460E+03</rscale>
<asrwt>0</asrwt>
<pdfrwt beam="1">  1       21 0.11074923E+00 0.27459460E+03</pdfrwt>
<pdfrwt beam="2">  1       21 0.24104871E-01 0.27459460E+03</pdfrwt>
<totfact> 0.99194597E+03</totfact>
</mgrwt>
</event>
<event>
 4    1  0.4056666E+000  0.1862724E+03  0.7546771E-02  0.1161867E+00
         21   -1    0    0  503  502  0.00000000000E+00  0.00000000000E+00  0.21399635491E+03  0.21399635491E+03  0.00000000000E+00 0.  1.
         21   -1    0    0  501  503 -0.00000000000E+00 -0.00000000000E+00 -0.33830558915E+03  0.33830558915E+03  0.00000000000E+00 0.  1.
          6    1    1    2  501    0  0.68340034796E+02 -0.99018172660E+01 -0.26142938638E+03  0.32100269532E+03  0.17300000000E+03 0.  1.
         -6    1    1    2    0  502 -0.68340034796E+02  0.99018172660E+01  0.13712015215E+03  0.23129924874E+03  0.17300000000E+03 0.  1.
<mgrwt>
<rscale>  2 0.18627240E+03</rscale>
<asrwt>0</asrwt>
<pdfrwt beam="1">  1       21 0.32922516E-01 0.18627240E+03</pdfrwt>
<pdfrwt beam="2">  1       21 0.52047014E-01 0.18627240E+03</pdfrwt>
<totfact> 0.31224493E+04</totfact>
</mgrwt>
</event>
<event>
 4    1  0.4056666E+000  0.1812842E+03  0.7546771E-02  0.1166566E+00
         21   -1    0    0  501  502  0.00000000000E+00  0.00000000000E+00  0.22743936751E+03  0.22743936751E+03  0.00000000000E+00 0. -1.
         21   -1    0    0  502  503 -0.00000000000E+00 -0.00000000000E+00 -0.20268884518E+03  0.20268884518E+03  0.00000000000E+00 0. -1.
          6    1    1    2  501    0  0.53027898944E+02 -0.11090911039E+02  0.12761165273E+03  0.22169506148E+03  0.17300000000E+03 0. -1.
         -6    1    1    2    0  503 -0.53027898944E+02  0.11090911039E+02 -0.10286113040E+03  0.20843315120E+03  0.17300000000E+03 0. -1.
<mgrwt>
<rscale>  2 0.18128421E+03</rscale>
<asrwt>0</asrwt>
<pdfrwt beam="1">  1       21 0.34990672E-01 0.18128421E+03</pdfrwt>
<pdfrwt beam="2">  1       21 0.31182899E-01 0.18128421E+03</pdfrwt>
<totfact> 0.78159292E+04</totfact>
</mgrwt>
</event>
<event>
 4    1  0.4056666E+000  0.2314469E+03  0.7546771E-02  0.1125626E+00
         21   -1    0    0  503  502  0.00000000000E+00  0.00000000000E+00  0.41347626397E+03  0.41347626397E+03  0.00000000000E+00 0.  1.
         21   -1    0    0  501  503 -0.00000000000E+00 -0.00000000000E+00 -0.23951919842E+03  0.23951919842E+03  0.00000000000E+00 0.  1.
          6    1    1    2  501    0 -0.78027370438E+02 -0.13247787391E+03 -0.13424784064E+03  0.26756333891E+03  0.17300000000E+03 0.  1.
         -6    1    1    2    0  502  0.78027370438E+02  0.13247787391E+03  0.30820490618E+03  0.38543212348E+03  0.17300000000E+03 0.  1.
<mgrwt>
<rscale>  2 0.23144688E+03</rscale>
<asrwt>0</asrwt>
<pdfrwt beam="1">  1       21 0.63611733E-01 0.23144688E+03</pdfrwt>
<pdfrwt beam="2">  1       21 0.36849107E-01 0.23144688E+03</pdfrwt>
<totfact> 0.15851794E+04</totfact>
</mgrwt>
</event>
<event>
 4    1  0.4056666E+000  0.2017964E+03  0.7546771E-02  0.1148232E+00
         21   -1    0    0  503  502  0.00000000000E+00  0.00000000000E+00  0.16436466403E+03  0.16436466403E+03  0.00000000000E+00 0.  1.
         21   -1    0    0  501  503 -0.00000000000E+00 -0.00000000000E+00 -0.25224173505E+03  0.25224173505E+03  0.00000000000E+00 0.  1.
          6    1    1    2  501    0  0.62288387942E+02  0.83144102162E+02 -0.71727043698E+02  0.21416478187E+03  0.17300000000E+03 0.  1.
         -6    1    1    2    0  502 -0.62288387942E+02 -0.83144102162E+02 -0.16150027315E+02  0.20244161721E+03  0.17300000000E+03 0.  1.
<mgrwt>
<rscale>  2 0.20179639E+03</rscale>
<asrwt>0</asrwt>
<pdfrwt beam="1">  1       21 0.25286872E-01 0.20179639E+03</pdfrwt>
<pdfrwt beam="2">  1       21 0.38806421E-01 0.20179639E+03</pdfrwt>
<totfact> 0.94535912E+04</totfact>
</mgrwt>
</event>
<event>
 4    1  0.4056666E+000  0.2655089E+03  0.7546771E-02  0.1103878E+00
         21   -1    0    0  503  502  0.00000000000E+00  0.00000000000E+00  0.70626033667E+03  0.70626033667E+03  0.00000000000E+00 0.  1.
         21   -1    0    0  501  503 -0.00000000000E+00 -0.00000000000E+00 -0.15848696934E+03  0.15848696934E+03  0.00000000000E+00 0.  1.
          6    1    1    2  501    0  0.19973859746E+03  0.25893522986E+02  0.10811527163E+02  0.26572894266E+03  0.17300000000E+03 0.  1.
         -6    1    1    2    0  502 -0.19973859746E+03 -0.25893522986E+02  0.53696184016E+03  0.59901836335E+03  0.17300000000E+03 0.  1.
<mgrwt>
<rscale>  2 0.26550891E+03</rscale>
<asrwt>0</asrwt>
<pdfrwt beam="1">  1       21 0.10865543E+00 0.26550891E+03</pdfrwt>
<pdfrwt beam="2">  1       21 0.24382611E-01 0.26550891E+03</pdfrwt>
<totfact> 0.10215985E+04</totfact>
</mgrwt>
</event>
<event>
 4    1  0.4056666E+000  0.1890678E+03  0.7546771E-02  0.1159305E+00
         21   -1    0    0  503  502  0.00000000000E+00  0.00000000000E+00  0.25383998387E+03  0.25383998387E+03  0.00000000000E+00 0.  1.
         21   -1    0    0  501  503 -0.00000000000E+00 -0.00000000000E+00 -0.19516893342E+03  0.19516893342E+03  0.00000000000E+00 0. -1.
          6    1    1    2  501    0 -0.75959998741E+02 -0.69060030395E+01 -0.89132590249E+02  0.20902447926E+03  0.17300000000E+03 0. -1.
         -6    1    1    2    0  502  0.75959998741E+02  0.69060030395E+01  0.14780364070E+03  0.23998443802E+03  0.17300000000E+03 0.  1.
<mgrwt>
<rscale>  2 0.18906775E+03</rscale>
<asrwt>0</asrwt>
<pdfrwt beam="1">  1       21 0.39052305E-01 0.18906775E+03</pdfrwt>
<pdfrwt beam="2">  1       21 0.30025990E-01 0.18906775E+03</pdfrwt>
<totfact> 0.67358687E+04</totfact>
</mgrwt>
</event>
<event>
 4    1  0.4056666E+000  0.1980507E+03  0.7546771E-02  0.1151394E+00
         21   -1    0    0  501  502  0.00000000000E+00  0.00000000000E+00  0.23618671035E+04  0.23618671035E+04  0.00000000000E+00 0.  1.
         21   -1    0    0  502  503 -0.00000000000E+00 -0.00000000000E+00 -0.27351966176E+02  0.27351966176E+02  0.00000000000E+00 0.  1.
          6    1    1    2  501    0  0.65260334438E+02 -0.70966074003E+02  0.19159946951E+04  0.19262034592E+04  0.17300000000E+03 0.  1.
         -6    1    1    2    0  503 -0.65260334438E+02  0.70966074003E+02  0.41852044227E+03  0.46301561043E+03  0.17300000000E+03 0.  1.
<mgrwt>
<rscale>  2 0.19805074E+03</rscale>
<asrwt>0</asrwt>
<pdfrwt beam="1">  1       21 0.36336401E+00 0.19805074E+03</pdfrwt>
<pdfrwt beam="2">  1       21 0.42079967E-02 0.19805074E+03</pdfrwt>
<totfact> 0.52063649E+03</totfact>
</mgrwt>
</event>
<event>
 4    1  0.4056666E+000  0.1827383E+03  0.7546771E-02  0.1165179E+00
         21   -1    0    0  503  502  0.00000000000E+00  0.00000000000E+00  0.26839530927E+03  0.26839530927E+03  0.00000000000E+00 0. -1.
         21   -1    0    0  501  503 -0.00000000000E+00 -0.00000000000E+00 -0.41615370912E+03  0.41615370912E+03  0.00000000000E+00 0. -1.
          6    1    1    2  501    0 -0.38578016065E+02 -0.44452425317E+02 -0.36045681372E+03  0.40413165676E+03  0.17300000000E+03 0. -1.
         -6    1    1    2    0  502  0.38578016065E+02  0.44452425317E+02  0.21269841387E+03  0.28041736163E+03  0.17300000000E+03 0. -1.
<mgrwt>
<rscale>  2 0.18273829E+03</rscale>
<asrwt>0</asrwt>
<pdfrwt beam="1">  1       21 0.41291586E-01 0.18273829E+03</pdfrwt>
<pdfrwt beam="2">  1       21 0.64023647E-01 0.18273829E+03</pdfrwt>
<totfact> 0.12804776E+04</totfact>
</mgrwt>
</event>
<event>
 4    1  0.4056666E+000  0.2197415E+03  0.7546771E-02  0.1134076E+00
         21   -1    0    0  503  502  0.00000000000E+00  0.00000000000E+00  0.16259419003E+03  0.16259419003E+03  0.00000000000E+00 0. -1.
         21   -1    0    0  501  503 -0.00000000000E+00 -0.00000000000E+00 -0.72971478168E+03  0.72971478168E+03  0.00000000000E+00 0.  1.
          6    1    1    2  501    0  0.74162758974E+02  0.11338966779E+03 -0.62713591959E+03  0.66451921960E+03  0.17300000000E+03 0.  1.
         -6    1    1    2    0  502 -0.74162758974E+02 -0.11338966779E+03  0.60015327931E+02  0.22778975211E+03  0.17300000000E+03 0. -1.
<mgrwt>
<rscale>  2 0.21974151E+03</rscale>
<asrwt>0</asrwt>
<pdfrwt beam="1">  1       21 0.25014491E-01 0.21974151E+03</pdfrwt>
<pdfrwt beam="2">  1       21 0.11226381E+00 0.21974151E+03</pdfrwt>
<totfact> 0.92283903E+03</totfact>
</mgrwt>
</event>
<event>
 4    1  0.4056666E+000  0.1747334E+03  0.7546771E-02  0.1173000E+00
         21   -1    0    0  501  502  0.00000000000E+00  0.00000000000E+00  0.25171582603E+03  0.25171582603E+03  0.00000000000E+00 0.  1.
         21   -1    0    0  502  503 -0.00000000000E+00 -0.00000000000E+00 -0.20802246276E+03  0.20802246276E+03  0.00000000000E+00 0.  1.
          6    1    1    2  501    0  0.11739890565E+01  0.24522993414E+02  0.17027098990E+03  0.24397533780E+03  0.17300000000E+03 0.  1.
         -6    1    1    2    0  503 -0.11739890565E+01 -0.24522993414E+02 -0.12657762663E+03  0.21576295099E+03  0.17300000000E+03 0.  1.
<mgrwt>
<rscale>  2 0.17473338E+03</rscale>
<asrwt>0</asrwt>
<pdfrwt beam="1">  1       21 0.38725512E-01 0.17473338E+03</pdfrwt>
<pdfrwt beam="2">  1       21 0.32003456E-01 0.17473338E+03</pdfrwt>
<totfact> 0.60863523E+04</totfact>
</mgrwt>
</event>
<event>
 4    1  0.4056666E+000  0.2245274E+03  0.7546771E-02  0.1130552E+00
         21   -1    0    0  503  502  0.00000000000E+00  0.00000000000E+00  0.56368551949E+03  0.56368551949E+03  0.00000000000E+00 0.  1.
         21   -1    0    0  501  503 -0.00000000000E+00 -0.00000000000E+00 -0.14825724465E+03  0.14825724465E+03  0.00000000000E+00 0.  1.
          6    1    1    2  501    0 -0.87725923538E+02  0.11308271152E+03 -0.16509995641E+02  0.22513355428E+03  0.17300000000E+03 0.  1.
         -6    1    1    2    0  502  0.87725923538E+02 -0.11308271152E+03  0.43193827048E+03  0.48680920987E+03  0.17300000000E+03 0.  1.
<mgrwt>
<rscale>  2 0.22452736E+03</rscale>
<asrwt>0</asrwt>
<pdfrwt beam="1">  1       21 0.86720848E-01 0.22452736E+03</pdfrwt>
<pdfrwt beam="2">  1       21 0.22808807E-01 0.22452736E+03</pdfrwt>
<totfact> 0.20253130E+04</totfact>
</mgrwt>
</event>
<event>
 4    1  0.4056666E+000  0.1935481E+03  0.7546771E-02  0.1155300E+00
         21   -1    0    0  503  502  0.00000000000E+00  0.00000000000E+00  0.22105048440E+03  0.22105048440E+03  0.00000000000E+00 0. -1.
         21   -1    0    0  501  503 -0.00000000000E+00 -0.00000000000E+00 -0.19224960282E+03  0.19224960282E+03  0.00000000000E+00 0. -1.
          6    1    1    2  501    0  0.53038642817E+02 -0.68693250447E+02 -0.56737325790E+02  0.20169279716E+03  0.17300000000E+03 0. -1.
         -6    1    1    2    0  502 -0.53038642817E+02  0.68693250447E+02  0.85538207369E+02  0.21160729006E+03  0.17300000000E+03 0. -1.
<mgrwt>
<rscale>  2 0.19354808E+03</rscale>
<asrwt>0</asrwt>
<pdfrwt beam="1">  1       21 0.34007767E-01 0.19354808E+03</pdfrwt>
<pdfrwt beam="2">  1       21 0.29576862E-01 0.19354808E+03</pdfrwt>
<totfact> 0.91238091E+04</totfact>
</mgrwt>
</event>
<event>
 4    1  0.4056666E+000  0.1890129E+03  0.7546771E-02  0.1159355E+00
         21   -1    0    0  503  502  0.00000000000E+00  0.00000000000E+00  0.45715674531E+03  0.45715674531E+03  0.00000000000E+00 0.  1.
         21   -1    0    0  501  503 -0.00000000000E+00 -0.00000000000E+00 -0.12370899296E+03  0.12370899296E+03  0.00000000000E+00 0.  1.
          6    1    1    2  501    0  0.46968611349E+02 -0.59923542222E+02 -0.95312517245E+01  0.18925307428E+03  0.17300000000E+03 0.  1.
         -6    1    1    2    0  502 -0.46968611349E+02  0.59923542222E+02  0.34297900407E+03  0.39161266399E+03  0.17300000000E+03 0.  1.
<mgrwt>
<rscale>  2 0.18901291E+03</rscale>
<asrwt>0</asrwt>
<pdfrwt beam="1">  1       21 0.70331806E-01 0.18901291E+03</pdfrwt>
<pdfrwt beam="2">  1       21 0.19032153E-01 0.18901291E+03</pdfrwt>
<totfact> 0.46509030E+04</totfact>
</mgrwt>
</event>
<event>
 4    1  0.4056666E+000  0.2389654E+03  0.7546771E-02  0.1120484E+00
         21   -1    0    0  503  502  0.00000000000E+00  0.00000000000E+00  0.10317592486E+04  0.10317592486E+04  0.00000000000E+00 0.  1.
         21   -1    0    0  501  503 -0.00000000000E+00 -0.00000000000E+00 -0.63287448071E+02  0.63287448071E+02  0.00000000000E+00 0. -1.
          6    1    1    2  501    0 -0.16131789596E+03 -0.33941244259E+02  0.67817907798E+03  0.71904890893E+03  0.17300000000E+03 0. -1.
         -6    1    1    2    0  502  0.16131789596E+03  0.33941244259E+02  0.29029272251E+03  0.37599778770E+03  0.17300000000E+03 0.  1.
<mgrwt>
<rscale>  2 0.23896542E+03</rscale>
<asrwt>0</asrwt>
<pdfrwt beam="1">  1       21 0.15873218E+00 0.23896542E+03</pdfrwt>
<pdfrwt beam="2">  1       21 0.97365312E-02 0.23896542E+03</pdfrwt>
<totfact> 0.21241877E+04</totfact>
</mgrwt>
</event>
<event>
 4    1  0.4056666E+000  0.1823885E+03  0.7546771E-02  0.1165511E+00
         21   -1    0    0  503  502  0.00000000000E+00  0.00000000000E+00  0.22714693762E+03  0.22714693762E+03  0.00000000000E+00 0. -1.
         21   -1    0    0  501  503 -0.00000000000E+00 -0.00000000000E+00 -0.27921608658E+03  0.27921608658E+03  0.00000000000E+00 0. -1.
          6    1    1    2  501    0 -0.27487971811E+02  0.50803341527E+02 -0.20061923191E+03  0.27113399698E+03  0.17300000000E+03 0. -1.
         -6    1    1    2    0  502  0.27487971811E+02 -0.50803341527E+02  0.14855008294E+03  0.23522902722E+03  0.17300000000E+03 0. -1.
<mgrwt>
<rscale>  2 0.18238851E+03</rscale>
<asrwt>0</asrwt>
<pdfrwt beam="1">  1       21 0.34945683E-01 0.18238851E+03</pdfrwt>
<pdfrwt beam="2">  1       21 0.42956321E-01 0.18238851E+03</pdfrwt>
<totfact> 0.41348023E+04</totfact>
</mgrwt>
</event>
<event>
 4    1  0.4056666E+000  0.1737626E+03  0.7546771E-02  0.1173980E+00
         21   -1    0    0  501  502  0.00000000000E+00  0.00000000000E+00  0.24603103962E+03  0.24603103962E+03  0.00000000000E+00 0.  1.
         21   -1    0    0  502  503 -0.00000000000E+00 -0.00000000000E+00 -0.13547862021E+03  0.13547862021E+03  0.00000000000E+00 0.  1.
          6    1    1    2  501    0  0.84646429328E+01 -0.13885205777E+02  0.11380991881E+03  0.20771650570E+03  0.17300000000E+03 0.  1.
         -6    1    1    2    0  503 -0.84646429328E+01  0.13885205777E+02 -0.32574993967E+01  0.17379315413E+03  0.17300000000E+03 0.  1.
<mgrwt>
<rscale>  2 0.17376262E+03</rscale>
<asrwt>0</asrwt>
<pdfrwt beam="1">  1       21 0.37850929E-01 0.17376262E+03</pdfrwt>
<pdfrwt beam="2">  1       21 0.20842865E-01 0.17376262E+03</pdfrwt>
<totfact> 0.14473091E+05</totfact>
</mgrwt>
</event>
<event>
 4    1  0.4056666E+000  0.2252118E+03  0.7546771E-02  0.1130056E+00
         21   -1    0    0  501  502  0.00000000000E+00  0.00000000000E+00  0.31788809861E+03  0.31788809861E+03  0.00000000000E+00 0.  1.
         21   -1    0    0  502  503 -0.00000000000E+00 -0.00000000000E+00 -0.16173332547E+03  0.16173332547E+03  0.00000000000E+00 0. -1.
          6    1    1    2  501    0 -0.88120236023E+02  0.11413225819E+03  0.10591424709E+03  0.24887381560E+03  0.17300000000E+03 0. -1.
         -6    1    1    2    0  503  0.88120236023E+02 -0.11413225819E+03  0.50240526053E+02  0.23074760847E+03  0.17300000000E+03 0.  1.
<mgrwt>
<rscale>  2 0.22521179E+03</rscale>
<asrwt>0</asrwt>
<pdfrwt beam="1">  1       21 0.48905861E-01 0.22521179E+03</pdfrwt>
<pdfrwt beam="2">  1       21 0.24882050E-01 0.22521179E+03</pdfrwt>
<totfact> 0.60100959E+04</totfact>
</mgrwt>
</event>
<event>
 4    1  0.4056666E+000  0.2121449E+03  0.7546771E-02  0.1139879E+00
         21   -1    0    0  503  502  0.00000000000E+00  0.00000000000E+00  0.10422240670E+03  0.10422240670E+03  0.00000000000E+00 0.  1.
         21   -1    0    0  501  503 -0.00000000000E+00 -0.00000000000E+00 -0.83811834813E+03  0.83811834813E+03  0.00000000000E+00 0.  1.
          6    1    1    2  501    0 -0.12055674753E+03 -0.23292039898E+02 -0.69500335636E+03  0.72666024650E+03  0.17300000000E+03 0.  1.
         -6    1    1    2    0  502  0.12055674753E+03  0.23292039898E+02 -0.38892585071E+02  0.21568050832E+03  0.17300000000E+03 0.  1.
<mgrwt>
<rscale>  2 0.21214488E+03</rscale>
<asrwt>0</asrwt>
<pdfrwt beam="1">  1       21 0.16034216E-01 0.21214488E+03</pdfrwt>
<pdfrwt beam="2">  1       21 0.12894129E+00 0.21214488E+03</pdfrwt>
<totfact> 0.15126944E+04</totfact>
</mgrwt>
</event>
<event>
 4    1  0.4056666E+000  0.1967578E+03  0.7546771E-02  0.1152504E+00
         21   -1    0    0  501  502  0.00000000000E+00  0.00000000000E+00  0.14238394012E+03  0.14238394012E+03  0.00000000000E+00 0. -1.
         21   -1    0    0  502  503 -0.00000000000E+00 -0.00000000000E+00 -0.27992441350E+03  0.27992441350E+03  0.00000000000E+00 0.  1.
          6    1    1    2  501    0 -0.27949479688E+02 -0.89461990007E+02 -0.10453000278E+03  0.22280067898E+03  0.17300000000E+03 0. -1.
         -6    1    1    2    0  503  0.27949479688E+02  0.89461990007E+02 -0.33010470601E+02  0.19950767464E+03  0.17300000000E+03 0.  1.
<mgrwt>
<rscale>  2 0.19675777E+03</rscale>
<asrwt>0</asrwt>
<pdfrwt beam="1">  1       21 0.21905222E-01 0.19675777E+03</pdfrwt>
<pdfrwt beam="2">  1       21 0.43065294E-01 0.19675777E+03</pdfrwt>
<totfact> 0.10073561E+05</totfact>
</mgrwt>
</event>
<event>
 4    1  0.4056666E+000  0.2626382E+03  0.7546771E-02  0.1105568E+00
         21   -1    0    0  503  502  0.00000000000E+00  0.00000000000E+00  0.42853140287E+03  0.42853140287E+03  0.00000000000E+00 0.  1.
         21   -1    0    0  501  503 -0.00000000000E+00 -0.00000000000E+00 -0.17064350146E+03  0.17064350146E+03  0.00000000000E+00 0.  1.
          6    1    1    2  501    0  0.75353829387E+02  0.18267905162E+03  0.57598179866E+02  0.26887987249E+03  0.17300000000E+03 0.  1.
         -6    1    1    2    0  502 -0.75353829387E+02 -0.18267905162E+03  0.20028972155E+03  0.33029503185E+03  0.17300000000E+03 0.  1.
<mgrwt>
<rscale>  2 0.26263822E+03</rscale>
<asrwt>0</asrwt>
<pdfrwt beam="1">  1       21 0.65927908E-01 0.26263822E+03</pdfrwt>
<pdfrwt beam="2">  1       21 0.26252846E-01 0.26263822E+03</pdfrwt>
<totfact> 0.28151231E+04</totfact>
</mgrwt>
</event>
<event>
 4    1  0.4056666E+000  0.1823286E+03  0.7546771E-02  0.1165568E+00
         21   -1    0    0  501  502  0.00000000000E+00  0.00000000000E+00  0.16995705444E+03  0.16995705444E+03  0.00000000000E+00 0.  1.
         21   -1    0    0  502  503 -0.00000000000E+00 -0.00000000000E+00 -0.19716757464E+03  0.19716757464E+03  0.00000000000E+00 0.  1.
          6    1    1    2  501    0  0.20556439769E+02 -0.53778808485E+02 -0.29968747164E+02  0.18477514244E+03  0.17300000000E+03 0.  1.
         -6    1    1    2    0  503 -0.20556439769E+02  0.53778808485E+02  0.27582269647E+01  0.18234948663E+03  0.17300000000E+03 0.  1.
<mgrwt>
<rscale>  2 0.18232862E+03</rscale>
<asrwt>0</asrwt>
<pdfrwt beam="1">  1       21 0.26147239E-01 0.18232862E+03</pdfrwt>
<pdfrwt beam="2">  1       21 0.30333473E-01 0.18232862E+03</pdfrwt>
<totfact> 0.14545304E+05</totfact>
</mgrwt>
</event>
<event>
 4    1  0.4056666E+000  0.1864088E+03  0.7546771E-02  0.1161741E+00
         21   -1    0    0  503  502  0.00000000000E+00  0.00000000000E+00  0.47009524634E+02  0.47009524634E+02  0.00000000000E+00 0. -1.
         21   -1    0    0  501  503 -0.00000000000E+00 -0.00000000000E+00 -0.74634534433E+03  0.74634534433E+03  0.00000000000E+00 0. -1.
          6    1    1    2  501    0  0.69003135978E+02 -0.76043362738E+01 -0.38854930878E+03  0.43095106922E+03  0.17300000000E+03 0. -1.
         -6    1    1    2    0  502 -0.69003135978E+02  0.76043362738E+01 -0.31078651092E+03  0.36240379975E+03  0.17300000000E+03 0. -1.
<mgrwt>
<rscale>  2 0.18640885E+03</rscale>
<asrwt>0</asrwt>
<pdfrwt beam="1">  1       21 0.72322346E-02 0.18640885E+03</pdfrwt>
<pdfrwt beam="2">  1       21 0.11482236E+00 0.18640885E+03</pdfrwt>
<totfact> 0.84366966E+04</totfact>
</mgrwt>
</event>
<event>
 4    1  0.4056666E+000  0.2131398E+03  0.7546771E-02  0.1139103E+00
         21   -1    0    0  501  502  0.00000000000E+00  0.00000000000E+00  0.16621995562E+03  0.16621995562E+03  0.00000000000E+00 0.  1.
         21   -1    0    0  502  503 -0.00000000000E+00 -0.00000000000E+00 -0.30995545529E+03  0.30995545529E+03  0.00000000000E+00 0.  1.
          6    1    1    2  501    0 -0.12394628036E+03 -0.11700701130E+02  0.10003732076E+02  0.21337446304E+03  0.17300000000E+03 0.  1.
         -6    1    1    2    0  503  0.12394628036E+03  0.11700701130E+02 -0.15373923176E+03  0.26280094787E+03  0.17300000000E+03 0.  1.
<mgrwt>
<rscale>  2 0.21313983E+03</rscale>
<asrwt>0</asrwt>
<pdfrwt beam="1">  1       21 0.25572301E-01 0.21313983E+03</pdfrwt>
<pdfrwt beam="2">  1       21 0.47685454E-01 0.21313983E+03</pdfrwt>
<totfact> 0.60422410E+04</totfact>
</mgrwt>
</event>
<event>
 4    1  0.4056666E+000  0.2551920E+03  0.7546771E-02  0.1110067E+00
         21   -1    0    0  501  502  0.00000000000E+00  0.00000000000E+00  0.57546030117E+03  0.57546030117E+03  0.00000000000E+00 0.  1.
         21   -1    0    0  502  503 -0.00000000000E+00 -0.00000000000E+00 -0.16854970120E+03  0.16854970120E+03  0.00000000000E+00 0.  1.
          6    1    1    2  501    0  0.14804251829E+03 -0.11522740908E+03  0.41669743882E+03  0.48863043145E+03  0.17300000000E+03 0.  1.
         -6    1    1    2    0  503 -0.14804251829E+03  0.11522740908E+03 -0.97868388472E+01  0.25537957091E+03  0.17300000000E+03 0.  1.
<mgrwt>
<rscale>  2 0.25519197E+03</rscale>
<asrwt>0</asrwt>
<pdfrwt beam="1">  1       21 0.88532353E-01 0.25519197E+03</pdfrwt>
<pdfrwt beam="2">  1       21 0.25930724E-01 0.25519197E+03</pdfrwt>
<totfact> 0.14862002E+04</totfact>
</mgrwt>
</event>
<event>
 4    1  0.4056666E+000  0.2124522E+03  0.7546771E-02  0.1139639E+00
         21   -1    0    0  501  502  0.00000000000E+00  0.00000000000E+00  0.20909493519E+03  0.20909493519E+03  0.00000000000E+00 0.  1.
         21   -1    0    0  502  503 -0.00000000000E+00 -0.00000000000E+00 -0.31669267250E+03  0.31669267250E+03  0.00000000000E+00 0. -1.
          6    1    1    2  501    0  0.33784938621E+02 -0.11859813197E+03  0.94539912942E+02  0.23253759723E+03  0.17300000000E+03 0.  1.
         -6    1    1    2    0  503 -0.33784938621E+02  0.11859813197E+03 -0.20213765026E+03  0.29325001046E+03  0.17300000000E+03 0. -1.
<mgrwt>
<rscale>  2 0.21245220E+03</rscale>
<asrwt>0</asrwt>
<pdfrwt beam="1">  1       21 0.32168452E-01 0.21245220E+03</pdfrwt>
<pdfrwt beam="2">  1       21 0.48721950E-01 0.21245220E+03</pdfrwt>
<totfact> 0.37001565E+04</totfact>
</mgrwt>
</event>
<event>
 4    1  0.4056666E+000  0.1832071E+03  0.7546771E-02  0.1164735E+00
         21   -1    0    0  501  502  0.00000000000E+00  0.00000000000E+00  0.63927371052E+03  0.63927371052E+03  0.00000000000E+00 0. -1.
         21   -1    0    0  502  503 -0.00000000000E+00 -0.00000000000E+00 -0.42496693484E+03  0.42496693484E+03  0.00000000000E+00 0. -1.
          6    1    1    2  501    0  0.29973984469E+02 -0.52320330886E+02  0.60531861992E+03  0.63243615361E+03  0.17300000000E+03 0. -1.
         -6    1    1    2    0  503 -0.29973984469E+02  0.52320330886E+02 -0.39101184423E+03  0.43180449175E+03  0.17300000000E+03 0. -1.
<mgrwt>
<rscale>  2 0.18320714E+03</rscale>
<asrwt>0</asrwt>
<pdfrwt beam="1">  1       21 0.98349802E-01 0.18320714E+03</pdfrwt>
<pdfrwt beam="2">  1       21 0.65379528E-01 0.18320714E+03</pdfrwt>
<totfact> 0.18539923E+03</totfact>
</mgrwt>
</event>
<event>
 4    1  0.4056666E+000  0.1758931E+03  0.7546771E-02  0.1171838E+00
         21   -1    0    0  503  502  0.00000000000E+00  0.00000000000E+00  0.19874446689E+03  0.19874446689E+03  0.00000000000E+00 0. -1.
         21   -1    0    0  501  503 -0.00000000000E+00 -0.00000000000E+00 -0.35744663537E+03  0.35744663537E+03  0.00000000000E+00 0. -1.
          6    1    1    2  501    0 -0.23329075545E+02  0.21566966773E+02 -0.28829262853E+03  0.33771440521E+03  0.17300000000E+03 0. -1.
         -6    1    1    2    0  502  0.23329075545E+02 -0.21566966773E+02  0.12959046005E+03  0.21847669706E+03  0.17300000000E+03 0. -1.
<mgrwt>
<rscale>  2 0.17589309E+03</rscale>
<asrwt>0</asrwt>
<pdfrwt beam="1">  1       21 0.30576072E-01 0.17589309E+03</pdfrwt>
<pdfrwt beam="2">  1       21 0.54991789E-01 0.17589309E+03</pdfrwt>
<totfact> 0.32326963E+04</totfact>
</mgrwt>
</event>
<event>
 4    1  0.4056666E+000  0.1735663E+03  0.7546771E-02  0.1174179E+00
         21   -1    0    0  503  502  0.00000000000E+00  0.00000000000E+00  0.78636613754E+03  0.78636613754E+03  0.00000000000E+00 0.  1.
         21   -1    0    0  501  503 -0.00000000000E+00 -0.00000000000E+00 -0.38388950106E+02  0.38388950106E+02  0.00000000000E+00 0.  1.
          6    1    1    2  501    0  0.67007189242E+01 -0.12302250296E+02  0.39275615342E+03  0.42939799842E+03  0.17300000000E+03 0.  1.
         -6    1    1    2    0  502 -0.67007189242E+01  0.12302250296E+02  0.35522103401E+03  0.39535708922E+03  0.17300000000E+03 0.  1.
<mgrwt>
<rscale>  2 0.17356626E+03</rscale>
<asrwt>0</asrwt>
<pdfrwt beam="1">  1       21 0.12097939E+00 0.17356626E+03</pdfrwt>
<pdfrwt beam="2">  1       21 0.59059929E-02 0.17356626E+03</pdfrwt>
<totfact> 0.10571362E+05</totfact>
</mgrwt>
</event>
<event>
 4    1  0.4056666E+000  0.2015098E+03  0.7546771E-02  0.1148471E+00
         21   -1    0    0  501  502  0.00000000000E+00  0.00000000000E+00  0.66339229234E+02  0.66339229234E+02  0.00000000000E+00 0. -1.
         21   -1    0    0  502  503 -0.00000000000E+00 -0.00000000000E+00 -0.61731070235E+03  0.61731070235E+03  0.00000000000E+00 0.  1.
          6    1    1    2  501    0  0.38306163075E+02 -0.95967949346E+02 -0.24407915982E+03  0.31651357900E+03  0.17300000000E+03 0.  1.
         -6    1    1    2    0  503 -0.38306163075E+02  0.95967949346E+02 -0.30689231329E+03  0.36713635259E+03  0.17300000000E+03 0.  1.
<mgrwt>
<rscale>  2 0.20150982E+03</rscale>
<asrwt>0</asrwt>
<pdfrwt beam="1">  1       21 0.10206035E-01 0.20150982E+03</pdfrwt>
<pdfrwt beam="2">  1       21 0.94970880E-01 0.20150982E+03</pdfrwt>
<totfact> 0.72259222E+04</totfact>
</mgrwt>
</event>
<event>
 4    1  0.4056666E+000  0.2022740E+03  0.7546771E-02  0.1147835E+00
         21   -1    0    0  501  502  0.00000000000E+00  0.00000000000E+00  0.14828551736E+03  0.14828551736E+03  0.00000000000E+00 0. -1.
         21   -1    0    0  502  503 -0.00000000000E+00 -0.00000000000E+00 -0.28385309043E+03  0.28385309043E+03  0.00000000000E+00 0. -1.
          6    1    1    2  501    0  0.32681680437E+02 -0.99587515955E+02 -0.31659469196E+02  0.20473662975E+03  0.17300000000E+03 0. -1.
         -6    1    1    2    0  503 -0.32681680437E+02  0.99587515955E+02 -0.10390810387E+03  0.22740197805E+03  0.17300000000E+03 0. -1.
<mgrwt>
<rscale>  2 0.20227399E+03</rscale>
<asrwt>0</asrwt>
<pdfrwt beam="1">  1       21 0.22813157E-01 0.20227399E+03</pdfrwt>
<pdfrwt beam="2">  1       21 0.43669706E-01 0.20227399E+03</pdfrwt>
<totfact> 0.90466381E+04</totfact>
</mgrwt>
</event>
<event>
 4    1  0.4056666E+000  0.1887880E+03  0.7546771E-02  0.1159559E+00
         21   -1    0    0  503  502  0.00000000000E+00  0.00000000000E+00  0.45386031174E+03  0.45386031174E+03  0.00000000000E+00 0.  1.
         21   -1    0    0  501  503 -0.00000000000E+00 -0.00000000000E+00 -0.11701549198E+03  0.11701549198E+03  0.00000000000E+00 0. -1.
          6    1    1    2  501    0  0.49485564748E+02 -0.57123381178E+02  0.47227469537E+01  0.18884704428E+03  0.17300000000E+03 0. -1.
         -6    1    1    2    0  502 -0.49485564748E+02  0.57123381178E+02  0.33212207281E+03  0.38202875944E+03  0.17300000000E+03 0.  1.
<mgrwt>
<rscale>  2 0.18878798E+03</rscale>
<asrwt>0</asrwt>
<pdfrwt beam="1">  1       21 0.69824662E-01 0.18878798E+03</pdfrwt>
<pdfrwt beam="2">  1       21 0.18002384E-01 0.18878798E+03</pdfrwt>
<totfact> 0.52392995E+04</totfact>
</mgrwt>
</event>
<event>
 4    1  0.4056666E+000  0.1755644E+03  0.7546771E-02  0.1172166E+00
         21   -1    0    0  501  502  0.00000000000E+00  0.00000000000E+00  0.60975691908E+02  0.60975691908E+02  0.00000000000E+00 0.  1.
         21   -1    0    0  502  503 -0.00000000000E+00 -0.00000000000E+00 -0.10802029094E+04  0.10802029094E+04  0.00000000000E+00 0.  1.
          6    1    1    2  501    0 -0.23064529733E+02 -0.19023240331E+02 -0.93420527159E+02  0.19887244932E+03  0.17300000000E+03 0.  1.
         -6    1    1    2    0  503  0.23064529733E+02  0.19023240331E+02 -0.92580669029E+03  0.94230615194E+03  0.17300000000E+03 0.  1.
<mgrwt>
<rscale>  2 0.17556439E+03</rscale>
<asrwt>0</asrwt>
<pdfrwt beam="1">  1       21 0.93808763E-02 0.17556439E+03</pdfrwt>
<pdfrwt beam="2">  1       21 0.16618505E+00 0.17556439E+03</pdfrwt>
<totfact> 0.20874082E+04</totfact>
</mgrwt>
</event>
<event>
 4    1  0.4056666E+000  0.1781893E+03  0.7546771E-02  0.1169567E+00
         21   -1    0    0  501  502  0.00000000000E+00  0.00000000000E+00  0.79843361594E+02  0.79843361594E+02  0.00000000000E+00 0. -1.
         21   -1    0    0  502  503 -0.00000000000E+00 -0.00000000000E+00 -0.42610699972E+03  0.42610699972E+03  0.00000000000E+00 0. -1.
          6    1    1    2  501    0 -0.29987205417E+02  0.30384086858E+02 -0.23848239353E+03  0.29769997858E+03  0.17300000000E+03 0. -1.
         -6    1    1    2    0  503  0.29987205417E+02 -0.30384086858E+02 -0.10778124460E+03  0.20825038274E+03  0.17300000000E+03 0. -1.
<mgrwt>
<rscale>  2 0.17818930E+03</rscale>
<asrwt>0</asrwt>
<pdfrwt beam="1">  1       21 0.12283594E-01 0.17818930E+03</pdfrwt>
<pdfrwt beam="2">  1       21 0.65554926E-01 0.17818930E+03</pdfrwt>
<totfact> 0.12103989E+05</totfact>
</mgrwt>
</event>
<event>
 4    1  0.4056666E+000  0.2277791E+03  0.7546771E-02  0.1128213E+00
         21   -1    0    0  501  502  0.00000000000E+00  0.00000000000E+00  0.12269642404E+03  0.12269642404E+03  0.00000000000E+00 0.  1.
         21   -1    0    0  502  503 -0.00000000000E+00 -0.00000000000E+00 -0.45660281441E+03  0.45660281441E+03  0.00000000000E+00 0.  1.
          6    1    1    2  501    0 -0.11058266978E+03  0.98619456070E+02 -0.88212575773E+02  0.24426375600E+03  0.17300000000E+03 0.  1.
         -6    1    1    2    0  503  0.11058266978E+03 -0.98619456070E+02 -0.24569381459E+03  0.33503548245E+03  0.17300000000E+03 0.  1.
<mgrwt>
<rscale>  2 0.22777911E+03</rscale>
<asrwt>0</asrwt>
<pdfrwt beam="1">  1       21 0.18876373E-01 0.22777911E+03</pdfrwt>
<pdfrwt beam="2">  1       21 0.70246586E-01 0.22777911E+03</pdfrwt>
<totfact> 0.46474867E+04</totfact>
</mgrwt>
</event>
<event>
 4    1  0.4056666E+000  0.3032321E+03  0.7546771E-02  0.1083636E+00
         21   -1    0    0  503  502  0.00000000000E+00  0.00000000000E+00  0.67063593421E+03  0.67063593421E+03  0.00000000000E+00 0.  1.
         21   -1    0    0  501  503 -0.00000000000E+00 -0.00000000000E+00 -0.13713519119E+03  0.13713519119E+03  0.00000000000E+00 0. -1.
          6    1    1    2  501    0  0.24398956199E+03  0.49897716620E+02  0.27241618957E+03  0.40762761048E+03  0.17300000000E+03 0. -1.
         -6    1    1    2    0  502 -0.24398956199E+03 -0.49897716620E+02  0.26108455344E+03  0.40014351492E+03  0.17300000000E+03 0.  1.
<mgrwt>
<rscale>  2 0.30323207E+03</rscale>
<asrwt>0</asrwt>
<pdfrwt beam="1">  1       21 0.10317476E+00 0.30323207E+03</pdfrwt>
<pdfrwt beam="2">  1       21 0.21097722E-01 0.30323207E+03</pdfrwt>
<totfact> 0.14998383E+04</totfact>
</mgrwt>
</event>
<event>
 4    1  0.4056666E+000  0.2793683E+03  0.7546771E-02  0.1096034E+00
         21   -1    0    0  501  502  0.00000000000E+00  0.00000000000E+00  0.34921316535E+02  0.34921316535E+02  0.00000000000E+00 0.  1.
         21   -1    0    0  502  503 -0.00000000000E+00 -0.00000000000E+00 -0.22652179646E+04  0.22652179646E+04  0.00000000000E+00 0.  1.
          6    1    1    2  501    0  0.12360915895E+03 -0.18121378209E+03 -0.98216040661E+03  0.10211198379E+04  0.17300000000E+03 0.  1.
         -6    1    1    2    0  503 -0.12360915895E+03  0.18121378209E+03 -0.12481362415E+04  0.12790194433E+04  0.17300000000E+03 0.  1.
<mgrwt>
<rscale>  2 0.27936832E+03</rscale>
<asrwt>0</asrwt>
<pdfrwt beam="1">  1       21 0.53725085E-02 0.27936832E+03</pdfrwt>
<pdfrwt beam="2">  1       21 0.34849519E+00 0.27936832E+03</pdfrwt>
<totfact> 0.38720171E+03</totfact>
</mgrwt>
</event>
<event>
 4    1  0.4056666E+000  0.2002345E+03  0.7546771E-02  0.1149541E+00
         21   -1    0    0  501  502  0.00000000000E+00  0.00000000000E+00  0.16935989733E+03  0.16935989733E+03  0.00000000000E+00 0. -1.
         21   -1    0    0  502  503 -0.00000000000E+00 -0.00000000000E+00 -0.25748762820E+03  0.25748762820E+03  0.00000000000E+00 0.  1.
          6    1    1    2  501    0  0.53168569791E+02 -0.85661929881E+02  0.16522301407E+02  0.20091503052E+03  0.17300000000E+03 0. -1.
         -6    1    1    2    0  503 -0.53168569791E+02  0.85661929881E+02 -0.10465003228E+03  0.22593249501E+03  0.17300000000E+03 0.  1.
<mgrwt>
<rscale>  2 0.20023452E+03</rscale>
<asrwt>0</asrwt>
<pdfrwt beam="1">  1       21 0.26055369E-01 0.20023452E+03</pdfrwt>
<pdfrwt beam="2">  1       21 0.39613481E-01 0.20023452E+03</pdfrwt>
<totfact> 0.85692232E+04</totfact>
</mgrwt>
</event>
<event>
 4    1  0.4056666E+000  0.3244098E+03  0.7546771E-02  0.1073638E+00
         21   -1    0    0  503  502  0.00000000000E+00  0.00000000000E+00  0.54563370546E+03  0.54563370546E+03  0.00000000000E+00 0.  1.
         21   -1    0    0  501  503 -0.00000000000E+00 -0.00000000000E+00 -0.33446399560E+03  0.33446399560E+03  0.00000000000E+00 0.  1.
          6    1    1    2  501    0 -0.18403257400E+03  0.20357974780E+03 -0.18072325071E+03  0.37135238703E+03  0.17300000000E+03 0.  1.
         -6    1    1    2    0  502  0.18403257400E+03 -0.20357974780E+03  0.39189296057E+03  0.50874531403E+03  0.17300000000E+03 0.  1.
<mgrwt>
<rscale>  2 0.32440977E+03</rscale>
<asrwt>0</asrwt>
<pdfrwt beam="1">  1       21 0.83943647E-01 0.32440977E+03</pdfrwt>
<pdfrwt beam="2">  1       21 0.51455999E-01 0.32440977E+03</pdfrwt>
<totfact> 0.40736024E+03</totfact>
</mgrwt>
</event>
<event>
 4    1  0.4056666E+000  0.2152296E+03  0.7546771E-02  0.1137490E+00
         21   -1    0    0  501  502  0.00000000000E+00  0.00000000000E+00  0.47600964259E+02  0.47600964259E+02  0.00000000000E+00 0.  1.
         21   -1    0    0  502  503 -0.00000000000E+00 -0.00000000000E+00 -0.10137167607E+04  0.10137167607E+04  0.00000000000E+00 0.  1.
          6    1    1    2  501    0 -0.48625727598E+02  0.11844956128E+03 -0.58918910804E+03  0.62726992992E+03  0.17300000000E+03 0.  1.
         -6    1    1    2    0  503  0.48625727598E+02 -0.11844956128E+03 -0.37692668843E+03  0.43404779506E+03  0.17300000000E+03 0.  1.
<mgrwt>
<rscale>  2 0.21522955E+03</rscale>
<asrwt>0</asrwt>
<pdfrwt beam="1">  1       21 0.73232252E-02 0.21522955E+03</pdfrwt>
<pdfrwt beam="2">  1       21 0.15595643E+00 0.21522955E+03</pdfrwt>
<totfact> 0.37214204E+04</totfact>
</mgrwt>
</event>
<event>
 4    1  0.4056666E+000  0.1746124E+03  0.7546771E-02  0.1173121E+00
         21   -1    0    0  501  502  0.00000000000E+00  0.00000000000E+00  0.75570274447E+02  0.75570274447E+02  0.00000000000E+00 0.  1.
         21   -1    0    0  502  503 -0.00000000000E+00 -0.00000000000E+00 -0.47618256645E+03  0.47618256645E+03  0.00000000000E+00 0.  1.
          6    1    1    2  501    0  0.23578526341E+02  0.21352336770E+01 -0.92494551355E+02  0.19759743965E+03  0.17300000000E+03 0.  1.
         -6    1    1    2    0  503 -0.23578526341E+02 -0.21352336770E+01 -0.30811774065E+03  0.35415540124E+03  0.17300000000E+03 0.  1.
<mgrwt>
<rscale>  2 0.17461245E+03</rscale>
<asrwt>0</asrwt>
<pdfrwt beam="1">  1       21 0.11626196E-01 0.17461245E+03</pdfrwt>
<pdfrwt beam="2">  1       21 0.73258856E-01 0.17461245E+03</pdfrwt>
<totfact> 0.10476281E+05</totfact>
</mgrwt>
</event>
<event>
 4    1  0.4056666E+000  0.1904941E+03  0.7546771E-02  0.1158016E+00
         21   -1    0    0  501  502  0.00000000000E+00  0.00000000000E+00  0.73608806081E+02  0.73608806081E+02  0.00000000000E+00 0.  1.
         21   -1    0    0  502  503 -0.00000000000E+00 -0.00000000000E+00 -0.13952426780E+04  0.13952426780E+04  0.00000000000E+00 0.  1.
          6    1    1    2  501    0  0.15952051108E+02 -0.78131483607E+02 -0.70223738109E+02  0.20302554041E+03  0.17300000000E+03 0.  1.
         -6    1    1    2    0  503 -0.15952051108E+02  0.78131483607E+02 -0.12514101338E+04  0.12658259437E+04  0.17300000000E+03 0.  1.
<mgrwt>
<rscale>  2 0.19049409E+03</rscale>
<asrwt>0</asrwt>
<pdfrwt beam="1">  1       21 0.11324431E-01 0.19049409E+03</pdfrwt>
<pdfrwt beam="2">  1       21 0.21465273E+00 0.19049409E+03</pdfrwt>
<totfact> 0.70776122E+03</totfact>
</mgrwt>
</event>
<event>
 4    1  0.4056666E+000  0.1915574E+03  0.7546771E-02  0.1157064E+00
         21   -1    0    0  503  502  0.00000000000E+00  0.00000000000E+00  0.10498877273E+03  0.10498877273E+03  0.00000000000E+00 0.  1.
         21   -1    0    0  501  503 -0.00000000000E+00 -0.00000000000E+00 -0.41535044570E+03  0.41535044570E+03  0.00000000000E+00 0.  1.
          6    1    1    2  501    0  0.71728045701E+02  0.40253380616E+02 -0.25876837261E+03  0.32195545943E+03  0.17300000000E+03 0.  1.
         -6    1    1    2    0  502 -0.71728045701E+02 -0.40253380616E+02 -0.51593300356E+02  0.19838375899E+03  0.17300000000E+03 0.  1.
<mgrwt>
<rscale>  2 0.19155743E+03</rscale>
<asrwt>0</asrwt>
<pdfrwt beam="1">  1       21 0.16152119E-01 0.19155743E+03</pdfrwt>
<pdfrwt beam="2">  1       21 0.63900070E-01 0.19155743E+03</pdfrwt>
<totfact> 0.77550549E+04</totfact>
</mgrwt>
</event>
<event>
 4    1  0.4056666E+000  0.2195898E+03  0.7546771E-02  0.1134189E+00
         21   -1    0    0  503  502  0.00000000000E+00  0.00000000000E+00  0.25174724001E+02  0.25174724001E+02  0.00000000000E+00 0.  1.
         21   -1    0    0  501  503 -0.00000000000E+00 -0.00000000000E+00 -0.23095894378E+04  0.23095894378E+04  0.00000000000E+00 0. -1.
          6    1    1    2  501    0  0.10761975926E+03  0.81906515659E+02 -0.16244855298E+04  0.16392598715E+04  0.17300000000E+03 0. -1.
         -6    1    1    2    0  502 -0.10761975926E+03 -0.81906515659E+02 -0.65992918404E+03  0.69550429031E+03  0.17300000000E+03 0.  1.
<mgrwt>
<rscale>  2 0.21958982E+03</rscale>
<asrwt>0</asrwt>
<pdfrwt beam="1">  1       21 0.38730357E-02 0.21958982E+03</pdfrwt>
<pdfrwt beam="2">  1       21 0.35532133E+00 0.21958982E+03</pdfrwt>
<totfact> 0.65164620E+03</totfact>
</mgrwt>
</event>
<event>
 4    1  0.4056666E+000  0.1855676E+03  0.7546771E-02  0.1162521E+00
         21   -1    0    0  503  502  0.00000000000E+00  0.00000000000E+00  0.93883832273E+03  0.93883832273E+03  0.00000000000E+00 0.  1.
         21   -1    0    0  501  503 -0.00000000000E+00 -0.00000000000E+00 -0.13095182834E+03  0.13095182834E+03  0.00000000000E+00 0.  1.
          6    1    1    2  501    0  0.58413675151E+02 -0.33078553737E+02 -0.49900992289E+02  0.19215997813E+03  0.17300000000E+03 0.  1.
         -6    1    1    2    0  502 -0.58413675151E+02  0.33078553737E+02  0.85778748668E+03  0.87763017295E+03  0.17300000000E+03 0.  1.
<mgrwt>
<rscale>  2 0.18556764E+03</rscale>
<asrwt>0</asrwt>
<pdfrwt beam="1">  1       21 0.14443666E+00 0.18556764E+03</pdfrwt>
<pdfrwt beam="2">  1       21 0.20146436E-01 0.18556764E+03</pdfrwt>
<totfact> 0.75563985E+03</totfact>
</mgrwt>
</event>
<event>
 4    1  0.4056666E+000  0.1922863E+03  0.7546771E-02  0.1156415E+00
         21   -1    0    0  501  502  0.00000000000E+00  0.00000000000E+00  0.10408237989E+03  0.10408237989E+03  0.00000000000E+00 0.  1.
         21   -1    0    0  502  503 -0.00000000000E+00 -0.00000000000E+00 -0.61400388720E+03  0.61400388720E+03  0.00000000000E+00 0.  1.
          6    1    1    2  501    0 -0.39132660822E+02 -0.74253942105E+02 -0.21875604131E+02  0.19352662638E+03  0.17300000000E+03 0.  1.
         -6    1    1    2    0  503  0.39132660822E+02  0.74253942105E+02 -0.48804590318E+03  0.52455964071E+03  0.17300000000E+03 0.  1.
<mgrwt>
<rscale>  2 0.19228628E+03</rscale>
<asrwt>0</asrwt>
<pdfrwt beam="1">  1       21 0.16012674E-01 0.19228628E+03</pdfrwt>
<pdfrwt beam="2">  1       21 0.94462138E-01 0.19228628E+03</pdfrwt>
<totfact> 0.32692829E+04</totfact>
</mgrwt>
</event>
<event>
 4    1  0.4056666E+000  0.1868306E+03  0.7546771E-02  0.1161351E+00
         21   -1    0    0  501  502  0.00000000000E+00  0.00000000000E+00  0.61951463069E+02  0.61951463069E+02  0.00000000000E+00 0.  1.
         21   -1    0    0  502  503 -0.00000000000E+00 -0.00000000000E+00 -0.66905213391E+03  0.66905213391E+03  0.00000000000E+00 0.  1.
          6    1    1    2  501    0  0.49500487025E+02 -0.50262916356E+02 -0.15833064059E+03  0.24489640815E+03  0.17300000000E+03 0.  1.
         -6    1    1    2    0  503 -0.49500487025E+02  0.50262916356E+02 -0.44877003025E+03  0.48610718882E+03  0.17300000000E+03 0.  1.
<mgrwt>
<rscale>  2 0.18683056E+03</rscale>
<asrwt>0</asrwt>
<pdfrwt beam="1">  1       21 0.95309943E-02 0.18683056E+03</pdfrwt>
<pdfrwt beam="2">  1       21 0.10293110E+00 0.18683056E+03</pdfrwt>
<totfact> 0.67861420E+04</totfact>
</mgrwt>
</event>
<event>
 4    1  0.4056666E+000  0.2436077E+03  0.7546771E-02  0.1117413E+00
         21   -1    0    0  503  502  0.00000000000E+00  0.00000000000E+00  0.46969786661E+03  0.46969786661E+03  0.00000000000E+00 0. -1.
         21   -1    0    0  501  503 -0.00000000000E+00 -0.00000000000E+00 -0.26769829465E+03  0.26769829465E+03  0.00000000000E+00 0. -1.
          6    1    1    2  501    0 -0.92390543139E+02  0.14449808297E+03 -0.16691621355E+03  0.29530616449E+03  0.17300000000E+03 0. -1.
         -6    1    1    2    0  502  0.92390543139E+02 -0.14449808297E+03  0.36891578550E+03  0.44208999676E+03  0.17300000000E+03 0. -1.
<mgrwt>
<rscale>  2 0.24360769E+03</rscale>
<asrwt>0</asrwt>
<pdfrwt beam="1">  1       21 0.72261210E-01 0.24360769E+03</pdfrwt>
<pdfrwt beam="2">  1       21 0.41184353E-01 0.24360769E+03</pdfrwt>
<totfact> 0.94918869E+03</totfact>
</mgrwt>
</event>
<event>
 4    1  0.4056666E+000  0.1875789E+03  0.7546771E-02  0.1160663E+00
         21   -1    0    0  503  502  0.00000000000E+00  0.00000000000E+00  0.15391156147E+03  0.15391156147E+03  0.00000000000E+00 0.  1.
         21   -1    0    0  501  503 -0.00000000000E+00 -0.00000000000E+00 -0.38204165123E+03  0.38204165123E+03  0.00000000000E+00 0.  1.
          6    1    1    2  501    0  0.72151575848E+02  0.71402284918E+01 -0.28388862328E+03  0.34026252099E+03  0.17300000000E+03 0.  1.
         -6    1    1    2    0  502 -0.72151575848E+02 -0.71402284918E+01  0.55758533519E+02  0.19569069171E+03  0.17300000000E+03 0.  1.
<mgrwt>
<rscale>  2 0.18757887E+03</rscale>
<asrwt>0</asrwt>
<pdfrwt beam="1">  1       21 0.23678702E-01 0.18757887E+03</pdfrwt>
<pdfrwt beam="2">  1       21 0.58775639E-01 0.18757887E+03</pdfrwt>
<totfact> 0.45601309E+04</totfact>
</mgrwt>
</event>
<event>
 4    1  0.4056666E+000  0.1806616E+03  0.7546771E-02  0.1167164E+00
         21   -1    0    0  501  502  0.00000000000E+00  0.00000000000E+00  0.40225813524E+02  0.40225813524E+02  0.00000000000E+00 0.  1.
         21   -1    0    0  502  503 -0.00000000000E+00 -0.00000000000E+00 -0.97174524500E+03  0.97174524500E+03  0.00000000000E+00 0.  1.
          6    1    1    2  501    0 -0.47861989342E+02 -0.20465970995E+02 -0.26021321118E+03  0.31677995717E+03  0.17300000000E+03 0.  1.
         -6    1    1    2    0  503  0.47861989342E+02  0.20465970995E+02 -0.67130622029E+03  0.69519110135E+03  0.17300000000E+03 0.  1.
<mgrwt>
<rscale>  2 0.18066163E+03</rscale>
<asrwt>0</asrwt>
<pdfrwt beam="1">  1       21 0.61885871E-02 0.18066163E+03</pdfrwt>
<pdfrwt beam="2">  1       21 0.14949926E+00 0.18066163E+03</pdfrwt>
<totfact> 0.56757185E+04</totfact>
</mgrwt>
</event>
<event>
 4    1  0.4056666E+000  0.2528247E+03  0.7546771E-02  0.1111533E+00
         21   -1    0    0  503  502  0.00000000000E+00  0.00000000000E+00  0.26735359021E+03  0.26735359021E+03  0.00000000000E+00 0.  1.
         21   -1    0    0  501  503 -0.00000000000E+00 -0.00000000000E+00 -0.24056160859E+03  0.24056160859E+03  0.00000000000E+00 0. -1.
          6    1    1    2  501    0 -0.12857367587E+03  0.13213674081E+03  0.33290779706E+02  0.25500702816E+03  0.17300000000E+03 0.  1.
         -6    1    1    2    0  502  0.12857367587E+03 -0.13213674081E+03 -0.64987980863E+01  0.25290817064E+03  0.17300000000E+03 0.  1.
<mgrwt>
<rscale>  2 0.25282466E+03</rscale>
<asrwt>0</asrwt>
<pdfrwt beam="1">  1       21 0.41131321E-01 0.25282466E+03</pdfrwt>
<pdfrwt beam="2">  1       21 0.37009478E-01 0.25282466E+03</pdfrwt>
<totfact> 0.38971568E+04</totfact>
</mgrwt>
</event>
<event>
 4    1  0.4056666E+000  0.2514290E+03  0.7546771E-02  0.1112405E+00
         21   -1    0    0  503  502  0.00000000000E+00  0.00000000000E+00  0.67535402596E+02  0.67535402596E+02  0.00000000000E+00 0.  1.
         21   -1    0    0  501  503 -0.00000000000E+00 -0.00000000000E+00 -0.94015519045E+03  0.94015519045E+03  0.00000000000E+00 0.  1.
          6    1    1    2  501    0 -0.18236826141E+03  0.54170909545E+01 -0.40301688169E+03  0.47501487826E+03  0.17300000000E+03 0.  1.
         -6    1    1    2    0  502  0.18236826141E+03 -0.54170909545E+01 -0.46960290617E+03  0.53267571479E+03  0.17300000000E+03 0.  1.
<mgrwt>
<rscale>  2 0.25142897E+03</rscale>
<asrwt>0</asrwt>
<pdfrwt beam="1">  1       21 0.10390063E-01 0.25142897E+03</pdfrwt>
<pdfrwt beam="2">  1       21 0.14463925E+00 0.25142897E+03</pdfrwt>
<totfact> 0.24093176E+04</totfact>
</mgrwt>
</event>
<event>
 4    1  0.4056666E+000  0.1927079E+03  0.7546771E-02  0.1156041E+00
         21   -1    0    0  501  502  0.00000000000E+00  0.00000000000E+00  0.25544952301E+03  0.25544952301E+03  0.00000000000E+00 0. -1.
         21   -1    0    0  502  503 -0.00000000000E+00 -0.00000000000E+00 -0.31564307361E+03  0.31564307361E+03  0.00000000000E+00 0. -1.
          6    1    1    2  501    0  0.84522340765E+02 -0.79565754912E+01  0.17962485387E+03  0.26344149504E+03  0.17300000000E+03 0. -1.
         -6    1    1    2    0  503 -0.84522340765E+02  0.79565754912E+01 -0.23981840447E+03  0.30765110158E+03  0.17300000000E+03 0. -1.
<mgrwt>
<rscale>  2 0.19270790E+03</rscale>
<asrwt>0</asrwt>
<pdfrwt beam="1">  1       21 0.39299927E-01 0.19270790E+03</pdfrwt>
<pdfrwt beam="2">  1       21 0.48560473E-01 0.19270790E+03</pdfrwt>
<totfact> 0.25276148E+04</totfact>
</mgrwt>
</event>
<event>
 4    1  0.4056666E+000  0.2330459E+03  0.7546771E-02  0.1124514E+00
         21   -1    0    0  501  502  0.00000000000E+00  0.00000000000E+00  0.15502990021E+03  0.15502990021E+03  0.00000000000E+00 0.  1.
         21   -1    0    0  502  503 -0.00000000000E+00 -0.00000000000E+00 -0.44871473600E+03  0.44871473600E+03  0.00000000000E+00 0. -1.
          6    1    1    2  501    0 -0.15604178866E+03  0.56892823304E+01 -0.54847686778E+01  0.23311046830E+03  0.17300000000E+03 0. -1.
         -6    1    1    2    0  503  0.15604178866E+03 -0.56892823304E+01 -0.28820006711E+03  0.37063416791E+03  0.17300000000E+03 0.  1.
<mgrwt>
<rscale>  2 0.23304593E+03</rscale>
<asrwt>0</asrwt>
<pdfrwt beam="1">  1       21 0.23850754E-01 0.23304593E+03</pdfrwt>
<pdfrwt beam="2">  1       21 0.69033035E-01 0.23304593E+03</pdfrwt>
<totfact> 0.30992985E+04</totfact>
</mgrwt>
</event>
<event>
 4    1  0.4056666E+000  0.2188194E+03  0.7546771E-02  0.1134766E+00
         21   -1    0    0  503  502  0.00000000000E+00  0.00000000000E+00  0.71441224941E+03  0.71441224941E+03  0.00000000000E+00 0. -1.
         21   -1    0    0  501  503 -0.00000000000E+00 -0.00000000000E+00 -0.10616483077E+03  0.10616483077E+03  0.00000000000E+00 0.  1.
          6    1    1    2  501    0  0.46095997368E+02 -0.12580973508E+03  0.54996843748E+02  0.22562487282E+03  0.17300000000E+03 0.  1.
         -6    1    1    2    0  502 -0.46095997368E+02  0.12580973508E+03  0.55325057490E+03  0.59495220736E+03  0.17300000000E+03 0. -1.
<mgrwt>
<rscale>  2 0.21881940E+03</rscale>
<asrwt>0</asrwt>
<pdfrwt beam="1">  1       21 0.10990957E+00 0.21881940E+03</pdfrwt>
<pdfrwt beam="2">  1       21 0.16333051E-01 0.21881940E+03</pdfrwt>
<totfact> 0.21628986E+04</totfact>
</mgrwt>
</event>
<event>
 4    1  0.4056666E+000  0.2031014E+03  0.7546771E-02  0.1147148E+00
         21   -1    0    0  503  502  0.00000000000E+00  0.00000000000E+00  0.11287770127E+04  0.11287770127E+04  0.00000000000E+00 0.  1.
         21   -1    0    0  501  503 -0.00000000000E+00 -0.00000000000E+00 -0.65811316396E+02  0.65811316396E+02  0.00000000000E+00 0. -1.
          6    1    1    2  501    0  0.99867482244E+02 -0.36710548030E+02  0.13316621684E+03  0.24286502353E+03  0.17300000000E+03 0. -1.
         -6    1    1    2    0  502 -0.99867482244E+02  0.36710548030E+02  0.92979947949E+03  0.95172330559E+03  0.17300000000E+03 0.  1.
<mgrwt>
<rscale>  2 0.20310140E+03</rscale>
<asrwt>0</asrwt>
<pdfrwt beam="1">  1       21 0.17365799E+00 0.20310140E+03</pdfrwt>
<pdfrwt beam="2">  1       21 0.10124819E-01 0.20310140E+03</pdfrwt>
<totfact> 0.15849404E+04</totfact>
</mgrwt>
</event>
<event>
 4    1  0.4056666E+000  0.2094724E+03  0.7546771E-02  0.1141984E+00
         21   -1    0    0  501  502  0.00000000000E+00  0.00000000000E+00  0.32906470688E+03  0.32906470688E+03  0.00000000000E+00 0. -1.
         21   -1    0    0  502  503 -0.00000000000E+00 -0.00000000000E+00 -0.15725189536E+03  0.15725189536E+03  0.00000000000E+00 0. -1.
          6    1    1    2  501    0  0.11587464839E+03  0.22863677068E+02  0.18071882053E+03  0.27665497278E+03  0.17300000000E+03 0. -1.
         -6    1    1    2    0  503 -0.11587464839E+03 -0.22863677068E+02 -0.89060090107E+01  0.20966162945E+03  0.17300000000E+03 0. -1.
<mgrwt>
<rscale>  2 0.20947239E+03</rscale>
<asrwt>0</asrwt>
<pdfrwt beam="1">  1       21 0.50625340E-01 0.20947239E+03</pdfrwt>
<pdfrwt beam="2">  1       21 0.24192599E-01 0.20947239E+03</pdfrwt>
<totfact> 0.59403301E+04</totfact>
</mgrwt>
</event>
<event>
 4    1  0.4056666E+000  0.2044474E+03  0.7546771E-02  0.1146040E+00
         21   -1    0    0  501  502  0.00000000000E+00  0.00000000000E+00  0.57650852114E+02  0.57650852114E+02  0.00000000000E+00 0.  1.
         21   -1    0    0  502  503 -0.00000000000E+00 -0.00000000000E+00 -0.77648017909E+03  0.77648017909E+03  0.00000000000E+00 0.  1.
          6    1    1    2  501    0  0.84953717954E+02 -0.68209961269E+02 -0.25205958200E+03  0.32455009765E+03  0.17300000000E+03 0.  1.
         -6    1    1    2    0  503 -0.84953717954E+02  0.68209961269E+02 -0.46676974498E+03  0.50958093355E+03  0.17300000000E+03 0.  1.
<mgrwt>
<rscale>  2 0.20444738E+03</rscale>
<asrwt>0</asrwt>
<pdfrwt beam="1">  1       21 0.88693625E-02 0.20444738E+03</pdfrwt>
<pdfrwt beam="2">  1       21 0.11945848E+00 0.20444738E+03</pdfrwt>
<totfact> 0.53193507E+04</totfact>
</mgrwt>
</event>
<event>
 4    1  0.4056666E+000  0.1818436E+03  0.7546771E-02  0.1166031E+00
         21   -1    0    0  503  502  0.00000000000E+00  0.00000000000E+00  0.58602623792E+02  0.58602623792E+02  0.00000000000E+00 0. -1.
         21   -1    0    0  501  503 -0.00000000000E+00 -0.00000000000E+00 -0.57972924128E+03  0.57972924128E+03  0.00000000000E+00 0.  1.
          6    1    1    2  501    0 -0.47897830864E+01  0.55813471322E+02 -0.31270028420E+03  0.36172994532E+03  0.17300000000E+03 0. -1.
         -6    1    1    2    0  502  0.47897830864E+01 -0.55813471322E+02 -0.20842633329E+03  0.27660191975E+03  0.17300000000E+03 0.  1.
<mgrwt>
<rscale>  2 0.18184357E+03</rscale>
<asrwt>0</asrwt>
<pdfrwt beam="1">  1       21 0.90157886E-02 0.18184357E+03</pdfrwt>
<pdfrwt beam="2">  1       21 0.89189111E-01 0.18184357E+03</pdfrwt>
<totfact> 0.10491840E+05</totfact>
</mgrwt>
</event>
<event>
 4    1  0.4056666E+000  0.2282425E+03  0.7546771E-02  0.1127883E+00
         21   -1    0    0  503  502  0.00000000000E+00  0.00000000000E+00  0.70428044881E+02  0.70428044881E+02  0.00000000000E+00 0. -1.
         21   -1    0    0  501  503 -0.00000000000E+00 -0.00000000000E+00 -0.10620357282E+04  0.10620357282E+04  0.00000000000E+00 0.  1.
          6    1    1    2  501    0 -0.20456129805E+02  0.14746925859E+03 -0.80775632331E+03  0.83938365086E+03  0.17300000000E+03 0.  1.
         -6    1    1    2    0  502  0.20456129805E+02 -0.14746925859E+03 -0.18385136006E+03  0.29308012227E+03  0.17300000000E+03 0. -1.
<mgrwt>
<rscale>  2 0.22824249E+03</rscale>
<asrwt>0</asrwt>
<pdfrwt beam="1">  1       21 0.10835084E-01 0.22824249E+03</pdfrwt>
<pdfrwt beam="2">  1       21 0.16339011E+00 0.22824249E+03</pdfrwt>
<totfact> 0.16339175E+04</totfact>
</mgrwt>
</event>
<event>
 4    1  0.4056666E+000  0.2264273E+03  0.7546771E-02  0.1129180E+00
         21   -1    0    0  501  502  0.00000000000E+00  0.00000000000E+00  0.90760105586E+02  0.90760105586E+02  0.00000000000E+00 0. -1.
         21   -1    0    0  502  503 -0.00000000000E+00 -0.00000000000E+00 -0.56499861605E+03  0.56499861605E+03  0.00000000000E+00 0.  1.
          6    1    1    2  501    0  0.53212878024E+02  0.13604665719E+03 -0.23253351829E+03  0.32456299920E+03  0.17300000000E+03 0. -1.
         -6    1    1    2    0  503 -0.53212878024E+02 -0.13604665719E+03 -0.24170499217E+03  0.33119572244E+03  0.17300000000E+03 0. -1.
<mgrwt>
<rscale>  2 0.22642726E+03</rscale>
<asrwt>0</asrwt>
<pdfrwt beam="1">  1       21 0.13963093E-01 0.22642726E+03</pdfrwt>
<pdfrwt beam="2">  1       21 0.86922864E-01 0.22642726E+03</pdfrwt>
<totfact> 0.50035251E+04</totfact>
</mgrwt>
</event>
<event>
 4    1  0.4056666E+000  0.2972196E+03  0.7546771E-02  0.1086639E+00
         21   -1    0    0  503  502  0.00000000000E+00  0.00000000000E+00  0.74161619566E+03  0.74161619566E+03  0.00000000000E+00 0. -1.
         21   -1    0    0  501  503 -0.00000000000E+00 -0.00000000000E+00 -0.14406686063E+03  0.14406686063E+03  0.00000000000E+00 0.  1.
          6    1    1    2  501    0 -0.19122265104E+03  0.14779837463E+03  0.11448708723E+03  0.31850707207E+03  0.17300000000E+03 0.  1.
         -6    1    1    2    0  502  0.19122265104E+03 -0.14779837463E+03  0.48306224780E+03  0.56717598421E+03  0.17300000000E+03 0. -1.
<mgrwt>
<rscale>  2 0.29721955E+03</rscale>
<asrwt>0</asrwt>
<pdfrwt beam="1">  1       21 0.11409480E+00 0.29721955E+03</pdfrwt>
<pdfrwt beam="2">  1       21 0.22164133E-01 0.29721955E+03</pdfrwt>
<totfact> 0.10704806E+04</totfact>
</mgrwt>
</event>
<event>
 4    1  0.4056666E+000  0.1812644E+03  0.7546771E-02  0.1166585E+00
         21   -1    0    0  501  502  0.00000000000E+00  0.00000000000E+00  0.87141486967E+03  0.87141486967E+03  0.00000000000E+00 0. -1.
         21   -1    0    0  502  503 -0.00000000000E+00 -0.00000000000E+00 -0.42253935386E+02  0.42253935386E+02  0.00000000000E+00 0. -1.
          6    1    1    2  501    0  0.44343893770E+02  0.31006356640E+02  0.56447157288E+03  0.59286164631E+03  0.17300000000E+03 0. -1.
         -6    1    1    2    0  503 -0.44343893770E+02 -0.31006356640E+02  0.26468936140E+03  0.32080715875E+03  0.17300000000E+03 0. -1.
<mgrwt>
<rscale>  2 0.18126438E+03</rscale>
<asrwt>0</asrwt>
<pdfrwt beam="1">  1       21 0.13406381E+00 0.18126438E+03</pdfrwt>
<pdfrwt beam="2">  1       21 0.65006061E-02 0.18126438E+03</pdfrwt>
<totfact> 0.69102449E+04</totfact>
</mgrwt>
</event>
<event>
 4    1  0.4056666E+000  0.2732217E+03  0.7546771E-02  0.1099450E+00
         21   -1    0    0  501  502  0.00000000000E+00  0.00000000000E+00  0.83319854743E+03  0.83319854743E+03  0.00000000000E+00 0. -1.
         21   -1    0    0  502  503 -0.00000000000E+00 -0.00000000000E+00 -0.17156530094E+03  0.17156530094E+03  0.00000000000E+00 0. -1.
          6    1    1    2  501    0 -0.18886173270E+03  0.95143824833E+02  0.67807167028E+03  0.73104807743E+03  0.17300000000E+03 0. -1.
         -6    1    1    2    0  503  0.18886173270E+03 -0.95143824833E+02 -0.16438423790E+02  0.27371577094E+03  0.17300000000E+03 0. -1.
<mgrwt>
<rscale>  2 0.27322171E+03</rscale>
<asrwt>0</asrwt>
<pdfrwt beam="1">  1       21 0.12818439E+00 0.27322171E+03</pdfrwt>
<pdfrwt beam="2">  1       21 0.26394662E-01 0.27322171E+03</pdfrwt>
<totfact> 0.57859238E+03</totfact>
</mgrwt>
</event>
<event>
 4    1  0.4056666E+000  0.2617790E+03  0.7546771E-02  0.1106079E+00
         21   -1    0    0  501  502  0.00000000000E+00  0.00000000000E+00  0.41330224655E+03  0.41330224655E+03  0.00000000000E+00 0.  1.
         21   -1    0    0  502  503 -0.00000000000E+00 -0.00000000000E+00 -0.19864714691E+03  0.19864714691E+03  0.00000000000E+00 0. -1.
          6    1    1    2  501    0  0.22045140543E+02  0.19522619223E+03 -0.17080737771E+02  0.26233567420E+03  0.17300000000E+03 0. -1.
         -6    1    1    2    0  503 -0.22045140543E+02 -0.19522619223E+03  0.23173583741E+03  0.34961371926E+03  0.17300000000E+03 0.  1.
<mgrwt>
<rscale>  2 0.26177902E+03</rscale>
<asrwt>0</asrwt>
<pdfrwt beam="1">  1       21 0.63584961E-01 0.26177902E+03</pdfrwt>
<pdfrwt beam="2">  1       21 0.30561100E-01 0.26177902E+03</pdfrwt>
<totfact> 0.22667300E+04</totfact>
</mgrwt>
</event>
<event>
 4    1  0.4056666E+000  0.2473555E+03  0.7546771E-02  0.1114988E+00
         21   -1    0    0  501  502  0.00000000000E+00  0.00000000000E+00  0.66030944012E+03  0.66030944012E+03  0.00000000000E+00 0.  1.
         21   -1    0    0  502  503 -0.00000000000E+00 -0.00000000000E+00 -0.13291600986E+03  0.13291600986E+03  0.00000000000E+00 0. -1.
          6    1    1    2  501    0  0.15911354379E+03 -0.77062419575E+02  0.48196446537E+03  0.54173285133E+03  0.17300000000E+03 0. -1.
         -6    1    1    2    0  503 -0.15911354379E+03  0.77062419575E+02  0.45428964898E+02  0.25149259866E+03  0.17300000000E+03 0. -1.
<mgrwt>
<rscale>  2 0.24735549E+03</rscale>
<asrwt>0</asrwt>
<pdfrwt beam="1">  1       21 0.10158607E+00 0.24735549E+03</pdfrwt>
<pdfrwt beam="2">  1       21 0.20448617E-01 0.24735549E+03</pdfrwt>
<totfact> 0.16959408E+04</totfact>
</mgrwt>
</event>
<event>
 4    1  0.4056666E+000  0.2223824E+03  0.7546771E-02  0.1132119E+00
         21   -1    0    0  503  502  0.00000000000E+00  0.00000000000E+00  0.19939210491E+03  0.19939210491E+03  0.00000000000E+00 0. -1.
         21   -1    0    0  501  503 -0.00000000000E+00 -0.00000000000E+00 -0.10969373314E+04  0.10969373314E+04  0.00000000000E+00 0. -1.
          6    1    1    2  501    0  0.12667084397E+02 -0.13915630004E+03 -0.10189713878E+04  0.10429557133E+04  0.17300000000E+03 0. -1.
         -6    1    1    2    0  502 -0.12667084397E+02  0.13915630004E+03  0.12142616126E+03  0.25337372300E+03  0.17300000000E+03 0. -1.
<mgrwt>
<rscale>  2 0.22238240E+03</rscale>
<asrwt>0</asrwt>
<pdfrwt beam="1">  1       21 0.30675708E-01 0.22238240E+03</pdfrwt>
<pdfrwt beam="2">  1       21 0.16875959E+00 0.22238240E+03</pdfrwt>
<totfact> 0.21608559E+03</totfact>
</mgrwt>
</event>
<event>
 4    1  0.4056666E+000  0.2211041E+03  0.7546771E-02  0.1133063E+00
         21   -1    0    0  501  502  0.00000000000E+00  0.00000000000E+00  0.13156356408E+03  0.13156356408E+03  0.00000000000E+00 0. -1.
         21   -1    0    0  502  503 -0.00000000000E+00 -0.00000000000E+00 -0.90804950953E+03  0.90804950953E+03  0.00000000000E+00 0.  1.
          6    1    1    2  501    0  0.10442153937E+03  0.89744984389E+02  0.11294532198E+02  0.22139238145E+03  0.17300000000E+03 0. -1.
         -6    1    1    2    0  503 -0.10442153937E+03 -0.89744984389E+02 -0.78778047765E+03  0.81822069216E+03  0.17300000000E+03 0.  1.
<mgrwt>
<rscale>  2 0.22110409E+03</rscale>
<asrwt>0</asrwt>
<pdfrwt beam="1">  1       21 0.20240548E-01 0.22110409E+03</pdfrwt>
<pdfrwt beam="2">  1       21 0.13969992E+00 0.22110409E+03</pdfrwt>
<totfact> 0.79523525E+03</totfact>
</mgrwt>
</event>
<event>
 4    1  0.4056666E+000  0.2211645E+03  0.7546771E-02  0.1133018E+00
         21   -1    0    0  501  502  0.00000000000E+00  0.00000000000E+00  0.49323110799E+02  0.49323110799E+02  0.00000000000E+00 0.  1.
         21   -1    0    0  502  503 -0.00000000000E+00 -0.00000000000E+00 -0.10420186570E+04  0.10420186570E+04  0.00000000000E+00 0.  1.
          6    1    1    2  501    0  0.12809053161E+03  0.50769636054E+02 -0.37643745098E+03  0.43659923812E+03  0.17300000000E+03 0.  1.
         -6    1    1    2    0  503 -0.12809053161E+03 -0.50769636054E+02 -0.61625809520E+03  0.65474252965E+03  0.17300000000E+03 0.  1.
<mgrwt>
<rscale>  2 0.22116451E+03</rscale>
<asrwt>0</asrwt>
<pdfrwt beam="1">  1       21 0.75881720E-02 0.22116451E+03</pdfrwt>
<pdfrwt beam="2">  1       21 0.16031054E+00 0.22116451E+03</pdfrwt>
<totfact> 0.32366335E+04</totfact>
</mgrwt>
</event>
<event>
 4    1  0.4056666E+000  0.1932687E+03  0.7546771E-02  0.1155546E+00
         21   -1    0    0  501  502  0.00000000000E+00  0.00000000000E+00  0.12265129681E+03  0.12265129681E+03  0.00000000000E+00 0. -1.
         21   -1    0    0  502  503 -0.00000000000E+00 -0.00000000000E+00 -0.30773027239E+03  0.30773027239E+03  0.00000000000E+00 0.  1.
          6    1    1    2  501    0 -0.85452943530E+02 -0.11025979134E+02 -0.11443453975E+03  0.22460641500E+03  0.17300000000E+03 0.  1.
         -6    1    1    2    0  503  0.85452943530E+02  0.11025979134E+02 -0.70644435832E+02  0.20577515420E+03  0.17300000000E+03 0. -1.
<mgrwt>
<rscale>  2 0.19326867E+03</rscale>
<asrwt>0</asrwt>
<pdfrwt beam="1">  1       21 0.18869430E-01 0.19326867E+03</pdfrwt>
<pdfrwt beam="2">  1       21 0.47343119E-01 0.19326867E+03</pdfrwt>
<totfact> 0.10977920E+05</totfact>
</mgrwt>
</event>
<event>
 4    1  0.4056666E+000  0.1909758E+03  0.7546771E-02  0.1157584E+00
         21   -1    0    0  503  502  0.00000000000E+00  0.00000000000E+00  0.62975775887E+03  0.62975775887E+03  0.00000000000E+00 0. -1.
         21   -1    0    0  501  503 -0.00000000000E+00 -0.00000000000E+00 -0.21440058467E+03  0.21440058467E+03  0.00000000000E+00 0. -1.
          6    1    1    2  501    0  0.12725455166E+02  0.79879986432E+02 -0.15291631807E+03  0.24465312132E+03  0.17300000000E+03 0. -1.
         -6    1    1    2    0  502 -0.12725455166E+02 -0.79879986432E+02  0.56827349228E+03  0.59950522222E+03  0.17300000000E+03 0. -1.
<mgrwt>
<rscale>  2 0.19097578E+03</rscale>
<asrwt>0</asrwt>
<pdfrwt beam="1">  1       21 0.96885808E-01 0.19097578E+03</pdfrwt>
<pdfrwt beam="2">  1       21 0.32984706E-01 0.19097578E+03</pdfrwt>
<totfact> 0.78374246E+03</totfact>
</mgrwt>
</event>
<event>
 4    1  0.4056666E+000  0.2245306E+03  0.7546771E-02  0.1130550E+00
         21   -1    0    0  501  502  0.00000000000E+00  0.00000000000E+00  0.14699863062E+04  0.14699863062E+04  0.00000000000E+00 0.  1.
         21   -1    0    0  502  503 -0.00000000000E+00 -0.00000000000E+00 -0.42380920291E+02  0.42380920291E+02  0.00000000000E+00 0. -1.
          6    1    1    2  501    0 -0.47529604041E+02 -0.13500345370E+03  0.10440900131E+04  0.10679597142E+04  0.17300000000E+03 0.  1.
         -6    1    1    2    0  503  0.47529604041E+02  0.13500345370E+03  0.38351537282E+03  0.44440751227E+03  0.17300000000E+03 0. -1.
<mgrwt>
<rscale>  2 0.22453061E+03</rscale>
<asrwt>0</asrwt>
<pdfrwt beam="1">  1       21 0.22615170E+00 0.22453061E+03</pdfrwt>
<pdfrwt beam="2">  1       21 0.65201427E-02 0.22453061E+03</pdfrwt>
<totfact> 0.15374254E+04</totfact>
</mgrwt>
</event>
<event>
 4    1  0.4056666E+000  0.2609440E+03  0.7546771E-02  0.1106577E+00
         21   -1    0    0  501  502  0.00000000000E+00  0.00000000000E+00  0.97700345017E+02  0.97700345017E+02  0.00000000000E+00 0. -1.
         21   -1    0    0  502  503 -0.00000000000E+00 -0.00000000000E+00 -0.69935103645E+03  0.69935103645E+03  0.00000000000E+00 0.  1.
          6    1    1    2  501    0  0.61144094657E+02  0.18553746368E+03 -0.32420159297E+03  0.41617114703E+03  0.17300000000E+03 0. -1.
         -6    1    1    2    0  503 -0.61144094657E+02 -0.18553746368E+03 -0.27744909847E+03  0.38088023443E+03  0.17300000000E+03 0.  1.
<mgrwt>
<rscale>  2 0.26094396E+03</rscale>
<asrwt>0</asrwt>
<pdfrwt beam="1">  1       21 0.15030822E-01 0.26094396E+03</pdfrwt>
<pdfrwt beam="2">  1       21 0.10759247E+00 0.26094396E+03</pdfrwt>
<totfact> 0.25969926E+04</totfact>
</mgrwt>
</event>
<event>
 4    1  0.4056666E+000  0.2109446E+03  0.7546771E-02  0.1140820E+00
         21   -1    0    0  501  502  0.00000000000E+00  0.00000000000E+00  0.96623674326E+03  0.96623674326E+03  0.00000000000E+00 0. -1.
         21   -1    0    0  502  503 -0.00000000000E+00 -0.00000000000E+00 -0.10083984003E+03  0.10083984003E+03  0.00000000000E+00 0. -1.
          6    1    1    2  501    0  0.10531221773E+03 -0.58974176446E+02  0.82596737698E+03  0.85247857716E+03  0.17300000000E+03 0. -1.
         -6    1    1    2    0  503 -0.10531221773E+03  0.58974176446E+02  0.39429526248E+02  0.21459800612E+03  0.17300000000E+03 0. -1.
<mgrwt>
<rscale>  2 0.21094458E+03</rscale>
<asrwt>0</asrwt>
<pdfrwt beam="1">  1       21 0.14865180E+00 0.21094458E+03</pdfrwt>
<pdfrwt beam="2">  1       21 0.15513822E-01 0.21094458E+03</pdfrwt>
<totfact> 0.11142027E+04</totfact>
</mgrwt>
</event>
<event>
 4    1  0.4056666E+000  0.1803339E+03  0.7546771E-02  0.1167480E+00
         21   -1    0    0  503  502  0.00000000000E+00  0.00000000000E+00  0.53596123151E+03  0.53596123151E+03  0.00000000000E+00 0. -1.
         21   -1    0    0  501  503 -0.00000000000E+00 -0.00000000000E+00 -0.67961966797E+02  0.67961966797E+02  0.00000000000E+00 0. -1.
          6    1    1    2  501    0 -0.38464839977E+02 -0.33343114138E+02  0.13513422688E+03  0.22534765685E+03  0.17300000000E+03 0. -1.
         -6    1    1    2    0  502  0.38464839977E+02  0.33343114138E+02  0.33286503783E+03  0.37857554145E+03  0.17300000000E+03 0. -1.
<mgrwt>
<rscale>  2 0.18033388E+03</rscale>
<asrwt>0</asrwt>
<pdfrwt beam="1">  1       21 0.82455571E-01 0.18033388E+03</pdfrwt>
<pdfrwt beam="2">  1       21 0.10455688E-01 0.18033388E+03</pdfrwt>
<totfact> 0.96786199E+04</totfact>
</mgrwt>
</event>
<event>
 4    1  0.4056666E+000  0.1756930E+03  0.7546771E-02  0.1172038E+00
         21   -1    0    0  503  502  0.00000000000E+00  0.00000000000E+00  0.95122650886E+03  0.95122650886E+03  0.00000000000E+00 0. -1.
         21   -1    0    0  501  503 -0.00000000000E+00 -0.00000000000E+00 -0.44823756373E+02  0.44823756373E+02  0.00000000000E+00 0. -1.
          6    1    1    2  501    0  0.10674700142E+02 -0.28724068123E+02  0.19154301813E+03  0.25991681189E+03  0.17300000000E+03 0. -1.
         -6    1    1    2    0  502 -0.10674700142E+02  0.28724068123E+02  0.71485973436E+03  0.73613345334E+03  0.17300000000E+03 0. -1.
<mgrwt>
<rscale>  2 0.17569297E+03</rscale>
<asrwt>0</asrwt>
<pdfrwt beam="1">  1       21 0.14634253E+00 0.17569297E+03</pdfrwt>
<pdfrwt beam="2">  1       21 0.68959632E-02 0.17569297E+03</pdfrwt>
<totfact> 0.49975192E+04</totfact>
</mgrwt>
</event>
<event>
 4    1  0.4056666E+000  0.4992298E+03  0.7546771E-02  0.1013980E+00
         21   -1    0    0  503  502  0.00000000000E+00  0.00000000000E+00  0.49857000101E+03  0.49857000101E+03  0.00000000000E+00 0.  1.
         21   -1    0    0  501  503 -0.00000000000E+00 -0.00000000000E+00 -0.60646959695E+03  0.60646959695E+03  0.00000000000E+00 0. -1.
          6    1    1    2  501    0 -0.30552428853E+03 -0.35490318612E+03 -0.28557164943E+03  0.57513609638E+03  0.17300000000E+03 0. -1.
         -6    1    1    2    0  502  0.30552428853E+03  0.35490318612E+03  0.17767205348E+03  0.52990350158E+03  0.17300000000E+03 0.  1.
<mgrwt>
<rscale>  2 0.49922977E+03</rscale>
<asrwt>0</asrwt>
<pdfrwt beam="1">  1       21 0.76703077E-01 0.49922977E+03</pdfrwt>
<pdfrwt beam="2">  1       21 0.93303015E-01 0.49922977E+03</pdfrwt>
<totfact> 0.12251325E+03</totfact>
</mgrwt>
</event>
<event>
 4    1  0.4056666E+000  0.2555254E+03  0.7546771E-02  0.1109862E+00
         21   -1    0    0  503  502  0.00000000000E+00  0.00000000000E+00  0.11598435559E+04  0.11598435559E+04  0.00000000000E+00 0. -1.
         21   -1    0    0  501  503 -0.00000000000E+00 -0.00000000000E+00 -0.11943561980E+03  0.11943561980E+03  0.00000000000E+00 0.  1.
          6    1    1    2  501    0  0.17038846108E+03  0.79573935862E+02  0.55128664655E+02  0.26140468360E+03  0.17300000000E+03 0.  1.
         -6    1    1    2    0  502 -0.17038846108E+03 -0.79573935862E+02  0.98527927147E+03  0.10178744921E+04  0.17300000000E+03 0. -1.
<mgrwt>
<rscale>  2 0.25552542E+03</rscale>
<asrwt>0</asrwt>
<pdfrwt beam="1">  1       21 0.17843746E+00 0.25552542E+03</pdfrwt>
<pdfrwt beam="2">  1       21 0.18374712E-01 0.25552542E+03</pdfrwt>
<totfact> 0.47957693E+03</totfact>
</mgrwt>
</event>
<event>
 4    1  0.4056666E+000  0.1880909E+03  0.7546771E-02  0.1160195E+00
         21   -1    0    0  503  502  0.00000000000E+00  0.00000000000E+00  0.36942185323E+02  0.36942185323E+02  0.00000000000E+00 0.  1.
         21   -1    0    0  501  503 -0.00000000000E+00 -0.00000000000E+00 -0.17307304185E+04  0.17307304185E+04  0.00000000000E+00 0. -1.
          6    1    1    2  501    0  0.67661645224E+02 -0.29514503066E+02 -0.14375921189E+04  0.14498445795E+04  0.17300000000E+03 0. -1.
         -6    1    1    2    0  502 -0.67661645224E+02  0.29514503066E+02 -0.25619611423E+03  0.31782802437E+03  0.17300000000E+03 0.  1.
<mgrwt>
<rscale>  2 0.18809095E+03</rscale>
<asrwt>0</asrwt>
<pdfrwt beam="1">  1       21 0.56834123E-02 0.18809095E+03</pdfrwt>
<pdfrwt beam="2">  1       21 0.26626626E+00 0.18809095E+03</pdfrwt>
<totfact> 0.11610806E+04</totfact>
</mgrwt>
</event>
<event>
 4    1  0.4056666E+000  0.1826171E+03  0.7546771E-02  0.1165294E+00
         21   -1    0    0  503  502  0.00000000000E+00  0.00000000000E+00  0.41558869144E+02  0.41558869144E+02  0.00000000000E+00 0.  1.
         21   -1    0    0  501  503 -0.00000000000E+00 -0.00000000000E+00 -0.99097321262E+03  0.99097321262E+03  0.00000000000E+00 0.  1.
          6    1    1    2  501    0  0.13268706651E+02 -0.56955553624E+02 -0.69988354727E+03  0.72331595683E+03  0.17300000000E+03 0. -1.
         -6    1    1    2    0  502 -0.13268706651E+02  0.56955553624E+02 -0.24953079621E+03  0.30921612494E+03  0.17300000000E+03 0. -1.
<mgrwt>
<rscale>  2 0.18261707E+03</rscale>
<asrwt>0</asrwt>
<pdfrwt beam="1">  1       21 0.63936728E-02 0.18261707E+03</pdfrwt>
<pdfrwt beam="2">  1       21 0.15245740E+00 0.18261707E+03</pdfrwt>
<totfact> 0.50919523E+04</totfact>
</mgrwt>
</event>
<event>
 4    1  0.4056666E+000  0.1765717E+03  0.7546771E-02  0.1171163E+00
         21   -1    0    0  501  502  0.00000000000E+00  0.00000000000E+00  0.60746587950E+02  0.60746587950E+02  0.00000000000E+00 0.  1.
         21   -1    0    0  502  503 -0.00000000000E+00 -0.00000000000E+00 -0.96368520940E+03  0.96368520940E+03  0.00000000000E+00 0.  1.
          6    1    1    2  501    0  0.11400369422E+02  0.33445230671E+02 -0.10127695838E+03  0.20355484317E+03  0.17300000000E+03 0.  1.
         -6    1    1    2    0  503 -0.11400369422E+02 -0.33445230671E+02 -0.80166166306E+03  0.82087695418E+03  0.17300000000E+03 0.  1.
<mgrwt>
<rscale>  2 0.17657166E+03</rscale>
<asrwt>0</asrwt>
<pdfrwt beam="1">  1       21 0.93456296E-02 0.17657166E+03</pdfrwt>
<pdfrwt beam="2">  1       21 0.14825925E+00 0.17657166E+03</pdfrwt>
<totfact> 0.28467666E+04</totfact>
</mgrwt>
</event>
<event>
 4    1  0.4056666E+000  0.1852416E+03  0.7546771E-02  0.1162824E+00
         21   -1    0    0  501  502  0.00000000000E+00  0.00000000000E+00  0.20012469787E+04  0.20012469787E+04  0.00000000000E+00 0.  1.
         21   -1    0    0  502  503 -0.00000000000E+00 -0.00000000000E+00 -0.28734598241E+02  0.28734598241E+02  0.00000000000E+00 0.  1.
          6    1    1    2  501    0 -0.10188529929E+02  0.65434334822E+02  0.16308184888E+04  0.16413053957E+04  0.17300000000E+03 0.  1.
         -6    1    1    2    0  503  0.10188529929E+02 -0.65434334822E+02  0.34169389160E+03  0.38867618125E+03  0.17300000000E+03 0.  1.
<mgrwt>
<rscale>  2 0.18524162E+03</rscale>
<asrwt>0</asrwt>
<pdfrwt beam="1">  1       21 0.30788404E+00 0.18524162E+03</pdfrwt>
<pdfrwt beam="2">  1       21 0.44207090E-02 0.18524162E+03</pdfrwt>
<totfact> 0.10268841E+04</totfact>
</mgrwt>
</event>
<event>
 4    1  0.4056666E+000  0.2248299E+03  0.7546771E-02  0.1130333E+00
         21   -1    0    0  503  502  0.00000000000E+00  0.00000000000E+00  0.83714377526E+02  0.83714377526E+02  0.00000000000E+00 0. -1.
         21   -1    0    0  501  503 -0.00000000000E+00 -0.00000000000E+00 -0.68864936105E+03  0.68864936105E+03  0.00000000000E+00 0.  1.
          6    1    1    2  501    0  0.12721578157E+03  0.66600411871E+02 -0.43800647932E+03  0.49233946203E+03  0.17300000000E+03 0.  1.
         -6    1    1    2    0  502 -0.12721578157E+03 -0.66600411871E+02 -0.16692850420E+03  0.28002427655E+03  0.17300000000E+03 0. -1.
<mgrwt>
<rscale>  2 0.22482987E+03</rscale>
<asrwt>0</asrwt>
<pdfrwt beam="1">  1       21 0.12879135E-01 0.22482987E+03</pdfrwt>
<pdfrwt beam="2">  1       21 0.10594606E+00 0.22482987E+03</pdfrwt>
<totfact> 0.36332315E+04</totfact>
</mgrwt>
</event>
<event>
 4    1  0.4056666E+000  0.1836919E+03  0.7546771E-02  0.1164277E+00
         21   -1    0    0  501  502  0.00000000000E+00  0.00000000000E+00  0.19398025171E+03  0.19398025171E+03  0.00000000000E+00 0.  1.
         21   -1    0    0  502  503 -0.00000000000E+00 -0.00000000000E+00 -0.19334931136E+03  0.19334931136E+03  0.00000000000E+00 0.  1.
          6    1    1    2  501    0  0.61690291987E+02  0.28347014344E+01 -0.61029704151E+02  0.19356485333E+03  0.17300000000E+03 0.  1.
         -6    1    1    2    0  503 -0.61690291987E+02 -0.28347014344E+01  0.61660644507E+02  0.19376470974E+03  0.17300000000E+03 0.  1.
<mgrwt>
<rscale>  2 0.18369194E+03</rscale>
<asrwt>0</asrwt>
<pdfrwt beam="1">  1       21 0.29843116E-01 0.18369194E+03</pdfrwt>
<pdfrwt beam="2">  1       21 0.29746048E-01 0.18369194E+03</pdfrwt>
<totfact> 0.11700529E+05</totfact>
</mgrwt>
</event>
<event>
 4    1  0.4056666E+000  0.1772728E+03  0.7546771E-02  0.1170469E+00
         21   -1    0    0  501  502  0.00000000000E+00  0.00000000000E+00  0.19804237562E+02  0.19804237562E+02  0.00000000000E+00 0.  1.
         21   -1    0    0  502  503 -0.00000000000E+00 -0.00000000000E+00 -0.16173099135E+04  0.16173099135E+04  0.00000000000E+00 0. -1.
          6    1    1    2  501    0 -0.21479156086E+02 -0.32175810353E+02 -0.68635064468E+03  0.70887435020E+03  0.17300000000E+03 0.  1.
         -6    1    1    2    0  503  0.21479156086E+02  0.32175810353E+02 -0.91115503122E+03  0.92823980082E+03  0.17300000000E+03 0. -1.
<mgrwt>
<rscale>  2 0.17727278E+03</rscale>
<asrwt>0</asrwt>
<pdfrwt beam="1">  1       21 0.30468061E-02 0.17727278E+03</pdfrwt>
<pdfrwt beam="2">  1       21 0.24881688E+00 0.17727278E+03</pdfrwt>
<totfact> 0.42191785E+04</totfact>
</mgrwt>
</event>
<event>
 4    1  0.4056666E+000  0.2137045E+03  0.7546771E-02  0.1138666E+00
         21   -1    0    0  501  502  0.00000000000E+00  0.00000000000E+00  0.24392290596E+03  0.24392290596E+03  0.00000000000E+00 0. -1.
         21   -1    0    0  502  503 -0.00000000000E+00 -0.00000000000E+00 -0.19187882591E+03  0.19187882591E+03  0.00000000000E+00 0. -1.
          6    1    1    2  501    0  0.10906406835E+03  0.62013104755E+02 -0.78962705746E+01  0.21385029169E+03  0.17300000000E+03 0. -1.
         -6    1    1    2    0  503 -0.10906406835E+03 -0.62013104755E+02  0.59940350616E+02  0.22195144018E+03  0.17300000000E+03 0. -1.
<mgrwt>
<rscale>  2 0.21370446E+03</rscale>
<asrwt>0</asrwt>
<pdfrwt beam="1">  1       21 0.37526601E-01 0.21370446E+03</pdfrwt>
<pdfrwt beam="2">  1       21 0.29519819E-01 0.21370446E+03</pdfrwt>
<totfact> 0.74627541E+04</totfact>
</mgrwt>
</event>
<event>
 4    1  0.4056666E+000  0.2863718E+03  0.7546771E-02  0.1092259E+00
         21   -1    0    0  503  502  0.00000000000E+00  0.00000000000E+00  0.24450802133E+03  0.24450802133E+03  0.00000000000E+00 0. -1.
         21   -1    0    0  501  503 -0.00000000000E+00 -0.00000000000E+00 -0.44920747366E+03  0.44920747366E+03  0.00000000000E+00 0. -1.
          6    1    1    2  501    0 -0.19592317910E+03  0.11702100466E+03 -0.27693472584E+03  0.39837375669E+03  0.17300000000E+03 0. -1.
         -6    1    1    2    0  502  0.19592317910E+03 -0.11702100466E+03  0.72235273514E+02  0.29534173830E+03  0.17300000000E+03 0. -1.
<mgrwt>
<rscale>  2 0.28637180E+03</rscale>
<asrwt>0</asrwt>
<pdfrwt beam="1">  1       21 0.37616619E-01 0.28637180E+03</pdfrwt>
<pdfrwt beam="2">  1       21 0.69108842E-01 0.28637180E+03</pdfrwt>
<totfact> 0.12328559E+04</totfact>
</mgrwt>
</event>
<event>
 4    1  0.4056666E+000  0.2358351E+03  0.7546771E-02  0.1122599E+00
         21   -1    0    0  501  502  0.00000000000E+00  0.00000000000E+00  0.84199010126E+02  0.84199010126E+02  0.00000000000E+00 0.  1.
         21   -1    0    0  502  503 -0.00000000000E+00 -0.00000000000E+00 -0.10566509786E+04  0.10566509786E+04  0.00000000000E+00 0. -1.
          6    1    1    2  501    0  0.11549370004E+03 -0.11113239560E+03 -0.83547256014E+03  0.86812015462E+03  0.17300000000E+03 0. -1.
         -6    1    1    2    0  503 -0.11549370004E+03  0.11113239560E+03 -0.13697940832E+03  0.27272983409E+03  0.17300000000E+03 0.  1.
<mgrwt>
<rscale>  2 0.23583512E+03</rscale>
<asrwt>0</asrwt>
<pdfrwt beam="1">  1       21 0.12953694E-01 0.23583512E+03</pdfrwt>
<pdfrwt beam="2">  1       21 0.16256169E+00 0.23583512E+03</pdfrwt>
<totfact> 0.11965517E+04</totfact>
</mgrwt>
</event>
<event>
 4    1  0.4056666E+000  0.1931668E+03  0.7546771E-02  0.1155636E+00
         21   -1    0    0  503  502  0.00000000000E+00  0.00000000000E+00  0.17211642686E+03  0.17211642686E+03  0.00000000000E+00 0.  1.
         21   -1    0    0  501  503 -0.00000000000E+00 -0.00000000000E+00 -0.37055969308E+03  0.37055969308E+03  0.00000000000E+00 0. -1.
          6    1    1    2  501    0 -0.57736054910E+01 -0.85738436048E+02 -0.27401083129E+03  0.33525415672E+03  0.17300000000E+03 0. -1.
         -6    1    1    2    0  502  0.57736054910E+01  0.85738436048E+02  0.75567565064E+02  0.20742196322E+03  0.17300000000E+03 0.  1.
<mgrwt>
<rscale>  2 0.19316680E+03</rscale>
<asrwt>0</asrwt>
<pdfrwt beam="1">  1       21 0.26479451E-01 0.19316680E+03</pdfrwt>
<pdfrwt beam="2">  1       21 0.57009183E-01 0.19316680E+03</pdfrwt>
<totfact> 0.39210868E+04</totfact>
</mgrwt>
</event>
<event>
 4    1  0.4056666E+000  0.1798346E+03  0.7546771E-02  0.1167963E+00
         21   -1    0    0  501  502  0.00000000000E+00  0.00000000000E+00  0.12699423287E+04  0.12699423287E+04  0.00000000000E+00 0. -1.
         21   -1    0    0  502  503 -0.00000000000E+00 -0.00000000000E+00 -0.46457927093E+02  0.46457927093E+02  0.00000000000E+00 0. -1.
          6    1    1    2  501    0 -0.45518907230E+02  0.18425827561E+02  0.10541809322E+04  0.10694100803E+04  0.17300000000E+03 0. -1.
         -6    1    1    2    0  503  0.45518907230E+02 -0.18425827561E+02  0.16930346941E+03  0.24699017549E+03  0.17300000000E+03 0. -1.
<mgrwt>
<rscale>  2 0.17983460E+03</rscale>
<asrwt>0</asrwt>
<pdfrwt beam="1">  1       21 0.19537572E+00 0.17983460E+03</pdfrwt>
<pdfrwt beam="2">  1       21 0.71473744E-02 0.17983460E+03</pdfrwt>
<totfact> 0.21191299E+04</totfact>
</mgrwt>
</event>
<event>
 4    1  0.4056666E+000  0.1787892E+03  0.7546771E-02  0.1168980E+00
         21   -1    0    0  501  502  0.00000000000E+00  0.00000000000E+00  0.43820269818E+03  0.43820269818E+03  0.00000000000E+00 0. -1.
         21   -1    0    0  502  503 -0.00000000000E+00 -0.00000000000E+00 -0.74962313409E+02  0.74962313409E+02  0.00000000000E+00 0. -1.
          6    1    1    2  501    0  0.32024426590E+02 -0.31796486241E+02  0.22369041692E+03  0.28636162986E+03  0.17300000000E+03 0. -1.
         -6    1    1    2    0  503 -0.32024426590E+02  0.31796486241E+02  0.13954996785E+03  0.22680338173E+03  0.17300000000E+03 0. -1.
<mgrwt>
<rscale>  2 0.17878921E+03</rscale>
<asrwt>0</asrwt>
<pdfrwt beam="1">  1       21 0.67415798E-01 0.17878921E+03</pdfrwt>
<pdfrwt beam="2">  1       21 0.11532664E-01 0.17878921E+03</pdfrwt>
<totfact> 0.12741532E+05</totfact>
</mgrwt>
</event>
<event>
 4    1  0.4056666E+000  0.2044077E+03  0.7546771E-02  0.1146073E+00
         21   -1    0    0  503  502  0.00000000000E+00  0.00000000000E+00  0.71911313639E+02  0.71911313639E+02  0.00000000000E+00 0. -1.
         21   -1    0    0  501  503 -0.00000000000E+00 -0.00000000000E+00 -0.89389070658E+03  0.89389070658E+03  0.00000000000E+00 0.  1.
          6    1    1    2  501    0 -0.99591222647E+02  0.43989811632E+02 -0.69667804436E+03  0.72604601276E+03  0.17300000000E+03 0.  1.
         -6    1    1    2    0  502  0.99591222647E+02 -0.43989811632E+02 -0.12530134858E+03  0.23975600746E+03  0.17300000000E+03 0. -1.
<mgrwt>
<rscale>  2 0.20440772E+03</rscale>
<asrwt>0</asrwt>
<pdfrwt beam="1">  1       21 0.11063278E-01 0.20440772E+03</pdfrwt>
<pdfrwt beam="2">  1       21 0.13752166E+00 0.20440772E+03</pdfrwt>
<totfact> 0.25231085E+04</totfact>
</mgrwt>
</event>
<event>
 4    1  0.4056666E+000  0.3059733E+03  0.7546771E-02  0.1082292E+00
         21   -1    0    0  501  502  0.00000000000E+00  0.00000000000E+00  0.83194604264E+02  0.83194604264E+02  0.00000000000E+00 0. -1.
         21   -1    0    0  502  503 -0.00000000000E+00 -0.00000000000E+00 -0.11409759217E+04  0.11409759217E+04  0.00000000000E+00 0. -1.
          6    1    1    2  501    0  0.17874629818E+03  0.17815839687E+03 -0.60061437111E+03  0.67406029127E+03  0.17300000000E+03 0. -1.
         -6    1    1    2    0  503 -0.17874629818E+03 -0.17815839687E+03 -0.45716694628E+03  0.55011023465E+03  0.17300000000E+03 0. -1.
<mgrwt>
<rscale>  2 0.30597329E+03</rscale>
<asrwt>0</asrwt>
<pdfrwt beam="1">  1       21 0.12799170E-01 0.30597329E+03</pdfrwt>
<pdfrwt beam="2">  1       21 0.17553475E+00 0.30597329E+03</pdfrwt>
<totfact> 0.94869375E+03</totfact>
</mgrwt>
</event>
<event>
 4    1  0.4056666E+000  0.2182736E+03  0.7546771E-02  0.1135177E+00
         21   -1    0    0  503  502  0.00000000000E+00  0.00000000000E+00  0.96806927224E+02  0.96806927224E+02  0.00000000000E+00 0. -1.
         21   -1    0    0  501  503 -0.00000000000E+00 -0.00000000000E+00 -0.60464313594E+03  0.60464313594E+03  0.00000000000E+00 0. -1.
          6    1    1    2  501    0 -0.83397472911E+01  0.13283376266E+03 -0.40519882618E+03  0.46024933310E+03  0.17300000000E+03 0. -1.
         -6    1    1    2    0  502  0.83397472911E+01 -0.13283376266E+03 -0.10263738254E+03  0.24120073006E+03  0.17300000000E+03 0. -1.
<mgrwt>
<rscale>  2 0.21827359E+03</rscale>
<asrwt>0</asrwt>
<pdfrwt beam="1">  1       21 0.14893373E-01 0.21827359E+03</pdfrwt>
<pdfrwt beam="2">  1       21 0.93022022E-01 0.21827359E+03</pdfrwt>
<totfact> 0.38151144E+04</totfact>
</mgrwt>
</event>
<event>
 4    1  0.4056666E+000  0.4647590E+03  0.7546771E-02  0.1023410E+00
         21   -1    0    0  503  502  0.00000000000E+00  0.00000000000E+00  0.40227332733E+03  0.40227332733E+03  0.00000000000E+00 0.  1.
         21   -1    0    0  501  503 -0.00000000000E+00 -0.00000000000E+00 -0.82091320779E+03  0.82091320779E+03  0.00000000000E+00 0.  1.
          6    1    1    2  501    0 -0.22052236638E+03 -0.37073142770E+03 -0.56902342923E+03  0.73470304789E+03  0.17300000000E+03 0.  1.
         -6    1    1    2    0  502  0.22052236638E+03  0.37073142770E+03  0.15038354877E+03  0.48848348724E+03  0.17300000000E+03 0.  1.
<mgrwt>
<rscale>  2 0.46475898E+03</rscale>
<asrwt>0</asrwt>
<pdfrwt beam="1">  1       21 0.61888205E-01 0.46475898E+03</pdfrwt>
<pdfrwt beam="2">  1       21 0.12629434E+00 0.46475898E+03</pdfrwt>
<totfact> 0.94883248E+02</totfact>
</mgrwt>
</event>
<event>
 4    1  0.4056666E+000  0.1853279E+03  0.7546771E-02  0.1162744E+00
         21   -1    0    0  501  502  0.00000000000E+00  0.00000000000E+00  0.23826252867E+03  0.23826252867E+03  0.00000000000E+00 0.  1.
         21   -1    0    0  502  503 -0.00000000000E+00 -0.00000000000E+00 -0.18629922578E+03  0.18629922578E+03  0.00000000000E+00 0.  1.
          6    1    1    2  501    0 -0.45793497664E+02 -0.48170399570E+02  0.12694899749E+03  0.22463855365E+03  0.17300000000E+03 0.  1.
         -6    1    1    2    0  503  0.45793497664E+02  0.48170399570E+02 -0.74985694604E+02  0.19992320080E+03  0.17300000000E+03 0.  1.
<mgrwt>
<rscale>  2 0.18532790E+03</rscale>
<asrwt>0</asrwt>
<pdfrwt beam="1">  1       21 0.36655774E-01 0.18532790E+03</pdfrwt>
<pdfrwt beam="2">  1       21 0.28661419E-01 0.18532790E+03</pdfrwt>
<totfact> 0.83827010E+04</totfact>
</mgrwt>
</event>
<event>
 4    1  0.4056666E+000  0.1999098E+03  0.7546771E-02  0.1149815E+00
         21   -1    0    0  501  502  0.00000000000E+00  0.00000000000E+00  0.79024068791E+03  0.79024068791E+03  0.00000000000E+00 0.  1.
         21   -1    0    0  502  503 -0.00000000000E+00 -0.00000000000E+00 -0.79999272649E+02  0.79999272649E+02  0.00000000000E+00 0.  1.
          6    1    1    2  501    0  0.75118528770E+02  0.66273178754E+02  0.61902240032E+03  0.65050185218E+03  0.17300000000E+03 0.  1.
         -6    1    1    2    0  503 -0.75118528770E+02 -0.66273178754E+02  0.91219014933E+02  0.21973810837E+03  0.17300000000E+03 0.  1.
<mgrwt>
<rscale>  2 0.19990980E+03</rscale>
<asrwt>0</asrwt>
<pdfrwt beam="1">  1       21 0.12157549E+00 0.19990980E+03</pdfrwt>
<pdfrwt beam="2">  1       21 0.12307581E-01 0.19990980E+03</pdfrwt>
<totfact> 0.28548085E+04</totfact>
</mgrwt>
</event>
<event>
 4    1  0.4056666E+000  0.1923985E+03  0.7546771E-02  0.1156316E+00
         21   -1    0    0  501  502  0.00000000000E+00  0.00000000000E+00  0.25095005281E+03  0.25095005281E+03  0.00000000000E+00 0. -1.
         21   -1    0    0  502  503 -0.00000000000E+00 -0.00000000000E+00 -0.34544167775E+03  0.34544167775E+03  0.00000000000E+00 0. -1.
          6    1    1    2  501    0 -0.30103109188E+02  0.78625673714E+02  0.17847617420E+03  0.26243273140E+03  0.17300000000E+03 0. -1.
         -6    1    1    2    0  503  0.30103109188E+02 -0.78625673714E+02 -0.27296779915E+03  0.33395899916E+03  0.17300000000E+03 0. -1.
<mgrwt>
<rscale>  2 0.19239853E+03</rscale>
<asrwt>0</asrwt>
<pdfrwt beam="1">  1       21 0.38607700E-01 0.19239853E+03</pdfrwt>
<pdfrwt beam="2">  1       21 0.53144873E-01 0.19239853E+03</pdfrwt>
<totfact> 0.21698261E+04</totfact>
</mgrwt>
</event>
<event>
 4    1  0.4056666E+000  0.2416069E+03  0.7546771E-02  0.1118727E+00
         21   -1    0    0  501  502  0.00000000000E+00  0.00000000000E+00  0.24851068227E+03  0.24851068227E+03  0.00000000000E+00 0.  1.
         21   -1    0    0  502  503 -0.00000000000E+00 -0.00000000000E+00 -0.36870088501E+03  0.36870088501E+03  0.00000000000E+00 0.  1.
          6    1    1    2  501    0  0.16205538960E+03 -0.46721822467E+02  0.12581578918E+03  0.27240317693E+03  0.17300000000E+03 0.  1.
         -6    1    1    2    0  503 -0.16205538960E+03  0.46721822467E+02 -0.24600599192E+03  0.34480839035E+03  0.17300000000E+03 0.  1.
<mgrwt>
<rscale>  2 0.24160687E+03</rscale>
<asrwt>0</asrwt>
<pdfrwt beam="1">  1       21 0.38232413E-01 0.24160687E+03</pdfrwt>
<pdfrwt beam="2">  1       21 0.56723213E-01 0.24160687E+03</pdfrwt>
<totfact> 0.18751112E+04</totfact>
</mgrwt>
</event>
<event>
 4    1  0.4056666E+000  0.2028730E+03  0.7546771E-02  0.1147337E+00
         21   -1    0    0  501  502  0.00000000000E+00  0.00000000000E+00  0.15422692382E+04  0.15422692382E+04  0.00000000000E+00 0. -1.
         21   -1    0    0  502  503 -0.00000000000E+00 -0.00000000000E+00 -0.49136935872E+02  0.49136935872E+02  0.00000000000E+00 0. -1.
          6    1    1    2  501    0 -0.16058860382E+01 -0.10595230925E+03  0.12844162599E+04  0.13003394170E+04  0.17300000000E+03 0. -1.
         -6    1    1    2    0  503  0.16058860382E+01  0.10595230925E+03  0.20871604242E+03  0.29106675707E+03  0.17300000000E+03 0. -1.
<mgrwt>
<rscale>  2 0.20287304E+03</rscale>
<asrwt>0</asrwt>
<pdfrwt beam="1">  1       21 0.23727215E+00 0.20287304E+03</pdfrwt>
<pdfrwt beam="2">  1       21 0.75595298E-02 0.20287304E+03</pdfrwt>
<totfact> 0.10376045E+04</totfact>
</mgrwt>
</event>
<event>
 4    1  0.4056666E+000  0.3218811E+03  0.7546771E-02  0.1074787E+00
         21   -1    0    0  503  502  0.00000000000E+00  0.00000000000E+00  0.41185425622E+03  0.41185425622E+03  0.00000000000E+00 0. -1.
         21   -1    0    0  501  503 -0.00000000000E+00 -0.00000000000E+00 -0.58180488961E+03  0.58180488961E+03  0.00000000000E+00 0.  1.
          6    1    1    2  501    0 -0.10293582569E+03  0.25116261747E+03 -0.45928804231E+03  0.56085020320E+03  0.17300000000E+03 0.  1.
         -6    1    1    2    0  502  0.10293582569E+03 -0.25116261747E+03  0.28933740892E+03  0.43280894263E+03  0.17300000000E+03 0. -1.
<mgrwt>
<rscale>  2 0.32188110E+03</rscale>
<asrwt>0</asrwt>
<pdfrwt beam="1">  1       21 0.63362194E-01 0.32188110E+03</pdfrwt>
<pdfrwt beam="2">  1       21 0.89508444E-01 0.32188110E+03</pdfrwt>
<totfact> 0.22419406E+03</totfact>
</mgrwt>
</event>
<event>
 4    1  0.4056666E+000  0.2681139E+03  0.7546771E-02  0.1102364E+00
         21   -1    0    0  503  502  0.00000000000E+00  0.00000000000E+00  0.96389519693E+03  0.96389519693E+03  0.00000000000E+00 0. -1.
         21   -1    0    0  501  503 -0.00000000000E+00 -0.00000000000E+00 -0.75017257209E+02  0.75017257209E+02  0.00000000000E+00 0. -1.
          6    1    1    2  501    0  0.10518363552E+03 -0.17576249712E+03  0.48420329571E+03  0.55347798886E+03  0.17300000000E+03 0. -1.
         -6    1    1    2    0  502 -0.10518363552E+03  0.17576249712E+03  0.40467464401E+03  0.48543446528E+03  0.17300000000E+03 0. -1.
<mgrwt>
<rscale>  2 0.26811388E+03</rscale>
<asrwt>0</asrwt>
<pdfrwt beam="1">  1       21 0.14829156E+00 0.26811388E+03</pdfrwt>
<pdfrwt beam="2">  1       21 0.11541117E-01 0.26811388E+03</pdfrwt>
<totfact> 0.18530426E+04</totfact>
</mgrwt>
</event>
<event>
 4    1  0.4056666E+000  0.2836606E+03  0.7546771E-02  0.1093706E+00
         21   -1    0    0  503  502  0.00000000000E+00  0.00000000000E+00  0.19655362891E+03  0.19655362891E+03  0.00000000000E+00 0.  1.
         21   -1    0    0  501  503 -0.00000000000E+00 -0.00000000000E+00 -0.46097757250E+03  0.46097757250E+03  0.00000000000E+00 0. -1.
          6    1    1    2  501    0  0.18468443131E+03 -0.12816403373E+03 -0.22210394174E+02  0.28452883917E+03  0.17300000000E+03 0.  1.
         -6    1    1    2    0  502 -0.18468443131E+03  0.12816403373E+03 -0.24221354942E+03  0.37300236224E+03  0.17300000000E+03 0. -1.
<mgrwt>
<rscale>  2 0.28366064E+03</rscale>
<asrwt>0</asrwt>
<pdfrwt beam="1">  1       21 0.30239020E-01 0.28366064E+03</pdfrwt>
<pdfrwt beam="2">  1       21 0.70919627E-01 0.28366064E+03</pdfrwt>
<totfact> 0.18011108E+04</totfact>
</mgrwt>
</event>
<event>
 4    1  0.4056666E+000  0.1991490E+03  0.7546771E-02  0.1150459E+00
         21   -1    0    0  501  502  0.00000000000E+00  0.00000000000E+00  0.13117431755E+03  0.13117431755E+03  0.00000000000E+00 0.  1.
         21   -1    0    0  502  503 -0.00000000000E+00 -0.00000000000E+00 -0.39296685487E+03  0.39296685487E+03  0.00000000000E+00 0.  1.
          6    1    1    2  501    0 -0.46854555590E+02 -0.86810102758E+02 -0.50475849877E+01  0.19921300518E+03  0.17300000000E+03 0.  1.
         -6    1    1    2    0  503  0.46854555590E+02  0.86810102758E+02 -0.25674495233E+03  0.32492816724E+03  0.17300000000E+03 0.  1.
<mgrwt>
<rscale>  2 0.19914905E+03</rscale>
<asrwt>0</asrwt>
<pdfrwt beam="1">  1       21 0.20180664E-01 0.19914905E+03</pdfrwt>
<pdfrwt beam="2">  1       21 0.60456439E-01 0.19914905E+03</pdfrwt>
<totfact> 0.57688327E+04</totfact>
</mgrwt>
</event>
<event>
 4    1  0.4056666E+000  0.1961745E+03  0.7546771E-02  0.1153007E+00
         21   -1    0    0  503  502  0.00000000000E+00  0.00000000000E+00  0.54178659434E+03  0.54178659434E+03  0.00000000000E+00 0.  1.
         21   -1    0    0  501  503 -0.00000000000E+00 -0.00000000000E+00 -0.77188806244E+02  0.77188806244E+02  0.00000000000E+00 0.  1.
          6    1    1    2  501    0  0.69413636784E+02 -0.61132491311E+02  0.14489560847E+03  0.24388352101E+03  0.17300000000E+03 0.  1.
         -6    1    1    2    0  502 -0.69413636784E+02  0.61132491311E+02  0.31970217963E+03  0.37509187958E+03  0.17300000000E+03 0.  1.
<mgrwt>
<rscale>  2 0.19617450E+03</rscale>
<asrwt>0</asrwt>
<pdfrwt beam="1">  1       21 0.83351781E-01 0.19617450E+03</pdfrwt>
<pdfrwt beam="2">  1       21 0.11875201E-01 0.19617450E+03</pdfrwt>
<totfact> 0.74800927E+04</totfact>
</mgrwt>
</event>
<event>
 4    1  0.4056666E+000  0.2206282E+03  0.7546771E-02  0.1133416E+00
         21   -1    0    0  501  502  0.00000000000E+00  0.00000000000E+00  0.10339040585E+03  0.10339040585E+03  0.00000000000E+00 0. -1.
         21   -1    0    0  502  503 -0.00000000000E+00 -0.00000000000E+00 -0.96285153739E+03  0.96285153739E+03  0.00000000000E+00 0. -1.
          6    1    1    2  501    0  0.79442163552E+02 -0.11152024246E+03 -0.48621957702E+02  0.22592236852E+03  0.17300000000E+03 0. -1.
         -6    1    1    2    0  503 -0.79442163552E+02  0.11152024246E+03 -0.81083917383E+03  0.84031957471E+03  0.17300000000E+03 0. -1.
<mgrwt>
<rscale>  2 0.22062824E+03</rscale>
<asrwt>0</asrwt>
<pdfrwt beam="1">  1       21 0.15906216E-01 0.22062824E+03</pdfrwt>
<pdfrwt beam="2">  1       21 0.14813101E+00 0.22062824E+03</pdfrwt>
<totfact> 0.10670514E+04</totfact>
</mgrwt>
</event>
<event>
 4    1  0.4056666E+000  0.2200805E+03  0.7546771E-02  0.1133823E+00
         21   -1    0    0  503  502  0.00000000000E+00  0.00000000000E+00  0.35020057411E+03  0.35020057411E+03  0.00000000000E+00 0. -1.
         21   -1    0    0  501  503 -0.00000000000E+00 -0.00000000000E+00 -0.15128353983E+03  0.15128353983E+03  0.00000000000E+00 0.  1.
          6    1    1    2  501    0  0.79604068124E+02 -0.11031595692E+03  0.26024051290E+02  0.22161378400E+03  0.17300000000E+03 0.  1.
         -6    1    1    2    0  502 -0.79604068124E+02  0.11031595692E+03  0.17289298299E+03  0.27987032994E+03  0.17300000000E+03 0. -1.
<mgrwt>
<rscale>  2 0.22008048E+03</rscale>
<asrwt>0</asrwt>
<pdfrwt beam="1">  1       21 0.53877011E-01 0.22008048E+03</pdfrwt>
<pdfrwt beam="2">  1       21 0.23274391E-01 0.22008048E+03</pdfrwt>
<totfact> 0.55828968E+04</totfact>
</mgrwt>
</event>
<event>
 4    1  0.4056666E+000  0.2212284E+03  0.7546771E-02  0.1132971E+00
         21   -1    0    0  503  502  0.00000000000E+00  0.00000000000E+00  0.30271270808E+02  0.30271270808E+02  0.00000000000E+00 0.  1.
         21   -1    0    0  501  503 -0.00000000000E+00 -0.00000000000E+00 -0.16223264815E+04  0.16223264815E+04  0.00000000000E+00 0. -1.
          6    1    1    2  501    0  0.38416606801E+02 -0.13242793283E+03 -0.74771431040E+03  0.77975552775E+03  0.17300000000E+03 0. -1.
         -6    1    1    2    0  502 -0.38416606801E+02  0.13242793283E+03 -0.84434090030E+03  0.87284222457E+03  0.17300000000E+03 0.  1.
<mgrwt>
<rscale>  2 0.22122837E+03</rscale>
<asrwt>0</asrwt>
<pdfrwt beam="1">  1       21 0.46571190E-02 0.22122837E+03</pdfrwt>
<pdfrwt beam="2">  1       21 0.24958867E+00 0.22122837E+03</pdfrwt>
<totfact> 0.19805699E+04</totfact>
</mgrwt>
</event>
<event>
 4    1  0.4056666E+000  0.1750173E+03  0.7546771E-02  0.1172714E+00
         21   -1    0    0  503  502  0.00000000000E+00  0.00000000000E+00  0.49876950096E+02  0.49876950096E+02  0.00000000000E+00 0. -1.
         21   -1    0    0  501  503 -0.00000000000E+00 -0.00000000000E+00 -0.85375609336E+03  0.85375609336E+03  0.00000000000E+00 0. -1.
          6    1    1    2  501    0  0.15420152863E+02  0.21546800493E+02 -0.64130431124E+03  0.66475729807E+03  0.17300000000E+03 0. -1.
         -6    1    1    2    0  502 -0.15420152863E+02 -0.21546800493E+02 -0.16257483203E+03  0.23887574539E+03  0.17300000000E+03 0. -1.
<mgrwt>
<rscale>  2 0.17501727E+03</rscale>
<asrwt>0</asrwt>
<pdfrwt beam="1">  1       21 0.76733773E-02 0.17501727E+03</pdfrwt>
<pdfrwt beam="2">  1       21 0.13134709E+00 0.17501727E+03</pdfrwt>
<totfact> 0.54844887E+04</totfact>
</mgrwt>
</event>
<event>
 4    1  0.4056666E+000  0.1737862E+03  0.7546771E-02  0.1173956E+00
         21   -1    0    0  503  502  0.00000000000E+00  0.00000000000E+00  0.27001601332E+03  0.27001601332E+03  0.00000000000E+00 0.  1.
         21   -1    0    0  501  503 -0.00000000000E+00 -0.00000000000E+00 -0.11867212155E+03  0.11867212155E+03  0.00000000000E+00 0.  1.
          6    1    1    2  501    0  0.92098665699E+01 -0.13705127975E+02  0.12226423965E+03  0.21248575593E+03  0.17300000000E+03 0.  1.
         -6    1    1    2    0  502 -0.92098665699E+01  0.13705127975E+02  0.29079652115E+02  0.17620237893E+03  0.17300000000E+03 0.  1.
<mgrwt>
<rscale>  2 0.17378623E+03</rscale>
<asrwt>0</asrwt>
<pdfrwt beam="1">  1       21 0.41540925E-01 0.17378623E+03</pdfrwt>
<pdfrwt beam="2">  1       21 0.18257249E-01 0.17378623E+03</pdfrwt>
<totfact> 0.15352297E+05</totfact>
</mgrwt>
</event>
<event>
 4    1  0.4056666E+000  0.1932286E+03  0.7546771E-02  0.1155581E+00
         21   -1    0    0  503  502  0.00000000000E+00  0.00000000000E+00  0.90713224547E+03  0.90713224547E+03  0.00000000000E+00 0. -1.
         21   -1    0    0  501  503 -0.00000000000E+00 -0.00000000000E+00 -0.41508119283E+02  0.41508119283E+02  0.00000000000E+00 0. -1.
          6    1    1    2  501    0 -0.83354155436E+02  0.21456530122E+02  0.38935589028E+03  0.43466689224E+03  0.17300000000E+03 0. -1.
         -6    1    1    2    0  502  0.83354155436E+02 -0.21456530122E+02  0.47626823591E+03  0.51397347251E+03  0.17300000000E+03 0. -1.
<mgrwt>
<rscale>  2 0.19322862E+03</rscale>
<asrwt>0</asrwt>
<pdfrwt beam="1">  1       21 0.13955879E+00 0.19322862E+03</pdfrwt>
<pdfrwt beam="2">  1       21 0.63858652E-02 0.19322862E+03</pdfrwt>
<totfact> 0.63907013E+04</totfact>
</mgrwt>
</event>
<event>
 4    1  0.4056666E+000  0.1874083E+03  0.7546771E-02  0.1160820E+00
         21   -1    0    0  503  502  0.00000000000E+00  0.00000000000E+00  0.22079398205E+03  0.22079398205E+03  0.00000000000E+00 0. -1.
         21   -1    0    0  501  503 -0.00000000000E+00 -0.00000000000E+00 -0.16162880892E+03  0.16162880892E+03  0.00000000000E+00 0. -1.
          6    1    1    2  501    0 -0.42023175614E+02  0.58539920003E+02  0.53637713718E+02  0.19493299838E+03  0.17300000000E+03 0. -1.
         -6    1    1    2    0  502  0.42023175614E+02 -0.58539920003E+02  0.55274594124E+01  0.18748979260E+03  0.17300000000E+03 0. -1.
<mgrwt>
<rscale>  2 0.18740830E+03</rscale>
<asrwt>0</asrwt>
<pdfrwt beam="1">  1       21 0.33968305E-01 0.18740830E+03</pdfrwt>
<pdfrwt beam="2">  1       21 0.24865970E-01 0.18740830E+03</pdfrwt>
<totfact> 0.12800927E+05</totfact>
</mgrwt>
</event>
<event>
 4    1  0.4056666E+000  0.1964924E+03  0.7546771E-02  0.1152733E+00
         21   -1    0    0  501  502  0.00000000000E+00  0.00000000000E+00  0.26877728134E+02  0.26877728134E+02  0.00000000000E+00 0.  1.
         21   -1    0    0  502  503 -0.00000000000E+00 -0.00000000000E+00 -0.14450842482E+04  0.14450842482E+04  0.00000000000E+00 0.  1.
          6    1    1    2  501    0 -0.14196561891E+02 -0.92079978505E+02 -0.76590050475E+03  0.79070402047E+03  0.17300000000E+03 0.  1.
         -6    1    1    2    0  503  0.14196561891E+02  0.92079978505E+02 -0.65230601531E+03  0.68125795586E+03  0.17300000000E+03 0.  1.
<mgrwt>
<rscale>  2 0.19649240E+03</rscale>
<asrwt>0</asrwt>
<pdfrwt beam="1">  1       21 0.41350351E-02 0.19649240E+03</pdfrwt>
<pdfrwt beam="2">  1       21 0.22232065E+00 0.19649240E+03</pdfrwt>
<totfact> 0.35980848E+04</totfact>
</mgrwt>
</event>
<event>
 4    1  0.4056666E+000  0.1881367E+03  0.7546771E-02  0.1160153E+00
         21   -1    0    0  503  502  0.00000000000E+00  0.00000000000E+00  0.35442431648E+03  0.35442431648E+03  0.00000000000E+00 0. -1.
         21   -1    0    0  501  503 -0.00000000000E+00 -0.00000000000E+00 -0.10303737051E+03  0.10303737051E+03  0.00000000000E+00 0. -1.
          6    1    1    2  501    0 -0.41290729524E+01 -0.73819803959E+02  0.16581331976E+03  0.25077772969E+03  0.17300000000E+03 0. -1.
         -6    1    1    2    0  502  0.41290729524E+01  0.73819803959E+02  0.85573626216E+02  0.20668395730E+03  0.17300000000E+03 0. -1.
<mgrwt>
<rscale>  2 0.18813669E+03</rscale>
<asrwt>0</asrwt>
<pdfrwt beam="1">  1       21 0.54526817E-01 0.18813669E+03</pdfrwt>
<pdfrwt beam="2">  1       21 0.15851903E-01 0.18813669E+03</pdfrwt>
<totfact> 0.11285220E+05</totfact>
</mgrwt>
</event>
<event>
 4    1  0.4056666E+000  0.2932174E+03  0.7546771E-02  0.1088681E+00
         21   -1    0    0  503  502  0.00000000000E+00  0.00000000000E+00  0.49915435270E+03  0.49915435270E+03  0.00000000000E+00 0.  1.
         21   -1    0    0  501  503 -0.00000000000E+00 -0.00000000000E+00 -0.53058948573E+03  0.53058948573E+03  0.00000000000E+00 0. -1.
          6    1    1    2  501    0 -0.19914948342E+03  0.12801147401E+03 -0.43884454775E+03  0.52778877528E+03  0.17300000000E+03 0. -1.
         -6    1    1    2    0  502  0.19914948342E+03 -0.12801147401E+03  0.40740941472E+03  0.50195506315E+03  0.17300000000E+03 0.  1.
<mgrwt>
<rscale>  2 0.29321742E+03</rscale>
<asrwt>0</asrwt>
<pdfrwt beam="1">  1       21 0.76792978E-01 0.29321742E+03</pdfrwt>
<pdfrwt beam="2">  1       21 0.81629151E-01 0.29321742E+03</pdfrwt>
<totfact> 0.18377658E+03</totfact>
</mgrwt>
</event>
<event>
 4    1  0.4056666E+000  0.1775420E+03  0.7546771E-02  0.1170203E+00
         21   -1    0    0  501  502  0.00000000000E+00  0.00000000000E+00  0.11261058370E+03  0.11261058370E+03  0.00000000000E+00 0.  1.
         21   -1    0    0  502  503 -0.00000000000E+00 -0.00000000000E+00 -0.28590553364E+03  0.28590553364E+03  0.00000000000E+00 0.  1.
          6    1    1    2  501    0  0.37644538073E+02 -0.13230167857E+02 -0.11549546498E+03  0.21180262279E+03  0.17300000000E+03 0.  1.
         -6    1    1    2    0  503 -0.37644538073E+02  0.13230167857E+02 -0.57799484958E+02  0.18671349456E+03  0.17300000000E+03 0.  1.
<mgrwt>
<rscale>  2 0.17754196E+03</rscale>
<asrwt>0</asrwt>
<pdfrwt beam="1">  1       21 0.17324706E-01 0.17754196E+03</pdfrwt>
<pdfrwt beam="2">  1       21 0.43985466E-01 0.17754196E+03</pdfrwt>
<totfact> 0.15033934E+05</totfact>
</mgrwt>
</event>
<event>
 4    1  0.4056666E+000  0.2411455E+03  0.7546771E-02  0.1119032E+00
         21   -1    0    0  501  502  0.00000000000E+00  0.00000000000E+00  0.34994040901E+02  0.34994040901E+02  0.00000000000E+00 0. -1.
         21   -1    0    0  502  503 -0.00000000000E+00 -0.00000000000E+00 -0.18479640567E+04  0.18479640567E+04  0.00000000000E+00 0. -1.
          6    1    1    2  501    0  0.14011219235E+03 -0.92686280332E+02 -0.60761939800E+03  0.65372204020E+03  0.17300000000E+03 0. -1.
         -6    1    1    2    0  503 -0.14011219235E+03  0.92686280332E+02 -0.12053506178E+04  0.12292360574E+04  0.17300000000E+03 0. -1.
<mgrwt>
<rscale>  2 0.24114554E+03</rscale>
<asrwt>0</asrwt>
<pdfrwt beam="1">  1       21 0.53836996E-02 0.24114554E+03</pdfrwt>
<pdfrwt beam="2">  1       21 0.28430211E+00 0.24114554E+03</pdfrwt>
<totfact> 0.95243605E+03</totfact>
</mgrwt>
</event>
<event>
 4    1  0.4056666E+000  0.2079294E+03  0.7546771E-02  0.1143216E+00
         21   -1    0    0  503  502  0.00000000000E+00  0.00000000000E+00  0.70831358045E+02  0.70831358045E+02  0.00000000000E+00 0. -1.
         21   -1    0    0  501  503 -0.00000000000E+00 -0.00000000000E+00 -0.74765561334E+03  0.74765561334E+03  0.00000000000E+00 0.  1.
          6    1    1    2  501    0 -0.23386993731E+02  0.11295431096E+03 -0.51376570918E+03  0.55424708548E+03  0.17300000000E+03 0.  1.
         -6    1    1    2    0  502  0.23386993731E+02 -0.11295431096E+03 -0.16305854612E+03  0.26423988591E+03  0.17300000000E+03 0. -1.
<mgrwt>
<rscale>  2 0.20792938E+03</rscale>
<asrwt>0</asrwt>
<pdfrwt beam="1">  1       21 0.10897132E-01 0.20792938E+03</pdfrwt>
<pdfrwt beam="2">  1       21 0.11502394E+00 0.20792938E+03</pdfrwt>
<totfact> 0.40494340E+04</totfact>
</mgrwt>
</event>
<event>
 4    1  0.4056666E+000  0.1787194E+03  0.7546771E-02  0.1169048E+00
         21   -1    0    0  501  502  0.00000000000E+00  0.00000000000E+00  0.71689282422E+03  0.71689282422E+03  0.00000000000E+00 0. -1.
         21   -1    0    0  502  503 -0.00000000000E+00 -0.00000000000E+00 -0.10214679692E+03  0.10214679692E+03  0.00000000000E+00 0. -1.
          6    1    1    2  501    0  0.31615879633E+02  0.31813009430E+02  0.61487337663E+03  0.64032015485E+03  0.17300000000E+03 0. -1.
         -6    1    1    2    0  503 -0.31615879633E+02 -0.31813009430E+02 -0.12734933112E+00  0.17871946629E+03  0.17300000000E+03 0. -1.
<mgrwt>
<rscale>  2 0.17871942E+03</rscale>
<asrwt>0</asrwt>
<pdfrwt beam="1">  1       21 0.11029120E+00 0.17871942E+03</pdfrwt>
<pdfrwt beam="2">  1       21 0.15714892E-01 0.17871942E+03</pdfrwt>
<totfact> 0.23582909E+04</totfact>
</mgrwt>
</event>
<event>
 4    1  0.4056666E+000  0.1891811E+03  0.7546771E-02  0.1159202E+00
         21   -1    0    0  501  502  0.00000000000E+00  0.00000000000E+00  0.59300434215E+03  0.59300434215E+03  0.00000000000E+00 0. -1.
         21   -1    0    0  502  503 -0.00000000000E+00 -0.00000000000E+00 -0.14624227500E+03  0.14624227500E+03  0.00000000000E+00 0. -1.
          6    1    1    2  501    0 -0.72862071387E+02  0.23486388345E+02  0.50664594059E+03  0.54081383211E+03  0.17300000000E+03 0. -1.
         -6    1    1    2    0  503  0.72862071387E+02 -0.23486388345E+02 -0.59883873434E+02  0.19843278505E+03  0.17300000000E+03 0. -1.
<mgrwt>
<rscale>  2 0.18918111E+03</rscale>
<asrwt>0</asrwt>
<pdfrwt beam="1">  1       21 0.91231435E-01 0.18918111E+03</pdfrwt>
<pdfrwt beam="2">  1       21 0.22498812E-01 0.18918111E+03</pdfrwt>
<totfact> 0.18877248E+04</totfact>
</mgrwt>
</event>
<event>
 4    1  0.4056666E+000  0.1825395E+03  0.7546771E-02  0.1165368E+00
         21   -1    0    0  501  502  0.00000000000E+00  0.00000000000E+00  0.11405565920E+03  0.11405565920E+03  0.00000000000E+00 0.  1.
         21   -1    0    0  502  503 -0.00000000000E+00 -0.00000000000E+00 -0.30789842981E+03  0.30789842981E+03  0.00000000000E+00 0.  1.
          6    1    1    2  501    0  0.58192701743E+02  0.22948441192E+01 -0.14464520401E+03  0.23290103454E+03  0.17300000000E+03 0. -1.
         -6    1    1    2    0  503 -0.58192701743E+02 -0.22948441192E+01 -0.49197566611E+02  0.18905305447E+03  0.17300000000E+03 0. -1.
<mgrwt>
<rscale>  2 0.18253947E+03</rscale>
<asrwt>0</asrwt>
<pdfrwt beam="1">  1       21 0.17547024E-01 0.18253947E+03</pdfrwt>
<pdfrwt beam="2">  1       21 0.47368990E-01 0.18253947E+03</pdfrwt>
<totfact> 0.12589970E+05</totfact>
</mgrwt>
</event>
<event>
 4    1  0.4056666E+000  0.2116421E+03  0.7546771E-02  0.1140272E+00
         21   -1    0    0  503  502  0.00000000000E+00  0.00000000000E+00  0.37779061974E+03  0.37779061974E+03  0.00000000000E+00 0.  1.
         21   -1    0    0  501  503 -0.00000000000E+00 -0.00000000000E+00 -0.27983713598E+03  0.27983713598E+03  0.00000000000E+00 0.  1.
          6    1    1    2  501    0  0.11015410756E+03  0.52244272541E+02 -0.20064269200E+03  0.29163312788E+03  0.17300000000E+03 0.  1.
         -6    1    1    2    0  502 -0.11015410756E+03 -0.52244272541E+02  0.29859617576E+03  0.36599462783E+03  0.17300000000E+03 0.  1.
<mgrwt>
<rscale>  2 0.21164213E+03</rscale>
<asrwt>0</asrwt>
<pdfrwt beam="1">  1       21 0.58121634E-01 0.21164213E+03</pdfrwt>
<pdfrwt beam="2">  1       21 0.43051867E-01 0.21164213E+03</pdfrwt>
<totfact> 0.14218511E+04</totfact>
</mgrwt>
</event>
<event>
 4    1  0.4056666E+000  0.1730166E+03  0.7546771E-02  0.1174738E+00
         21   -1    0    0  501  502  0.00000000000E+00  0.00000000000E+00  0.15473614929E+03  0.15473614929E+03  0.00000000000E+00 0.  1.
         21   -1    0    0  502  503 -0.00000000000E+00 -0.00000000000E+00 -0.49966440845E+03  0.49966440845E+03  0.00000000000E+00 0.  1.
          6    1    1    2  501    0  0.20609426632E+01  0.12196772236E+01  0.83678911655E+02  0.19218973790E+03  0.17300000000E+03 0.  1.
         -6    1    1    2    0  503 -0.20609426632E+01 -0.12196772236E+01 -0.42860717082E+03  0.46221081984E+03  0.17300000000E+03 0.  1.
<mgrwt>
<rscale>  2 0.17301657E+03</rscale>
<asrwt>0</asrwt>
<pdfrwt beam="1">  1       21 0.23805561E-01 0.17301657E+03</pdfrwt>
<pdfrwt beam="2">  1       21 0.76871447E-01 0.17301657E+03</pdfrwt>
<totfact> 0.25304142E+04</totfact>
</mgrwt>
</event>
<event>
 4    1  0.4056666E+000  0.2827667E+03  0.7546771E-02  0.1094187E+00
         21   -1    0    0  501  502  0.00000000000E+00  0.00000000000E+00  0.18030508468E+04  0.18030508468E+04  0.00000000000E+00 0. -1.
         21   -1    0    0  502  503 -0.00000000000E+00 -0.00000000000E+00 -0.76497354354E+02  0.76497354354E+02  0.00000000000E+00 0.  1.
          6    1    1    2  501    0  0.12798858816E+02 -0.22330296524E+03  0.14725384771E+04  0.14994420935E+04  0.17300000000E+03 0. -1.
         -6    1    1    2    0  503 -0.12798858816E+02  0.22330296524E+03  0.25401501526E+03  0.38010610762E+03  0.17300000000E+03 0.  1.
<mgrwt>
<rscale>  2 0.28276673E+03</rscale>
<asrwt>0</asrwt>
<pdfrwt beam="1">  1       21 0.27739241E+00 0.28276673E+03</pdfrwt>
<pdfrwt beam="2">  1       21 0.11768825E-01 0.28276673E+03</pdfrwt>
<totfact> 0.25634025E+03</totfact>
</mgrwt>
</event>
<event>
 4    1  0.4056666E+000  0.1813498E+03  0.7546771E-02  0.1166503E+00
         21   -1    0    0  501  502  0.00000000000E+00  0.00000000000E+00  0.17224407753E+04  0.17224407753E+04  0.00000000000E+00 0. -1.
         21   -1    0    0  502  503 -0.00000000000E+00 -0.00000000000E+00 -0.69442123635E+02  0.69442123635E+02  0.00000000000E+00 0. -1.
          6    1    1    2  501    0 -0.84169821530E+01 -0.53739310335E+02  0.15893878676E+04  0.15997004572E+04  0.17300000000E+03 0. -1.
         -6    1    1    2    0  503  0.84169821530E+01  0.53739310335E+02  0.63610784060E+02  0.19218244174E+03  0.17300000000E+03 0. -1.
<mgrwt>
<rscale>  2 0.18134983E+03</rscale>
<asrwt>0</asrwt>
<pdfrwt beam="1">  1       21 0.26499086E+00 0.18134983E+03</pdfrwt>
<pdfrwt beam="2">  1       21 0.10683405E-01 0.18134983E+03</pdfrwt>
<totfact> 0.39738207E+03</totfact>
</mgrwt>
</event>
<event>
 4    1  0.4056666E+000  0.1748062E+03  0.7546771E-02  0.1172926E+00
         21   -1    0    0  501  502  0.00000000000E+00  0.00000000000E+00  0.41187064362E+02  0.41187064362E+02  0.00000000000E+00 0. -1.
         21   -1    0    0  502  503 -0.00000000000E+00 -0.00000000000E+00 -0.11932731174E+04  0.11932731174E+04  0.00000000000E+00 0. -1.
          6    1    1    2  501    0 -0.43452204695E+01 -0.24684649886E+02 -0.19643200044E+03  0.26295007830E+03  0.17300000000E+03 0. -1.
         -6    1    1    2    0  503  0.43452204695E+01  0.24684649886E+02 -0.95565405259E+03  0.97151010346E+03  0.17300000000E+03 0. -1.
<mgrwt>
<rscale>  2 0.17480622E+03</rscale>
<asrwt>0</asrwt>
<pdfrwt beam="1">  1       21 0.63364721E-02 0.17480622E+03</pdfrwt>
<pdfrwt beam="2">  1       21 0.18358046E+00 0.17480622E+03</pdfrwt>
<totfact> 0.31284732E+04</totfact>
</mgrwt>
</event>
<event>
 4    1  0.4056666E+000  0.2054602E+03  0.7546771E-02  0.1145212E+00
         21   -1    0    0  501  502  0.00000000000E+00  0.00000000000E+00  0.17277336582E+02  0.17277336582E+02  0.00000000000E+00 0. -1.
         21   -1    0    0  502  503 -0.00000000000E+00 -0.00000000000E+00 -0.32618852062E+04  0.32618852062E+04  0.00000000000E+00 0. -1.
          6    1    1    2  501    0  0.42239010023E+02 -0.10247312737E+03 -0.24436536518E+04  0.24522758910E+04  0.17300000000E+03 0. -1.
         -6    1    1    2    0  503 -0.42239010023E+02  0.10247312737E+03 -0.80095421791E+03  0.82688665184E+03  0.17300000000E+03 0. -1.
<mgrwt>
<rscale>  2 0.20546016E+03</rscale>
<asrwt>0</asrwt>
<pdfrwt beam="1">  1       21 0.26580519E-02 0.20546016E+03</pdfrwt>
<pdfrwt beam="2">  1       21 0.50182847E+00 0.20546016E+03</pdfrwt>
<totfact> 0.13929701E+03</totfact>
</mgrwt>
</event>
<event>
 4    1  0.4056666E+000  0.1994795E+03  0.7546771E-02  0.1150179E+00
         21   -1    0    0  501  502  0.00000000000E+00  0.00000000000E+00  0.21776329215E+04  0.21776329215E+04  0.00000000000E+00 0.  1.
         21   -1    0    0  502  503 -0.00000000000E+00 -0.00000000000E+00 -0.18579950302E+02  0.18579950302E+02  0.00000000000E+00 0.  1.
          6    1    1    2  501    0 -0.71030131951E+02 -0.69410193728E+02  0.93840227509E+03  0.95937004567E+03  0.17300000000E+03 0.  1.
         -6    1    1    2    0  503  0.71030131951E+02  0.69410193728E+02  0.12206506961E+04  0.12368428261E+04  0.17300000000E+03 0.  1.
<mgrwt>
<rscale>  2 0.19947946E+03</rscale>
<asrwt>0</asrwt>
<pdfrwt beam="1">  1       21 0.33502025E+00 0.19947946E+03</pdfrwt>
<pdfrwt beam="2">  1       21 0.28584556E-02 0.19947946E+03</pdfrwt>
<totfact> 0.14563412E+04</totfact>
</mgrwt>
</event>
<event>
 4    1  0.4056666E+000  0.2790967E+03  0.7546771E-02  0.1096183E+00
         21   -1    0    0  501  502  0.00000000000E+00  0.00000000000E+00  0.32909985342E+03  0.32909985342E+03  0.00000000000E+00 0. -1.
         21   -1    0    0  502  503 -0.00000000000E+00 -0.00000000000E+00 -0.38268530866E+03  0.38268530866E+03  0.00000000000E+00 0.  1.
          6    1    1    2  501    0 -0.21868388321E+03  0.11971979495E+02 -0.24661212976E+03  0.37244128613E+03  0.17300000000E+03 0.  1.
         -6    1    1    2    0  503  0.21868388321E+03 -0.11971979495E+02  0.19302667452E+03  0.33934387595E+03  0.17300000000E+03 0. -1.
<mgrwt>
<rscale>  2 0.27909670E+03</rscale>
<asrwt>0</asrwt>
<pdfrwt beam="1">  1       21 0.50630747E-01 0.27909670E+03</pdfrwt>
<pdfrwt beam="2">  1       21 0.58874663E-01 0.27909670E+03</pdfrwt>
<totfact> 0.95178372E+03</totfact>
</mgrwt>
</event>
<event>
 4    1  0.4056666E+000  0.1742057E+03  0.7546771E-02  0.1173532E+00
         21   -1    0    0  503  502  0.00000000000E+00  0.00000000000E+00  0.46606340108E+03  0.46606340108E+03  0.00000000000E+00 0. -1.
         21   -1    0    0  501  503 -0.00000000000E+00 -0.00000000000E+00 -0.83359664128E+02  0.83359664128E+02  0.00000000000E+00 0. -1.
          6    1    1    2  501    0  0.89728045830E+01 -0.18388331749E+02  0.62832435431E+02  0.18519059617E+03  0.17300000000E+03 0. -1.
         -6    1    1    2    0  502 -0.89728045830E+01  0.18388331749E+02  0.31987130152E+03  0.36423246904E+03  0.17300000000E+03 0. -1.
<mgrwt>
<rscale>  2 0.17420575E+03</rscale>
<asrwt>0</asrwt>
<pdfrwt beam="1">  1       21 0.71702060E-01 0.17420575E+03</pdfrwt>
<pdfrwt beam="2">  1       21 0.12824564E-01 0.17420575E+03</pdfrwt>
<totfact> 0.92210909E+04</totfact>
</mgrwt>
</event>
<event>
 4    1  0.4056666E+000  0.1922817E+03  0.7546771E-02  0.1156419E+00
         21   -1    0    0  503  502  0.00000000000E+00  0.00000000000E+00  0.11577723788E+04  0.11577723788E+04  0.00000000000E+00 0. -1.
         21   -1    0    0  501  503 -0.00000000000E+00 -0.00000000000E+00 -0.29809556607E+03  0.29809556607E+03  0.00000000000E+00 0.  1.
          6    1    1    2  501    0  0.18581153956E+02 -0.81841213632E+02 -0.25800082695E+03  0.32177114575E+03  0.17300000000E+03 0.  1.
         -6    1    1    2    0  502 -0.18581153956E+02  0.81841213632E+02  0.11176776397E+04  0.11340967991E+04  0.17300000000E+03 0. -1.
<mgrwt>
<rscale>  2 0.19228168E+03</rscale>
<asrwt>0</asrwt>
<pdfrwt beam="1">  1       21 0.17811883E+00 0.19228168E+03</pdfrwt>
<pdfrwt beam="2">  1       21 0.45860857E-01 0.19228168E+03</pdfrwt>
<totfact> 0.85457186E+02</totfact>
</mgrwt>
</event>
<event>
 4    1  0.4056666E+000  0.1996174E+03  0.7546771E-02  0.1150062E+00
         21   -1    0    0  501  502  0.00000000000E+00  0.00000000000E+00  0.60180289212E+03  0.60180289212E+03  0.00000000000E+00 0.  1.
         21   -1    0    0  502  503 -0.00000000000E+00 -0.00000000000E+00 -0.70882383017E+02  0.70882383017E+02  0.00000000000E+00 0.  1.
          6    1    1    2  501    0 -0.98943543479E+02 -0.11325629222E+02  0.17913284294E+03  0.26820825881E+03  0.17300000000E+03 0.  1.
         -6    1    1    2    0  503  0.98943543479E+02  0.11325629222E+02  0.35178766616E+03  0.40447701632E+03  0.17300000000E+03 0.  1.
<mgrwt>
<rscale>  2 0.19961737E+03</rscale>
<asrwt>0</asrwt>
<pdfrwt beam="1">  1       21 0.92585057E-01 0.19961737E+03</pdfrwt>
<pdfrwt beam="2">  1       21 0.10904982E-01 0.19961737E+03</pdfrwt>
<totfact> 0.68242391E+04</totfact>
</mgrwt>
</event>
<event>
 4    1  0.4056666E+000  0.1758058E+03  0.7546771E-02  0.1171925E+00
         21   -1    0    0  501  502  0.00000000000E+00  0.00000000000E+00  0.55481513805E+03  0.55481513805E+03  0.00000000000E+00 0. -1.
         21   -1    0    0  502  503 -0.00000000000E+00 -0.00000000000E+00 -0.84847800550E+02  0.84847800550E+02  0.00000000000E+00 0. -1.
          6    1    1    2  501    0  0.14984541203E+02  0.27461370885E+02  0.42241573607E+03  0.45753985340E+03  0.17300000000E+03 0.  1.
         -6    1    1    2    0  503 -0.14984541203E+02 -0.27461370885E+02  0.47551601431E+02  0.18212308521E+03  0.17300000000E+03 0.  1.
<mgrwt>
<rscale>  2 0.17580575E+03</rscale>
<asrwt>0</asrwt>
<pdfrwt beam="1">  1       21 0.85356173E-01 0.17580575E+03</pdfrwt>
<pdfrwt beam="2">  1       21 0.13053508E-01 0.17580575E+03</pdfrwt>
<totfact> 0.60356713E+04</totfact>
</mgrwt>
</event>
<event>
 4    1  0.4056666E+000  0.2261558E+03  0.7546771E-02  0.1129375E+00
         21   -1    0    0  503  502  0.00000000000E+00  0.00000000000E+00  0.11883018843E+03  0.11883018843E+03  0.00000000000E+00 0.  1.
         21   -1    0    0  501  503 -0.00000000000E+00 -0.00000000000E+00 -0.43554202693E+03  0.43554202693E+03  0.00000000000E+00 0.  1.
          6    1    1    2  501    0  0.10266745274E+03  0.10332881266E+03 -0.18842598600E+03  0.29436508213E+03  0.17300000000E+03 0.  1.
         -6    1    1    2    0  502 -0.10266745274E+03 -0.10332881266E+03 -0.12828585250E+03  0.26000713323E+03  0.17300000000E+03 0.  1.
<mgrwt>
<rscale>  2 0.22615581E+03</rscale>
<asrwt>0</asrwt>
<pdfrwt beam="1">  1       21 0.18281568E-01 0.22615581E+03</pdfrwt>
<pdfrwt beam="2">  1       21 0.67006464E-01 0.22615581E+03</pdfrwt>
<totfact> 0.54785453E+04</totfact>
</mgrwt>
</event>
<event>
 4    1  0.4056666E+000  0.2136189E+03  0.7546771E-02  0.1138732E+00
         21   -1    0    0  503  502  0.00000000000E+00  0.00000000000E+00  0.50172109895E+03  0.50172109895E+03  0.00000000000E+00 0. -1.
         21   -1    0    0  501  503 -0.00000000000E+00 -0.00000000000E+00 -0.10307346081E+03  0.10307346081E+03  0.00000000000E+00 0. -1.
          6    1    1    2  501    0 -0.11737327787E+03  0.43904093495E+02  0.30302015753E+03  0.37074825914E+03  0.17300000000E+03 0. -1.
         -6    1    1    2    0  502  0.11737327787E+03 -0.43904093495E+02  0.95627480607E+02  0.23404630061E+03  0.17300000000E+03 0. -1.
<mgrwt>
<rscale>  2 0.21361895E+03</rscale>
<asrwt>0</asrwt>
<pdfrwt beam="1">  1       21 0.77187860E-01 0.21361895E+03</pdfrwt>
<pdfrwt beam="2">  1       21 0.15857456E-01 0.21361895E+03</pdfrwt>
<totfact> 0.52305211E+04</totfact>
</mgrwt>
</event>
<event>
 4    1  0.4056666E+000  0.1938713E+03  0.7546771E-02  0.1155015E+00
         21   -1    0    0  503  502  0.00000000000E+00  0.00000000000E+00  0.52719999214E+03  0.52719999214E+03  0.00000000000E+00 0. -1.
         21   -1    0    0  501  503 -0.00000000000E+00 -0.00000000000E+00 -0.21093744736E+03  0.21093744736E+03  0.00000000000E+00 0. -1.
          6    1    1    2  501    0  0.35818535932E+02 -0.79838081895E+02 -0.14215881670E+03  0.24040635599E+03  0.17300000000E+03 0. -1.
         -6    1    1    2    0  502 -0.35818535932E+02  0.79838081895E+02  0.45842136147E+03  0.49773108351E+03  0.17300000000E+03 0. -1.
<mgrwt>
<rscale>  2 0.19387132E+03</rscale>
<asrwt>0</asrwt>
<pdfrwt beam="1">  1       21 0.81107691E-01 0.19387132E+03</pdfrwt>
<pdfrwt beam="2">  1       21 0.32451915E-01 0.19387132E+03</pdfrwt>
<totfact> 0.12172234E+04</totfact>
</mgrwt>
</event>
<event>
 4    1  0.4056666E+000  0.2607396E+03  0.7546771E-02  0.1106700E+00
         21   -1    0    0  503  502  0.00000000000E+00  0.00000000000E+00  0.17798679693E+03  0.17798679693E+03  0.00000000000E+00 0.  1.
         21   -1    0    0  501  503 -0.00000000000E+00 -0.00000000000E+00 -0.38277407966E+03  0.38277407966E+03  0.00000000000E+00 0. -1.
          6    1    1    2  501    0 -0.11060165639E+03  0.16069669913E+03 -0.11526501250E+03  0.28508100360E+03  0.17300000000E+03 0. -1.
         -6    1    1    2    0  502  0.11060165639E+03 -0.16069669913E+03 -0.89522270230E+02  0.27567987299E+03  0.17300000000E+03 0.  1.
<mgrwt>
<rscale>  2 0.26073963E+03</rscale>
<asrwt>0</asrwt>
<pdfrwt beam="1">  1       21 0.27382585E-01 0.26073963E+03</pdfrwt>
<pdfrwt beam="2">  1       21 0.58888319E-01 0.26073963E+03</pdfrwt>
<totfact> 0.33204525E+04</totfact>
</mgrwt>
</event>
<event>
 4    1  0.4056666E+000  0.1923610E+03  0.7546771E-02  0.1156349E+00
         21   -1    0    0  501  502  0.00000000000E+00  0.00000000000E+00  0.66530080892E+03  0.66530080892E+03  0.00000000000E+00 0.  1.
         21   -1    0    0  502  503 -0.00000000000E+00 -0.00000000000E+00 -0.14737415943E+03  0.14737415943E+03  0.00000000000E+00 0. -1.
          6    1    1    2  501    0  0.83970580063E+02  0.47626034113E+01  0.57958559659E+03  0.61067356622E+03  0.17300000000E+03 0.  1.
         -6    1    1    2    0  503 -0.83970580063E+02 -0.47626034113E+01 -0.61658947100E+02  0.20200140214E+03  0.17300000000E+03 0. -1.
<mgrwt>
<rscale>  2 0.19236096E+03</rscale>
<asrwt>0</asrwt>
<pdfrwt beam="1">  1       21 0.10235397E+00 0.19236096E+03</pdfrwt>
<pdfrwt beam="2">  1       21 0.22672948E-01 0.19236096E+03</pdfrwt>
<totfact> 0.14166852E+04</totfact>
</mgrwt>
</event>
<event>
 4    1  0.4056666E+000  0.4462519E+03  0.7546771E-02  0.1028846E+00
         21   -1    0    0  503  502  0.00000000000E+00  0.00000000000E+00  0.23812652692E+04  0.23812652692E+04  0.00000000000E+00 0.  1.
         21   -1    0    0  501  503 -0.00000000000E+00 -0.00000000000E+00 -0.13017558394E+03  0.13017558394E+03  0.00000000000E+00 0. -1.
          6    1    1    2  501    0 -0.37632537575E+03 -0.16610519750E+03  0.37465500204E+03  0.58267237418E+03  0.17300000000E+03 0. -1.
         -6    1    1    2    0  502  0.37632537575E+03  0.16610519750E+03  0.18764346832E+04  0.19287684789E+04  0.17300000000E+03 0.  1.
<mgrwt>
<rscale>  2 0.44625186E+03</rscale>
<asrwt>0</asrwt>
<pdfrwt beam="1">  1       21 0.36634847E+00 0.44625186E+03</pdfrwt>
<pdfrwt beam="2">  1       21 0.20027015E-01 0.44625186E+03</pdfrwt>
<totfact> 0.24894141E+02</totfact>
</mgrwt>
</event>
<event>
 4    1  0.4056666E+000  0.1910863E+03  0.7546771E-02  0.1157485E+00
         21   -1    0    0  503  502  0.00000000000E+00  0.00000000000E+00  0.47036058496E+03  0.47036058496E+03  0.00000000000E+00 0. -1.
         21   -1    0    0  501  503 -0.00000000000E+00 -0.00000000000E+00 -0.40349531353E+03  0.40349531353E+03  0.00000000000E+00 0. -1.
          6    1    1    2  501    0 -0.78961115134E+02 -0.18711776694E+02 -0.35922115413E+03  0.40688306166E+03  0.17300000000E+03 0. -1.
         -6    1    1    2    0  502  0.78961115134E+02  0.18711776694E+02  0.42608642556E+03  0.46697283683E+03  0.17300000000E+03 0. -1.
<mgrwt>
<rscale>  2 0.19108634E+03</rscale>
<asrwt>0</asrwt>
<pdfrwt beam="1">  1       21 0.72363167E-01 0.19108634E+03</pdfrwt>
<pdfrwt beam="2">  1       21 0.62076202E-01 0.19108634E+03</pdfrwt>
<totfact> 0.41516501E+03</totfact>
</mgrwt>
</event>
<event>
 4    1  0.4056666E+000  0.2100894E+03  0.7546771E-02  0.1141495E+00
         21   -1    0    0  503  502  0.00000000000E+00  0.00000000000E+00  0.61176620605E+02  0.61176620605E+02  0.00000000000E+00 0.  1.
         21   -1    0    0  501  503 -0.00000000000E+00 -0.00000000000E+00 -0.21376501230E+04  0.21376501230E+04  0.00000000000E+00 0.  1.
          6    1    1    2  501    0 -0.53288375968E+02 -0.10662504163E+03 -0.19330879248E+04  0.19444707443E+04  0.17300000000E+03 0.  1.
         -6    1    1    2    0  502  0.53288375968E+02  0.10662504163E+03 -0.14338557762E+03  0.25435599931E+03  0.17300000000E+03 0.  1.
<mgrwt>
<rscale>  2 0.21008939E+03</rscale>
<asrwt>0</asrwt>
<pdfrwt beam="1">  1       21 0.94117894E-02 0.21008939E+03</pdfrwt>
<pdfrwt beam="2">  1       21 0.32886919E+00 0.21008939E+03</pdfrwt>
<totfact> 0.20531332E+03</totfact>
</mgrwt>
</event>
<event>
 4    1  0.4056666E+000  0.2268830E+03  0.7546771E-02  0.1128853E+00
         21   -1    0    0  501  502  0.00000000000E+00  0.00000000000E+00  0.64159346036E+03  0.64159346036E+03  0.00000000000E+00 0. -1.
         21   -1    0    0  502  503 -0.00000000000E+00 -0.00000000000E+00 -0.29029249378E+03  0.29029249378E+03  0.00000000000E+00 0. -1.
          6    1    1    2  501    0  0.97400852845E+02  0.10981780027E+03  0.57200862624E+03  0.61536147416E+03  0.17300000000E+03 0. -1.
         -6    1    1    2    0  503 -0.97400852845E+02 -0.10981780027E+03 -0.22070765966E+03  0.31652447997E+03  0.17300000000E+03 0. -1.
<mgrwt>
<rscale>  2 0.22688296E+03</rscale>
<asrwt>0</asrwt>
<pdfrwt beam="1">  1       21 0.98706686E-01 0.22688296E+03</pdfrwt>
<pdfrwt beam="2">  1       21 0.44660384E-01 0.22688296E+03</pdfrwt>
<totfact> 0.39674936E+03</totfact>
</mgrwt>
</event>
<event>
 4    1  0.4056666E+000  0.1817637E+03  0.7546771E-02  0.1166107E+00
         21   -1    0    0  501  502  0.00000000000E+00  0.00000000000E+00  0.10311621511E+03  0.10311621511E+03  0.00000000000E+00 0.  1.
         21   -1    0    0  502  503 -0.00000000000E+00 -0.00000000000E+00 -0.13576561582E+04  0.13576561582E+04  0.00000000000E+00 0.  1.
          6    1    1    2  501    0 -0.53310150154E+02 -0.16342283684E+02  0.11142647634E+02  0.18210491740E+03  0.17300000000E+03 0.  1.
         -6    1    1    2    0  503  0.53310150154E+02  0.16342283684E+02 -0.12656825908E+04  0.12786674559E+04  0.17300000000E+03 0.  1.
<mgrwt>
<rscale>  2 0.18176370E+03</rscale>
<asrwt>0</asrwt>
<pdfrwt beam="1">  1       21 0.15864032E-01 0.18176370E+03</pdfrwt>
<pdfrwt beam="2">  1       21 0.20887019E+00 0.18176370E+03</pdfrwt>
<totfact> 0.42225211E+03</totfact>
</mgrwt>
</event>
<event>
 4    1  0.4056666E+000  0.2225939E+03  0.7546771E-02  0.1131964E+00
         21   -1    0    0  503  502  0.00000000000E+00  0.00000000000E+00  0.11110648053E+04  0.11110648053E+04  0.00000000000E+00 0.  1.
         21   -1    0    0  501  503 -0.00000000000E+00 -0.00000000000E+00 -0.44666286928E+02  0.44666286928E+02  0.00000000000E+00 0. -1.
          6    1    1    2  501    0 -0.11642296541E+03  0.77876559091E+02  0.55626589148E+03  0.59914923630E+03  0.17300000000E+03 0.  1.
         -6    1    1    2    0  502  0.11642296541E+03 -0.77876559091E+02  0.51013262688E+03  0.55658185592E+03  0.17300000000E+03 0. -1.
<mgrwt>
<rscale>  2 0.22259395E+03</rscale>
<asrwt>0</asrwt>
<pdfrwt beam="1">  1       21 0.17093303E+00 0.22259395E+03</pdfrwt>
<pdfrwt beam="2">  1       21 0.68717373E-02 0.22259395E+03</pdfrwt>
<totfact> 0.32214082E+04</totfact>
</mgrwt>
</event>
<event>
 4    1  0.4056666E+000  0.1877353E+03  0.7546771E-02  0.1160520E+00
         21   -1    0    0  503  502  0.00000000000E+00  0.00000000000E+00  0.37279788476E+03  0.37279788476E+03  0.00000000000E+00 0. -1.
         21   -1    0    0  501  503 -0.00000000000E+00 -0.00000000000E+00 -0.10044583959E+03  0.10044583959E+03  0.00000000000E+00 0. -1.
          6    1    1    2  501    0  0.58331942216E+02 -0.43736912947E+02  0.78802975514E+02  0.20360363942E+03  0.17300000000E+03 0.  1.
         -6    1    1    2    0  502 -0.58331942216E+02  0.43736912947E+02  0.19354906965E+03  0.26964008493E+03  0.17300000000E+03 0.  1.
<mgrwt>
<rscale>  2 0.18773527E+03</rscale>
<asrwt>0</asrwt>
<pdfrwt beam="1">  1       21 0.57353520E-01 0.18773527E+03</pdfrwt>
<pdfrwt beam="2">  1       21 0.15453206E-01 0.18773527E+03</pdfrwt>
<totfact> 0.10622904E+05</totfact>
</mgrwt>
</event>
<event>
 4    1  0.4056666E+000  0.1773628E+03  0.7546771E-02  0.1170380E+00
         21   -1    0    0  501  502  0.00000000000E+00  0.00000000000E+00  0.86242630069E+02  0.86242630069E+02  0.00000000000E+00 0. -1.
         21   -1    0    0  502  503 -0.00000000000E+00 -0.00000000000E+00 -0.47477873506E+03  0.47477873506E+03  0.00000000000E+00 0. -1.
          6    1    1    2  501    0 -0.74697322060E+01  0.38376488232E+02 -0.59233722634E+02  0.18699247484E+03  0.17300000000E+03 0. -1.
         -6    1    1    2    0  503  0.74697322060E+01 -0.38376488232E+02 -0.32930238236E+03  0.37402889030E+03  0.17300000000E+03 0. -1.
<mgrwt>
<rscale>  2 0.17736277E+03</rscale>
<asrwt>0</asrwt>
<pdfrwt beam="1">  1       21 0.13268097E-01 0.17736277E+03</pdfrwt>
<pdfrwt beam="2">  1       21 0.73042882E-01 0.17736277E+03</pdfrwt>
<totfact> 0.83150568E+04</totfact>
</mgrwt>
</event>
<event>
 4    1  0.4056666E+000  0.3142170E+03  0.7546771E-02  0.1078342E+00
         21   -1    0    0  503  502  0.00000000000E+00  0.00000000000E+00  0.25764314316E+03  0.25764314316E+03  0.00000000000E+00 0. -1.
         21   -1    0    0  501  503 -0.00000000000E+00 -0.00000000000E+00 -0.57738123309E+03  0.57738123309E+03  0.00000000000E+00 0.  1.
          6    1    1    2  501    0  0.14361290314E+03 -0.21949638387E+03 -0.40198664798E+03  0.51022112229E+03  0.17300000000E+03 0.  1.
         -6    1    1    2    0  502 -0.14361290314E+03  0.21949638387E+03  0.82248558040E+02  0.32480325396E+03  0.17300000000E+03 0. -1.
<mgrwt>
<rscale>  2 0.31421701E+03</rscale>
<asrwt>0</asrwt>
<pdfrwt beam="1">  1       21 0.39637407E-01 0.31421701E+03</pdfrwt>
<pdfrwt beam="2">  1       21 0.88827880E-01 0.31421701E+03</pdfrwt>
<totfact> 0.61760334E+03</totfact>
</mgrwt>
</event>
<event>
 4    1  0.4056666E+000  0.2028961E+03  0.7546771E-02  0.1147318E+00
         21   -1    0    0  501  502  0.00000000000E+00  0.00000000000E+00  0.44875430009E+03  0.44875430009E+03  0.00000000000E+00 0.  1.
         21   -1    0    0  502  503 -0.00000000000E+00 -0.00000000000E+00 -0.14090042670E+03  0.14090042670E+03  0.00000000000E+00 0.  1.
          6    1    1    2  501    0  0.59222181499E+02  0.87923699134E+02  0.32808272747E+03  0.38575266651E+03  0.17300000000E+03 0.  1.
         -6    1    1    2    0  503 -0.59222181499E+02 -0.87923699134E+02 -0.20228854078E+02  0.20390206028E+03  0.17300000000E+03 0.  1.
<mgrwt>
<rscale>  2 0.20289614E+03</rscale>
<asrwt>0</asrwt>
<pdfrwt beam="1">  1       21 0.69039122E-01 0.20289614E+03</pdfrwt>
<pdfrwt beam="2">  1       21 0.21676989E-01 0.20289614E+03</pdfrwt>
<totfact> 0.37709362E+04</totfact>
</mgrwt>
</event>
<event>
 4    1  0.4056666E+000  0.1762759E+03  0.7546771E-02  0.1171457E+00
         21   -1    0    0  501  502  0.00000000000E+00  0.00000000000E+00  0.94146542171E+02  0.94146542171E+02  0.00000000000E+00 0.  1.
         21   -1    0    0  502  503 -0.00000000000E+00 -0.00000000000E+00 -0.33141886242E+03  0.33141886242E+03  0.00000000000E+00 0.  1.
          6    1    1    2  501    0 -0.33095924613E+02  0.69884646489E+01 -0.10496712800E+03  0.20516158711E+03  0.17300000000E+03 0.  1.
         -6    1    1    2    0  503  0.33095924613E+02 -0.69884646489E+01 -0.13230519224E+03  0.22040381748E+03  0.17300000000E+03 0.  1.
<mgrwt>
<rscale>  2 0.17627586E+03</rscale>
<asrwt>0</asrwt>
<pdfrwt beam="1">  1       21 0.14484083E-01 0.17627586E+03</pdfrwt>
<pdfrwt beam="2">  1       21 0.50987518E-01 0.17627586E+03</pdfrwt>
<totfact> 0.15373991E+05</totfact>
</mgrwt>
</event>
<event>
 4    1  0.4056666E+000  0.1796639E+03  0.7546771E-02  0.1168129E+00
         21   -1    0    0  503  502  0.00000000000E+00  0.00000000000E+00  0.33224064169E+03  0.33224064169E+03  0.00000000000E+00 0.  1.
         21   -1    0    0  501  503 -0.00000000000E+00 -0.00000000000E+00 -0.97166623874E+02  0.97166623874E+02  0.00000000000E+00 0.  1.
          6    1    1    2  501    0 -0.45597669121E+02 -0.16461445926E+02  0.11527766416E+03  0.21346678075E+03  0.17300000000E+03 0.  1.
         -6    1    1    2    0  502  0.45597669121E+02  0.16461445926E+02  0.11979635366E+03  0.21594048481E+03  0.17300000000E+03 0.  1.
<mgrwt>
<rscale>  2 0.17966393E+03</rscale>
<asrwt>0</asrwt>
<pdfrwt beam="1">  1       21 0.51113944E-01 0.17966393E+03</pdfrwt>
<pdfrwt beam="2">  1       21 0.14948712E-01 0.17966393E+03</pdfrwt>
<totfact> 0.14426595E+05</totfact>
</mgrwt>
</event>
<event>
 4    1  0.4056666E+000  0.1777418E+03  0.7546771E-02  0.1170007E+00
         21   -1    0    0  503  502  0.00000000000E+00  0.00000000000E+00  0.17971970321E+03  0.17971970321E+03  0.00000000000E+00 0. -1.
         21   -1    0    0  501  503 -0.00000000000E+00 -0.00000000000E+00 -0.20401967557E+03  0.20401967557E+03  0.00000000000E+00 0. -1.
          6    1    1    2  501    0 -0.28305588696E+02 -0.29358720825E+02 -0.83526760857E+02  0.19638956342E+03  0.17300000000E+03 0. -1.
         -6    1    1    2    0  502  0.28305588696E+02  0.29358720825E+02  0.59226788496E+02  0.18734981536E+03  0.17300000000E+03 0. -1.
<mgrwt>
<rscale>  2 0.17774178E+03</rscale>
<asrwt>0</asrwt>
<pdfrwt beam="1">  1       21 0.27649185E-01 0.17774178E+03</pdfrwt>
<pdfrwt beam="2">  1       21 0.31387642E-01 0.17774178E+03</pdfrwt>
<totfact> 0.12241828E+05</totfact>
</mgrwt>
</event>
<event>
 4    1  0.4056666E+000  0.1789735E+03  0.7546771E-02  0.1168800E+00
         21   -1    0    0  503  502  0.00000000000E+00  0.00000000000E+00  0.37431255309E+03  0.37431255309E+03  0.00000000000E+00 0.  1.
         21   -1    0    0  501  503 -0.00000000000E+00 -0.00000000000E+00 -0.16635657955E+03  0.16635657955E+03  0.00000000000E+00 0.  1.
          6    1    1    2  501    0 -0.35750209748E+01  0.45713517760E+02 -0.84404204341E+02  0.19787767987E+03  0.17300000000E+03 0.  1.
         -6    1    1    2    0  502  0.35750209748E+01 -0.45713517760E+02  0.29236017788E+03  0.34279145277E+03  0.17300000000E+03 0.  1.
<mgrwt>
<rscale>  2 0.17897348E+03</rscale>
<asrwt>0</asrwt>
<pdfrwt beam="1">  1       21 0.57586546E-01 0.17897348E+03</pdfrwt>
<pdfrwt beam="2">  1       21 0.25593320E-01 0.17897348E+03</pdfrwt>
<totfact> 0.41255102E+04</totfact>
</mgrwt>
</event>
<event>
 4    1  0.4056666E+000  0.1861183E+03  0.7546771E-02  0.1162010E+00
         21   -1    0    0  503  502  0.00000000000E+00  0.00000000000E+00  0.68340446391E+03  0.68340446391E+03  0.00000000000E+00 0.  1.
         21   -1    0    0  501  503 -0.00000000000E+00 -0.00000000000E+00 -0.89798984311E+02  0.89798984311E+02  0.00000000000E+00 0.  1.
          6    1    1    2  501    0  0.96066853525E+01  0.67961269287E+02  0.41661560660E+02  0.19072416775E+03  0.17300000000E+03 0.  1.
         -6    1    1    2    0  502 -0.96066853525E+01 -0.67961269287E+02  0.55194391894E+03  0.58247928047E+03  0.17300000000E+03 0.  1.
<mgrwt>
<rscale>  2 0.18611830E+03</rscale>
<asrwt>0</asrwt>
<pdfrwt beam="1">  1       21 0.10513915E+00 0.18611830E+03</pdfrwt>
<pdfrwt beam="2">  1       21 0.13815229E-01 0.18611830E+03</pdfrwt>
<totfact> 0.33291084E+04</totfact>
</mgrwt>
</event>
<event>
 4    1  0.4056666E+000  0.1981890E+03  0.7546771E-02  0.1151276E+00
         21   -1    0    0  501  502  0.00000000000E+00  0.00000000000E+00  0.53944140991E+02  0.53944140991E+02  0.00000000000E+00 0.  1.
         21   -1    0    0  502  503 -0.00000000000E+00 -0.00000000000E+00 -0.83931835573E+03  0.83931835573E+03  0.00000000000E+00 0.  1.
          6    1    1    2  501    0 -0.69778332285E+02  0.66939208119E+02 -0.23013359439E+03  0.30371095553E+03  0.17300000000E+03 0.  1.
         -6    1    1    2    0  503  0.69778332285E+02 -0.66939208119E+02 -0.55524062034E+03  0.58955154119E+03  0.17300000000E+03 0.  1.
<mgrwt>
<rscale>  2 0.19818898E+03</rscale>
<asrwt>0</asrwt>
<pdfrwt beam="1">  1       21 0.82990985E-02 0.19818898E+03</pdfrwt>
<pdfrwt beam="2">  1       21 0.12912590E+00 0.19818898E+03</pdfrwt>
<totfact> 0.49343280E+04</totfact>
</mgrwt>
</event>
<event>
 4    1  0.4056666E+000  0.2043636E+03  0.7546771E-02  0.1146109E+00
         21   -1    0    0  501  502  0.00000000000E+00  0.00000000000E+00  0.47844773684E+02  0.47844773684E+02  0.00000000000E+00 0. -1.
         21   -1    0    0  502  503 -0.00000000000E+00 -0.00000000000E+00 -0.11867403517E+04  0.11867403517E+04  0.00000000000E+00 0.  1.
          6    1    1    2  501    0  0.15498552839E+02  0.10768135397E+03 -0.88688391890E+03  0.91012502698E+03  0.17300000000E+03 0.  1.
         -6    1    1    2    0  503 -0.15498552839E+02 -0.10768135397E+03 -0.25201165915E+03  0.32446009844E+03  0.17300000000E+03 0. -1.
<mgrwt>
<rscale>  2 0.20436360E+03</rscale>
<asrwt>0</asrwt>
<pdfrwt beam="1">  1       21 0.73607337E-02 0.20436360E+03</pdfrwt>
<pdfrwt beam="2">  1       21 0.18257546E+00 0.20436360E+03</pdfrwt>
<totfact> 0.24040832E+04</totfact>
</mgrwt>
</event>
<event>
 4    1  0.4056666E+000  0.1748892E+03  0.7546771E-02  0.1172843E+00
         21   -1    0    0  501  502  0.00000000000E+00  0.00000000000E+00  0.67924301011E+02  0.67924301011E+02  0.00000000000E+00 0. -1.
         21   -1    0    0  502  503 -0.00000000000E+00 -0.00000000000E+00 -0.46417527656E+03  0.46417527656E+03  0.00000000000E+00 0. -1.
          6    1    1    2  501    0 -0.10645638065E+02  0.23321979749E+02 -0.15212541718E+03  0.23179384569E+03  0.17300000000E+03 0.  1.
         -6    1    1    2    0  503  0.10645638065E+02 -0.23321979749E+02 -0.24412555837E+03  0.30030573188E+03  0.17300000000E+03 0.  1.
<mgrwt>
<rscale>  2 0.17488923E+03</rscale>
<asrwt>0</asrwt>
<pdfrwt beam="1">  1       21 0.10449892E-01 0.17488923E+03</pdfrwt>
<pdfrwt beam="2">  1       21 0.71411583E-01 0.17488923E+03</pdfrwt>
<totfact> 0.13393282E+05</totfact>
</mgrwt>
</event>
<event>
 4    1  0.4056666E+000  0.1867687E+03  0.7546771E-02  0.1161408E+00
         21   -1    0    0  501  502  0.00000000000E+00  0.00000000000E+00  0.11257919642E+04  0.11257919642E+04  0.00000000000E+00 0. -1.
         21   -1    0    0  502  503 -0.00000000000E+00 -0.00000000000E+00 -0.37343342359E+02  0.37343342359E+02  0.00000000000E+00 0. -1.
          6    1    1    2  501    0  0.62942330192E+02 -0.31492763127E+02  0.78420132059E+03  0.80613537465E+03  0.17300000000E+03 0. -1.
         -6    1    1    2    0  503 -0.62942330192E+02  0.31492763127E+02  0.30424730126E+03  0.35699993191E+03  0.17300000000E+03 0. -1.
<mgrwt>
<rscale>  2 0.18676866E+03</rscale>
<asrwt>0</asrwt>
<pdfrwt beam="1">  1       21 0.17319874E+00 0.18676866E+03</pdfrwt>
<pdfrwt beam="2">  1       21 0.57451305E-02 0.18676866E+03</pdfrwt>
<totfact> 0.43198239E+04</totfact>
</mgrwt>
</event>
<event>
 4    1  0.4056666E+000  0.1750651E+03  0.7546771E-02  0.1172666E+00
         21   -1    0    0  501  502  0.00000000000E+00  0.00000000000E+00  0.94146297110E+02  0.94146297110E+02  0.00000000000E+00 0.  1.
         21   -1    0    0  502  503 -0.00000000000E+00 -0.00000000000E+00 -0.40695502340E+03  0.40695502340E+03  0.00000000000E+00 0.  1.
          6    1    1    2  501    0  0.27624793247E+01 -0.26667612696E+02 -0.44333836884E+02  0.18059147807E+03  0.17300000000E+03 0.  1.
         -6    1    1    2    0  503 -0.27624793247E+01  0.26667612696E+02 -0.26847488941E+03  0.32050984244E+03  0.17300000000E+03 0.  1.
<mgrwt>
<rscale>  2 0.17506511E+03</rscale>
<asrwt>0</asrwt>
<pdfrwt beam="1">  1       21 0.14484046E-01 0.17506511E+03</pdfrwt>
<pdfrwt beam="2">  1       21 0.62608465E-01 0.17506511E+03</pdfrwt>
<totfact> 0.99513695E+04</totfact>
</mgrwt>
</event>
<event>
 4    1  0.4056666E+000  0.1772807E+03  0.7546771E-02  0.1170461E+00
         21   -1    0    0  503  502  0.00000000000E+00  0.00000000000E+00  0.65114841416E+02  0.65114841416E+02  0.00000000000E+00 0.  1.
         21   -1    0    0  501  503 -0.00000000000E+00 -0.00000000000E+00 -0.68024291348E+03  0.68024291348E+03  0.00000000000E+00 0.  1.
          6    1    1    2  501    0  0.38563314371E+02  0.35083870286E+01 -0.50841578811E+03  0.53843760232E+03  0.17300000000E+03 0.  1.
         -6    1    1    2    0  502 -0.38563314371E+02 -0.35083870286E+01 -0.10671228395E+03  0.20692015257E+03  0.17300000000E+03 0.  1.
<mgrwt>
<rscale>  2 0.17728068E+03</rscale>
<asrwt>0</asrwt>
<pdfrwt beam="1">  1       21 0.10017667E-01 0.17728068E+03</pdfrwt>
<pdfrwt beam="2">  1       21 0.10465276E+00 0.17728068E+03</pdfrwt>
<totfact> 0.60016842E+04</totfact>
</mgrwt>
</event>
<event>
 4    1  0.4056666E+000  0.1914368E+03  0.7546771E-02  0.1157172E+00
         21   -1    0    0  503  502  0.00000000000E+00  0.00000000000E+00  0.20391779761E+03  0.20391779761E+03  0.00000000000E+00 0. -1.
         21   -1    0    0  501  503 -0.00000000000E+00 -0.00000000000E+00 -0.25150728851E+03  0.25150728851E+03  0.00000000000E+00 0.  1.
          6    1    1    2  501    0 -0.79797920298E+02 -0.18743849237E+02 -0.14545155672E+03  0.24042503056E+03  0.17300000000E+03 0.  1.
         -6    1    1    2    0  502  0.79797920298E+02  0.18743849237E+02  0.97862065815E+02  0.21500005557E+03  0.17300000000E+03 0. -1.
<mgrwt>
<rscale>  2 0.19143678E+03</rscale>
<asrwt>0</asrwt>
<pdfrwt beam="1">  1       21 0.31371969E-01 0.19143678E+03</pdfrwt>
<pdfrwt beam="2">  1       21 0.38693429E-01 0.19143678E+03</pdfrwt>
<totfact> 0.62924722E+04</totfact>
</mgrwt>
</event>
<event>
 4    1  0.4056666E+000  0.2092581E+03  0.7546771E-02  0.1142155E+00
         21   -1    0    0  501  502  0.00000000000E+00  0.00000000000E+00  0.38494807199E+03  0.38494807199E+03  0.00000000000E+00 0.  1.
         21   -1    0    0  502  503 -0.00000000000E+00 -0.00000000000E+00 -0.12165473641E+03  0.12165473641E+03  0.00000000000E+00 0. -1.
          6    1    1    2  501    0  0.11678871640E+03 -0.14844344842E+02  0.19620274801E+03  0.28685270990E+03  0.17300000000E+03 0.  1.
         -6    1    1    2    0  503 -0.11678871640E+03  0.14844344842E+02  0.67090587568E+02  0.21975009850E+03  0.17300000000E+03 0. -1.
<mgrwt>
<rscale>  2 0.20925812E+03</rscale>
<asrwt>0</asrwt>
<pdfrwt beam="1">  1       21 0.59222780E-01 0.20925812E+03</pdfrwt>
<pdfrwt beam="2">  1       21 0.18716113E-01 0.20925812E+03</pdfrwt>
<totfact> 0.69081449E+04</totfact>
</mgrwt>
</event>
<event>
 4    1  0.4056666E+000  0.1778156E+03  0.7546771E-02  0.1169934E+00
         21   -1    0    0  503  502  0.00000000000E+00  0.00000000000E+00  0.21617769566E+03  0.21617769566E+03  0.00000000000E+00 0. -1.
         21   -1    0    0  501  503 -0.00000000000E+00 -0.00000000000E+00 -0.15771412250E+03  0.15771412250E+03  0.00000000000E+00 0. -1.
          6    1    1    2  501    0  0.38606438746E+02 -0.14103907536E+02 -0.21146295464E+02  0.17906854311E+03  0.17300000000E+03 0. -1.
         -6    1    1    2    0  502 -0.38606438746E+02  0.14103907536E+02  0.79609868625E+02  0.19482327505E+03  0.17300000000E+03 0. -1.
<mgrwt>
<rscale>  2 0.17781557E+03</rscale>
<asrwt>0</asrwt>
<pdfrwt beam="1">  1       21 0.33258107E-01 0.17781557E+03</pdfrwt>
<pdfrwt beam="2">  1       21 0.24263711E-01 0.17781557E+03</pdfrwt>
<totfact> 0.14028490E+05</totfact>
</mgrwt>
</event>
<event>
 4    1  0.4056666E+000  0.1839619E+03  0.7546771E-02  0.1164023E+00
         21   -1    0    0  501  502  0.00000000000E+00  0.00000000000E+00  0.87871008486E+03  0.87871008486E+03  0.00000000000E+00 0. -1.
         21   -1    0    0  502  503 -0.00000000000E+00 -0.00000000000E+00 -0.53165278595E+02  0.53165278595E+02  0.00000000000E+00 0. -1.
          6    1    1    2  501    0 -0.55881377781E+02  0.28111205796E+02  0.65737602530E+03  0.68263109137E+03  0.17300000000E+03 0. -1.
         -6    1    1    2    0  503  0.55881377781E+02 -0.28111205796E+02  0.16816878097E+03  0.24924427209E+03  0.17300000000E+03 0. -1.
<mgrwt>
<rscale>  2 0.18396187E+03</rscale>
<asrwt>0</asrwt>
<pdfrwt beam="1">  1       21 0.13518616E+00 0.18396187E+03</pdfrwt>
<pdfrwt beam="2">  1       21 0.81792743E-02 0.18396187E+03</pdfrwt>
<totfact> 0.45413124E+04</totfact>
</mgrwt>
</event>
<event>
 4    1  0.4056666E+000  0.1787036E+03  0.7546771E-02  0.1169064E+00
         21   -1    0    0  501  502  0.00000000000E+00  0.00000000000E+00  0.94864353521E+02  0.94864353521E+02  0.00000000000E+00 0. -1.
         21   -1    0    0  502  503 -0.00000000000E+00 -0.00000000000E+00 -0.37469449406E+03  0.37469449406E+03  0.00000000000E+00 0. -1.
          6    1    1    2  501    0  0.87189920392E+01 -0.43931186207E+02 -0.65092204271E+02  0.19018928729E+03  0.17300000000E+03 0. -1.
         -6    1    1    2    0  503 -0.87189920392E+01  0.43931186207E+02 -0.21473793627E+03  0.27936956029E+03  0.17300000000E+03 0. -1.
<mgrwt>
<rscale>  2 0.17870358E+03</rscale>
<asrwt>0</asrwt>
<pdfrwt beam="1">  1       21 0.14594516E-01 0.17870358E+03</pdfrwt>
<pdfrwt beam="2">  1       21 0.57645307E-01 0.17870358E+03</pdfrwt>
<totfact> 0.11699128E+05</totfact>
</mgrwt>
</event>
<event>
 4    1  0.4056666E+000  0.1761926E+03  0.7546771E-02  0.1171540E+00
         21   -1    0    0  501  502  0.00000000000E+00  0.00000000000E+00  0.46914241463E+03  0.46914241463E+03  0.00000000000E+00 0. -1.
         21   -1    0    0  502  503 -0.00000000000E+00 -0.00000000000E+00 -0.67675898601E+02  0.67675898601E+02  0.00000000000E+00 0. -1.
          6    1    1    2  501    0 -0.28921357541E+02 -0.16685080762E+02  0.24075242677E+03  0.29833800937E+03  0.17300000000E+03 0. -1.
         -6    1    1    2    0  503  0.28921357541E+02  0.16685080762E+02  0.16071408927E+03  0.23848030386E+03  0.17300000000E+03 0. -1.
<mgrwt>
<rscale>  2 0.17619261E+03</rscale>
<asrwt>0</asrwt>
<pdfrwt beam="1">  1       21 0.72175754E-01 0.17619261E+03</pdfrwt>
<pdfrwt beam="2">  1       21 0.10411677E-01 0.17619261E+03</pdfrwt>
<totfact> 0.13160708E+05</totfact>
</mgrwt>
</event>
<event>
 4    1  0.4056666E+000  0.1907285E+03  0.7546771E-02  0.1157806E+00
         21   -1    0    0  501  502  0.00000000000E+00  0.00000000000E+00  0.15744090749E+04  0.15744090749E+04  0.00000000000E+00 0. -1.
         21   -1    0    0  502  503 -0.00000000000E+00 -0.00000000000E+00 -0.66463614166E+02  0.66463614166E+02  0.00000000000E+00 0. -1.
          6    1    1    2  501    0  0.64520138407E+02 -0.47807086762E+02  0.14166293817E+04  0.14294111273E+04  0.17300000000E+03 0. -1.
         -6    1    1    2    0  503 -0.64520138407E+02  0.47807086762E+02  0.91316079024E+02  0.21146156174E+03  0.17300000000E+03 0. -1.
<mgrwt>
<rscale>  2 0.19072851E+03</rscale>
<asrwt>0</asrwt>
<pdfrwt beam="1">  1       21 0.24221675E+00 0.19072851E+03</pdfrwt>
<pdfrwt beam="2">  1       21 0.10225173E-01 0.19072851E+03</pdfrwt>
<totfact> 0.57774326E+03</totfact>
</mgrwt>
</event>
<event>
 4    1  0.4056666E+000  0.1872847E+03  0.7546771E-02  0.1160933E+00
         21   -1    0    0  501  502  0.00000000000E+00  0.00000000000E+00  0.72030692757E+02  0.72030692757E+02  0.00000000000E+00 0. -1.
         21   -1    0    0  502  503 -0.00000000000E+00 -0.00000000000E+00 -0.62666884015E+03  0.62666884015E+03  0.00000000000E+00 0. -1.
          6    1    1    2  501    0  0.81399872746E+00  0.71734824553E+02 -0.11236443292E+03  0.21840630356E+03  0.17300000000E+03 0. -1.
         -6    1    1    2    0  503 -0.81399872746E+00 -0.71734824553E+02 -0.44227371447E+03  0.48029322935E+03  0.17300000000E+03 0. -1.
<mgrwt>
<rscale>  2 0.18728467E+03</rscale>
<asrwt>0</asrwt>
<pdfrwt beam="1">  1       21 0.11081645E-01 0.18728467E+03</pdfrwt>
<pdfrwt beam="2">  1       21 0.96410589E-01 0.18728467E+03</pdfrwt>
<totfact> 0.60680211E+04</totfact>
</mgrwt>
</event>
<event>
 4    1  0.4056666E+000  0.2482092E+03  0.7546771E-02  0.1114442E+00
         21   -1    0    0  501  502  0.00000000000E+00  0.00000000000E+00  0.76195230956E+03  0.76195230956E+03  0.00000000000E+00 0.  1.
         21   -1    0    0  502  503 -0.00000000000E+00 -0.00000000000E+00 -0.10375883936E+03  0.10375883936E+03  0.00000000000E+00 0.  1.
          6    1    1    2  501    0 -0.12933514077E+03 -0.12227527994E+03  0.53246468344E+03  0.58747464782E+03  0.17300000000E+03 0.  1.
         -6    1    1    2    0  503  0.12933514077E+03  0.12227527994E+03  0.12572878676E+03  0.27823650110E+03  0.17300000000E+03 0.  1.
<mgrwt>
<rscale>  2 0.24820923E+03</rscale>
<asrwt>0</asrwt>
<pdfrwt beam="1">  1       21 0.11722343E+00 0.24820923E+03</pdfrwt>
<pdfrwt beam="2">  1       21 0.15962899E-01 0.24820923E+03</pdfrwt>
<totfact> 0.18964771E+04</totfact>
</mgrwt>
</event>
<event>
 4    1  0.4056666E+000  0.2553121E+03  0.7546771E-02  0.1109993E+00
         21   -1    0    0  503  502  0.00000000000E+00  0.00000000000E+00  0.52348970762E+03  0.52348970762E+03  0.00000000000E+00 0. -1.
         21   -1    0    0  501  503 -0.00000000000E+00 -0.00000000000E+00 -0.19216140226E+03  0.19216140226E+03  0.00000000000E+00 0.  1.
          6    1    1    2  501    0 -0.17035981428E+03  0.78948016627E+02 -0.46635244918E+02  0.25953632062E+03  0.17300000000E+03 0.  1.
         -6    1    1    2    0  502  0.17035981428E+03 -0.78948016627E+02  0.37796355028E+03  0.45611478927E+03  0.17300000000E+03 0. -1.
<mgrwt>
<rscale>  2 0.25531208E+03</rscale>
<asrwt>0</asrwt>
<pdfrwt beam="1">  1       21 0.80536878E-01 0.25531208E+03</pdfrwt>
<pdfrwt beam="2">  1       21 0.29563293E-01 0.25531208E+03</pdfrwt>
<totfact> 0.14322238E+04</totfact>
</mgrwt>
</event>
<event>
 4    1  0.4056666E+000  0.2920552E+03  0.7546771E-02  0.1089281E+00
         21   -1    0    0  503  502  0.00000000000E+00  0.00000000000E+00  0.22300397689E+03  0.22300397689E+03  0.00000000000E+00 0. -1.
         21   -1    0    0  501  503 -0.00000000000E+00 -0.00000000000E+00 -0.10452422270E+04  0.10452422270E+04  0.00000000000E+00 0. -1.
          6    1    1    2  501    0 -0.26252734298E+02  0.23383334799E+03 -0.91606113990E+03  0.96149064100E+03  0.17300000000E+03 0. -1.
         -6    1    1    2    0  502  0.26252734298E+02 -0.23383334799E+03  0.93822889819E+02  0.30675556286E+03  0.17300000000E+03 0. -1.
<mgrwt>
<rscale>  2 0.29205520E+03</rscale>
<asrwt>0</asrwt>
<pdfrwt beam="1">  1       21 0.34308305E-01 0.29205520E+03</pdfrwt>
<pdfrwt beam="2">  1       21 0.16080649E+00 0.29205520E+03</pdfrwt>
<totfact> 0.18771281E+03</totfact>
</mgrwt>
</event>
<event>
 4    1  0.4056666E+000  0.1843673E+03  0.7546771E-02  0.1163642E+00
         21   -1    0    0  503  502  0.00000000000E+00  0.00000000000E+00  0.69108716131E+02  0.69108716131E+02  0.00000000000E+00 0.  1.
         21   -1    0    0  501  503 -0.00000000000E+00 -0.00000000000E+00 -0.49196948257E+03  0.49196948257E+03  0.00000000000E+00 0. -1.
          6    1    1    2  501    0  0.64698314566E+01  0.63406857771E+02 -0.21575809754E+03  0.28380071350E+03  0.17300000000E+03 0. -1.
         -6    1    1    2    0  502 -0.64698314566E+01 -0.63406857771E+02 -0.20710266890E+03  0.27727748519E+03  0.17300000000E+03 0.  1.
<mgrwt>
<rscale>  2 0.18436726E+03</rscale>
<asrwt>0</asrwt>
<pdfrwt beam="1">  1       21 0.10632110E-01 0.18436726E+03</pdfrwt>
<pdfrwt beam="2">  1       21 0.75687614E-01 0.18436726E+03</pdfrwt>
<totfact> 0.11376287E+05</totfact>
</mgrwt>
</event>
<event>
 4    1  0.4056666E+000  0.2827904E+03  0.7546771E-02  0.1094175E+00
         21   -1    0    0  501  502  0.00000000000E+00  0.00000000000E+00  0.51912746705E+03  0.51912746705E+03  0.00000000000E+00 0.  1.
         21   -1    0    0  502  503 -0.00000000000E+00 -0.00000000000E+00 -0.21408252828E+03  0.21408252828E+03  0.00000000000E+00 0.  1.
          6    1    1    2  501    0  0.17783013320E+03  0.13571239878E+03  0.34665989731E+03  0.44737399998E+03  0.17300000000E+03 0.  1.
         -6    1    1    2    0  503 -0.17783013320E+03 -0.13571239878E+03 -0.41614958537E+02  0.28583599534E+03  0.17300000000E+03 0.  1.
<mgrwt>
<rscale>  2 0.28279040E+03</rscale>
<asrwt>0</asrwt>
<pdfrwt beam="1">  1       21 0.79865764E-01 0.28279040E+03</pdfrwt>
<pdfrwt beam="2">  1       21 0.32935774E-01 0.28279040E+03</pdfrwt>
<totfact> 0.11637241E+04</totfact>
</mgrwt>
</event>
<event>
 4    1  0.4056666E+000  0.2325145E+03  0.7546771E-02  0.1124882E+00
         21   -1    0    0  503  502  0.00000000000E+00  0.00000000000E+00  0.13513413108E+04  0.13513413108E+04  0.00000000000E+00 0. -1.
         21   -1    0    0  501  503 -0.00000000000E+00 -0.00000000000E+00 -0.61247506721E+02  0.61247506721E+02  0.00000000000E+00 0. -1.
          6    1    1    2  501    0 -0.17498491677E+02  0.15436260823E+03  0.22911258588E+03  0.32642853588E+03  0.17300000000E+03 0. -1.
         -6    1    1    2    0  502  0.17498491677E+02 -0.15436260823E+03  0.10609812182E+04  0.10861602816E+04  0.17300000000E+03 0. -1.
<mgrwt>
<rscale>  2 0.23251454E+03</rscale>
<asrwt>0</asrwt>
<pdfrwt beam="1">  1       21 0.20789864E+00 0.23251454E+03</pdfrwt>
<pdfrwt beam="2">  1       21 0.94226944E-02 0.23251454E+03</pdfrwt>
<totfact> 0.10440933E+04</totfact>
</mgrwt>
</event>
<event>
 4    1  0.4056666E+000  0.2800048E+03  0.7546771E-02  0.1095686E+00
         21   -1    0    0  503  502  0.00000000000E+00  0.00000000000E+00  0.54411011089E+02  0.54411011089E+02  0.00000000000E+00 0. -1.
         21   -1    0    0  501  503 -0.00000000000E+00 -0.00000000000E+00 -0.14475157835E+04  0.14475157835E+04  0.00000000000E+00 0.  1.
          6    1    1    2  501    0  0.47475844702E+02  0.21498781337E+03 -0.74718784302E+03  0.79793006491E+03  0.17300000000E+03 0. -1.
         -6    1    1    2    0  502 -0.47475844702E+02 -0.21498781337E+03 -0.64591692939E+03  0.70399672968E+03  0.17300000000E+03 0. -1.
<mgrwt>
<rscale>  2 0.28000485E+03</rscale>
<asrwt>0</asrwt>
<pdfrwt beam="1">  1       21 0.83709245E-02 0.28000485E+03</pdfrwt>
<pdfrwt beam="2">  1       21 0.22269474E+00 0.28000485E+03</pdfrwt>
<totfact> 0.10058510E+04</totfact>
</mgrwt>
</event>
<event>
 4    1  0.4056666E+000  0.1873175E+03  0.7546771E-02  0.1160903E+00
         21   -1    0    0  501  502  0.00000000000E+00  0.00000000000E+00  0.82085273730E+02  0.82085273730E+02  0.00000000000E+00 0.  1.
         21   -1    0    0  502  503 -0.00000000000E+00 -0.00000000000E+00 -0.43653831897E+03  0.43653831897E+03  0.00000000000E+00 0.  1.
          6    1    1    2  501    0 -0.40705168364E+02  0.59177297069E+02 -0.13982377510E+03  0.23374890653E+03  0.17300000000E+03 0. -1.
         -6    1    1    2    0  503  0.40705168364E+02 -0.59177297069E+02 -0.21462927014E+03  0.28487468617E+03  0.17300000000E+03 0. -1.
<mgrwt>
<rscale>  2 0.18731755E+03</rscale>
<asrwt>0</asrwt>
<pdfrwt beam="1">  1       21 0.12628504E-01 0.18731755E+03</pdfrwt>
<pdfrwt beam="2">  1       21 0.67159741E-01 0.18731755E+03</pdfrwt>
<totfact> 0.10889490E+05</totfact>
</mgrwt>
</event>
<event>
 4    1  0.4056666E+000  0.1793905E+03  0.7546771E-02  0.1168394E+00
         21   -1    0    0  503  502  0.00000000000E+00  0.00000000000E+00  0.37893960778E+02  0.37893960778E+02  0.00000000000E+00 0.  1.
         21   -1    0    0  501  503 -0.00000000000E+00 -0.00000000000E+00 -0.92795554319E+03  0.92795554319E+03  0.00000000000E+00 0.  1.
          6    1    1    2  501    0  0.47258109417E+02 -0.43163477852E+01 -0.30437618686E+03  0.35330698110E+03  0.17300000000E+03 0.  1.
         -6    1    1    2    0  502 -0.47258109417E+02  0.43163477852E+01 -0.58568539556E+03  0.61254252288E+03  0.17300000000E+03 0.  1.
<mgrwt>
<rscale>  2 0.17939052E+03</rscale>
<asrwt>0</asrwt>
<pdfrwt beam="1">  1       21 0.58298401E-02 0.17939052E+03</pdfrwt>
<pdfrwt beam="2">  1       21 0.14276239E+00 0.17939052E+03</pdfrwt>
<totfact> 0.70931930E+04</totfact>
</mgrwt>
</event>
<event>
 4    1  0.4056666E+000  0.1771914E+03  0.7546771E-02  0.1170549E+00
         21   -1    0    0  501  502  0.00000000000E+00  0.00000000000E+00  0.12780129315E+03  0.12780129315E+03  0.00000000000E+00 0. -1.
         21   -1    0    0  502  503 -0.00000000000E+00 -0.00000000000E+00 -0.48946488948E+03  0.48946488948E+03  0.00000000000E+00 0. -1.
          6    1    1    2  501    0  0.21884072142E+02  0.31446603265E+02  0.36986824041E+02  0.18101057047E+03  0.17300000000E+03 0. -1.
         -6    1    1    2    0  503 -0.21884072142E+02 -0.31446603265E+02 -0.39865042038E+03  0.43625561216E+03  0.17300000000E+03 0. -1.
<mgrwt>
<rscale>  2 0.17719143E+03</rscale>
<asrwt>0</asrwt>
<pdfrwt beam="1">  1       21 0.19661738E-01 0.17719143E+03</pdfrwt>
<pdfrwt beam="2">  1       21 0.75302289E-01 0.17719143E+03</pdfrwt>
<totfact> 0.37852374E+04</totfact>
</mgrwt>
</event>
<event>
 4    1  0.4056666E+000  0.1813380E+03  0.7546771E-02  0.1166514E+00
         21   -1    0    0  503  502  0.00000000000E+00  0.00000000000E+00  0.11650526492E+03  0.11650526492E+03  0.00000000000E+00 0. -1.
         21   -1    0    0  501  503 -0.00000000000E+00 -0.00000000000E+00 -0.36353458591E+03  0.36353458591E+03  0.00000000000E+00 0. -1.
          6    1    1    2  501    0 -0.28722257000E+02 -0.46146610749E+02 -0.23701092924E+03  0.29842529771E+03  0.17300000000E+03 0. -1.
         -6    1    1    2    0  502  0.28722257000E+02  0.46146610749E+02 -0.10018391751E+02  0.18161455312E+03  0.17300000000E+03 0. -1.
<mgrwt>
<rscale>  2 0.18133802E+03</rscale>
<asrwt>0</asrwt>
<pdfrwt beam="1">  1       21 0.17923887E-01 0.18133802E+03</pdfrwt>
<pdfrwt beam="2">  1       21 0.55928398E-01 0.18133802E+03</pdfrwt>
<totfact> 0.85573968E+04</totfact>
</mgrwt>
</event>
<event>
 4    1  0.4056666E+000  0.2284475E+03  0.7546771E-02  0.1127737E+00
         21   -1    0    0  503  502  0.00000000000E+00  0.00000000000E+00  0.91752466045E+02  0.91752466045E+02  0.00000000000E+00 0.  1.
         21   -1    0    0  501  503 -0.00000000000E+00 -0.00000000000E+00 -0.68934309442E+03  0.68934309442E+03  0.00000000000E+00 0.  1.
          6    1    1    2  501    0 -0.12191648802E+03  0.85997962660E+02 -0.46211475942E+03  0.51549813822E+03  0.17300000000E+03 0.  1.
         -6    1    1    2    0  502  0.12191648802E+03 -0.85997962660E+02 -0.13547586895E+03  0.26559742224E+03  0.17300000000E+03 0.  1.
<mgrwt>
<rscale>  2 0.22844754E+03</rscale>
<asrwt>0</asrwt>
<pdfrwt beam="1">  1       21 0.14115764E-01 0.22844754E+03</pdfrwt>
<pdfrwt beam="2">  1       21 0.10605278E+00 0.22844754E+03</pdfrwt>
<totfact> 0.30638665E+04</totfact>
</mgrwt>
</event>
<event>
 4    1  0.4056666E+000  0.2424102E+03  0.7546771E-02  0.1118198E+00
         21   -1    0    0  501  502  0.00000000000E+00  0.00000000000E+00  0.15991072794E+04  0.15991072794E+04  0.00000000000E+00 0. -1.
         21   -1    0    0  502  503 -0.00000000000E+00 -0.00000000000E+00 -0.38857351888E+02  0.38857351888E+02  0.00000000000E+00 0. -1.
          6    1    1    2  501    0 -0.14999220032E+03  0.79599334212E+02  0.97097613846E+03  0.10007783849E+04  0.17300000000E+03 0. -1.
         -6    1    1    2    0  503  0.14999220032E+03 -0.79599334212E+02  0.58927378907E+03  0.63718624644E+03  0.17300000000E+03 0. -1.
<mgrwt>
<rscale>  2 0.24241022E+03</rscale>
<asrwt>0</asrwt>
<pdfrwt beam="1">  1       21 0.24601645E+00 0.24241022E+03</pdfrwt>
<pdfrwt beam="2">  1       21 0.59780554E-02 0.24241022E+03</pdfrwt>
<totfact> 0.13363697E+04</totfact>
</mgrwt>
</event>
<event>
 4    1  0.4056666E+000  0.1747302E+03  0.7546771E-02  0.1173003E+00
         21   -1    0    0  501  502  0.00000000000E+00  0.00000000000E+00  0.67841655410E+03  0.67841655410E+03  0.00000000000E+00 0.  1.
         21   -1    0    0  502  503 -0.00000000000E+00 -0.00000000000E+00 -0.62651071932E+02  0.62651071932E+02  0.00000000000E+00 0.  1.
          6    1    1    2  501    0 -0.52892844226E+01  0.23951081102E+02  0.50454224274E+03  0.53394148136E+03  0.17300000000E+03 0.  1.
         -6    1    1    2    0  503  0.52892844226E+01 -0.23951081102E+02  0.11122323943E+03  0.20712614467E+03  0.17300000000E+03 0.  1.
<mgrwt>
<rscale>  2 0.17473017E+03</rscale>
<asrwt>0</asrwt>
<pdfrwt beam="1">  1       21 0.10437177E+00 0.17473017E+03</pdfrwt>
<pdfrwt beam="2">  1       21 0.96386269E-02 0.17473017E+03</pdfrwt>
<totfact> 0.64730704E+04</totfact>
</mgrwt>
</event>
<event>
 4    1  0.4056666E+000  0.2087270E+03  0.7546771E-02  0.1142578E+00
         21   -1    0    0  503  502  0.00000000000E+00  0.00000000000E+00  0.97369635237E+02  0.97369635237E+02  0.00000000000E+00 0.  1.
         21   -1    0    0  501  503 -0.00000000000E+00 -0.00000000000E+00 -0.72657805545E+03  0.72657805545E+03  0.00000000000E+00 0.  1.
          6    1    1    2  501    0 -0.98675141460E+02  0.62459488860E+02 -0.56995594713E+03  0.60697343679E+03  0.17300000000E+03 0.  1.
         -6    1    1    2    0  502  0.98675141460E+02 -0.62459488860E+02 -0.59252473083E+02  0.21697425390E+03  0.17300000000E+03 0.  1.
<mgrwt>
<rscale>  2 0.20872703E+03</rscale>
<asrwt>0</asrwt>
<pdfrwt beam="1">  1       21 0.14979944E-01 0.20872703E+03</pdfrwt>
<pdfrwt beam="2">  1       21 0.11178124E+00 0.20872703E+03</pdfrwt>
<totfact> 0.24464336E+04</totfact>
</mgrwt>
</event>
<event>
 4    1  0.4056666E+000  0.1858240E+03  0.7546771E-02  0.1162283E+00
         21   -1    0    0  501  502  0.00000000000E+00  0.00000000000E+00  0.24785091985E+02  0.24785091985E+02  0.00000000000E+00 0.  1.
         21   -1    0    0  502  503 -0.00000000000E+00 -0.00000000000E+00 -0.16664745674E+04  0.16664745674E+04  0.00000000000E+00 0.  1.
          6    1    1    2  501    0 -0.65999808031E+02 -0.15670654106E+02 -0.47840667238E+03  0.51322849515E+03  0.17300000000E+03 0.  1.
         -6    1    1    2    0  503  0.65999808031E+02  0.15670654106E+02 -0.11632828030E+04  0.11780311642E+04  0.17300000000E+03 0.  1.
<mgrwt>
<rscale>  2 0.18582396E+03</rscale>
<asrwt>0</asrwt>
<pdfrwt beam="1">  1       21 0.38130912E-02 0.18582396E+03</pdfrwt>
<pdfrwt beam="2">  1       21 0.25638069E+00 0.18582396E+03</pdfrwt>
<totfact> 0.26053675E+04</totfact>
</mgrwt>
</event>
<event>
 4    1  0.4056666E+000  0.1966587E+03  0.7546771E-02  0.1152589E+00
         21   -1    0    0  503  502  0.00000000000E+00  0.00000000000E+00  0.25247891235E+02  0.25247891235E+02  0.00000000000E+00 0. -1.
         21   -1    0    0  501  503 -0.00000000000E+00 -0.00000000000E+00 -0.15322659050E+04  0.15322659050E+04  0.00000000000E+00 0. -1.
          6    1    1    2  501    0  0.73563920977E+02 -0.57740742305E+02 -0.76713229756E+03  0.79193851134E+03  0.17300000000E+03 0.  1.
         -6    1    1    2    0  502 -0.73563920977E+02  0.57740742305E+02 -0.73988571623E+03  0.76557528491E+03  0.17300000000E+03 0.  1.
<mgrwt>
<rscale>  2 0.19665870E+03</rscale>
<asrwt>0</asrwt>
<pdfrwt beam="1">  1       21 0.38842901E-02 0.19665870E+03</pdfrwt>
<pdfrwt beam="2">  1       21 0.23573327E+00 0.19665870E+03</pdfrwt>
<totfact> 0.33147407E+04</totfact>
</mgrwt>
</event>
<event>
 4    1  0.4056666E+000  0.1906394E+03  0.7546771E-02  0.1157886E+00
         21   -1    0    0  501  502  0.00000000000E+00  0.00000000000E+00  0.17809524532E+02  0.17809524532E+02  0.00000000000E+00 0.  1.
         21   -1    0    0  502  503 -0.00000000000E+00 -0.00000000000E+00 -0.28235464367E+04  0.28235464367E+04  0.00000000000E+00 0.  1.
          6    1    1    2  501    0 -0.72587597496E+02 -0.33844052077E+02 -0.65479450547E+03  0.68198183522E+03  0.17300000000E+03 0.  1.
         -6    1    1    2    0  503  0.72587597496E+02  0.33844052077E+02 -0.21509424067E+04  0.21593741260E+04  0.17300000000E+03 0.  1.
<mgrwt>
<rscale>  2 0.19063940E+03</rscale>
<asrwt>0</asrwt>
<pdfrwt beam="1">  1       21 0.27399265E-02 0.19063940E+03</pdfrwt>
<pdfrwt beam="2">  1       21 0.43439181E+00 0.19063940E+03</pdfrwt>
<totfact> 0.38822820E+03</totfact>
</mgrwt>
</event>
<event>
 4    1  0.4056666E+000  0.2197241E+03  0.7546771E-02  0.1134089E+00
         21   -1    0    0  501  502  0.00000000000E+00  0.00000000000E+00  0.62969366838E+03  0.62969366838E+03  0.00000000000E+00 0. -1.
         21   -1    0    0  502  503 -0.00000000000E+00 -0.00000000000E+00 -0.17677093176E+03  0.17677093176E+03  0.00000000000E+00 0.  1.
          6    1    1    2  501    0  0.12948640094E+03 -0.39786346036E+02  0.52989849266E+03  0.57364718590E+03  0.17300000000E+03 0. -1.
         -6    1    1    2    0  503 -0.12948640094E+03  0.39786346036E+02 -0.76975756035E+02  0.23281741425E+03  0.17300000000E+03 0.  1.
<mgrwt>
<rscale>  2 0.21972410E+03</rscale>
<asrwt>0</asrwt>
<pdfrwt beam="1">  1       21 0.96875948E-01 0.21972410E+03</pdfrwt>
<pdfrwt beam="2">  1       21 0.27195528E-01 0.21972410E+03</pdfrwt>
<totfact> 0.11200030E+04</totfact>
</mgrwt>
</event>
<event>
 4    1  0.4056666E+000  0.1858464E+03  0.7546771E-02  0.1162262E+00
         21   -1    0    0  503  502  0.00000000000E+00  0.00000000000E+00  0.83086179560E+03  0.83086179560E+03  0.00000000000E+00 0. -1.
         21   -1    0    0  501  503 -0.00000000000E+00 -0.00000000000E+00 -0.42916154349E+02  0.42916154349E+02  0.00000000000E+00 0. -1.
          6    1    1    2  501    0 -0.51976273707E+02  0.43684500385E+02  0.31659454735E+03  0.36711166695E+03  0.17300000000E+03 0. -1.
         -6    1    1    2    0  502  0.51976273707E+02 -0.43684500385E+02  0.47135109391E+03  0.50666628300E+03  0.17300000000E+03 0. -1.
<mgrwt>
<rscale>  2 0.18584636E+03</rscale>
<asrwt>0</asrwt>
<pdfrwt beam="1">  1       21 0.12782488E+00 0.18584636E+03</pdfrwt>
<pdfrwt beam="2">  1       21 0.66024859E-02 0.18584636E+03</pdfrwt>
<totfact> 0.75704165E+04</totfact>
</mgrwt>
</event>
<event>
 4    1  0.4056666E+000  0.2032258E+03  0.7546771E-02  0.1147046E+00
         21   -1    0    0  501  502  0.00000000000E+00  0.00000000000E+00  0.11027349327E+04  0.11027349327E+04  0.00000000000E+00 0.  1.
         21   -1    0    0  502  503 -0.00000000000E+00 -0.00000000000E+00 -0.83482392074E+02  0.83482392074E+02  0.00000000000E+00 0. -1.
          6    1    1    2  501    0 -0.10524047971E+03 -0.17209995880E+02  0.69219084226E+02  0.21469053111E+03  0.17300000000E+03 0. -1.
         -6    1    1    2    0  503  0.10524047971E+03  0.17209995880E+02  0.95003345639E+03  0.97152679366E+03  0.17300000000E+03 0.  1.
<mgrwt>
<rscale>  2 0.20322584E+03</rscale>
<asrwt>0</asrwt>
<pdfrwt beam="1">  1       21 0.16965152E+00 0.20322584E+03</pdfrwt>
<pdfrwt beam="2">  1       21 0.12843446E-01 0.20322584E+03</pdfrwt>
<totfact> 0.11057533E+04</totfact>
</mgrwt>
</event>
<event>
 4    1  0.4056666E+000  0.1901537E+03  0.7546771E-02  0.1158323E+00
         21   -1    0    0  501  502  0.00000000000E+00  0.00000000000E+00  0.61432150481E+03  0.61432150481E+03  0.00000000000E+00 0.  1.
         21   -1    0    0  502  503 -0.00000000000E+00 -0.00000000000E+00 -0.76571860766E+02  0.76571860766E+02  0.00000000000E+00 0. -1.
          6    1    1    2  501    0  0.39136335553E+02 -0.68540415671E+02  0.10272918285E+03  0.21612895768E+03  0.17300000000E+03 0. -1.
         -6    1    1    2    0  503 -0.39136335553E+02  0.68540415671E+02  0.43502046119E+03  0.47476440789E+03  0.17300000000E+03 0.  1.
<mgrwt>
<rscale>  2 0.19015373E+03</rscale>
<asrwt>0</asrwt>
<pdfrwt beam="1">  1       21 0.94510998E-01 0.19015373E+03</pdfrwt>
<pdfrwt beam="2">  1       21 0.11780287E-01 0.19015373E+03</pdfrwt>
<totfact> 0.56937289E+04</totfact>
</mgrwt>
</event>
<event>
 4    1  0.4056666E+000  0.1981006E+03  0.7546771E-02  0.1151351E+00
         21   -1    0    0  503  502  0.00000000000E+00  0.00000000000E+00  0.44321524347E+03  0.44321524347E+03  0.00000000000E+00 0.  1.
         21   -1    0    0  501  503 -0.00000000000E+00 -0.00000000000E+00 -0.94807731795E+02  0.94807731795E+02  0.00000000000E+00 0.  1.
          6    1    1    2  501    0 -0.46052759475E+02 -0.84817407423E+02  0.10505549425E+03  0.22423315127E+03  0.17300000000E+03 0. -1.
         -6    1    1    2    0  502  0.46052759475E+02  0.84817407423E+02  0.24335201743E+03  0.31378982400E+03  0.17300000000E+03 0. -1.
<mgrwt>
<rscale>  2 0.19810060E+03</rscale>
<asrwt>0</asrwt>
<pdfrwt beam="1">  1       21 0.68186959E-01 0.19810060E+03</pdfrwt>
<pdfrwt beam="2">  1       21 0.14585805E-01 0.19810060E+03</pdfrwt>
<totfact> 0.80837425E+04</totfact>
</mgrwt>
</event>
<event>
 4    1  0.4056666E+000  0.1777297E+03  0.7546771E-02  0.1170018E+00
         21   -1    0    0  501  502  0.00000000000E+00  0.00000000000E+00  0.13688476443E+03  0.13688476443E+03  0.00000000000E+00 0.  1.
         21   -1    0    0  502  503 -0.00000000000E+00 -0.00000000000E+00 -0.30794538301E+03  0.30794538301E+03  0.00000000000E+00 0.  1.
          6    1    1    2  501    0 -0.23185455361E+02  0.33485796828E+02  0.25819121456E+02  0.17959535340E+03  0.17300000000E+03 0.  1.
         -6    1    1    2    0  503  0.23185455361E+02 -0.33485796828E+02 -0.19687974004E+03  0.26523479404E+03  0.17300000000E+03 0.  1.
<mgrwt>
<rscale>  2 0.17772975E+03</rscale>
<asrwt>0</asrwt>
<pdfrwt beam="1">  1       21 0.21059195E-01 0.17772975E+03</pdfrwt>
<pdfrwt beam="2">  1       21 0.47376212E-01 0.17772975E+03</pdfrwt>
<totfact> 0.89841129E+04</totfact>
</mgrwt>
</event>
<event>
 4    1  0.4056666E+000  0.2216403E+03  0.7546771E-02  0.1132666E+00
         21   -1    0    0  501  502  0.00000000000E+00  0.00000000000E+00  0.44387761778E+03  0.44387761778E+03  0.00000000000E+00 0. -1.
         21   -1    0    0  502  503 -0.00000000000E+00 -0.00000000000E+00 -0.15775399064E+03  0.15775399064E+03  0.00000000000E+00 0.  1.
          6    1    1    2  501    0 -0.87733615395E+02  0.10722991303E+03  0.30740127213E+03  0.37897227290E+03  0.17300000000E+03 0. -1.
         -6    1    1    2    0  503  0.87733615395E+02 -0.10722991303E+03 -0.21277644996E+02  0.22265933552E+03  0.17300000000E+03 0.  1.
<mgrwt>
<rscale>  2 0.22164034E+03</rscale>
<asrwt>0</asrwt>
<pdfrwt beam="1">  1       21 0.68288864E-01 0.22164034E+03</pdfrwt>
<pdfrwt beam="2">  1       21 0.24269845E-01 0.22164034E+03</pdfrwt>
<totfact> 0.30877414E+04</totfact>
</mgrwt>
</event>
<event>
 4    1  0.4056666E+000  0.2177250E+03  0.7546771E-02  0.1135591E+00
         21   -1    0    0  503  502  0.00000000000E+00  0.00000000000E+00  0.41505473636E+03  0.41505473636E+03  0.00000000000E+00 0.  1.
         21   -1    0    0  501  503 -0.00000000000E+00 -0.00000000000E+00 -0.33489470116E+03  0.33489470116E+03  0.00000000000E+00 0. -1.
          6    1    1    2  501    0 -0.13004135362E+03  0.23757638815E+02 -0.26431120154E+03  0.34243917754E+03  0.17300000000E+03 0. -1.
         -6    1    1    2    0  502  0.13004135362E+03 -0.23757638815E+02  0.34447123673E+03  0.40751025998E+03  0.17300000000E+03 0.  1.
<mgrwt>
<rscale>  2 0.21772501E+03</rscale>
<asrwt>0</asrwt>
<pdfrwt beam="1">  1       21 0.63854575E-01 0.21772501E+03</pdfrwt>
<pdfrwt beam="2">  1       21 0.51522262E-01 0.21772501E+03</pdfrwt>
<totfact> 0.79669147E+03</totfact>
</mgrwt>
</event>
<event>
 4    1  0.4056666E+000  0.1764164E+03  0.7546771E-02  0.1171317E+00
         21   -1    0    0  501  502  0.00000000000E+00  0.00000000000E+00  0.68251782150E+03  0.68251782150E+03  0.00000000000E+00 0.  1.
         21   -1    0    0  502  503 -0.00000000000E+00 -0.00000000000E+00 -0.59298370638E+02  0.59298370638E+02  0.00000000000E+00 0.  1.
          6    1    1    2  501    0  0.27369536665E+02 -0.21086879896E+02  0.48988080322E+03  0.52067835504E+03  0.17300000000E+03 0.  1.
         -6    1    1    2    0  503 -0.27369536665E+02  0.21086879896E+02  0.13333864763E+03  0.22113783709E+03  0.17300000000E+03 0.  1.
<mgrwt>
<rscale>  2 0.17641641E+03</rscale>
<asrwt>0</asrwt>
<pdfrwt beam="1">  1       21 0.10500274E+00 0.17641641E+03</pdfrwt>
<pdfrwt beam="2">  1       21 0.91228267E-02 0.17641641E+03</pdfrwt>
<totfact> 0.70212924E+04</totfact>
</mgrwt>
</event>
<event>
 4    1  0.4056666E+000  0.1866442E+03  0.7546771E-02  0.1161523E+00
         21   -1    0    0  503  502  0.00000000000E+00  0.00000000000E+00  0.10657868158E+03  0.10657868158E+03  0.00000000000E+00 0.  1.
         21   -1    0    0  501  503 -0.00000000000E+00 -0.00000000000E+00 -0.47017078742E+03  0.47017078742E+03  0.00000000000E+00 0.  1.
          6    1    1    2  501    0  0.28124217087E+02  0.64156721883E+02 -0.34100680746E+03  0.38874374501E+03  0.17300000000E+03 0.  1.
         -6    1    1    2    0  502 -0.28124217087E+02 -0.64156721883E+02 -0.22585298381E+02  0.18800572399E+03  0.17300000000E+03 0.  1.
<mgrwt>
<rscale>  2 0.18664420E+03</rscale>
<asrwt>0</asrwt>
<pdfrwt beam="1">  1       21 0.16396720E-01 0.18664420E+03</pdfrwt>
<pdfrwt beam="2">  1       21 0.72333967E-01 0.18664420E+03</pdfrwt>
<totfact> 0.57609020E+04</totfact>
</mgrwt>
</event>
<event>
 4    1  0.4056666E+000  0.1752847E+03  0.7546771E-02  0.1172446E+00
         21   -1    0    0  503  502  0.00000000000E+00  0.00000000000E+00  0.86435615265E+02  0.86435615265E+02  0.00000000000E+00 0. -1.
         21   -1    0    0  501  503 -0.00000000000E+00 -0.00000000000E+00 -0.51885212857E+03  0.51885212857E+03  0.00000000000E+00 0. -1.
          6    1    1    2  501    0 -0.54734163575E+01 -0.27672532826E+02 -0.38604070615E+03  0.42397187898E+03  0.17300000000E+03 0. -1.
         -6    1    1    2    0  502  0.54734163575E+01  0.27672532826E+02 -0.46375807155E+02  0.18131586486E+03  0.17300000000E+03 0. -1.
<mgrwt>
<rscale>  2 0.17528470E+03</rscale>
<asrwt>0</asrwt>
<pdfrwt beam="1">  1       21 0.13297787E-01 0.17528470E+03</pdfrwt>
<pdfrwt beam="2">  1       21 0.79823403E-01 0.17528470E+03</pdfrwt>
<totfact> 0.67977504E+04</totfact>
</mgrwt>
</event>
<event>
 4    1  0.4056666E+000  0.3380819E+03  0.7546771E-02  0.1067616E+00
         21   -1    0    0  503  502  0.00000000000E+00  0.00000000000E+00  0.47063552540E+03  0.47063552540E+03  0.00000000000E+00 0.  1.
         21   -1    0    0  501  503 -0.00000000000E+00 -0.00000000000E+00 -0.24972524573E+03  0.24972524573E+03  0.00000000000E+00 0. -1.
          6    1    1    2  501    0  0.27315387203E+03 -0.98779197090E+02  0.50743156071E+02  0.34186874012E+03  0.17300000000E+03 0. -1.
         -6    1    1    2    0  502 -0.27315387203E+03  0.98779197090E+02  0.17016712360E+03  0.37849203101E+03  0.17300000000E+03 0.  1.
<mgrwt>
<rscale>  2 0.33808189E+03</rscale>
<asrwt>0</asrwt>
<pdfrwt beam="1">  1       21 0.72405465E-01 0.33808189E+03</pdfrwt>
<pdfrwt beam="2">  1       21 0.38419269E-01 0.33808189E+03</pdfrwt>
<totfact> 0.10410501E+04</totfact>
</mgrwt>
</event>
<event>
 4    1  0.4056666E+000  0.1751586E+03  0.7546771E-02  0.1172573E+00
         21   -1    0    0  503  502  0.00000000000E+00  0.00000000000E+00  0.26915236776E+03  0.26915236776E+03  0.00000000000E+00 0. -1.
         21   -1    0    0  501  503 -0.00000000000E+00 -0.00000000000E+00 -0.14584247179E+03  0.14584247179E+03  0.00000000000E+00 0. -1.
          6    1    1    2  501    0 -0.27289357040E+02  0.26124237562E+01 -0.35316956659E+02  0.17868357841E+03  0.17300000000E+03 0. -1.
         -6    1    1    2    0  502  0.27289357040E+02 -0.26124237562E+01  0.15862685263E+03  0.23631126114E+03  0.17300000000E+03 0. -1.
<mgrwt>
<rscale>  2 0.17515860E+03</rscale>
<asrwt>0</asrwt>
<pdfrwt beam="1">  1       21 0.41408057E-01 0.17515860E+03</pdfrwt>
<pdfrwt beam="2">  1       21 0.22437303E-01 0.17515860E+03</pdfrwt>
<totfact> 0.10513719E+05</totfact>
</mgrwt>
</event>
<event>
 4    1  0.4056666E+000  0.3956150E+03  0.7546771E-02  0.1045309E+00
         21   -1    0    0  503  502  0.00000000000E+00  0.00000000000E+00  0.12378810660E+03  0.12378810660E+03  0.00000000000E+00 0. -1.
         21   -1    0    0  501  503 -0.00000000000E+00 -0.00000000000E+00 -0.15282761858E+04  0.15282761858E+04  0.00000000000E+00 0.  1.
          6    1    1    2  501    0 -0.33034485909E+03 -0.13211538498E+03 -0.10455166918E+04  0.11178624037E+04  0.17300000000E+03 0.  1.
         -6    1    1    2    0  502  0.33034485909E+03  0.13211538498E+03 -0.35897138739E+03  0.53420188865E+03  0.17300000000E+03 0.  1.
<mgrwt>
<rscale>  2 0.39561497E+03</rscale>
<asrwt>0</asrwt>
<pdfrwt beam="1">  1       21 0.19044325E-01 0.39561497E+03</pdfrwt>
<pdfrwt beam="2">  1       21 0.23511941E+00 0.39561497E+03</pdfrwt>
<totfact> 0.17647468E+03</totfact>
</mgrwt>
</event>
<event>
 4    1  0.4056666E+000  0.2174726E+03  0.7546771E-02  0.1135781E+00
         21   -1    0    0  503  502  0.00000000000E+00  0.00000000000E+00  0.11693172927E+04  0.11693172927E+04  0.00000000000E+00 0. -1.
         21   -1    0    0  501  503 -0.00000000000E+00 -0.00000000000E+00 -0.17419505291E+03  0.17419505291E+03  0.00000000000E+00 0.  1.
          6    1    1    2  501    0  0.10345728419E+03 -0.81620503883E+02 -0.91064232741E+02  0.23576897759E+03  0.17300000000E+03 0.  1.
         -6    1    1    2    0  502 -0.10345728419E+03  0.81620503883E+02  0.10861864726E+04  0.11077433681E+04  0.17300000000E+03 0. -1.
<mgrwt>
<rscale>  2 0.21747256E+03</rscale>
<asrwt>0</asrwt>
<pdfrwt beam="1">  1       21 0.17989496E+00 0.21747256E+03</pdfrwt>
<pdfrwt beam="2">  1       21 0.26799240E-01 0.21747256E+03</pdfrwt>
<totfact> 0.23604566E+03</totfact>
</mgrwt>
</event>
<event>
 4    1  0.4056666E+000  0.2314148E+03  0.7546771E-02  0.1125648E+00
         21   -1    0    0  503  502  0.00000000000E+00  0.00000000000E+00  0.58372135926E+03  0.58372135926E+03  0.00000000000E+00 0.  1.
         21   -1    0    0  501  503 -0.00000000000E+00 -0.00000000000E+00 -0.66042440035E+03  0.66042440035E+03  0.00000000000E+00 0.  1.
          6    1    1    2  501    0  0.10529176744E+03  0.11197075401E+03 -0.61560149938E+03  0.65766101609E+03  0.17300000000E+03 0.  1.
         -6    1    1    2    0  502 -0.10529176744E+03 -0.11197075401E+03  0.53889845828E+03  0.58648474352E+03  0.17300000000E+03 0.  1.
<mgrwt>
<rscale>  2 0.23141479E+03</rscale>
<asrwt>0</asrwt>
<pdfrwt beam="1">  1       21 0.89803287E-01 0.23141479E+03</pdfrwt>
<pdfrwt beam="2">  1       21 0.10160375E+00 0.23141479E+03</pdfrwt>
<totfact> 0.80382523E+02</totfact>
</mgrwt>
</event>
<event>
 4    1  0.4056666E+000  0.1768178E+03  0.7546771E-02  0.1170919E+00
         21   -1    0    0  503  502  0.00000000000E+00  0.00000000000E+00  0.65055745343E+03  0.65055745343E+03  0.00000000000E+00 0. -1.
         21   -1    0    0  501  503 -0.00000000000E+00 -0.00000000000E+00 -0.51685303888E+02  0.51685303888E+02  0.00000000000E+00 0. -1.
          6    1    1    2  501    0 -0.24378475250E+02  0.27225527039E+02  0.39245282704E+03  0.43044600223E+03  0.17300000000E+03 0. -1.
         -6    1    1    2    0  502  0.24378475250E+02 -0.27225527039E+02  0.20641932250E+03  0.27179675509E+03  0.17300000000E+03 0. -1.
<mgrwt>
<rscale>  2 0.17681781E+03</rscale>
<asrwt>0</asrwt>
<pdfrwt beam="1">  1       21 0.10008576E+00 0.17681781E+03</pdfrwt>
<pdfrwt beam="2">  1       21 0.79515857E-02 0.17681781E+03</pdfrwt>
<totfact> 0.10001506E+05</totfact>
</mgrwt>
</event>
<event>
 4    1  0.4056666E+000  0.1870809E+03  0.7546771E-02  0.1161121E+00
         21   -1    0    0  503  502  0.00000000000E+00  0.00000000000E+00  0.54238495975E+02  0.54238495975E+02  0.00000000000E+00 0.  1.
         21   -1    0    0  501  503 -0.00000000000E+00 -0.00000000000E+00 -0.80763776731E+03  0.80763776731E+03  0.00000000000E+00 0.  1.
          6    1    1    2  501    0 -0.18949130893E+01 -0.71180676994E+02 -0.18348649070E+03  0.26204307231E+03  0.17300000000E+03 0. -1.
         -6    1    1    2    0  502  0.18949130893E+01  0.71180676994E+02 -0.56991278063E+03  0.59983319098E+03  0.17300000000E+03 0. -1.
<mgrwt>
<rscale>  2 0.18708094E+03</rscale>
<asrwt>0</asrwt>
<pdfrwt beam="1">  1       21 0.83443843E-02 0.18708094E+03</pdfrwt>
<pdfrwt beam="2">  1       21 0.12425196E+00 0.18708094E+03</pdfrwt>
<totfact> 0.54148091E+04</totfact>
</mgrwt>
</event>
<event>
 4    1  0.4056666E+000  0.1746556E+03  0.7546771E-02  0.1173078E+00
         21   -1    0    0  501  502  0.00000000000E+00  0.00000000000E+00  0.44265230346E+03  0.44265230346E+03  0.00000000000E+00 0. -1.
         21   -1    0    0  502  503 -0.00000000000E+00 -0.00000000000E+00 -0.14293208926E+03  0.14293208926E+03  0.00000000000E+00 0. -1.
          6    1    1    2  501    0  0.14822180916E+02 -0.18864361225E+02  0.36056085527E+03  0.40063535980E+03  0.17300000000E+03 0. -1.
         -6    1    1    2    0  503 -0.14822180916E+02  0.18864361225E+02 -0.60840641070E+02  0.18494903292E+03  0.17300000000E+03 0. -1.
<mgrwt>
<rscale>  2 0.17465555E+03</rscale>
<asrwt>0</asrwt>
<pdfrwt beam="1">  1       21 0.68100354E-01 0.17465555E+03</pdfrwt>
<pdfrwt beam="2">  1       21 0.21989552E-01 0.17465555E+03</pdfrwt>
<totfact> 0.38388968E+04</totfact>
</mgrwt>
</event>
<event>
 4    1  0.4056666E+000  0.1769973E+03  0.7546771E-02  0.1170741E+00
         21   -1    0    0  503  502  0.00000000000E+00  0.00000000000E+00  0.12297392150E+03  0.12297392150E+03  0.00000000000E+00 0. -1.
         21   -1    0    0  501  503 -0.00000000000E+00 -0.00000000000E+00 -0.31333247852E+03  0.31333247852E+03  0.00000000000E+00 0. -1.
          6    1    1    2  501    0 -0.31214975645E+02  0.20607388789E+02 -0.18950490746E+03  0.25930705568E+03  0.17300000000E+03 0. -1.
         -6    1    1    2    0  502  0.31214975645E+02 -0.20607388789E+02 -0.85364956172E+00  0.17699934433E+03  0.17300000000E+03 0. -1.
<mgrwt>
<rscale>  2 0.17699729E+03</rscale>
<asrwt>0</asrwt>
<pdfrwt beam="1">  1       21 0.18919065E-01 0.17699729E+03</pdfrwt>
<pdfrwt beam="2">  1       21 0.48204996E-01 0.17699729E+03</pdfrwt>
<totfact> 0.10587111E+05</totfact>
</mgrwt>
</event>
<event>
 4    1  0.4056666E+000  0.2432042E+03  0.7546771E-02  0.1117676E+00
         21   -1    0    0  501  502  0.00000000000E+00  0.00000000000E+00  0.65822097339E+03  0.65822097339E+03  0.00000000000E+00 0.  1.
         21   -1    0    0  502  503 -0.00000000000E+00 -0.00000000000E+00 -0.90121734859E+02  0.90121734859E+02  0.00000000000E+00 0. -1.
          6    1    1    2  501    0  0.12762142612E+03 -0.11371922278E+03  0.26391757192E+03  0.35888824834E+03  0.17300000000E+03 0. -1.
         -6    1    1    2    0  503 -0.12762142612E+03  0.11371922278E+03  0.30418166662E+03  0.38945445991E+03  0.17300000000E+03 0.  1.
<mgrwt>
<rscale>  2 0.24320421E+03</rscale>
<asrwt>0</asrwt>
<pdfrwt beam="1">  1       21 0.10126476E+00 0.24320421E+03</pdfrwt>
<pdfrwt beam="2">  1       21 0.13864883E-01 0.24320421E+03</pdfrwt>
<totfact> 0.35131995E+04</totfact>
</mgrwt>
</event>
<event>
 4    1  0.4056666E+000  0.1762546E+03  0.7546771E-02  0.1171478E+00
         21   -1    0    0  503  502  0.00000000000E+00  0.00000000000E+00  0.18066509308E+04  0.18066509308E+04  0.00000000000E+00 0. -1.
         21   -1    0    0  501  503 -0.00000000000E+00 -0.00000000000E+00 -0.21239624617E+02  0.21239624617E+02  0.00000000000E+00 0. -1.
          6    1    1    2  501    0  0.19069018135E+02 -0.27803586212E+02  0.12915255785E+04  0.13034968304E+04  0.17300000000E+03 0. -1.
         -6    1    1    2    0  502 -0.19069018135E+02  0.27803586212E+02  0.49388572762E+03  0.52439372498E+03  0.17300000000E+03 0. -1.
<mgrwt>
<rscale>  2 0.17625455E+03</rscale>
<asrwt>0</asrwt>
<pdfrwt beam="1">  1       21 0.27794618E+00 0.17625455E+03</pdfrwt>
<pdfrwt beam="2">  1       21 0.32676360E-02 0.17625455E+03</pdfrwt>
<totfact> 0.25506925E+04</totfact>
</mgrwt>
</event>
<event>
 4    1  0.4056666E+000  0.1797443E+03  0.7546771E-02  0.1168051E+00
         21   -1    0    0  501  502  0.00000000000E+00  0.00000000000E+00  0.52563590265E+03  0.52563590265E+03  0.00000000000E+00 0.  1.
         21   -1    0    0  502  503 -0.00000000000E+00 -0.00000000000E+00 -0.19689989168E+03  0.19689989168E+03  0.00000000000E+00 0.  1.
          6    1    1    2  501    0 -0.97506709954E-01  0.48774923174E+02  0.46398921286E+03  0.49758817540E+03  0.17300000000E+03 0.  1.
         -6    1    1    2    0  503  0.97506709954E-01 -0.48774923174E+02 -0.13525320190E+03  0.22494761893E+03  0.17300000000E+03 0.  1.
<mgrwt>
<rscale>  2 0.17974427E+03</rscale>
<asrwt>0</asrwt>
<pdfrwt beam="1">  1       21 0.80867061E-01 0.17974427E+03</pdfrwt>
<pdfrwt beam="2">  1       21 0.30292291E-01 0.17974427E+03</pdfrwt>
<totfact> 0.14153818E+04</totfact>
</mgrwt>
</event>
<event>
 4    1  0.4056666E+000  0.2398421E+03  0.7546771E-02  0.1119898E+00
         21   -1    0    0  503  502  0.00000000000E+00  0.00000000000E+00  0.20795759375E+03  0.20795759375E+03  0.00000000000E+00 0.  1.
         21   -1    0    0  501  503 -0.00000000000E+00 -0.00000000000E+00 -0.37252573612E+03  0.37252573612E+03  0.00000000000E+00 0. -1.
          6    1    1    2  501    0  0.15996850627E+03  0.44780869479E+02  0.64986028400E+02  0.24849030797E+03  0.17300000000E+03 0.  1.
         -6    1    1    2    0  502 -0.15996850627E+03 -0.44780869479E+02 -0.22955417078E+03  0.33199302190E+03  0.17300000000E+03 0. -1.
<mgrwt>
<rscale>  2 0.23984213E+03</rscale>
<asrwt>0</asrwt>
<pdfrwt beam="1">  1       21 0.31993476E-01 0.23984213E+03</pdfrwt>
<pdfrwt beam="2">  1       21 0.57311651E-01 0.23984213E+03</pdfrwt>
<totfact> 0.26194594E+04</totfact>
</mgrwt>
</event>
<event>
 4    1  0.4056666E+000  0.1897585E+03  0.7546771E-02  0.1158679E+00
         21   -1    0    0  503  502  0.00000000000E+00  0.00000000000E+00  0.10283580984E+04  0.10283580984E+04  0.00000000000E+00 0.  1.
         21   -1    0    0  501  503 -0.00000000000E+00 -0.00000000000E+00 -0.52616734999E+02  0.52616734999E+02  0.00000000000E+00 0.  1.
          6    1    1    2  501    0  0.46368449175E+02  0.62683863859E+02  0.17526469759E+03  0.25831378997E+03  0.17300000000E+03 0.  1.
         -6    1    1    2    0  502 -0.46368449175E+02 -0.62683863859E+02  0.80047666577E+03  0.82266104339E+03  0.17300000000E+03 0.  1.
<mgrwt>
<rscale>  2 0.18975853E+03</rscale>
<asrwt>0</asrwt>
<pdfrwt beam="1">  1       21 0.15820892E+00 0.18975853E+03</pdfrwt>
<pdfrwt beam="2">  1       21 0.80948831E-02 0.18975853E+03</pdfrwt>
<totfact> 0.30556770E+04</totfact>
</mgrwt>
</event>
<event>
 4    1  0.4056666E+000  0.2141880E+03  0.7546771E-02  0.1138292E+00
         21   -1    0    0  501  502  0.00000000000E+00  0.00000000000E+00  0.78921732979E+02  0.78921732979E+02  0.00000000000E+00 0. -1.
         21   -1    0    0  502  503 -0.00000000000E+00 -0.00000000000E+00 -0.95994931779E+03  0.95994931779E+03  0.00000000000E+00 0. -1.
          6    1    1    2  501    0  0.73197580335E+02 -0.10290578005E+03 -0.11427822816E+03  0.24276737583E+03  0.17300000000E+03 0. -1.
         -6    1    1    2    0  503 -0.73197580335E+02  0.10290578005E+03 -0.76674935665E+03  0.79610367494E+03  0.17300000000E+03 0. -1.
<mgrwt>
<rscale>  2 0.21418797E+03</rscale>
<asrwt>0</asrwt>
<pdfrwt beam="1">  1       21 0.12141805E-01 0.21418797E+03</pdfrwt>
<pdfrwt beam="2">  1       21 0.14768451E+00 0.21418797E+03</pdfrwt>
<totfact> 0.17634583E+04</totfact>
</mgrwt>
</event>
<event>
 4    1  0.4056666E+000  0.1952666E+03  0.7546771E-02  0.1153795E+00
         21   -1    0    0  501  502  0.00000000000E+00  0.00000000000E+00  0.15169414856E+03  0.15169414856E+03  0.00000000000E+00 0. -1.
         21   -1    0    0  502  503 -0.00000000000E+00 -0.00000000000E+00 -0.55137244890E+03  0.55137244890E+03  0.00000000000E+00 0. -1.
          6    1    1    2  501    0 -0.55803314054E+01  0.90381910213E+02  0.59469764986E+02  0.20412173510E+03  0.17300000000E+03 0. -1.
         -6    1    1    2    0  503  0.55803314054E+01 -0.90381910213E+02 -0.45914806532E+03  0.49894486237E+03  0.17300000000E+03 0. -1.
<mgrwt>
<rscale>  2 0.19526656E+03</rscale>
<asrwt>0</asrwt>
<pdfrwt beam="1">  1       21 0.23337561E-01 0.19526656E+03</pdfrwt>
<pdfrwt beam="2">  1       21 0.84826532E-01 0.19526656E+03</pdfrwt>
<totfact> 0.20752756E+04</totfact>
</mgrwt>
</event>
<event>
 4    1  0.4056666E+000  0.1743712E+03  0.7546771E-02  0.1173364E+00
         21   -1    0    0  501  502  0.00000000000E+00  0.00000000000E+00  0.31977543625E+03  0.31977543625E+03  0.00000000000E+00 0. -1.
         21   -1    0    0  502  503 -0.00000000000E+00 -0.00000000000E+00 -0.80095721663E+03  0.80095721663E+03  0.00000000000E+00 0. -1.
          6    1    1    2  501    0  0.34025318966E+01 -0.21558162006E+02  0.28546381657E+03  0.33450698370E+03  0.17300000000E+03 0. -1.
         -6    1    1    2    0  503 -0.34025318966E+01  0.21558162006E+02 -0.76664559694E+03  0.78622566918E+03  0.17300000000E+03 0. -1.
<mgrwt>
<rscale>  2 0.17437125E+03</rscale>
<asrwt>0</asrwt>
<pdfrwt beam="1">  1       21 0.49196221E-01 0.17437125E+03</pdfrwt>
<pdfrwt beam="2">  1       21 0.12322419E+00 0.17437125E+03</pdfrwt>
<totfact> 0.19832256E+03</totfact>
</mgrwt>
</event>
<event>
 4    1  0.4056666E+000  0.1910559E+03  0.7546771E-02  0.1157512E+00
         21   -1    0    0  503  502  0.00000000000E+00  0.00000000000E+00  0.16516114455E+03  0.16516114455E+03  0.00000000000E+00 0. -1.
         21   -1    0    0  501  503 -0.00000000000E+00 -0.00000000000E+00 -0.49624558570E+03  0.49624558570E+03  0.00000000000E+00 0. -1.
          6    1    1    2  501    0 -0.80525935690E+02 -0.94294399720E+01 -0.41182963209E+03  0.45398897181E+03  0.17300000000E+03 0. -1.
         -6    1    1    2    0  502  0.80525935690E+02  0.94294399720E+01  0.80745190944E+02  0.20741775844E+03  0.17300000000E+03 0. -1.
<mgrwt>
<rscale>  2 0.19105586E+03</rscale>
<asrwt>0</asrwt>
<pdfrwt beam="1">  1       21 0.25409407E-01 0.19105586E+03</pdfrwt>
<pdfrwt beam="2">  1       21 0.76345475E-01 0.19105586E+03</pdfrwt>
<totfact> 0.22457793E+04</totfact>
</mgrwt>
</event>
<event>
 4    1  0.4056666E+000  0.1997074E+03  0.7546771E-02  0.1149986E+00
         21   -1    0    0  501  502  0.00000000000E+00  0.00000000000E+00  0.33642537999E+03  0.33642537999E+03  0.00000000000E+00 0. -1.
         21   -1    0    0  502  503 -0.00000000000E+00 -0.00000000000E+00 -0.19147490488E+03  0.19147490488E+03  0.00000000000E+00 0. -1.
          6    1    1    2  501    0  0.97194974208E+02  0.22520516191E+02  0.23536943178E+03  0.30867751145E+03  0.17300000000E+03 0. -1.
         -6    1    1    2    0  503 -0.97194974208E+02 -0.22520516191E+02 -0.90418956675E+02  0.21922277342E+03  0.17300000000E+03 0. -1.
<mgrwt>
<rscale>  2 0.19970738E+03</rscale>
<asrwt>0</asrwt>
<pdfrwt beam="1">  1       21 0.51757751E-01 0.19970738E+03</pdfrwt>
<pdfrwt beam="2">  1       21 0.29457678E-01 0.19970738E+03</pdfrwt>
<totfact> 0.38997767E+04</totfact>
</mgrwt>
</event>
<event>
 4    1  0.4056666E+000  0.1737316E+03  0.7546771E-02  0.1174011E+00
         21   -1    0    0  501  502  0.00000000000E+00  0.00000000000E+00  0.11799364928E+03  0.11799364928E+03  0.00000000000E+00 0. -1.
         21   -1    0    0  502  503 -0.00000000000E+00 -0.00000000000E+00 -0.29514759580E+03  0.29514759580E+03  0.00000000000E+00 0. -1.
          6    1    1    2  501    0 -0.15895954544E+02  0.99946834698E+00 -0.13152465311E+02  0.17422877963E+03  0.17300000000E+03 0. -1.
         -6    1    1    2    0  503  0.15895954544E+02 -0.99946834698E+00 -0.16400148121E+03  0.23891246545E+03  0.17300000000E+03 0. -1.
<mgrwt>
<rscale>  2 0.17373163E+03</rscale>
<asrwt>0</asrwt>
<pdfrwt beam="1">  1       21 0.18152869E-01 0.17373163E+03</pdfrwt>
<pdfrwt beam="2">  1       21 0.45407322E-01 0.17373163E+03</pdfrwt>
<totfact> 0.12942170E+05</totfact>
</mgrwt>
</event>
<event>
 4    1  0.4056666E+000  0.2903821E+03  0.7546771E-02  0.1090150E+00
         21   -1    0    0  503  502  0.00000000000E+00  0.00000000000E+00  0.37722008658E+03  0.37722008658E+03  0.00000000000E+00 0. -1.
         21   -1    0    0  501  503 -0.00000000000E+00 -0.00000000000E+00 -0.24088268303E+03  0.24088268303E+03  0.00000000000E+00 0.  1.
          6    1    1    2  501    0  0.11455242654E+03 -0.20315139054E+03 -0.14769285703E+02  0.29075742072E+03  0.17300000000E+03 0.  1.
         -6    1    1    2    0  502 -0.11455242654E+03  0.20315139054E+03  0.15110668926E+03  0.32734534889E+03  0.17300000000E+03 0. -1.
<mgrwt>
<rscale>  2 0.29038207E+03</rscale>
<asrwt>0</asrwt>
<pdfrwt beam="1">  1       21 0.58033859E-01 0.29038207E+03</pdfrwt>
<pdfrwt beam="2">  1       21 0.37058875E-01 0.29038207E+03</pdfrwt>
<totfact> 0.18592227E+04</totfact>
</mgrwt>
</event>
<event>
 4    1  0.4056666E+000  0.1758718E+03  0.7546771E-02  0.1171859E+00
         21   -1    0    0  501  502  0.00000000000E+00  0.00000000000E+00  0.22185764196E+02  0.22185764196E+02  0.00000000000E+00 0.  1.
         21   -1    0    0  502  503 -0.00000000000E+00 -0.00000000000E+00 -0.20442001714E+04  0.20442001714E+04  0.00000000000E+00 0.  1.
          6    1    1    2  501    0  0.31271197738E+02  0.48982824889E+01 -0.42838884085E+03  0.46308517569E+03  0.17300000000E+03 0.  1.
         -6    1    1    2    0  503 -0.31271197738E+02 -0.48982824889E+01 -0.15936255663E+04  0.16033007599E+04  0.17300000000E+03 0.  1.
<mgrwt>
<rscale>  2 0.17587177E+03</rscale>
<asrwt>0</asrwt>
<pdfrwt beam="1">  1       21 0.34131951E-02 0.17587177E+03</pdfrwt>
<pdfrwt beam="2">  1       21 0.31449228E+00 0.17587177E+03</pdfrwt>
<totfact> 0.14655969E+04</totfact>
</mgrwt>
</event>
<event>
 4    1  0.4056666E+000  0.1785590E+03  0.7546771E-02  0.1169205E+00
         21   -1    0    0  503  502  0.00000000000E+00  0.00000000000E+00  0.23437508094E+03  0.23437508094E+03  0.00000000000E+00 0.  1.
         21   -1    0    0  501  503 -0.00000000000E+00 -0.00000000000E+00 -0.13675469722E+03  0.13675469722E+03  0.00000000000E+00 0.  1.
          6    1    1    2  501    0 -0.21397026909E+02  0.38684578622E+02  0.35353101217E+02  0.18202519372E+03  0.17300000000E+03 0.  1.
         -6    1    1    2    0  502  0.21397026909E+02 -0.38684578622E+02  0.62267282502E+02  0.18910458443E+03  0.17300000000E+03 0.  1.
<mgrwt>
<rscale>  2 0.17855904E+03</rscale>
<asrwt>0</asrwt>
<pdfrwt beam="1">  1       21 0.36057705E-01 0.17855904E+03</pdfrwt>
<pdfrwt beam="2">  1       21 0.21039184E-01 0.17855904E+03</pdfrwt>
<totfact> 0.15641226E+05</totfact>
</mgrwt>
</event>
<event>
 4    1  0.4056666E+000  0.1773219E+03  0.7546771E-02  0.1170420E+00
         21   -1    0    0  503  502  0.00000000000E+00  0.00000000000E+00  0.93818667926E+02  0.93818667926E+02  0.00000000000E+00 0.  1.
         21   -1    0    0  501  503 -0.00000000000E+00 -0.00000000000E+00 -0.73927924566E+03  0.73927924566E+03  0.00000000000E+00 0.  1.
          6    1    1    2  501    0  0.38910827763E+02 -0.49460187684E-01 -0.63071098032E+03  0.65516364036E+03  0.17300000000E+03 0.  1.
         -6    1    1    2    0  502 -0.38910827763E+02  0.49460187684E-01 -0.14749597418E+02  0.17793427322E+03  0.17300000000E+03 0.  1.
<mgrwt>
<rscale>  2 0.17732190E+03</rscale>
<asrwt>0</asrwt>
<pdfrwt beam="1">  1       21 0.14433642E-01 0.17732190E+03</pdfrwt>
<pdfrwt beam="2">  1       21 0.11373526E+00 0.17732190E+03</pdfrwt>
<totfact> 0.25573678E+04</totfact>
</mgrwt>
</event>
<event>
 4    1  0.4056666E+000  0.2002563E+03  0.7546771E-02  0.1149523E+00
         21   -1    0    0  503  502  0.00000000000E+00  0.00000000000E+00  0.57194408129E+03  0.57194408129E+03  0.00000000000E+00 0. -1.
         21   -1    0    0  501  503 -0.00000000000E+00 -0.00000000000E+00 -0.96810974356E+02  0.96810974356E+02  0.00000000000E+00 0. -1.
          6    1    1    2  501    0  0.10086301250E+03 -0.46919857451E+00  0.61981476054E+02  0.20962888830E+03  0.17300000000E+03 0. -1.
         -6    1    1    2    0  502 -0.10086301250E+03  0.46919857451E+00  0.41315163088E+03  0.45912616734E+03  0.17300000000E+03 0. -1.
<mgrwt>
<rscale>  2 0.20025625E+03</rscale>
<asrwt>0</asrwt>
<pdfrwt beam="1">  1       21 0.87991395E-01 0.20025625E+03</pdfrwt>
<pdfrwt beam="2">  1       21 0.14893996E-01 0.20025625E+03</pdfrwt>
<totfact> 0.43807815E+04</totfact>
</mgrwt>
</event>
<event>
 4    1  0.4056666E+000  0.1895394E+03  0.7546771E-02  0.1158877E+00
         21   -1    0    0  501  502  0.00000000000E+00  0.00000000000E+00  0.36900522262E+03  0.36900522262E+03  0.00000000000E+00 0. -1.
         21   -1    0    0  502  503 -0.00000000000E+00 -0.00000000000E+00 -0.21800937507E+03  0.21800937507E+03  0.00000000000E+00 0. -1.
          6    1    1    2  501    0 -0.34396004544E+02  0.69376396520E+02  0.29384612033E+03  0.34967229224E+03  0.17300000000E+03 0. -1.
         -6    1    1    2    0  503  0.34396004544E+02 -0.69376396520E+02 -0.14285027278E+03  0.23734230545E+03  0.17300000000E+03 0. -1.
<mgrwt>
<rscale>  2 0.18953936E+03</rscale>
<asrwt>0</asrwt>
<pdfrwt beam="1">  1       21 0.56770034E-01 0.18953936E+03</pdfrwt>
<pdfrwt beam="2">  1       21 0.33539904E-01 0.18953936E+03</pdfrwt>
<totfact> 0.25015599E+04</totfact>
</mgrwt>
</event>
<event>
 4    1  0.4056666E+000  0.2954931E+03  0.7546771E-02  0.1087515E+00
         21   -1    0    0  501  502  0.00000000000E+00  0.00000000000E+00  0.60446741488E+03  0.60446741488E+03  0.00000000000E+00 0. -1.
         21   -1    0    0  502  503 -0.00000000000E+00 -0.00000000000E+00 -0.14803393083E+03  0.14803393083E+03  0.00000000000E+00 0.  1.
          6    1    1    2  501    0  0.22039811756E+03 -0.93871523419E+02  0.16968536657E+03  0.34074817206E+03  0.17300000000E+03 0.  1.
         -6    1    1    2    0  503 -0.22039811756E+03  0.93871523419E+02  0.28674811748E+03  0.41175317365E+03  0.17300000000E+03 0.  1.
<mgrwt>
<rscale>  2 0.29549314E+03</rscale>
<asrwt>0</asrwt>
<pdfrwt beam="1">  1       21 0.92994986E-01 0.29549314E+03</pdfrwt>
<pdfrwt beam="2">  1       21 0.22774451E-01 0.29549314E+03</pdfrwt>
<totfact> 0.16676281E+04</totfact>
</mgrwt>
</event>
<event>
 4    1  0.4056666E+000  0.3684507E+03  0.7546771E-02  0.1055287E+00
         21   -1    0    0  501  502  0.00000000000E+00  0.00000000000E+00  0.55967327255E+03  0.55967327255E+03  0.00000000000E+00 0.  1.
         21   -1    0    0  502  503 -0.00000000000E+00 -0.00000000000E+00 -0.26656968411E+03  0.26656968411E+03  0.00000000000E+00 0. -1.
          6    1    1    2  501    0 -0.19165768654E+03  0.26285784670E+03  0.27052855615E+03  0.45710131926E+03  0.17300000000E+03 0.  1.
         -6    1    1    2    0  503  0.19165768654E+03 -0.26285784670E+03  0.22575032295E+02  0.36914163740E+03  0.17300000000E+03 0. -1.
<mgrwt>
<rscale>  2 0.36845070E+03</rscale>
<asrwt>0</asrwt>
<pdfrwt beam="1">  1       21 0.86103580E-01 0.36845070E+03</pdfrwt>
<pdfrwt beam="2">  1       21 0.41010721E-01 0.36845070E+03</pdfrwt>
<totfact> 0.60508322E+03</totfact>
</mgrwt>
</event>
<event>
 4    1  0.4056666E+000  0.1845786E+03  0.7546771E-02  0.1163444E+00
         21   -1    0    0  501  502  0.00000000000E+00  0.00000000000E+00  0.97096372921E+02  0.97096372921E+02  0.00000000000E+00 0.  1.
         21   -1    0    0  502  503 -0.00000000000E+00 -0.00000000000E+00 -0.35472171517E+03  0.35472171517E+03  0.00000000000E+00 0. -1.
          6    1    1    2  501    0  0.35613731246E+02 -0.53590249568E+02 -0.10530512670E+03  0.21250511149E+03  0.17300000000E+03 0. -1.
         -6    1    1    2    0  503 -0.35613731246E+02  0.53590249568E+02 -0.15232021555E+03  0.23931297659E+03  0.17300000000E+03 0. -1.
<mgrwt>
<rscale>  2 0.18457858E+03</rscale>
<asrwt>0</asrwt>
<pdfrwt beam="1">  1       21 0.14937904E-01 0.18457858E+03</pdfrwt>
<pdfrwt beam="2">  1       21 0.54572572E-01 0.18457858E+03</pdfrwt>
<totfact> 0.12569212E+05</totfact>
</mgrwt>
</event>
<event>
 4    1  0.4056666E+000  0.2344532E+03  0.7546771E-02  0.1123544E+00
         21   -1    0    0  501  502  0.00000000000E+00  0.00000000000E+00  0.46921709286E+03  0.46921709286E+03  0.00000000000E+00 0. -1.
         21   -1    0    0  502  503 -0.00000000000E+00 -0.00000000000E+00 -0.20792862720E+03  0.20792862720E+03  0.00000000000E+00 0.  1.
          6    1    1    2  501    0 -0.24189193994E+02 -0.15637826909E+03  0.35435627640E+03  0.42489604702E+03  0.17300000000E+03 0. -1.
         -6    1    1    2    0  503  0.24189193994E+02  0.15637826909E+03 -0.93067810743E+02  0.25224967304E+03  0.17300000000E+03 0.  1.
<mgrwt>
<rscale>  2 0.23445315E+03</rscale>
<asrwt>0</asrwt>
<pdfrwt beam="1">  1       21 0.72187245E-01 0.23445315E+03</pdfrwt>
<pdfrwt beam="2">  1       21 0.31989020E-01 0.23445315E+03</pdfrwt>
<totfact> 0.15869383E+04</totfact>
</mgrwt>
</event>
<event>
 4    1  0.4056666E+000  0.1939627E+03  0.7546771E-02  0.1154935E+00
         21   -1    0    0  503  502  0.00000000000E+00  0.00000000000E+00  0.23632047042E+03  0.23632047042E+03  0.00000000000E+00 0. -1.
         21   -1    0    0  501  503 -0.00000000000E+00 -0.00000000000E+00 -0.33277979085E+03  0.33277979085E+03  0.00000000000E+00 0.  1.
          6    1    1    2  501    0  0.70610697073E+02  0.52025716771E+02  0.15728057713E+03  0.24971729153E+03  0.17300000000E+03 0. -1.
         -6    1    1    2    0  502 -0.70610697073E+02 -0.52025716771E+02 -0.25373989756E+03  0.31938296974E+03  0.17300000000E+03 0.  1.
<mgrwt>
<rscale>  2 0.19396274E+03</rscale>
<asrwt>0</asrwt>
<pdfrwt beam="1">  1       21 0.36356995E-01 0.19396274E+03</pdfrwt>
<pdfrwt beam="2">  1       21 0.51196891E-01 0.19396274E+03</pdfrwt>
<totfact> 0.26441811E+04</totfact>
</mgrwt>
</event>
<event>
 4    1  0.4056666E+000  0.1922367E+03  0.7546771E-02  0.1156459E+00
         21   -1    0    0  501  502  0.00000000000E+00  0.00000000000E+00  0.79770755617E+03  0.79770755617E+03  0.00000000000E+00 0.  1.
         21   -1    0    0  502  503 -0.00000000000E+00 -0.00000000000E+00 -0.32195305371E+03  0.32195305371E+03  0.00000000000E+00 0.  1.
          6    1    1    2  501    0 -0.35479592745E+02 -0.75941720585E+02  0.75586645652E+03  0.77992887273E+03  0.17300000000E+03 0.  1.
         -6    1    1    2    0  503  0.35479592745E+02  0.75941720585E+02 -0.28011195405E+03  0.33973173716E+03  0.17300000000E+03 0.  1.
<mgrwt>
<rscale>  2 0.19223669E+03</rscale>
<asrwt>0</asrwt>
<pdfrwt beam="1">  1       21 0.12272424E+00 0.19223669E+03</pdfrwt>
<pdfrwt beam="2">  1       21 0.49531239E-01 0.19223669E+03</pdfrwt>
<totfact> 0.19416062E+03</totfact>
</mgrwt>
</event>
<event>
 4    1  0.4056666E+000  0.1764443E+03  0.7546771E-02  0.1171289E+00
         21   -1    0    0  501  502  0.00000000000E+00  0.00000000000E+00  0.13876627819E+03  0.13876627819E+03  0.00000000000E+00 0. -1.
         21   -1    0    0  502  503 -0.00000000000E+00 -0.00000000000E+00 -0.46034363260E+03  0.46034363260E+03  0.00000000000E+00 0. -1.
          6    1    1    2  501    0 -0.34655395924E+02 -0.16150896134E+01  0.53689441508E+02  0.18443199590E+03  0.17300000000E+03 0. -1.
         -6    1    1    2    0  503  0.34655395924E+02  0.16150896134E+01 -0.37526679592E+03  0.41467791490E+03  0.17300000000E+03 0. -1.
<mgrwt>
<rscale>  2 0.17644434E+03</rscale>
<asrwt>0</asrwt>
<pdfrwt beam="1">  1       21 0.21348658E-01 0.17644434E+03</pdfrwt>
<pdfrwt beam="2">  1       21 0.70822097E-01 0.17644434E+03</pdfrwt>
<totfact> 0.37198991E+04</totfact>
</mgrwt>
</event>
<event>
 4    1  0.4056666E+000  0.2007325E+03  0.7546771E-02  0.1149122E+00
         21   -1    0    0  501  502  0.00000000000E+00  0.00000000000E+00  0.17603854245E+03  0.17603854245E+03  0.00000000000E+00 0.  1.
         21   -1    0    0  502  503 -0.00000000000E+00 -0.00000000000E+00 -0.43602940870E+03  0.43602940870E+03  0.00000000000E+00 0. -1.
          6    1    1    2  501    0 -0.34046424698E+02 -0.95944732746E+02  0.80936625103E+02  0.21643541314E+03  0.17300000000E+03 0.  1.
         -6    1    1    2    0  503  0.34046424698E+02  0.95944732746E+02 -0.34092749135E+03  0.39563253802E+03  0.17300000000E+03 0. -1.
<mgrwt>
<rscale>  2 0.20073254E+03</rscale>
<asrwt>0</asrwt>
<pdfrwt beam="1">  1       21 0.27082853E-01 0.20073254E+03</pdfrwt>
<pdfrwt beam="2">  1       21 0.67081446E-01 0.20073254E+03</pdfrwt>
<totfact> 0.26312613E+04</totfact>
</mgrwt>
</event>
<event>
 4    1  0.4056666E+000  0.2214871E+03  0.7546771E-02  0.1132779E+00
         21   -1    0    0  501  502  0.00000000000E+00  0.00000000000E+00  0.22621754292E+03  0.22621754292E+03  0.00000000000E+00 0. -1.
         21   -1    0    0  502  503 -0.00000000000E+00 -0.00000000000E+00 -0.28465624762E+03  0.28465624762E+03  0.00000000000E+00 0. -1.
          6    1    1    2  501    0  0.12450083981E+03 -0.60225327855E+02  0.95444364557E+02  0.24117664886E+03  0.17300000000E+03 0. -1.
         -6    1    1    2    0  503 -0.12450083981E+03  0.60225327855E+02 -0.15388306926E+03  0.26969714168E+03  0.17300000000E+03 0. -1.
<mgrwt>
<rscale>  2 0.22148713E+03</rscale>
<asrwt>0</asrwt>
<pdfrwt beam="1">  1       21 0.34802699E-01 0.22148713E+03</pdfrwt>
<pdfrwt beam="2">  1       21 0.43793269E-01 0.22148713E+03</pdfrwt>
<totfact> 0.39300746E+04</totfact>
</mgrwt>
</event>
<event>
 4    1  0.4056666E+000  0.1739347E+03  0.7546771E-02  0.1173806E+00
         21   -1    0    0  503  502  0.00000000000E+00  0.00000000000E+00  0.63872076735E+03  0.63872076735E+03  0.00000000000E+00 0. -1.
         21   -1    0    0  501  503 -0.00000000000E+00 -0.00000000000E+00 -0.52808706287E+02  0.52808706287E+02  0.00000000000E+00 0. -1.
          6    1    1    2  501    0  0.29334991245E+01  0.17767222446E+02  0.18194698060E+03  0.25171011771E+03  0.17300000000E+03 0. -1.
         -6    1    1    2    0  502 -0.29334991245E+01 -0.17767222446E+02  0.40396508046E+03  0.43981935592E+03  0.17300000000E+03 0. -1.
<mgrwt>
<rscale>  2 0.17393470E+03</rscale>
<asrwt>0</asrwt>
<pdfrwt beam="1">  1       21 0.98264728E-01 0.17393470E+03</pdfrwt>
<pdfrwt beam="2">  1       21 0.81244168E-02 0.17393470E+03</pdfrwt>
<totfact> 0.10073287E+05</totfact>
</mgrwt>
</event>
<event>
 4    1  0.4056666E+000  0.2025386E+03  0.7546771E-02  0.1147615E+00
         21   -1    0    0  503  502  0.00000000000E+00  0.00000000000E+00  0.34750148314E+02  0.34750148314E+02  0.00000000000E+00 0. -1.
         21   -1    0    0  501  503 -0.00000000000E+00 -0.00000000000E+00 -0.12071487467E+04  0.12071487467E+04  0.00000000000E+00 0. -1.
          6    1    1    2  501    0 -0.21271999259E+02 -0.10315222986E+03 -0.67849281780E+03  0.70807795071E+03  0.17300000000E+03 0. -1.
         -6    1    1    2    0  502  0.21271999259E+02  0.10315222986E+03 -0.49390578054E+03  0.53382094426E+03  0.17300000000E+03 0. -1.
<mgrwt>
<rscale>  2 0.20253859E+03</rscale>
<asrwt>0</asrwt>
<pdfrwt beam="1">  1       21 0.53461773E-02 0.20253859E+03</pdfrwt>
<pdfrwt beam="2">  1       21 0.18571517E+00 0.20253859E+03</pdfrwt>
<totfact> 0.39720288E+04</totfact>
</mgrwt>
</event>
<event>
 4    1  0.4056666E+000  0.2118896E+03  0.7546771E-02  0.1140078E+00
         21   -1    0    0  501  502  0.00000000000E+00  0.00000000000E+00  0.58259217617E+02  0.58259217617E+02  0.00000000000E+00 0. -1.
         21   -1    0    0  502  503 -0.00000000000E+00 -0.00000000000E+00 -0.12477586357E+04  0.12477586357E+04  0.00000000000E+00 0.  1.
          6    1    1    2  501    0  0.79884167416E+02 -0.92664583756E+02 -0.19095139450E+03  0.28523611333E+03  0.17300000000E+03 0. -1.
         -6    1    1    2    0  503 -0.79884167416E+02  0.92664583756E+02 -0.99854802359E+03  0.10207817400E+04  0.17300000000E+03 0.  1.
<mgrwt>
<rscale>  2 0.21188961E+03</rscale>
<asrwt>0</asrwt>
<pdfrwt beam="1">  1       21 0.89629563E-02 0.21188961E+03</pdfrwt>
<pdfrwt beam="2">  1       21 0.19196287E+00 0.21188961E+03</pdfrwt>
<totfact> 0.14679799E+04</totfact>
</mgrwt>
</event>
<event>
 4    1  0.4056666E+000  0.2799534E+03  0.7546771E-02  0.1095714E+00
         21   -1    0    0  501  502  0.00000000000E+00  0.00000000000E+00  0.78114048675E+03  0.78114048675E+03  0.00000000000E+00 0. -1.
         21   -1    0    0  502  503 -0.00000000000E+00 -0.00000000000E+00 -0.15201453656E+03  0.15201453656E+03  0.00000000000E+00 0.  1.
          6    1    1    2  501    0 -0.21163897274E+03 -0.60447007241E+02  0.58661403343E+03  0.64999224586E+03  0.17300000000E+03 0. -1.
         -6    1    1    2    0  503  0.21163897274E+03  0.60447007241E+02  0.42511916757E+02  0.28316277745E+03  0.17300000000E+03 0.  1.
<mgrwt>
<rscale>  2 0.27995338E+03</rscale>
<asrwt>0</asrwt>
<pdfrwt beam="1">  1       21 0.12017546E+00 0.27995338E+03</pdfrwt>
<pdfrwt beam="2">  1       21 0.23386852E-01 0.27995338E+03</pdfrwt>
<totfact> 0.85649319E+03</totfact>
</mgrwt>
</event>
<event>
 4    1  0.4056666E+000  0.2656833E+03  0.7546771E-02  0.1103776E+00
         21   -1    0    0  503  502  0.00000000000E+00  0.00000000000E+00  0.83701172530E+02  0.83701172530E+02  0.00000000000E+00 0. -1.
         21   -1    0    0  501  503 -0.00000000000E+00 -0.00000000000E+00 -0.86787409445E+03  0.86787409445E+03  0.00000000000E+00 0.  1.
          6    1    1    2  501    0 -0.17323671302E+03 -0.10318746847E+03 -0.47210094211E+03  0.54172586419E+03  0.17300000000E+03 0.  1.
         -6    1    1    2    0  502  0.17323671302E+03  0.10318746847E+03 -0.31207197981E+03  0.40984940280E+03  0.17300000000E+03 0. -1.
<mgrwt>
<rscale>  2 0.26568329E+03</rscale>
<asrwt>0</asrwt>
<pdfrwt beam="1">  1       21 0.12877103E-01 0.26568329E+03</pdfrwt>
<pdfrwt beam="2">  1       21 0.13351909E+00 0.26568329E+03</pdfrwt>
<totfact> 0.20033922E+04</totfact>
</mgrwt>
</event>
<event>
 4    1  0.4056666E+000  0.2500331E+03  0.7546771E-02  0.1113284E+00
         21   -1    0    0  501  502  0.00000000000E+00  0.00000000000E+00  0.98102670920E+02  0.98102670920E+02  0.00000000000E+00 0.  1.
         21   -1    0    0  502  503 -0.00000000000E+00 -0.00000000000E+00 -0.73362950760E+03  0.73362950760E+03  0.00000000000E+00 0. -1.
          6    1    1    2  501    0 -0.16565969272E+03 -0.71724464057E+02 -0.16703554965E+03  0.30069487422E+03  0.17300000000E+03 0.  1.
         -6    1    1    2    0  503  0.16565969272E+03  0.71724464057E+02 -0.46849128704E+03  0.53103730431E+03  0.17300000000E+03 0.  1.
<mgrwt>
<rscale>  2 0.25003306E+03</rscale>
<asrwt>0</asrwt>
<pdfrwt beam="1">  1       21 0.15092718E-01 0.25003306E+03</pdfrwt>
<pdfrwt beam="2">  1       21 0.11286608E+00 0.25003306E+03</pdfrwt>
<totfact> 0.23051665E+04</totfact>
</mgrwt>
</event>
<event>
 4    1  0.4056666E+000  0.2884245E+03  0.7546771E-02  0.1091175E+00
         21   -1    0    0  503  502  0.00000000000E+00  0.00000000000E+00  0.67911958687E+03  0.67911958687E+03  0.00000000000E+00 0. -1.
         21   -1    0    0  501  503 -0.00000000000E+00 -0.00000000000E+00 -0.12807641593E+03  0.12807641593E+03  0.00000000000E+00 0.  1.
          6    1    1    2  501    0  0.22502254420E+03  0.51230481619E+02  0.19126783121E+03  0.34608104672E+03  0.17300000000E+03 0.  1.
         -6    1    1    2    0  502 -0.22502254420E+03 -0.51230481619E+02  0.35977533972E+03  0.46111495608E+03  0.17300000000E+03 0. -1.
<mgrwt>
<rscale>  2 0.28842453E+03</rscale>
<asrwt>0</asrwt>
<pdfrwt beam="1">  1       21 0.10447993E+00 0.28842453E+03</pdfrwt>
<pdfrwt beam="2">  1       21 0.19704064E-01 0.28842453E+03</pdfrwt>
<totfact> 0.16660413E+04</totfact>
</mgrwt>
</event>
<event>
 4    1  0.4056666E+000  0.2746680E+03  0.7546771E-02  0.1098637E+00
         21   -1    0    0  503  502  0.00000000000E+00  0.00000000000E+00  0.11436856655E+03  0.11436856655E+03  0.00000000000E+00 0. -1.
         21   -1    0    0  501  503 -0.00000000000E+00 -0.00000000000E+00 -0.75990488024E+03  0.75990488024E+03  0.00000000000E+00 0.  1.
          6    1    1    2  501    0 -0.20204316604E+03 -0.68498560830E+02 -0.16398505437E+03  0.31989622041E+03  0.17300000000E+03 0. -1.
         -6    1    1    2    0  502  0.20204316604E+03  0.68498560830E+02 -0.48155125931E+03  0.55437722638E+03  0.17300000000E+03 0. -1.
<mgrwt>
<rscale>  2 0.27466797E+03</rscale>
<asrwt>0</asrwt>
<pdfrwt beam="1">  1       21 0.17595164E-01 0.27466797E+03</pdfrwt>
<pdfrwt beam="2">  1       21 0.11690844E+00 0.27466797E+03</pdfrwt>
<totfact> 0.15734138E+04</totfact>
</mgrwt>
</event>
<event>
 4    1  0.4056666E+000  0.2274640E+03  0.7546771E-02  0.1128438E+00
         21   -1    0    0  501  502  0.00000000000E+00  0.00000000000E+00  0.41514339282E+03  0.41514339282E+03  0.00000000000E+00 0. -1.
         21   -1    0    0  502  503 -0.00000000000E+00 -0.00000000000E+00 -0.13382799735E+03  0.13382799735E+03  0.00000000000E+00 0. -1.
          6    1    1    2  501    0 -0.13923893655E+03 -0.49227849782E+02  0.21261287792E+03  0.31135847267E+03  0.17300000000E+03 0. -1.
         -6    1    1    2    0  503  0.13923893655E+03  0.49227849782E+02  0.68702517543E+02  0.23761291750E+03  0.17300000000E+03 0. -1.
<mgrwt>
<rscale>  2 0.22746398E+03</rscale>
<asrwt>0</asrwt>
<pdfrwt beam="1">  1       21 0.63868214E-01 0.22746398E+03</pdfrwt>
<pdfrwt beam="2">  1       21 0.20588923E-01 0.22746398E+03</pdfrwt>
<totfact> 0.48695396E+04</totfact>
</mgrwt>
</event>
<event>
 4    1  0.4056666E+000  0.1867894E+03  0.7546771E-02  0.1161389E+00
         21   -1    0    0  501  502  0.00000000000E+00  0.00000000000E+00  0.50021736757E+03  0.50021736757E+03  0.00000000000E+00 0.  1.
         21   -1    0    0  502  503 -0.00000000000E+00 -0.00000000000E+00 -0.94957166655E+02  0.94957166655E+02  0.00000000000E+00 0.  1.
          6    1    1    2  501    0  0.43372302792E+02 -0.55499017687E+02  0.35595410073E+03  0.40198708865E+03  0.17300000000E+03 0.  1.
         -6    1    1    2    0  503 -0.43372302792E+02  0.55499017687E+02  0.49306100189E+02  0.19318744558E+03  0.17300000000E+03 0.  1.
<mgrwt>
<rscale>  2 0.18678945E+03</rscale>
<asrwt>0</asrwt>
<pdfrwt beam="1">  1       21 0.76956517E-01 0.18678945E+03</pdfrwt>
<pdfrwt beam="2">  1       21 0.14608795E-01 0.18678945E+03</pdfrwt>
<totfact> 0.61939994E+04</totfact>
</mgrwt>
</event>
<event>
 4    1  0.4056666E+000  0.1747830E+03  0.7546771E-02  0.1172950E+00
         21   -1    0    0  501  502  0.00000000000E+00  0.00000000000E+00  0.10217432614E+03  0.10217432614E+03  0.00000000000E+00 0. -1.
         21   -1    0    0  502  503 -0.00000000000E+00 -0.00000000000E+00 -0.51068967848E+03  0.51068967848E+03  0.00000000000E+00 0. -1.
          6    1    1    2  501    0 -0.22529872652E+02 -0.10606789196E+02 -0.69628464164E+01  0.17492164065E+03  0.17300000000E+03 0. -1.
         -6    1    1    2    0  503  0.22529872652E+02  0.10606789196E+02 -0.40155250593E+03  0.43794236397E+03  0.17300000000E+03 0. -1.
<mgrwt>
<rscale>  2 0.17478301E+03</rscale>
<asrwt>0</asrwt>
<pdfrwt beam="1">  1       21 0.15719128E-01 0.17478301E+03</pdfrwt>
<pdfrwt beam="2">  1       21 0.78567640E-01 0.17478301E+03</pdfrwt>
<totfact> 0.52043402E+04</totfact>
</mgrwt>
</event>
<event>
 4    1  0.4056666E+000  0.1812366E+03  0.7546771E-02  0.1166612E+00
         21   -1    0    0  503  502  0.00000000000E+00  0.00000000000E+00  0.11046251612E+03  0.11046251612E+03  0.00000000000E+00 0.  1.
         21   -1    0    0  501  503 -0.00000000000E+00 -0.00000000000E+00 -0.31041457548E+03  0.31041457548E+03  0.00000000000E+00 0.  1.
          6    1    1    2  501    0  0.48612967754E+02 -0.23547748081E+02 -0.14313771143E+03  0.23094397915E+03  0.17300000000E+03 0.  1.
         -6    1    1    2    0  502 -0.48612967754E+02  0.23547748081E+02 -0.56814347922E+02  0.18993311245E+03  0.17300000000E+03 0.  1.
<mgrwt>
<rscale>  2 0.18123663E+03</rscale>
<asrwt>0</asrwt>
<pdfrwt beam="1">  1       21 0.16994233E-01 0.18123663E+03</pdfrwt>
<pdfrwt beam="2">  1       21 0.47756088E-01 0.18123663E+03</pdfrwt>
<totfact> 0.13136832E+05</totfact>
</mgrwt>
</event>
<event>
 4    1  0.4056666E+000  0.1731632E+03  0.7546771E-02  0.1174589E+00
         21   -1    0    0  501  502  0.00000000000E+00  0.00000000000E+00  0.17249474213E+03  0.17249474213E+03  0.00000000000E+00 0. -1.
         21   -1    0    0  502  503 -0.00000000000E+00 -0.00000000000E+00 -0.17979889038E+03  0.17979889038E+03  0.00000000000E+00 0. -1.
          6    1    1    2  501    0  0.58250049724E+01 -0.47491391945E+01 -0.35735102221E+02  0.17681199772E+03  0.17300000000E+03 0.  1.
         -6    1    1    2    0  503 -0.58250049724E+01  0.47491391945E+01  0.28430953977E+02  0.17548163479E+03  0.17300000000E+03 0.  1.
<mgrwt>
<rscale>  2 0.17316317E+03</rscale>
<asrwt>0</asrwt>
<pdfrwt beam="1">  1       21 0.26537653E-01 0.17316317E+03</pdfrwt>
<pdfrwt beam="2">  1       21 0.27661368E-01 0.17316317E+03</pdfrwt>
<totfact> 0.16953826E+05</totfact>
</mgrwt>
</event>
<event>
 4    1  0.4056666E+000  0.2006155E+03  0.7546771E-02  0.1149221E+00
         21   -1    0    0  501  502  0.00000000000E+00  0.00000000000E+00  0.42365315219E+02  0.42365315219E+02  0.00000000000E+00 0. -1.
         21   -1    0    0  502  503 -0.00000000000E+00 -0.00000000000E+00 -0.12099180096E+04  0.12099180096E+04  0.00000000000E+00 0. -1.
          6    1    1    2  501    0  0.17110617145E+02 -0.10012389790E+03 -0.29355970778E+03  0.35556134518E+03  0.17300000000E+03 0. -1.
         -6    1    1    2    0  503 -0.17110617145E+02  0.10012389790E+03 -0.87399298658E+03  0.89672197963E+03  0.17300000000E+03 0. -1.
<mgrwt>
<rscale>  2 0.20061547E+03</rscale>
<asrwt>0</asrwt>
<pdfrwt beam="1">  1       21 0.65177418E-02 0.20061547E+03</pdfrwt>
<pdfrwt beam="2">  1       21 0.18614120E+00 0.20061547E+03</pdfrwt>
<totfact> 0.28144140E+04</totfact>
</mgrwt>
</event>
<event>
 4    1  0.4056666E+000  0.1837267E+03  0.7546771E-02  0.1164244E+00
         21   -1    0    0  503  502  0.00000000000E+00  0.00000000000E+00  0.21025691181E+03  0.21025691181E+03  0.00000000000E+00 0.  1.
         21   -1    0    0  501  503 -0.00000000000E+00 -0.00000000000E+00 -0.21299859843E+03  0.21299859843E+03  0.00000000000E+00 0.  1.
          6    1    1    2  501    0  0.61805949962E+02  0.25527544828E+01 -0.10639178555E+03  0.21230804045E+03  0.17300000000E+03 0.  1.
         -6    1    1    2    0  502 -0.61805949962E+02 -0.25527544828E+01  0.10365009893E+03  0.21094746980E+03  0.17300000000E+03 0.  1.
<mgrwt>
<rscale>  2 0.18372668E+03</rscale>
<asrwt>0</asrwt>
<pdfrwt beam="1">  1       21 0.32347217E-01 0.18372668E+03</pdfrwt>
<pdfrwt beam="2">  1       21 0.32769015E-01 0.18372668E+03</pdfrwt>
<totfact> 0.82717999E+04</totfact>
</mgrwt>
</event>
<event>
 4    1  0.4056666E+000  0.1996057E+03  0.7546771E-02  0.1150072E+00
         21   -1    0    0  501  502  0.00000000000E+00  0.00000000000E+00  0.45310401917E+02  0.45310401917E+02  0.00000000000E+00 0. -1.
         21   -1    0    0  502  503 -0.00000000000E+00 -0.00000000000E+00 -0.10968146069E+04  0.10968146069E+04  0.00000000000E+00 0. -1.
          6    1    1    2  501    0  0.85089952034E+02 -0.51702409137E+02 -0.27145632193E+03  0.33694357653E+03  0.17300000000E+03 0. -1.
         -6    1    1    2    0  503 -0.85089952034E+02  0.51702409137E+02 -0.78004788308E+03  0.80518143231E+03  0.17300000000E+03 0. -1.
<mgrwt>
<rscale>  2 0.19960571E+03</rscale>
<asrwt>0</asrwt>
<pdfrwt beam="1">  1       21 0.69708317E-02 0.19960571E+03</pdfrwt>
<pdfrwt beam="2">  1       21 0.16874069E+00 0.19960571E+03</pdfrwt>
<totfact> 0.33033080E+04</totfact>
</mgrwt>
</event>
<event>
 4    1  0.4056666E+000  0.2596235E+03  0.7546771E-02  0.1107370E+00
         21   -1    0    0  501  502  0.00000000000E+00  0.00000000000E+00  0.40870457457E+03  0.40870457457E+03  0.00000000000E+00 0. -1.
         21   -1    0    0  502  503 -0.00000000000E+00 -0.00000000000E+00 -0.21618610050E+03  0.21618610050E+03  0.00000000000E+00 0. -1.
          6    1    1    2  501    0 -0.18870418760E+03 -0.43198510603E+02  0.24840742136E+03  0.35931967484E+03  0.17300000000E+03 0. -1.
         -6    1    1    2    0  503  0.18870418760E+03  0.43198510603E+02 -0.55888947292E+02  0.26557100024E+03  0.17300000000E+03 0. -1.
<mgrwt>
<rscale>  2 0.25962354E+03</rscale>
<asrwt>0</asrwt>
<pdfrwt beam="1">  1       21 0.62877627E-01 0.25962354E+03</pdfrwt>
<pdfrwt beam="2">  1       21 0.33259400E-01 0.25962354E+03</pdfrwt>
<totfact> 0.19669173E+04</totfact>
</mgrwt>
</event>
<event>
 4    1  0.4056666E+000  0.2597564E+03  0.7546771E-02  0.1107290E+00
         21   -1    0    0  501  502  0.00000000000E+00  0.00000000000E+00  0.89994830559E+02  0.89994830559E+02  0.00000000000E+00 0. -1.
         21   -1    0    0  502  503 -0.00000000000E+00 -0.00000000000E+00 -0.92011586791E+03  0.92011586791E+03  0.00000000000E+00 0. -1.
          6    1    1    2  501    0 -0.18413589407E+03 -0.60318851740E+02 -0.19773420779E+03  0.32645399108E+03  0.17300000000E+03 0. -1.
         -6    1    1    2    0  503  0.18413589407E+03  0.60318851740E+02 -0.63238682956E+03  0.68365670740E+03  0.17300000000E+03 0. -1.
<mgrwt>
<rscale>  2 0.25975641E+03</rscale>
<asrwt>0</asrwt>
<pdfrwt beam="1">  1       21 0.13845358E-01 0.25975641E+03</pdfrwt>
<pdfrwt beam="2">  1       21 0.14155629E+00 0.25975641E+03</pdfrwt>
<totfact> 0.15135970E+04</totfact>
</mgrwt>
</event>
<event>
 4    1  0.4056666E+000  0.1757412E+03  0.7546771E-02  0.1171989E+00
         21   -1    0    0  501  502  0.00000000000E+00  0.00000000000E+00  0.17788804991E+03  0.17788804991E+03  0.00000000000E+00 0.  1.
         21   -1    0    0  502  503 -0.00000000000E+00 -0.00000000000E+00 -0.83437562321E+03  0.83437562321E+03  0.00000000000E+00 0.  1.
          6    1    1    2  501    0  0.26198867914E+02  0.16419676752E+02  0.12216117847E+03  0.21402882981E+03  0.17300000000E+03 0.  1.
         -6    1    1    2    0  503 -0.26198867914E+02 -0.16419676752E+02 -0.77864875176E+03  0.79823484332E+03  0.17300000000E+03 0.  1.
<mgrwt>
<rscale>  2 0.17574125E+03</rscale>
<asrwt>0</asrwt>
<pdfrwt beam="1">  1       21 0.27367393E-01 0.17574125E+03</pdfrwt>
<pdfrwt beam="2">  1       21 0.12836548E+00 0.17574125E+03</pdfrwt>
<totfact> 0.57617330E+03</totfact>
</mgrwt>
</event>
<event>
 4    1  0.4056666E+000  0.2920633E+03  0.7546771E-02  0.1089277E+00
         21   -1    0    0  503  502  0.00000000000E+00  0.00000000000E+00  0.36574460475E+03  0.36574460475E+03  0.00000000000E+00 0. -1.
         21   -1    0    0  501  503 -0.00000000000E+00 -0.00000000000E+00 -0.13389877675E+04  0.13389877675E+04  0.00000000000E+00 0.  1.
          6    1    1    2  501    0  0.19394858312E+03  0.13325134614E+03 -0.12612060559E+04  0.12945816658E+04  0.17300000000E+03 0.  1.
         -6    1    1    2    0  502 -0.19394858312E+03 -0.13325134614E+03  0.28796289314E+03  0.41015070641E+03  0.17300000000E+03 0. -1.
<mgrwt>
<rscale>  2 0.29206331E+03</rscale>
<asrwt>0</asrwt>
<pdfrwt beam="1">  1       21 0.56268401E-01 0.29206331E+03</pdfrwt>
<pdfrwt beam="2">  1       21 0.20599812E+00 0.29206331E+03</pdfrwt>
<totfact> 0.32968879E+02</totfact>
</mgrwt>
</event>
<event>
 4    1  0.4056666E+000  0.1939207E+03  0.7546771E-02  0.1154972E+00
         21   -1    0    0  503  502  0.00000000000E+00  0.00000000000E+00  0.39765826969E+03  0.39765826969E+03  0.00000000000E+00 0.  1.
         21   -1    0    0  501  503 -0.00000000000E+00 -0.00000000000E+00 -0.98688498608E+02  0.98688498608E+02  0.00000000000E+00 0. -1.
          6    1    1    2  501    0 -0.57074821073E+02  0.66473290150E+02  0.98766561911E+02  0.21762368266E+03  0.17300000000E+03 0. -1.
         -6    1    1    2    0  502  0.57074821073E+02 -0.66473290150E+02  0.20020320917E+03  0.27872308564E+03  0.17300000000E+03 0.  1.
<mgrwt>
<rscale>  2 0.19392069E+03</rscale>
<asrwt>0</asrwt>
<pdfrwt beam="1">  1       21 0.61178194E-01 0.19392069E+03</pdfrwt>
<pdfrwt beam="2">  1       21 0.15182846E-01 0.19392069E+03</pdfrwt>
<totfact> 0.95312646E+04</totfact>
</mgrwt>
</event>
<event>
 4    1  0.4056666E+000  0.1816780E+03  0.7546771E-02  0.1166189E+00
         21   -1    0    0  503  502  0.00000000000E+00  0.00000000000E+00  0.29933841062E+03  0.29933841062E+03  0.00000000000E+00 0. -1.
         21   -1    0    0  501  503 -0.00000000000E+00 -0.00000000000E+00 -0.20107445905E+03  0.20107445905E+03  0.00000000000E+00 0. -1.
          6    1    1    2  501    0 -0.15303383128E+02  0.53326304100E+02 -0.11901259976E+03  0.21718859810E+03  0.17300000000E+03 0. -1.
         -6    1    1    2    0  502  0.15303383128E+02 -0.53326304100E+02  0.21727655133E+03  0.28322427156E+03  0.17300000000E+03 0. -1.
<mgrwt>
<rscale>  2 0.18167798E+03</rscale>
<asrwt>0</asrwt>
<pdfrwt beam="1">  1       21 0.46052063E-01 0.18167798E+03</pdfrwt>
<pdfrwt beam="2">  1       21 0.30934532E-01 0.18167798E+03</pdfrwt>
<totfact> 0.45592856E+04</totfact>
</mgrwt>
</event>
<event>
 4    1  0.4056666E+000  0.1829460E+03  0.7546771E-02  0.1164982E+00
         21   -1    0    0  503  502  0.00000000000E+00  0.00000000000E+00  0.10056675217E+03  0.10056675217E+03  0.00000000000E+00 0.  1.
         21   -1    0    0  501  503 -0.00000000000E+00 -0.00000000000E+00 -0.53543624248E+03  0.53543624248E+03  0.00000000000E+00 0.  1.
          6    1    1    2  501    0  0.57257150298E+02  0.16182580135E+02 -0.41306093803E+03  0.45176165805E+03  0.17300000000E+03 0.  1.
         -6    1    1    2    0  502 -0.57257150298E+02 -0.16182580135E+02 -0.21808552283E+02  0.18424133660E+03  0.17300000000E+03 0.  1.
<mgrwt>
<rscale>  2 0.18294605E+03</rscale>
<asrwt>0</asrwt>
<pdfrwt beam="1">  1       21 0.15471808E-01 0.18294605E+03</pdfrwt>
<pdfrwt beam="2">  1       21 0.82374806E-01 0.18294605E+03</pdfrwt>
<totfact> 0.47946584E+04</totfact>
</mgrwt>
</event>
<event>
 4    1  0.4056666E+000  0.2045515E+03  0.7546771E-02  0.1145955E+00
         21   -1    0    0  501  502  0.00000000000E+00  0.00000000000E+00  0.50634923884E+03  0.50634923884E+03  0.00000000000E+00 0.  1.
         21   -1    0    0  502  503 -0.00000000000E+00 -0.00000000000E+00 -0.88165142235E+02  0.88165142235E+02  0.00000000000E+00 0.  1.
          6    1    1    2  501    0 -0.10638521854E+03 -0.24382811062E+02  0.13463314030E+03  0.24488245888E+03  0.17300000000E+03 0.  1.
         -6    1    1    2    0  503  0.10638521854E+03  0.24382811062E+02  0.28355095630E+03  0.34963192219E+03  0.17300000000E+03 0.  1.
<mgrwt>
<rscale>  2 0.20455155E+03</rscale>
<asrwt>0</asrwt>
<pdfrwt beam="1">  1       21 0.77899881E-01 0.20455155E+03</pdfrwt>
<pdfrwt beam="2">  1       21 0.13563868E-01 0.20455155E+03</pdfrwt>
<totfact> 0.68382845E+04</totfact>
</mgrwt>
</event>
<event>
 4    1  0.4056666E+000  0.2015539E+03  0.7546771E-02  0.1148435E+00
         21   -1    0    0  501  502  0.00000000000E+00  0.00000000000E+00  0.10856227593E+04  0.10856227593E+04  0.00000000000E+00 0.  1.
         21   -1    0    0  502  503 -0.00000000000E+00 -0.00000000000E+00 -0.49244313620E+02  0.49244313620E+02  0.00000000000E+00 0.  1.
          6    1    1    2  501    0 -0.79998642530E+02  0.65537677145E+02  0.79624088530E+03  0.82135468426E+03  0.17300000000E+03 0.  1.
         -6    1    1    2    0  503  0.79998642530E+02 -0.65537677145E+02  0.24013756034E+03  0.31351238862E+03  0.17300000000E+03 0.  1.
<mgrwt>
<rscale>  2 0.20155389E+03</rscale>
<asrwt>0</asrwt>
<pdfrwt beam="1">  1       21 0.16701887E+00 0.20155389E+03</pdfrwt>
<pdfrwt beam="2">  1       21 0.75760491E-02 0.20155389E+03</pdfrwt>
<totfact> 0.29375297E+04</totfact>
</mgrwt>
</event>
<event>
 4    1  0.4056666E+000  0.1933701E+03  0.7546771E-02  0.1155456E+00
         21   -1    0    0  501  502  0.00000000000E+00  0.00000000000E+00  0.16053343261E+03  0.16053343261E+03  0.00000000000E+00 0.  1.
         21   -1    0    0  502  503 -0.00000000000E+00 -0.00000000000E+00 -0.24967915707E+03  0.24967915707E+03  0.00000000000E+00 0.  1.
          6    1    1    2  501    0 -0.71643283016E+01 -0.86091028648E+02  0.85608160991E+01  0.19355950089E+03  0.17300000000E+03 0. -1.
         -6    1    1    2    0  503  0.71643283016E+01  0.86091028648E+02 -0.97706540562E+02  0.21665308879E+03  0.17300000000E+03 0. -1.
<mgrwt>
<rscale>  2 0.19337009E+03</rscale>
<asrwt>0</asrwt>
<pdfrwt beam="1">  1       21 0.24697451E-01 0.19337009E+03</pdfrwt>
<pdfrwt beam="2">  1       21 0.38412178E-01 0.19337009E+03</pdfrwt>
<totfact> 0.10129773E+05</totfact>
</mgrwt>
</event>
<event>
 4    1  0.4056666E+000  0.2318567E+03  0.7546771E-02  0.1125340E+00
         21   -1    0    0  501  502  0.00000000000E+00  0.00000000000E+00  0.41947813128E+03  0.41947813128E+03  0.00000000000E+00 0. -1.
         21   -1    0    0  502  503 -0.00000000000E+00 -0.00000000000E+00 -0.20414254728E+03  0.20414254728E+03  0.00000000000E+00 0. -1.
          6    1    1    2  501    0 -0.19683034440E+02 -0.15310484077E+03  0.29790688579E+03  0.37749970425E+03  0.17300000000E+03 0. -1.
         -6    1    1    2    0  503  0.19683034440E+02  0.15310484077E+03 -0.82571301785E+02  0.24612097430E+03  0.17300000000E+03 0. -1.
<mgrwt>
<rscale>  2 0.23185667E+03</rscale>
<asrwt>0</asrwt>
<pdfrwt beam="1">  1       21 0.64535097E-01 0.23185667E+03</pdfrwt>
<pdfrwt beam="2">  1       21 0.31406546E-01 0.23185667E+03</pdfrwt>
<totfact> 0.21098139E+04</totfact>
</mgrwt>
</event>
<event>
 4    1  0.4056666E+000  0.1859997E+03  0.7546771E-02  0.1162120E+00
         21   -1    0    0  503  502  0.00000000000E+00  0.00000000000E+00  0.23203718917E+03  0.23203718917E+03  0.00000000000E+00 0.  1.
         21   -1    0    0  501  503 -0.00000000000E+00 -0.00000000000E+00 -0.15243923165E+03  0.15243923165E+03  0.00000000000E+00 0.  1.
          6    1    1    2  501    0  0.56075038064E+02 -0.39018996653E+02  0.11331204559E+02  0.18634454162E+03  0.17300000000E+03 0.  1.
         -6    1    1    2    0  502 -0.56075038064E+02  0.39018996653E+02  0.68266752960E+02  0.19813187920E+03  0.17300000000E+03 0.  1.
<mgrwt>
<rscale>  2 0.18599971E+03</rscale>
<asrwt>0</asrwt>
<pdfrwt beam="1">  1       21 0.35698029E-01 0.18599971E+03</pdfrwt>
<pdfrwt beam="2">  1       21 0.23452189E-01 0.18599971E+03</pdfrwt>
<totfact> 0.12972306E+05</totfact>
</mgrwt>
</event>
<event>
 4    1  0.4056666E+000  0.1773216E+03  0.7546771E-02  0.1170421E+00
         21   -1    0    0  503  502  0.00000000000E+00  0.00000000000E+00  0.52270735255E+03  0.52270735255E+03  0.00000000000E+00 0. -1.
         21   -1    0    0  501  503 -0.00000000000E+00 -0.00000000000E+00 -0.10469663830E+03  0.10469663830E+03  0.00000000000E+00 0. -1.
          6    1    1    2  501    0 -0.26391381135E+02 -0.28590722318E+02  0.43896751042E+01  0.17737588238E+03  0.17300000000E+03 0. -1.
         -6    1    1    2    0  502  0.26391381135E+02  0.28590722318E+02  0.41362103914E+03  0.45002810848E+03  0.17300000000E+03 0. -1.
<mgrwt>
<rscale>  2 0.17732156E+03</rscale>
<asrwt>0</asrwt>
<pdfrwt beam="1">  1       21 0.80416514E-01 0.17732156E+03</pdfrwt>
<pdfrwt beam="2">  1       21 0.16107175E-01 0.17732156E+03</pdfrwt>
<totfact> 0.47176768E+04</totfact>
</mgrwt>
</event>
<event>
 4    1  0.4056666E+000  0.1736119E+03  0.7546771E-02  0.1174133E+00
         21   -1    0    0  503  502  0.00000000000E+00  0.00000000000E+00  0.80514230209E+03  0.80514230209E+03  0.00000000000E+00 0. -1.
         21   -1    0    0  501  503 -0.00000000000E+00 -0.00000000000E+00 -0.11335206530E+03  0.11335206530E+03  0.00000000000E+00 0. -1.
          6    1    1    2  501    0 -0.63678925956E+01 -0.13097618368E+02 -0.29941743100E+02  0.17617492910E+03  0.17300000000E+03 0. -1.
         -6    1    1    2    0  502  0.63678925956E+01  0.13097618368E+02  0.72173197990E+03  0.74231943829E+03  0.17300000000E+03 0. -1.
<mgrwt>
<rscale>  2 0.17361192E+03</rscale>
<asrwt>0</asrwt>
<pdfrwt beam="1">  1       21 0.12386804E+00 0.17361192E+03</pdfrwt>
<pdfrwt beam="2">  1       21 0.17438780E-01 0.17361192E+03</pdfrwt>
<totfact> 0.14718925E+04</totfact>
</mgrwt>
</event>
<event>
 4    1  0.4056666E+000  0.2060767E+03  0.7546771E-02  0.1144711E+00
         21   -1    0    0  503  502  0.00000000000E+00  0.00000000000E+00  0.34396246936E+02  0.34396246936E+02  0.00000000000E+00 0.  1.
         21   -1    0    0  501  503 -0.00000000000E+00 -0.00000000000E+00 -0.23224315189E+04  0.23224315189E+04  0.00000000000E+00 0.  1.
          6    1    1    2  501    0  0.92169500135E+02 -0.63587764196E+02 -0.19505012023E+04  0.19613573261E+04  0.17300000000E+03 0.  1.
         -6    1    1    2    0  502 -0.92169500135E+02  0.63587764196E+02 -0.33753406964E+03  0.39547043970E+03  0.17300000000E+03 0.  1.
<mgrwt>
<rscale>  2 0.20607673E+03</rscale>
<asrwt>0</asrwt>
<pdfrwt beam="1">  1       21 0.52917282E-02 0.20607673E+03</pdfrwt>
<pdfrwt beam="2">  1       21 0.35729730E+00 0.20607673E+03</pdfrwt>
<totfact> 0.38019402E+03</totfact>
</mgrwt>
</event>
<event>
 4    1  0.4056666E+000  0.2110004E+03  0.7546771E-02  0.1140776E+00
         21   -1    0    0  503  502  0.00000000000E+00  0.00000000000E+00  0.22339456693E+03  0.22339456693E+03  0.00000000000E+00 0.  1.
         21   -1    0    0  501  503 -0.00000000000E+00 -0.00000000000E+00 -0.27457930225E+03  0.27457930225E+03  0.00000000000E+00 0.  1.
          6    1    1    2  501    0  0.96365743129E+01  0.12041302313E+03 -0.15596854350E+03  0.26238777842E+03  0.17300000000E+03 0.  1.
         -6    1    1    2    0  502 -0.96365743129E+01 -0.12041302313E+03  0.10478380818E+03  0.23558609076E+03  0.17300000000E+03 0.  1.
<mgrwt>
<rscale>  2 0.21100038E+03</rscale>
<asrwt>0</asrwt>
<pdfrwt beam="1">  1       21 0.34368395E-01 0.21100038E+03</pdfrwt>
<pdfrwt beam="2">  1       21 0.42242970E-01 0.21100038E+03</pdfrwt>
<totfact> 0.43595935E+04</totfact>
</mgrwt>
</event>
<event>
 4    1  0.4056666E+000  0.1753674E+03  0.7546771E-02  0.1172363E+00
         21   -1    0    0  501  502  0.00000000000E+00  0.00000000000E+00  0.14166753382E+03  0.14166753382E+03  0.00000000000E+00 0.  1.
         21   -1    0    0  502  503 -0.00000000000E+00 -0.00000000000E+00 -0.41329245161E+03  0.41329245161E+03  0.00000000000E+00 0.  1.
          6    1    1    2  501    0  0.27673793636E+02 -0.76739165253E+01  0.55376146111E+02  0.18390281511E+03  0.17300000000E+03 0.  1.
         -6    1    1    2    0  503 -0.27673793636E+02  0.76739165253E+01 -0.32700106391E+03  0.37105717032E+03  0.17300000000E+03 0.  1.
<mgrwt>
<rscale>  2 0.17536741E+03</rscale>
<asrwt>0</asrwt>
<pdfrwt beam="1">  1       21 0.21795006E-01 0.17536741E+03</pdfrwt>
<pdfrwt beam="2">  1       21 0.63583453E-01 0.17536741E+03</pdfrwt>
<totfact> 0.45303992E+04</totfact>
</mgrwt>
</event>
<event>
 4    1  0.4056666E+000  0.1798012E+03  0.7546771E-02  0.1167996E+00
         21   -1    0    0  501  502  0.00000000000E+00  0.00000000000E+00  0.20110869514E+03  0.20110869514E+03  0.00000000000E+00 0.  1.
         21   -1    0    0  502  503 -0.00000000000E+00 -0.00000000000E+00 -0.44580565475E+03  0.44580565475E+03  0.00000000000E+00 0.  1.
          6    1    1    2  501    0 -0.35536780711E+02  0.33713651352E+02  0.13629878184E+03  0.22562320582E+03  0.17300000000E+03 0.  1.
         -6    1    1    2    0  503  0.35536780711E+02 -0.33713651352E+02 -0.38099574145E+03  0.42129114407E+03  0.17300000000E+03 0.  1.
<mgrwt>
<rscale>  2 0.17980120E+03</rscale>
<asrwt>0</asrwt>
<pdfrwt beam="1">  1       21 0.30939800E-01 0.17980120E+03</pdfrwt>
<pdfrwt beam="2">  1       21 0.68585484E-01 0.17980120E+03</pdfrwt>
<totfact> 0.19596673E+04</totfact>
</mgrwt>
</event>
<event>
 4    1  0.4056666E+000  0.2100521E+03  0.7546771E-02  0.1141525E+00
         21   -1    0    0  501  502  0.00000000000E+00  0.00000000000E+00  0.56211235555E+03  0.56211235555E+03  0.00000000000E+00 0.  1.
         21   -1    0    0  502  503 -0.00000000000E+00 -0.00000000000E+00 -0.11701732390E+03  0.11701732390E+03  0.00000000000E+00 0.  1.
          6    1    1    2  501    0  0.91893623976E+02 -0.75818505354E+02  0.41738170081E+03  0.46725728251E+03  0.17300000000E+03 0.  1.
         -6    1    1    2    0  503 -0.91893623976E+02  0.75818505354E+02  0.27713330839E+02  0.21187239695E+03  0.17300000000E+03 0.  1.
<mgrwt>
<rscale>  2 0.21005210E+03</rscale>
<asrwt>0</asrwt>
<pdfrwt beam="1">  1       21 0.86478822E-01 0.21005210E+03</pdfrwt>
<pdfrwt beam="2">  1       21 0.18002666E-01 0.21005210E+03</pdfrwt>
<totfact> 0.32021067E+04</totfact>
</mgrwt>
</event>
<event>
 4    1  0.4056666E+000  0.1843377E+03  0.7546771E-02  0.1163670E+00
         21   -1    0    0  503  502  0.00000000000E+00  0.00000000000E+00  0.10015561491E+04  0.10015561491E+04  0.00000000000E+00 0. -1.
         21   -1    0    0  501  503 -0.00000000000E+00 -0.00000000000E+00 -0.43417152750E+02  0.43417152750E+02  0.00000000000E+00 0. -1.
          6    1    1    2  501    0  0.54785108420E+02  0.32403405795E+02  0.23480093663E+03  0.29851611121E+03  0.17300000000E+03 0. -1.
         -6    1    1    2    0  502 -0.54785108420E+02 -0.32403405795E+02  0.72333805972E+03  0.74645719064E+03  0.17300000000E+03 0. -1.
<mgrwt>
<rscale>  2 0.18433770E+03</rscale>
<asrwt>0</asrwt>
<pdfrwt beam="1">  1       21 0.15408554E+00 0.18433770E+03</pdfrwt>
<pdfrwt beam="2">  1       21 0.66795627E-02 0.18433770E+03</pdfrwt>
<totfact> 0.45879054E+04</totfact>
</mgrwt>
</event>
<event>
 4    1  0.4056666E+000  0.1790114E+03  0.7546771E-02  0.1168763E+00
         21   -1    0    0  503  502  0.00000000000E+00  0.00000000000E+00  0.67272417937E+02  0.67272417937E+02  0.00000000000E+00 0.  1.
         21   -1    0    0  501  503 -0.00000000000E+00 -0.00000000000E+00 -0.55592286001E+03  0.55592286001E+03  0.00000000000E+00 0. -1.
          6    1    1    2  501    0 -0.14759024726E+02  0.43569018754E+02 -0.36221457048E+03  0.40403525004E+03  0.17300000000E+03 0. -1.
         -6    1    1    2    0  502  0.14759024726E+02 -0.43569018754E+02 -0.12643587159E+03  0.21916002790E+03  0.17300000000E+03 0.  1.
<mgrwt>
<rscale>  2 0.17901142E+03</rscale>
<asrwt>0</asrwt>
<pdfrwt beam="1">  1       21 0.10349603E-01 0.17901142E+03</pdfrwt>
<pdfrwt beam="2">  1       21 0.85526594E-01 0.17901142E+03</pdfrwt>
<totfact> 0.90722344E+04</totfact>
</mgrwt>
</event>
<event>
 4    1  0.4056666E+000  0.1749472E+03  0.7546771E-02  0.1172785E+00
         21   -1    0    0  501  502  0.00000000000E+00  0.00000000000E+00  0.97652676629E+03  0.97652676629E+03  0.00000000000E+00 0. -1.
         21   -1    0    0  502  503 -0.00000000000E+00 -0.00000000000E+00 -0.31997374329E+02  0.31997374329E+02  0.00000000000E+00 0. -1.
          6    1    1    2  501    0  0.75429969388E+01 -0.24912271745E+02  0.54442036934E+03  0.57183918774E+03  0.17300000000E+03 0. -1.
         -6    1    1    2    0  503 -0.75429969388E+01  0.24912271745E+02  0.40010902263E+03  0.43668495288E+03  0.17300000000E+03 0. -1.
<mgrwt>
<rscale>  2 0.17494719E+03</rscale>
<asrwt>0</asrwt>
<pdfrwt beam="1">  1       21 0.15023486E+00 0.17494719E+03</pdfrwt>
<pdfrwt beam="2">  1       21 0.49226737E-02 0.17494719E+03</pdfrwt>
<totfact> 0.82952604E+04</totfact>
</mgrwt>
</event>
<event>
 4    1  0.4056666E+000  0.2249125E+03  0.7546771E-02  0.1130273E+00
         21   -1    0    0  503  502  0.00000000000E+00  0.00000000000E+00  0.57715224613E+03  0.57715224613E+03  0.00000000000E+00 0. -1.
         21   -1    0    0  501  503 -0.00000000000E+00 -0.00000000000E+00 -0.88261157403E+02  0.88261157403E+02  0.00000000000E+00 0.  1.
          6    1    1    2  501    0 -0.11430562370E+03  0.87125536614E+02  0.21669101630E+03  0.31231495527E+03  0.17300000000E+03 0. -1.
         -6    1    1    2    0  502  0.11430562370E+03 -0.87125536614E+02  0.27220007242E+03  0.35309844826E+03  0.17300000000E+03 0.  1.
<mgrwt>
<rscale>  2 0.22491250E+03</rscale>
<asrwt>0</asrwt>
<pdfrwt beam="1">  1       21 0.88792651E-01 0.22491250E+03</pdfrwt>
<pdfrwt beam="2">  1       21 0.13578640E-01 0.22491250E+03</pdfrwt>
<totfact> 0.50142175E+04</totfact>
</mgrwt>
</event>
<event>
 4    1  0.4056666E+000  0.1967791E+03  0.7546771E-02  0.1152485E+00
         21   -1    0    0  501  502  0.00000000000E+00  0.00000000000E+00  0.58871314381E+02  0.58871314381E+02  0.00000000000E+00 0. -1.
         21   -1    0    0  502  503 -0.00000000000E+00 -0.00000000000E+00 -0.21068371817E+04  0.21068371817E+04  0.00000000000E+00 0. -1.
          6    1    1    2  501    0 -0.92274050510E+02 -0.16688464194E+02 -0.12592716540E+03  0.23362289318E+03  0.17300000000E+03 0. -1.
         -6    1    1    2    0  503  0.92274050510E+02  0.16688464194E+02 -0.19220387019E+04  0.19320856029E+04  0.17300000000E+03 0. -1.
<mgrwt>
<rscale>  2 0.19677908E+03</rscale>
<asrwt>0</asrwt>
<pdfrwt beam="1">  1       21 0.90571262E-02 0.19677908E+03</pdfrwt>
<pdfrwt beam="2">  1       21 0.32412877E+00 0.19677908E+03</pdfrwt>
<totfact> 0.23801837E+03</totfact>
</mgrwt>
</event>
<event>
 4    1  0.4056666E+000  0.1932511E+03  0.7546771E-02  0.1155561E+00
         21   -1    0    0  503  502  0.00000000000E+00  0.00000000000E+00  0.80090444566E+03  0.80090444566E+03  0.00000000000E+00 0. -1.
         21   -1    0    0  501  503 -0.00000000000E+00 -0.00000000000E+00 -0.47051769072E+02  0.47051769072E+02  0.00000000000E+00 0.  1.
          6    1    1    2  501    0 -0.79490067243E+02 -0.33141038404E+02  0.33677450872E+03  0.38828220271E+03  0.17300000000E+03 0.  1.
         -6    1    1    2    0  502  0.79490067243E+02  0.33141038404E+02  0.41707816786E+03  0.45967401202E+03  0.17300000000E+03 0.  1.
<mgrwt>
<rscale>  2 0.19325113E+03</rscale>
<asrwt>0</asrwt>
<pdfrwt beam="1">  1       21 0.12321606E+00 0.19325113E+03</pdfrwt>
<pdfrwt beam="2">  1       21 0.72387343E-02 0.19325113E+03</pdfrwt>
<totfact> 0.70566672E+04</totfact>
</mgrwt>
</event>
<event>
 4    1  0.4056666E+000  0.1752808E+03  0.7546771E-02  0.1172450E+00
         21   -1    0    0  503  502  0.00000000000E+00  0.00000000000E+00  0.21787729978E+03  0.21787729978E+03  0.00000000000E+00 0.  1.
         21   -1    0    0  501  503 -0.00000000000E+00 -0.00000000000E+00 -0.37168277743E+03  0.37168277743E+03  0.00000000000E+00 0.  1.
          6    1    1    2  501    0  0.25779277059E+02  0.11392446032E+02 -0.30912719102E+03  0.35536316520E+03  0.17300000000E+03 0.  1.
         -6    1    1    2    0  502 -0.25779277059E+02 -0.11392446032E+02  0.15532171337E+03  0.23419691201E+03  0.17300000000E+03 0.  1.
<mgrwt>
<rscale>  2 0.17528080E+03</rscale>
<asrwt>0</asrwt>
<pdfrwt beam="1">  1       21 0.33519585E-01 0.17528080E+03</pdfrwt>
<pdfrwt beam="2">  1       21 0.57181965E-01 0.17528080E+03</pdfrwt>
<totfact> 0.24866144E+04</totfact>
</mgrwt>
</event>
<event>
 4    1  0.4056666E+000  0.2563716E+03  0.7546771E-02  0.1109343E+00
         21   -1    0    0  501  502  0.00000000000E+00  0.00000000000E+00  0.24706413065E+03  0.24706413065E+03  0.00000000000E+00 0. -1.
         21   -1    0    0  502  503 -0.00000000000E+00 -0.00000000000E+00 -0.27936061707E+03  0.27936061707E+03  0.00000000000E+00 0. -1.
          6    1    1    2  501    0  0.18670765344E+03 -0.30620806317E+02  0.41350017655E+02  0.25968481972E+03  0.17300000000E+03 0. -1.
         -6    1    1    2    0  503 -0.18670765344E+03  0.30620806317E+02 -0.73646504073E+02  0.26673992801E+03  0.17300000000E+03 0. -1.
<mgrwt>
<rscale>  2 0.25637157E+03</rscale>
<asrwt>0</asrwt>
<pdfrwt beam="1">  1       21 0.38009866E-01 0.25637157E+03</pdfrwt>
<pdfrwt beam="2">  1       21 0.42978557E-01 0.25637157E+03</pdfrwt>
<totfact> 0.33703932E+04</totfact>
</mgrwt>
</event>
<event>
 4    1  0.4056666E+000  0.1940080E+03  0.7546771E-02  0.1154895E+00
         21   -1    0    0  503  502  0.00000000000E+00  0.00000000000E+00  0.20881829234E+03  0.20881829234E+03  0.00000000000E+00 0. -1.
         21   -1    0    0  501  503 -0.00000000000E+00 -0.00000000000E+00 -0.18064588656E+03  0.18064588656E+03  0.00000000000E+00 0. -1.
          6    1    1    2  501    0  0.21151901965E+02  0.85221596464E+02  0.23222881419E+02  0.19539300316E+03  0.17300000000E+03 0. -1.
         -6    1    1    2    0  502 -0.21151901965E+02 -0.85221596464E+02  0.49495243636E+01  0.19407117574E+03  0.17300000000E+03 0. -1.
<mgrwt>
<rscale>  2 0.19400805E+03</rscale>
<asrwt>0</asrwt>
<pdfrwt beam="1">  1       21 0.32125891E-01 0.19400805E+03</pdfrwt>
<pdfrwt beam="2">  1       21 0.27791675E-01 0.19400805E+03</pdfrwt>
<totfact> 0.11515075E+05</totfact>
</mgrwt>
</event>
<event>
 4    1  0.4056666E+000  0.1913520E+03  0.7546771E-02  0.1157248E+00
         21   -1    0    0  503  502  0.00000000000E+00  0.00000000000E+00  0.12113546756E+03  0.12113546756E+03  0.00000000000E+00 0. -1.
         21   -1    0    0  501  503 -0.00000000000E+00 -0.00000000000E+00 -0.31755132491E+03  0.31755132491E+03  0.00000000000E+00 0.  1.
          6    1    1    2  501    0 -0.50687538695E+02 -0.64166590686E+02 -0.14632539791E+03  0.24088731808E+03  0.17300000000E+03 0. -1.
         -6    1    1    2    0  502  0.50687538695E+02  0.64166590686E+02 -0.50090459447E+02  0.19779947438E+03  0.17300000000E+03 0. -1.
<mgrwt>
<rscale>  2 0.19135197E+03</rscale>
<asrwt>0</asrwt>
<pdfrwt beam="1">  1       21 0.18636226E-01 0.19135197E+03</pdfrwt>
<pdfrwt beam="2">  1       21 0.48854050E-01 0.19135197E+03</pdfrwt>
<totfact> 0.10533150E+05</totfact>
</mgrwt>
</event>
<event>
 4    1  0.4056666E+000  0.2180385E+03  0.7546771E-02  0.1135354E+00
         21   -1    0    0  503  502  0.00000000000E+00  0.00000000000E+00  0.17640871921E+03  0.17640871921E+03  0.00000000000E+00 0. -1.
         21   -1    0    0  501  503 -0.00000000000E+00 -0.00000000000E+00 -0.29235553415E+03  0.29235553415E+03  0.00000000000E+00 0.  1.
          6    1    1    2  501    0  0.37448921658E+02 -0.12731594145E+03 -0.12351828901E+03  0.25059437025E+03  0.17300000000E+03 0.  1.
         -6    1    1    2    0  502 -0.37448921658E+02  0.12731594145E+03  0.75714740699E+01  0.21816988312E+03  0.17300000000E+03 0. -1.
<mgrwt>
<rscale>  2 0.21803846E+03</rscale>
<asrwt>0</asrwt>
<pdfrwt beam="1">  1       21 0.27139803E-01 0.21803846E+03</pdfrwt>
<pdfrwt beam="2">  1       21 0.44977774E-01 0.21803846E+03</pdfrwt>
<totfact> 0.60678739E+04</totfact>
</mgrwt>
</event>
<event>
 4    1  0.4056666E+000  0.2371173E+03  0.7546771E-02  0.1121728E+00
         21   -1    0    0  503  502  0.00000000000E+00  0.00000000000E+00  0.16212192712E+03  0.16212192712E+03  0.00000000000E+00 0. -1.
         21   -1    0    0  501  503 -0.00000000000E+00 -0.00000000000E+00 -0.54360268115E+03  0.54360268115E+03  0.00000000000E+00 0.  1.
          6    1    1    2  501    0  0.15546746146E+03 -0.46103088560E+02 -0.40305256495E+03  0.46762805354E+03  0.17300000000E+03 0.  1.
         -6    1    1    2    0  502 -0.15546746146E+03  0.46103088560E+02  0.21571810911E+02  0.23809655473E+03  0.17300000000E+03 0. -1.
<mgrwt>
<rscale>  2 0.23711733E+03</rscale>
<asrwt>0</asrwt>
<pdfrwt beam="1">  1       21 0.24941835E-01 0.23711733E+03</pdfrwt>
<pdfrwt beam="2">  1       21 0.83631183E-01 0.23711733E+03</pdfrwt>
<totfact> 0.18437787E+04</totfact>
</mgrwt>
</event>
<event>
 4    1  0.4056666E+000  0.2554343E+03  0.7546771E-02  0.1109918E+00
         21   -1    0    0  501  502  0.00000000000E+00  0.00000000000E+00  0.18015240055E+03  0.18015240055E+03  0.00000000000E+00 0.  1.
         21   -1    0    0  502  503 -0.00000000000E+00 -0.00000000000E+00 -0.47223772095E+03  0.47223772095E+03  0.00000000000E+00 0. -1.
          6    1    1    2  501    0  0.16027379000E+03 -0.98132576916E+02  0.11434372772E+02  0.25569011576E+03  0.17300000000E+03 0.  1.
         -6    1    1    2    0  503 -0.16027379000E+03  0.98132576916E+02 -0.30351969318E+03  0.39670000575E+03  0.17300000000E+03 0. -1.
<mgrwt>
<rscale>  2 0.25543432E+03</rscale>
<asrwt>0</asrwt>
<pdfrwt beam="1">  1       21 0.27715754E-01 0.25543432E+03</pdfrwt>
<pdfrwt beam="2">  1       21 0.72651956E-01 0.25543432E+03</pdfrwt>
<totfact> 0.20498558E+04</totfact>
</mgrwt>
</event>
<event>
 4    1  0.4056666E+000  0.3298226E+03  0.7546771E-02  0.1071215E+00
         21   -1    0    0  501  502  0.00000000000E+00  0.00000000000E+00  0.16659811424E+03  0.16659811424E+03  0.00000000000E+00 0. -1.
         21   -1    0    0  502  503 -0.00000000000E+00 -0.00000000000E+00 -0.71739902452E+03  0.71739902452E+03  0.00000000000E+00 0.  1.
          6    1    1    2  501    0 -0.44720119870E+02  0.27722560661E+03 -0.14293754551E+03  0.35946358368E+03  0.17300000000E+03 0.  1.
         -6    1    1    2    0  503  0.44720119870E+02 -0.27722560661E+03 -0.40786336477E+03  0.52453355507E+03  0.17300000000E+03 0.  1.
<mgrwt>
<rscale>  2 0.32982257E+03</rscale>
<asrwt>0</asrwt>
<pdfrwt beam="1">  1       21 0.25630479E-01 0.32982257E+03</pdfrwt>
<pdfrwt beam="2">  1       21 0.11036908E+00 0.32982257E+03</pdfrwt>
<totfact> 0.86588362E+03</totfact>
</mgrwt>
</event>
<event>
 4    1  0.4056666E+000  0.2459440E+03  0.7546771E-02  0.1115895E+00
         21   -1    0    0  503  502  0.00000000000E+00  0.00000000000E+00  0.74403647438E+02  0.74403647438E+02  0.00000000000E+00 0. -1.
         21   -1    0    0  501  503 -0.00000000000E+00 -0.00000000000E+00 -0.92059858821E+03  0.92059858821E+03  0.00000000000E+00 0. -1.
          6    1    1    2  501    0 -0.11250575714E+03  0.13379807867E+03 -0.59319896970E+03  0.64216313262E+03  0.17300000000E+03 0. -1.
         -6    1    1    2    0  502  0.11250575714E+03 -0.13379807867E+03 -0.25299597107E+03  0.35283910302E+03  0.17300000000E+03 0. -1.
<mgrwt>
<rscale>  2 0.24594404E+03</rscale>
<asrwt>0</asrwt>
<pdfrwt beam="1">  1       21 0.11446715E-01 0.24594404E+03</pdfrwt>
<pdfrwt beam="2">  1       21 0.14163055E+00 0.24594404E+03</pdfrwt>
<totfact> 0.21473892E+04</totfact>
</mgrwt>
</event>
<event>
 4    1  0.4056666E+000  0.2005361E+03  0.7546771E-02  0.1149287E+00
         21   -1    0    0  503  502  0.00000000000E+00  0.00000000000E+00  0.17396346133E+03  0.17396346133E+03  0.00000000000E+00 0.  1.
         21   -1    0    0  501  503 -0.00000000000E+00 -0.00000000000E+00 -0.47400139035E+03  0.47400139035E+03  0.00000000000E+00 0. -1.
          6    1    1    2  501    0  0.60115737544E+02 -0.81681219418E+02 -0.38191117748E+03  0.43135932932E+03  0.17300000000E+03 0. -1.
         -6    1    1    2    0  502 -0.60115737544E+02  0.81681219418E+02  0.81873248454E+02  0.21660552236E+03  0.17300000000E+03 0.  1.
<mgrwt>
<rscale>  2 0.20053609E+03</rscale>
<asrwt>0</asrwt>
<pdfrwt beam="1">  1       21 0.26763610E-01 0.20053609E+03</pdfrwt>
<pdfrwt beam="2">  1       21 0.72923289E-01 0.20053609E+03</pdfrwt>
<totfact> 0.22392332E+04</totfact>
</mgrwt>
</event>
<event>
 4    1  0.4056666E+000  0.1984590E+03  0.7546771E-02  0.1151046E+00
         21   -1    0    0  501  502  0.00000000000E+00  0.00000000000E+00  0.19776358487E+04  0.19776358487E+04  0.00000000000E+00 0.  1.
         21   -1    0    0  502  503 -0.00000000000E+00 -0.00000000000E+00 -0.21531052944E+02  0.21531052944E+02  0.00000000000E+00 0.  1.
          6    1    1    2  501    0  0.96218488955E+02  0.14105444762E+02  0.12518457691E+04  0.12674793059E+04  0.17300000000E+03 0.  1.
         -6    1    1    2    0  503 -0.96218488955E+02 -0.14105444762E+02  0.70425902667E+03  0.73168759579E+03  0.17300000000E+03 0.  1.
<mgrwt>
<rscale>  2 0.19845897E+03</rscale>
<asrwt>0</asrwt>
<pdfrwt beam="1">  1       21 0.30425153E+00 0.19845897E+03</pdfrwt>
<pdfrwt beam="2">  1       21 0.33124712E-02 0.19845897E+03</pdfrwt>
<totfact> 0.17219530E+04</totfact>
</mgrwt>
</event>
<event>
 4    1  0.4056666E+000  0.1737395E+03  0.7546771E-02  0.1174003E+00
         21   -1    0    0  503  502  0.00000000000E+00  0.00000000000E+00  0.67875309462E+02  0.67875309462E+02  0.00000000000E+00 0. -1.
         21   -1    0    0  501  503 -0.00000000000E+00 -0.00000000000E+00 -0.68747459319E+03  0.68747459319E+03  0.00000000000E+00 0. -1.
          6    1    1    2  501    0  0.11443367624E+02  0.11201456827E+02 -0.53422643038E+03  0.56176801459E+03  0.17300000000E+03 0. -1.
         -6    1    1    2    0  502 -0.11443367624E+02 -0.11201456827E+02 -0.85372853347E+02  0.19358188806E+03  0.17300000000E+03 0. -1.
<mgrwt>
<rscale>  2 0.17373953E+03</rscale>
<asrwt>0</asrwt>
<pdfrwt beam="1">  1       21 0.10442356E-01 0.17373953E+03</pdfrwt>
<pdfrwt beam="2">  1       21 0.10576531E+00 0.17373953E+03</pdfrwt>
<totfact> 0.54478525E+04</totfact>
</mgrwt>
</event>
<event>
 4    1  0.4056666E+000  0.1998072E+03  0.7546771E-02  0.1149902E+00
         21   -1    0    0  503  502  0.00000000000E+00  0.00000000000E+00  0.60032393271E+03  0.60032393271E+03  0.00000000000E+00 0. -1.
         21   -1    0    0  501  503 -0.00000000000E+00 -0.00000000000E+00 -0.27258042966E+03  0.27258042966E+03  0.00000000000E+00 0. -1.
          6    1    1    2  501    0  0.90996135481E+02  0.41396122881E+02 -0.21562255172E+03  0.29396601925E+03  0.17300000000E+03 0. -1.
         -6    1    1    2    0  502 -0.90996135481E+02 -0.41396122881E+02  0.54336605477E+03  0.57893834312E+03  0.17300000000E+03 0. -1.
<mgrwt>
<rscale>  2 0.19980725E+03</rscale>
<asrwt>0</asrwt>
<pdfrwt beam="1">  1       21 0.92357528E-01 0.19980725E+03</pdfrwt>
<pdfrwt beam="2">  1       21 0.41935451E-01 0.19980725E+03</pdfrwt>
<totfact> 0.53851879E+03</totfact>
</mgrwt>
</event>
<event>
 4    1  0.4056666E+000  0.2598891E+03  0.7546771E-02  0.1107210E+00
         21   -1    0    0  501  502  0.00000000000E+00  0.00000000000E+00  0.42072851902E+03  0.42072851902E+03  0.00000000000E+00 0.  1.
         21   -1    0    0  502  503 -0.00000000000E+00 -0.00000000000E+00 -0.26442316216E+03  0.26442316216E+03  0.00000000000E+00 0.  1.
          6    1    1    2  501    0 -0.45771642996E+02 -0.18846305759E+03  0.29287958443E+03  0.39156202364E+03  0.17300000000E+03 0.  1.
         -6    1    1    2    0  503  0.45771642996E+02  0.18846305759E+03 -0.13657422757E+03  0.29358965754E+03  0.17300000000E+03 0.  1.
<mgrwt>
<rscale>  2 0.25988914E+03</rscale>
<asrwt>0</asrwt>
<pdfrwt beam="1">  1       21 0.64727464E-01 0.25988914E+03</pdfrwt>
<pdfrwt beam="2">  1       21 0.40680487E-01 0.25988914E+03</pdfrwt>
<totfact> 0.12308164E+04</totfact>
</mgrwt>
</event>
<event>
 4    1  0.4056666E+000  0.2137806E+03  0.7546771E-02  0.1138607E+00
         21   -1    0    0  503  502  0.00000000000E+00  0.00000000000E+00  0.34529940186E+03  0.34529940186E+03  0.00000000000E+00 0. -1.
         21   -1    0    0  501  503 -0.00000000000E+00 -0.00000000000E+00 -0.13731542635E+03  0.13731542635E+03  0.00000000000E+00 0. -1.
          6    1    1    2  501    0  0.58163029928E+02  0.11131122471E+03  0.58128465757E+02  0.22154242331E+03  0.17300000000E+03 0. -1.
         -6    1    1    2    0  502 -0.58163029928E+02 -0.11131122471E+03  0.14985550975E+03  0.26107240490E+03  0.17300000000E+03 0. -1.
<mgrwt>
<rscale>  2 0.21378056E+03</rscale>
<asrwt>0</asrwt>
<pdfrwt beam="1">  1       21 0.53122985E-01 0.21378056E+03</pdfrwt>
<pdfrwt beam="2">  1       21 0.21125450E-01 0.21378056E+03</pdfrwt>
<totfact> 0.69272725E+04</totfact>
</mgrwt>
</event>
<event>
 4    1  0.4056666E+000  0.1846271E+03  0.7546771E-02  0.1163399E+00
         21   -1    0    0  503  502  0.00000000000E+00  0.00000000000E+00  0.21045723902E+03  0.21045723902E+03  0.00000000000E+00 0.  1.
         21   -1    0    0  501  503 -0.00000000000E+00 -0.00000000000E+00 -0.16281507740E+03  0.16281507740E+03  0.00000000000E+00 0. -1.
          6    1    1    2  501    0  0.58688264765E+02 -0.26718087343E+02  0.10352669855E+02  0.18491713383E+03  0.17300000000E+03 0. -1.
         -6    1    1    2    0  502 -0.58688264765E+02  0.26718087343E+02  0.37289491768E+02  0.18835518259E+03  0.17300000000E+03 0.  1.
<mgrwt>
<rscale>  2 0.18462711E+03</rscale>
<asrwt>0</asrwt>
<pdfrwt beam="1">  1       21 0.32378037E-01 0.18462711E+03</pdfrwt>
<pdfrwt beam="2">  1       21 0.25048473E-01 0.18462711E+03</pdfrwt>
<totfact> 0.13887107E+05</totfact>
</mgrwt>
</event>
<event>
 4    1  0.4056666E+000  0.1991907E+03  0.7546771E-02  0.1150424E+00
         21   -1    0    0  503  502  0.00000000000E+00  0.00000000000E+00  0.25269140818E+03  0.25269140818E+03  0.00000000000E+00 0.  1.
         21   -1    0    0  501  503 -0.00000000000E+00 -0.00000000000E+00 -0.52282988711E+03  0.52282988711E+03  0.00000000000E+00 0.  1.
          6    1    1    2  501    0 -0.24365503987E+02 -0.95677853058E+02 -0.45941844308E+03  0.50074168509E+03  0.17300000000E+03 0.  1.
         -6    1    1    2    0  502  0.24365503987E+02  0.95677853058E+02  0.18927996415E+03  0.27477961020E+03  0.17300000000E+03 0.  1.
<mgrwt>
<rscale>  2 0.19919069E+03</rscale>
<asrwt>0</asrwt>
<pdfrwt beam="1">  1       21 0.38875602E-01 0.19919069E+03</pdfrwt>
<pdfrwt beam="2">  1       21 0.80435366E-01 0.19919069E+03</pdfrwt>
<totfact> 0.86272328E+03</totfact>
</mgrwt>
</event>
<event>
 4    1  0.4056666E+000  0.1805946E+03  0.7546771E-02  0.1167229E+00
         21   -1    0    0  501  502  0.00000000000E+00  0.00000000000E+00  0.29422258674E+03  0.29422258674E+03  0.00000000000E+00 0. -1.
         21   -1    0    0  502  503 -0.00000000000E+00 -0.00000000000E+00 -0.15781730864E+03  0.15781730864E+03  0.00000000000E+00 0. -1.
          6    1    1    2  501    0 -0.50399593981E+02  0.12053160920E+02  0.19150462066E+03  0.26322693155E+03  0.17300000000E+03 0. -1.
         -6    1    1    2    0  503  0.50399593981E+02 -0.12053160920E+02 -0.55099342556E+02  0.18881296383E+03  0.17300000000E+03 0. -1.
<mgrwt>
<rscale>  2 0.18059457E+03</rscale>
<asrwt>0</asrwt>
<pdfrwt beam="1">  1       21 0.45265013E-01 0.18059457E+03</pdfrwt>
<pdfrwt beam="2">  1       21 0.24279586E-01 0.18059457E+03</pdfrwt>
<totfact> 0.75355395E+04</totfact>
</mgrwt>
</event>
<event>
 4    1  0.4056666E+000  0.2371716E+03  0.7546771E-02  0.1121691E+00
         21   -1    0    0  503  502  0.00000000000E+00  0.00000000000E+00  0.15195638360E+03  0.15195638360E+03  0.00000000000E+00 0.  1.
         21   -1    0    0  501  503 -0.00000000000E+00 -0.00000000000E+00 -0.37022444060E+03  0.37022444060E+03  0.00000000000E+00 0. -1.
          6    1    1    2  501    0  0.16121860481E+03 -0.18163684536E+02 -0.11217048249E+03  0.26235962936E+03  0.17300000000E+03 0. -1.
         -6    1    1    2    0  502 -0.16121860481E+03  0.18163684536E+02 -0.10609757451E+03  0.25982119485E+03  0.17300000000E+03 0.  1.
<mgrwt>
<rscale>  2 0.23717158E+03</rscale>
<asrwt>0</asrwt>
<pdfrwt beam="1">  1       21 0.23377906E-01 0.23717158E+03</pdfrwt>
<pdfrwt beam="2">  1       21 0.56957605E-01 0.23717158E+03</pdfrwt>
<totfact> 0.48825014E+04</totfact>
</mgrwt>
</event>
<event>
 4    1  0.4056666E+000  0.3353532E+03  0.7546771E-02  0.1068792E+00
         21   -1    0    0  503  502  0.00000000000E+00  0.00000000000E+00  0.13017998258E+03  0.13017998258E+03  0.00000000000E+00 0. -1.
         21   -1    0    0  501  503 -0.00000000000E+00 -0.00000000000E+00 -0.21835784008E+04  0.21835784008E+04  0.00000000000E+00 0. -1.
          6    1    1    2  501    0  0.15029919977E+03  0.24483245383E+03 -0.19260695528E+04  0.19550462148E+04  0.17300000000E+03 0. -1.
         -6    1    1    2    0  502 -0.15029919977E+03 -0.24483245383E+03 -0.12732886543E+03  0.35871216856E+03  0.17300000000E+03 0. -1.
<mgrwt>
<rscale>  2 0.33535322E+03</rscale>
<asrwt>0</asrwt>
<pdfrwt beam="1">  1       21 0.20027690E-01 0.33535322E+03</pdfrwt>
<pdfrwt beam="2">  1       21 0.33593514E+00 0.33535322E+03</pdfrwt>
<totfact> 0.41427349E+02</totfact>
</mgrwt>
</event>
<event>
 4    1  0.4056666E+000  0.2200552E+03  0.7546771E-02  0.1133842E+00
         21   -1    0    0  501  502  0.00000000000E+00  0.00000000000E+00  0.63283951311E+03  0.63283951311E+03  0.00000000000E+00 0. -1.
         21   -1    0    0  502  503 -0.00000000000E+00 -0.00000000000E+00 -0.28206907078E+03  0.28206907078E+03  0.00000000000E+00 0. -1.
          6    1    1    2  501    0  0.18930491915E+02  0.13467343928E+03  0.56589211138E+03  0.60717228238E+03  0.17300000000E+03 0. -1.
         -6    1    1    2    0  503 -0.18930491915E+02 -0.13467343928E+03 -0.21512166905E+03  0.30773630151E+03  0.17300000000E+03 0. -1.
<mgrwt>
<rscale>  2 0.22005522E+03</rscale>
<asrwt>0</asrwt>
<pdfrwt beam="1">  1       21 0.97359925E-01 0.22005522E+03</pdfrwt>
<pdfrwt beam="2">  1       21 0.43395242E-01 0.22005522E+03</pdfrwt>
<totfact> 0.43697354E+03</totfact>
</mgrwt>
</event>
<event>
 4    1  0.4056666E+000  0.1929231E+03  0.7546771E-02  0.1155851E+00
         21   -1    0    0  503  502  0.00000000000E+00  0.00000000000E+00  0.18581944529E+03  0.18581944529E+03  0.00000000000E+00 0. -1.
         21   -1    0    0  501  503 -0.00000000000E+00 -0.00000000000E+00 -0.21791030132E+03  0.21791030132E+03  0.00000000000E+00 0. -1.
          6    1    1    2  501    0  0.84416724010E+02 -0.12811560596E+02 -0.73434103636E+02  0.20642646864E+03  0.17300000000E+03 0. -1.
         -6    1    1    2    0  502 -0.84416724010E+02  0.12811560596E+02  0.41343247602E+02  0.19730327798E+03  0.17300000000E+03 0. -1.
<mgrwt>
<rscale>  2 0.19292309E+03</rscale>
<asrwt>0</asrwt>
<pdfrwt beam="1">  1       21 0.28587607E-01 0.19292309E+03</pdfrwt>
<pdfrwt beam="2">  1       21 0.33524662E-01 0.19292309E+03</pdfrwt>
<totfact> 0.10029138E+05</totfact>
</mgrwt>
</event>
<event>
 4    1  0.4056666E+000  0.3011352E+03  0.7546771E-02  0.1084674E+00
         21   -1    0    0  503  502  0.00000000000E+00  0.00000000000E+00  0.21311874223E+03  0.21311874223E+03  0.00000000000E+00 0. -1.
         21   -1    0    0  501  503 -0.00000000000E+00 -0.00000000000E+00 -0.10212815866E+04  0.10212815866E+04  0.00000000000E+00 0. -1.
          6    1    1    2  501    0  0.13187931722E+03 -0.20823372365E+03 -0.87548851642E+03  0.92583075147E+03  0.17300000000E+03 0. -1.
         -6    1    1    2    0  502 -0.13187931722E+03  0.20823372365E+03  0.67325672020E+02  0.30856957739E+03  0.17300000000E+03 0. -1.
<mgrwt>
<rscale>  2 0.30113525E+03</rscale>
<asrwt>0</asrwt>
<pdfrwt beam="1">  1       21 0.32787498E-01 0.30113525E+03</pdfrwt>
<pdfrwt beam="2">  1       21 0.15712025E+00 0.30113525E+03</pdfrwt>
<totfact> 0.21771270E+03</totfact>
</mgrwt>
</event>
<event>
 4    1  0.4056666E+000  0.2093774E+03  0.7546771E-02  0.1142060E+00
         21   -1    0    0  503  502  0.00000000000E+00  0.00000000000E+00  0.96918926435E+02  0.96918926435E+02  0.00000000000E+00 0.  1.
         21   -1    0    0  501  503 -0.00000000000E+00 -0.00000000000E+00 -0.10890950089E+04  0.10890950089E+04  0.00000000000E+00 0.  1.
          6    1    1    2  501    0 -0.22552278397E+01  0.11791866119E+03 -0.94952619491E+03  0.97233682000E+03  0.17300000000E+03 0.  1.
         -6    1    1    2    0  502  0.22552278397E+01 -0.11791866119E+03 -0.42649887556E+02  0.21367711534E+03  0.17300000000E+03 0.  1.
<mgrwt>
<rscale>  2 0.20937740E+03</rscale>
<asrwt>0</asrwt>
<pdfrwt beam="1">  1       21 0.14910603E-01 0.20937740E+03</pdfrwt>
<pdfrwt beam="2">  1       21 0.16755309E+00 0.20937740E+03</pdfrwt>
<totfact> 0.86903795E+03</totfact>
</mgrwt>
</event>
<event>
 4    1  0.4056666E+000  0.1941448E+03  0.7546771E-02  0.1154775E+00
         21   -1    0    0  503  502  0.00000000000E+00  0.00000000000E+00  0.49032586041E+02  0.49032586041E+02  0.00000000000E+00 0. -1.
         21   -1    0    0  501  503 -0.00000000000E+00 -0.00000000000E+00 -0.84285230929E+03  0.84285230929E+03  0.00000000000E+00 0. -1.
          6    1    1    2  501    0 -0.31494925608E+02  0.82287646263E+02 -0.26465387234E+03  0.32822836442E+03  0.17300000000E+03 0. -1.
         -6    1    1    2    0  502  0.31494925608E+02 -0.82287646263E+02 -0.52916585091E+03  0.56365653091E+03  0.17300000000E+03 0. -1.
<mgrwt>
<rscale>  2 0.19414476E+03</rscale>
<asrwt>0</asrwt>
<pdfrwt beam="1">  1       21 0.75434753E-02 0.19414476E+03</pdfrwt>
<pdfrwt beam="2">  1       21 0.12966958E+00 0.19414476E+03</pdfrwt>
<totfact> 0.57774577E+04</totfact>
</mgrwt>
</event>
<event>
 4    1  0.4056666E+000  0.2266883E+03  0.7546771E-02  0.1128993E+00
         21   -1    0    0  501  502  0.00000000000E+00  0.00000000000E+00  0.31513585670E+02  0.31513585670E+02  0.00000000000E+00 0.  1.
         21   -1    0    0  502  503 -0.00000000000E+00 -0.00000000000E+00 -0.18699103224E+04  0.18699103224E+04  0.00000000000E+00 0. -1.
          6    1    1    2  501    0  0.14571792496E+03 -0.14995776634E+02 -0.57912305873E+03  0.62190924106E+03  0.17300000000E+03 0.  1.
         -6    1    1    2    0  503 -0.14571792496E+03  0.14995776634E+02 -0.12592736780E+04  0.12795146671E+04  0.17300000000E+03 0. -1.
<mgrwt>
<rscale>  2 0.22668830E+03</rscale>
<asrwt>0</asrwt>
<pdfrwt beam="1">  1       21 0.48482456E-02 0.22668830E+03</pdfrwt>
<pdfrwt beam="2">  1       21 0.28767842E+00 0.22668830E+03</pdfrwt>
<totfact> 0.11019700E+04</totfact>
</mgrwt>
</event>
<event>
 4    1  0.4056666E+000  0.1859021E+03  0.7546771E-02  0.1162210E+00
         21   -1    0    0  501  502  0.00000000000E+00  0.00000000000E+00  0.20752883981E+03  0.20752883981E+03  0.00000000000E+00 0. -1.
         21   -1    0    0  502  503 -0.00000000000E+00 -0.00000000000E+00 -0.16674011928E+03  0.16674011928E+03  0.00000000000E+00 0. -1.
          6    1    1    2  501    0  0.61280123884E+02  0.29586376409E+02  0.27050367884E+02  0.18785986707E+03  0.17300000000E+03 0. -1.
         -6    1    1    2    0  503 -0.61280123884E+02 -0.29586376409E+02  0.13738352646E+02  0.18640909201E+03  0.17300000000E+03 0. -1.
<mgrwt>
<rscale>  2 0.18590214E+03</rscale>
<asrwt>0</asrwt>
<pdfrwt beam="1">  1       21 0.31927514E-01 0.18590214E+03</pdfrwt>
<pdfrwt beam="2">  1       21 0.25652326E-01 0.18590214E+03</pdfrwt>
<totfact> 0.13633711E+05</totfact>
</mgrwt>
</event>
<event>
 4    1  0.4056666E+000  0.1849657E+03  0.7546771E-02  0.1163082E+00
         21   -1    0    0  503  502  0.00000000000E+00  0.00000000000E+00  0.13298935420E+04  0.13298935420E+04  0.00000000000E+00 0.  1.
         21   -1    0    0  501  503 -0.00000000000E+00 -0.00000000000E+00 -0.28260075638E+02  0.28260075638E+02  0.00000000000E+00 0.  1.
          6    1    1    2  501    0 -0.58954173342E+02 -0.28420336572E+02  0.44745171523E+03  0.48417491420E+03  0.17300000000E+03 0.  1.
         -6    1    1    2    0  502  0.58954173342E+02  0.28420336572E+02  0.85418175118E+03  0.87397870348E+03  0.17300000000E+03 0.  1.
<mgrwt>
<rscale>  2 0.18496570E+03</rscale>
<asrwt>0</asrwt>
<pdfrwt beam="1">  1       21 0.20459896E+00 0.18496570E+03</pdfrwt>
<pdfrwt beam="2">  1       21 0.43477050E-02 0.18496570E+03</pdfrwt>
<totfact> 0.42975529E+04</totfact>
</mgrwt>
</event>
<event>
 4    1  0.4056666E+000  0.2839889E+03  0.7546771E-02  0.1093530E+00
         21   -1    0    0  501  502  0.00000000000E+00  0.00000000000E+00  0.75611290117E+03  0.75611290117E+03  0.00000000000E+00 0.  1.
         21   -1    0    0  502  503 -0.00000000000E+00 -0.00000000000E+00 -0.21338700080E+03  0.21338700080E+03  0.00000000000E+00 0.  1.
          6    1    1    2  501    0 -0.52692437615E+02 -0.21896159044E+03  0.61418106678E+03  0.67665948147E+03  0.17300000000E+03 0.  1.
         -6    1    1    2    0  503  0.52692437615E+02  0.21896159044E+03 -0.71455166415E+02  0.29284042050E+03  0.17300000000E+03 0.  1.
<mgrwt>
<rscale>  2 0.28398886E+03</rscale>
<asrwt>0</asrwt>
<pdfrwt beam="1">  1       21 0.11632506E+00 0.28398886E+03</pdfrwt>
<pdfrwt beam="2">  1       21 0.32828770E-01 0.28398886E+03</pdfrwt>
<totfact> 0.47856144E+03</totfact>
</mgrwt>
</event>
<event>
 4    1  0.4056666E+000  0.1754232E+03  0.7546771E-02  0.1172307E+00
         21   -1    0    0  503  502  0.00000000000E+00  0.00000000000E+00  0.65004064094E+02  0.65004064094E+02  0.00000000000E+00 0.  1.
         21   -1    0    0  501  503 -0.00000000000E+00 -0.00000000000E+00 -0.13011149484E+04  0.13011149484E+04  0.00000000000E+00 0.  1.
          6    1    1    2  501    0 -0.10208113514E+01  0.29039103052E+02 -0.11628585063E+04  0.11760158236E+04  0.17300000000E+03 0.  1.
         -6    1    1    2    0  502  0.10208113514E+01 -0.29039103052E+02 -0.73252377998E+02  0.19010318894E+03  0.17300000000E+03 0.  1.
<mgrwt>
<rscale>  2 0.17542324E+03</rscale>
<asrwt>0</asrwt>
<pdfrwt beam="1">  1       21 0.10000625E-01 0.17542324E+03</pdfrwt>
<pdfrwt beam="2">  1       21 0.20017153E+00 0.17542324E+03</pdfrwt>
<totfact> 0.11028014E+04</totfact>
</mgrwt>
</event>
<event>
 4    1  0.4056666E+000  0.2224072E+03  0.7546771E-02  0.1132101E+00
         21   -1    0    0  503  502  0.00000000000E+00  0.00000000000E+00  0.29064000186E+03  0.29064000186E+03  0.00000000000E+00 0. -1.
         21   -1    0    0  501  503 -0.00000000000E+00 -0.00000000000E+00 -0.18047106872E+03  0.18047106872E+03  0.00000000000E+00 0.  1.
          6    1    1    2  501    0  0.13593712161E+03 -0.32512400123E+02  0.11129797248E+03  0.24870101703E+03  0.17300000000E+03 0. -1.
         -6    1    1    2    0  502 -0.13593712161E+03  0.32512400123E+02 -0.11290393412E+01  0.22241005356E+03  0.17300000000E+03 0.  1.
<mgrwt>
<rscale>  2 0.22240719E+03</rscale>
<asrwt>0</asrwt>
<pdfrwt beam="1">  1       21 0.44713846E-01 0.22240719E+03</pdfrwt>
<pdfrwt beam="2">  1       21 0.27764780E-01 0.22240719E+03</pdfrwt>
<totfact> 0.58660779E+04</totfact>
</mgrwt>
</event>
<event>
 4    1  0.4056666E+000  0.3391655E+03  0.7546771E-02  0.1067152E+00
         21   -1    0    0  503  502  0.00000000000E+00  0.00000000000E+00  0.30005911531E+03  0.30005911531E+03  0.00000000000E+00 0. -1.
         21   -1    0    0  501  503 -0.00000000000E+00 -0.00000000000E+00 -0.47623246777E+03  0.47623246777E+03  0.00000000000E+00 0.  1.
          6    1    1    2  501    0  0.29162365279E+03 -0.77364686173E+01 -0.25948597436E+03  0.42704353257E+03  0.17300000000E+03 0.  1.
         -6    1    1    2    0  502 -0.29162365279E+03  0.77364686173E+01  0.83312621908E+02  0.34924805051E+03  0.17300000000E+03 0.  1.
<mgrwt>
<rscale>  2 0.33916546E+03</rscale>
<asrwt>0</asrwt>
<pdfrwt beam="1">  1       21 0.46162941E-01 0.33916546E+03</pdfrwt>
<pdfrwt beam="2">  1       21 0.73266533E-01 0.33916546E+03</pdfrwt>
<totfact> 0.69381516E+03</totfact>
</mgrwt>
</event>
<event>
 4    1  0.4056666E+000  0.2100825E+03  0.7546771E-02  0.1141501E+00
         21   -1    0    0  503  502  0.00000000000E+00  0.00000000000E+00  0.21660138613E+03  0.21660138613E+03  0.00000000000E+00 0.  1.
         21   -1    0    0  501  503 -0.00000000000E+00 -0.00000000000E+00 -0.25202795709E+03  0.25202795709E+03  0.00000000000E+00 0.  1.
          6    1    1    2  501    0  0.32608582071E+02  0.11464004253E+03  0.84829568801E+02  0.22656282731E+03  0.17300000000E+03 0.  1.
         -6    1    1    2    0  502 -0.32608582071E+02 -0.11464004253E+03 -0.12025613976E+03  0.24206651591E+03  0.17300000000E+03 0.  1.
<mgrwt>
<rscale>  2 0.21008251E+03</rscale>
<asrwt>0</asrwt>
<pdfrwt beam="1">  1       21 0.33323290E-01 0.21008251E+03</pdfrwt>
<pdfrwt beam="2">  1       21 0.38773532E-01 0.21008251E+03</pdfrwt>
<totfact> 0.55167251E+04</totfact>
</mgrwt>
</event>
<event>
 4    1  0.4056666E+000  0.1742012E+03  0.7546771E-02  0.1173536E+00
         21   -1    0    0  501  502  0.00000000000E+00  0.00000000000E+00  0.79899396331E+03  0.79899396331E+03  0.00000000000E+00 0. -1.
         21   -1    0    0  502  503 -0.00000000000E+00 -0.00000000000E+00 -0.65398266922E+02  0.65398266922E+02  0.00000000000E+00 0. -1.
          6    1    1    2  501    0  0.20422269880E+02 -0.34952482690E-01  0.64664118305E+03  0.66969462439E+03  0.17300000000E+03 0. -1.
         -6    1    1    2    0  503 -0.20422269880E+02  0.34952482690E-01  0.86954513341E+02  0.19469760584E+03  0.17300000000E+03 0. -1.
<mgrwt>
<rscale>  2 0.17420124E+03</rscale>
<asrwt>0</asrwt>
<pdfrwt beam="1">  1       21 0.12292214E+00 0.17420124E+03</pdfrwt>
<pdfrwt beam="2">  1       21 0.10061272E-01 0.17420124E+03</pdfrwt>
<totfact> 0.40343180E+04</totfact>
</mgrwt>
</event>
<event>
 4    1  0.4056666E+000  0.1850388E+03  0.7546771E-02  0.1163014E+00
         21   -1    0    0  501  502  0.00000000000E+00  0.00000000000E+00  0.17643515348E+04  0.17643515348E+04  0.00000000000E+00 0. -1.
         21   -1    0    0  502  503 -0.00000000000E+00 -0.00000000000E+00 -0.19459982529E+02  0.19459982529E+02  0.00000000000E+00 0. -1.
          6    1    1    2  501    0  0.55610987153E+02 -0.34896755258E+02  0.91933284713E+03  0.93776982743E+03  0.17300000000E+03 0. -1.
         -6    1    1    2    0  503 -0.55610987153E+02  0.34896755258E+02  0.82555870513E+03  0.84604168989E+03  0.17300000000E+03 0. -1.
<mgrwt>
<rscale>  2 0.18503882E+03</rscale>
<asrwt>0</asrwt>
<pdfrwt beam="1">  1       21 0.27143857E+00 0.18503882E+03</pdfrwt>
<pdfrwt beam="2">  1       21 0.29938448E-02 0.18503882E+03</pdfrwt>
<totfact> 0.31876097E+04</totfact>
</mgrwt>
</event>
<event>
 4    1  0.4056666E+000  0.1861847E+03  0.7546771E-02  0.1161948E+00
         21   -1    0    0  503  502  0.00000000000E+00  0.00000000000E+00  0.11180432203E+03  0.11180432203E+03  0.00000000000E+00 0.  1.
         21   -1    0    0  501  503 -0.00000000000E+00 -0.00000000000E+00 -0.57268747730E+03  0.57268747730E+03  0.00000000000E+00 0.  1.
          6    1    1    2  501    0 -0.68745871115E+02 -0.31198608114E+01 -0.46221266121E+03  0.49830239063E+03  0.17300000000E+03 0.  1.
         -6    1    1    2    0  502  0.68745871115E+02  0.31198608114E+01  0.13295059432E+01  0.18618940870E+03  0.17300000000E+03 0.  1.
<mgrwt>
<rscale>  2 0.18618466E+03</rscale>
<asrwt>0</asrwt>
<pdfrwt beam="1">  1       21 0.17200664E-01 0.18618466E+03</pdfrwt>
<pdfrwt beam="2">  1       21 0.88105768E-01 0.18618466E+03</pdfrwt>
<totfact> 0.33806918E+04</totfact>
</mgrwt>
</event>
<event>
 4    1  0.4056666E+000  0.1756952E+03  0.7546771E-02  0.1172036E+00
         21   -1    0    0  501  502  0.00000000000E+00  0.00000000000E+00  0.11769270256E+03  0.11769270256E+03  0.00000000000E+00 0. -1.
         21   -1    0    0  502  503 -0.00000000000E+00 -0.00000000000E+00 -0.28723280503E+03  0.28723280503E+03  0.00000000000E+00 0. -1.
          6    1    1    2  501    0 -0.12889611522E+02  0.27814659467E+02 -0.25099296531E+02  0.17747893411E+03  0.17300000000E+03 0. -1.
         -6    1    1    2    0  503  0.12889611522E+02 -0.27814659467E+02 -0.14444080594E+03  0.22744657348E+03  0.17300000000E+03 0. -1.
<mgrwt>
<rscale>  2 0.17569518E+03</rscale>
<asrwt>0</asrwt>
<pdfrwt beam="1">  1       21 0.18106570E-01 0.17569518E+03</pdfrwt>
<pdfrwt beam="2">  1       21 0.44189662E-01 0.17569518E+03</pdfrwt>
<totfact> 0.13737818E+05</totfact>
</mgrwt>
</event>
<event>
 4    1  0.4056666E+000  0.1793520E+03  0.7546771E-02  0.1168432E+00
         21   -1    0    0  503  502  0.00000000000E+00  0.00000000000E+00  0.70340365864E+02  0.70340365864E+02  0.00000000000E+00 0.  1.
         21   -1    0    0  501  503 -0.00000000000E+00 -0.00000000000E+00 -0.11765579412E+04  0.11765579412E+04  0.00000000000E+00 0.  1.
          6    1    1    2  501    0  0.38085425484E+02  0.28064900269E+02 -0.10405638826E+04  0.10559073501E+04  0.17300000000E+03 0.  1.
         -6    1    1    2    0  502 -0.38085425484E+02 -0.28064900269E+02 -0.65653692722E+02  0.19099095693E+03  0.17300000000E+03 0.  1.
<mgrwt>
<rscale>  2 0.17935200E+03</rscale>
<asrwt>0</asrwt>
<pdfrwt beam="1">  1       21 0.10821596E-01 0.17935200E+03</pdfrwt>
<pdfrwt beam="2">  1       21 0.18100889E+00 0.17935200E+03</pdfrwt>
<totfact> 0.12770651E+04</totfact>
</mgrwt>
</event>
<event>
 4    1  0.4056666E+000  0.1827584E+03  0.7546771E-02  0.1165160E+00
         21   -1    0    0  501  502  0.00000000000E+00  0.00000000000E+00  0.64773157673E+03  0.64773157673E+03  0.00000000000E+00 0.  1.
         21   -1    0    0  502  503 -0.00000000000E+00 -0.00000000000E+00 -0.52211098089E+02  0.52211098089E+02  0.00000000000E+00 0.  1.
          6    1    1    2  501    0 -0.21004467774E+02  0.55049579839E+02  0.25884580324E+03  0.31686242088E+03  0.17300000000E+03 0.  1.
         -6    1    1    2    0  503  0.21004467774E+02 -0.55049579839E+02  0.33667467540E+03  0.38308025395E+03  0.17300000000E+03 0.  1.
<mgrwt>
<rscale>  2 0.18275843E+03</rscale>
<asrwt>0</asrwt>
<pdfrwt beam="1">  1       21 0.99651006E-01 0.18275843E+03</pdfrwt>
<pdfrwt beam="2">  1       21 0.80324771E-02 0.18275843E+03</pdfrwt>
<totfact> 0.99040338E+04</totfact>
</mgrwt>
</event>
<event>
 4    1  0.4056666E+000  0.1940116E+03  0.7546771E-02  0.1154892E+00
         21   -1    0    0  501  502  0.00000000000E+00  0.00000000000E+00  0.45460984578E+02  0.45460984578E+02  0.00000000000E+00 0. -1.
         21   -1    0    0  502  503 -0.00000000000E+00 -0.00000000000E+00 -0.89647716951E+03  0.89647716951E+03  0.00000000000E+00 0. -1.
          6    1    1    2  501    0  0.46777723844E+02  0.74319203867E+02 -0.29531766087E+03  0.35334546882E+03  0.17300000000E+03 0. -1.
         -6    1    1    2    0  503 -0.46777723844E+02 -0.74319203867E+02 -0.55569852406E+03  0.58859268527E+03  0.17300000000E+03 0. -1.
<mgrwt>
<rscale>  2 0.19401160E+03</rscale>
<asrwt>0</asrwt>
<pdfrwt beam="1">  1       21 0.69939974E-02 0.19401160E+03</pdfrwt>
<pdfrwt beam="2">  1       21 0.13791957E+00 0.19401160E+03</pdfrwt>
<totfact> 0.56303237E+04</totfact>
</mgrwt>
</event>
<event>
 4    1  0.4056666E+000  0.1741368E+03  0.7546771E-02  0.1173601E+00
         21   -1    0    0  503  502  0.00000000000E+00  0.00000000000E+00  0.54676646196E+02  0.54676646196E+02  0.00000000000E+00 0.  1.
         21   -1    0    0  501  503 -0.00000000000E+00 -0.00000000000E+00 -0.13622002642E+04  0.13622002642E+04  0.00000000000E+00 0.  1.
          6    1    1    2  501    0 -0.17495057517E+02 -0.94101286903E+01 -0.11992433669E+04  0.12118202345E+04  0.17300000000E+03 0.  1.
         -6    1    1    2    0  502  0.17495057517E+02  0.94101286903E+01 -0.10828025104E+03  0.20505667588E+03  0.17300000000E+03 0.  1.
<mgrwt>
<rscale>  2 0.17413681E+03</rscale>
<asrwt>0</asrwt>
<pdfrwt beam="1">  1       21 0.84117917E-02 0.17413681E+03</pdfrwt>
<pdfrwt beam="2">  1       21 0.20956927E+00 0.17413681E+03</pdfrwt>
<totfact> 0.13043559E+04</totfact>
</mgrwt>
</event>
<event>
 4    1  0.4056666E+000  0.2169619E+03  0.7546771E-02  0.1136169E+00
         21   -1    0    0  501  502  0.00000000000E+00  0.00000000000E+00  0.16198542089E+03  0.16198542089E+03  0.00000000000E+00 0. -1.
         21   -1    0    0  502  503 -0.00000000000E+00 -0.00000000000E+00 -0.29064788028E+03  0.29064788028E+03  0.00000000000E+00 0. -1.
          6    1    1    2  501    0 -0.10224237293E+03 -0.81792316144E+02 -0.61338379672E+02  0.22546592342E+03  0.17300000000E+03 0. -1.
         -6    1    1    2    0  503  0.10224237293E+03  0.81792316144E+02 -0.67324079714E+02  0.22716737775E+03  0.17300000000E+03 0. -1.
<mgrwt>
<rscale>  2 0.21696195E+03</rscale>
<asrwt>0</asrwt>
<pdfrwt beam="1">  1       21 0.24920834E-01 0.21696195E+03</pdfrwt>
<pdfrwt beam="2">  1       21 0.44715058E-01 0.21696195E+03</pdfrwt>
<totfact> 0.72392493E+04</totfact>
</mgrwt>
</event>
<event>
 4    1  0.4056666E+000  0.2407886E+03  0.7546771E-02  0.1119269E+00
         21   -1    0    0  501  502  0.00000000000E+00  0.00000000000E+00  0.64131150687E+03  0.64131150687E+03  0.00000000000E+00 0. -1.
         21   -1    0    0  502  503 -0.00000000000E+00 -0.00000000000E+00 -0.17566449433E+03  0.17566449433E+03  0.00000000000E+00 0.  1.
          6    1    1    2  501    0  0.68012901316E+02  0.15305024725E+03  0.51740277520E+03  0.57068797491E+03  0.17300000000E+03 0. -1.
         -6    1    1    2    0  503 -0.68012901316E+02 -0.15305024725E+03 -0.51755762650E+02  0.24628802629E+03  0.17300000000E+03 0.  1.
<mgrwt>
<rscale>  2 0.24078856E+03</rscale>
<asrwt>0</asrwt>
<pdfrwt beam="1">  1       21 0.98663308E-01 0.24078856E+03</pdfrwt>
<pdfrwt beam="2">  1       21 0.27025307E-01 0.24078856E+03</pdfrwt>
<totfact> 0.10719431E+04</totfact>
</mgrwt>
</event>
<event>
 4    1  0.4056666E+000  0.3794646E+03  0.7546771E-02  0.1051132E+00
         21   -1    0    0  501  502  0.00000000000E+00  0.00000000000E+00  0.43312737037E+03  0.43312737037E+03  0.00000000000E+00 0. -1.
         21   -1    0    0  502  503 -0.00000000000E+00 -0.00000000000E+00 -0.46028738923E+03  0.46028738923E+03  0.00000000000E+00 0.  1.
          6    1    1    2  501    0  0.20561826001E+03  0.26792817506E+03  0.22183644974E+03  0.43955066406E+03  0.17300000000E+03 0. -1.
         -6    1    1    2    0  503 -0.20561826001E+03 -0.26792817506E+03 -0.24899646860E+03  0.45386409554E+03  0.17300000000E+03 0.  1.
<mgrwt>
<rscale>  2 0.37946459E+03</rscale>
<asrwt>0</asrwt>
<pdfrwt beam="1">  1       21 0.66634980E-01 0.37946459E+03</pdfrwt>
<pdfrwt beam="2">  1       21 0.70813445E-01 0.37946459E+03</pdfrwt>
<totfact> 0.33420170E+03</totfact>
</mgrwt>
</event>
<event>
 4    1  0.4056666E+000  0.2619568E+03  0.7546771E-02  0.1105973E+00
         21   -1    0    0  503  502  0.00000000000E+00  0.00000000000E+00  0.15416293730E+03  0.15416293730E+03  0.00000000000E+00 0. -1.
         21   -1    0    0  501  503 -0.00000000000E+00 -0.00000000000E+00 -0.44826404254E+03  0.44826404254E+03  0.00000000000E+00 0. -1.
          6    1    1    2  501    0  0.16828894058E+03 -0.10183900555E+03 -0.12183331344E+03  0.28890259057E+03  0.17300000000E+03 0. -1.
         -6    1    1    2    0  502 -0.16828894058E+03  0.10183900555E+03 -0.17226779180E+03  0.31352438927E+03  0.17300000000E+03 0. -1.
<mgrwt>
<rscale>  2 0.26195677E+03</rscale>
<asrwt>0</asrwt>
<pdfrwt beam="1">  1       21 0.23717375E-01 0.26195677E+03</pdfrwt>
<pdfrwt beam="2">  1       21 0.68963697E-01 0.26195677E+03</pdfrwt>
<totfact> 0.30993347E+04</totfact>
</mgrwt>
</event>
<event>
 4    1  0.4056666E+000  0.1870419E+03  0.7546771E-02  0.1161157E+00
         21   -1    0    0  501  502  0.00000000000E+00  0.00000000000E+00  0.10943586094E+03  0.10943586094E+03  0.00000000000E+00 0.  1.
         21   -1    0    0  502  503 -0.00000000000E+00 -0.00000000000E+00 -0.37374718053E+03  0.37374718053E+03  0.00000000000E+00 0. -1.
          6    1    1    2  501    0  0.17314792255E+02  0.68962806698E+02 -0.40269160439E+02  0.19132766664E+03  0.17300000000E+03 0.  1.
         -6    1    1    2    0  503 -0.17314792255E+02 -0.68962806698E+02 -0.22404215915E+03  0.29185537483E+03  0.17300000000E+03 0. -1.
<mgrwt>
<rscale>  2 0.18704190E+03</rscale>
<asrwt>0</asrwt>
<pdfrwt beam="1">  1       21 0.16836286E-01 0.18704190E+03</pdfrwt>
<pdfrwt beam="2">  1       21 0.57499566E-01 0.18704190E+03</pdfrwt>
<totfact> 0.90335724E+04</totfact>
</mgrwt>
</event>
<event>
 4    1  0.4056666E+000  0.2582479E+03  0.7546771E-02  0.1108201E+00
         21   -1    0    0  503  502  0.00000000000E+00  0.00000000000E+00  0.31332556715E+03  0.31332556715E+03  0.00000000000E+00 0.  1.
         21   -1    0    0  501  503 -0.00000000000E+00 -0.00000000000E+00 -0.40193668931E+03  0.40193668931E+03  0.00000000000E+00 0. -1.
          6    1    1    2  501    0  0.22255622375E+02 -0.19044069833E+03 -0.28959828967E+03  0.38801951199E+03  0.17300000000E+03 0. -1.
         -6    1    1    2    0  502 -0.22255622375E+02  0.19044069833E+03  0.20098716751E+03  0.32724274447E+03  0.17300000000E+03 0.  1.
<mgrwt>
<rscale>  2 0.25824789E+03</rscale>
<asrwt>0</asrwt>
<pdfrwt beam="1">  1       21 0.48203933E-01 0.25824789E+03</pdfrwt>
<pdfrwt beam="2">  1       21 0.61836414E-01 0.25824789E+03</pdfrwt>
<totfact> 0.95887992E+03</totfact>
</mgrwt>
</event>
<event>
 4    1  0.4056666E+000  0.2161378E+03  0.7546771E-02  0.1136796E+00
         21   -1    0    0  503  502  0.00000000000E+00  0.00000000000E+00  0.19986204460E+03  0.19986204460E+03  0.00000000000E+00 0.  1.
         21   -1    0    0  501  503 -0.00000000000E+00 -0.00000000000E+00 -0.37485239488E+03  0.37485239488E+03  0.00000000000E+00 0.  1.
          6    1    1    2  501    0 -0.12952106805E+03 -0.32941838473E+01 -0.26380481380E+03  0.34104037664E+03  0.17300000000E+03 0.  1.
         -6    1    1    2    0  502  0.12952106805E+03  0.32941838473E+01  0.88814463516E+02  0.23367406285E+03  0.17300000000E+03 0.  1.
<mgrwt>
<rscale>  2 0.21613782E+03</rscale>
<asrwt>0</asrwt>
<pdfrwt beam="1">  1       21 0.30748007E-01 0.21613782E+03</pdfrwt>
<pdfrwt beam="2">  1       21 0.57669599E-01 0.21613782E+03</pdfrwt>
<totfact> 0.28279530E+04</totfact>
</mgrwt>
</event>
<event>
 4    1  0.4056666E+000  0.1744109E+03  0.7546771E-02  0.1173324E+00
         21   -1    0    0  503  502  0.00000000000E+00  0.00000000000E+00  0.14475424828E+03  0.14475424828E+03  0.00000000000E+00 0. -1.
         21   -1    0    0  501  503 -0.00000000000E+00 -0.00000000000E+00 -0.31899212500E+03  0.31899212500E+03  0.00000000000E+00 0. -1.
          6    1    1    2  501    0 -0.20810591704E+02  0.75562283238E+01 -0.22256670393E+03  0.28276335515E+03  0.17300000000E+03 0. -1.
         -6    1    1    2    0  502  0.20810591704E+02 -0.75562283238E+01  0.48328827219E+02  0.18098301814E+03  0.17300000000E+03 0. -1.
<mgrwt>
<rscale>  2 0.17441094E+03</rscale>
<asrwt>0</asrwt>
<pdfrwt beam="1">  1       21 0.22269884E-01 0.17441094E+03</pdfrwt>
<pdfrwt beam="2">  1       21 0.49075711E-01 0.17441094E+03</pdfrwt>
<totfact> 0.75305048E+04</totfact>
</mgrwt>
</event>
<event>
 4    1  0.4056666E+000  0.1997253E+03  0.7546771E-02  0.1149971E+00
         21   -1    0    0  503  502  0.00000000000E+00  0.00000000000E+00  0.10516835643E+03  0.10516835643E+03  0.00000000000E+00 0.  1.
         21   -1    0    0  501  503 -0.00000000000E+00 -0.00000000000E+00 -0.37963140119E+03  0.37963140119E+03  0.00000000000E+00 0.  1.
          6    1    1    2  501    0 -0.76692539743E+02  0.63870569766E+02 -0.13005296866E+03  0.23833583447E+03  0.17300000000E+03 0. -1.
         -6    1    1    2    0  502  0.76692539743E+02 -0.63870569766E+02 -0.14441007610E+03  0.24646392315E+03  0.17300000000E+03 0. -1.
<mgrwt>
<rscale>  2 0.19972530E+03</rscale>
<asrwt>0</asrwt>
<pdfrwt beam="1">  1       21 0.16179747E-01 0.19972530E+03</pdfrwt>
<pdfrwt beam="2">  1       21 0.58404830E-01 0.19972530E+03</pdfrwt>
<totfact> 0.93506257E+04</totfact>
</mgrwt>
</event>
<event>
 4    1  0.4056666E+000  0.1861687E+03  0.7546771E-02  0.1161963E+00
         21   -1    0    0  501  502  0.00000000000E+00  0.00000000000E+00  0.11710245077E+02  0.11710245077E+02  0.00000000000E+00 0.  1.
         21   -1    0    0  502  503 -0.00000000000E+00 -0.00000000000E+00 -0.31695185857E+04  0.31695185857E+04  0.00000000000E+00 0. -1.
          6    1    1    2  501    0  0.40472389052E+02 -0.55603709510E+02 -0.11696505783E+04  0.11843737848E+04  0.17300000000E+03 0.  1.
         -6    1    1    2    0  503 -0.40472389052E+02  0.55603709510E+02 -0.19881577623E+04  0.19968550459E+04  0.17300000000E+03 0. -1.
<mgrwt>
<rscale>  2 0.18616871E+03</rscale>
<asrwt>0</asrwt>
<pdfrwt beam="1">  1       21 0.18015738E-02 0.18616871E+03</pdfrwt>
<pdfrwt beam="2">  1       21 0.48761890E+00 0.18616871E+03</pdfrwt>
<totfact> 0.34045501E+03</totfact>
</mgrwt>
</event>
<event>
 4    1  0.4056666E+000  0.1956517E+03  0.7546771E-02  0.1153460E+00
         21   -1    0    0  501  502  0.00000000000E+00  0.00000000000E+00  0.51224242054E+03  0.51224242054E+03  0.00000000000E+00 0. -1.
         21   -1    0    0  502  503 -0.00000000000E+00 -0.00000000000E+00 -0.75531911766E+02  0.75531911766E+02  0.00000000000E+00 0.  1.
          6    1    1    2  501    0  0.91114899584E+02 -0.69754458178E+01  0.24864769077E+03  0.31639414643E+03  0.17300000000E+03 0.  1.
         -6    1    1    2    0  503 -0.91114899584E+02  0.69754458178E+01  0.18806281801E+03  0.27138018588E+03  0.17300000000E+03 0. -1.
<mgrwt>
<rscale>  2 0.19565168E+03</rscale>
<asrwt>0</asrwt>
<pdfrwt beam="1">  1       21 0.78806524E-01 0.19565168E+03</pdfrwt>
<pdfrwt beam="2">  1       21 0.11620294E-01 0.19565168E+03</pdfrwt>
<totfact> 0.88319805E+04</totfact>
</mgrwt>
</event>
<event>
 4    1  0.4056666E+000  0.2027217E+03  0.7546771E-02  0.1147463E+00
         21   -1    0    0  503  502  0.00000000000E+00  0.00000000000E+00  0.13857038110E+03  0.13857038110E+03  0.00000000000E+00 0.  1.
         21   -1    0    0  501  503 -0.00000000000E+00 -0.00000000000E+00 -0.44348426985E+03  0.44348426985E+03  0.00000000000E+00 0.  1.
          6    1    1    2  501    0  0.30918541881E+01 -0.10562925508E+03 -0.31996035312E+03  0.37877529838E+03  0.17300000000E+03 0.  1.
         -6    1    1    2    0  502 -0.30918541881E+01  0.10562925508E+03  0.15046464374E+02  0.20327935257E+03  0.17300000000E+03 0.  1.
<mgrwt>
<rscale>  2 0.20272173E+03</rscale>
<asrwt>0</asrwt>
<pdfrwt beam="1">  1       21 0.21318520E-01 0.20272173E+03</pdfrwt>
<pdfrwt beam="2">  1       21 0.68228349E-01 0.20272173E+03</pdfrwt>
<totfact> 0.39940399E+04</totfact>
</mgrwt>
</event>
<event>
 4    1  0.4056666E+000  0.2224699E+03  0.7546771E-02  0.1132055E+00
         21   -1    0    0  501  502  0.00000000000E+00  0.00000000000E+00  0.62725333807E+03  0.62725333807E+03  0.00000000000E+00 0.  1.
         21   -1    0    0  502  503 -0.00000000000E+00 -0.00000000000E+00 -0.79191847355E+02  0.79191847355E+02  0.00000000000E+00 0.  1.
          6    1    1    2  501    0 -0.99778546509E+02  0.98020981108E+02  0.25273951736E+03  0.33670481837E+03  0.17300000000E+03 0.  1.
         -6    1    1    2    0  503  0.99778546509E+02 -0.98020981108E+02  0.29532197335E+03  0.36974036705E+03  0.17300000000E+03 0.  1.
<mgrwt>
<rscale>  2 0.22246993E+03</rscale>
<asrwt>0</asrwt>
<pdfrwt beam="1">  1       21 0.96500510E-01 0.22246993E+03</pdfrwt>
<pdfrwt beam="2">  1       21 0.12183362E-01 0.22246993E+03</pdfrwt>
<totfact> 0.50251143E+04</totfact>
</mgrwt>
</event>
<event>
 4    1  0.4056666E+000  0.1784171E+03  0.7546771E-02  0.1169344E+00
         21   -1    0    0  503  502  0.00000000000E+00  0.00000000000E+00  0.75497878195E+02  0.75497878195E+02  0.00000000000E+00 0.  1.
         21   -1    0    0  501  503 -0.00000000000E+00 -0.00000000000E+00 -0.54605525500E+03  0.54605525500E+03  0.00000000000E+00 0.  1.
          6    1    1    2  501    0 -0.41753907559E+02 -0.12659597340E+02 -0.38362373675E+03  0.42308370992E+03  0.17300000000E+03 0.  1.
         -6    1    1    2    0  502  0.41753907559E+02  0.12659597340E+02 -0.86933640050E+02  0.19846942327E+03  0.17300000000E+03 0.  1.
<mgrwt>
<rscale>  2 0.17841708E+03</rscale>
<asrwt>0</asrwt>
<pdfrwt beam="1">  1       21 0.11615058E-01 0.17841708E+03</pdfrwt>
<pdfrwt beam="2">  1       21 0.84008501E-01 0.17841708E+03</pdfrwt>
<totfact> 0.77031853E+04</totfact>
</mgrwt>
</event>
<event>
 4    1  0.4056666E+000  0.2351496E+03  0.7546771E-02  0.1123067E+00
         21   -1    0    0  501  502  0.00000000000E+00  0.00000000000E+00  0.45092708423E+03  0.45092708423E+03  0.00000000000E+00 0. -1.
         21   -1    0    0  502  503 -0.00000000000E+00 -0.00000000000E+00 -0.19282933922E+03  0.19282933922E+03  0.00000000000E+00 0. -1.
          6    1    1    2  501    0 -0.13227864282E+03  0.88705758917E+02  0.32326448502E+03  0.39974401595E+03  0.17300000000E+03 0. -1.
         -6    1    1    2    0  503  0.13227864282E+03 -0.88705758917E+02 -0.65166740006E+02  0.24401240750E+03  0.17300000000E+03 0. -1.
<mgrwt>
<rscale>  2 0.23514964E+03</rscale>
<asrwt>0</asrwt>
<pdfrwt beam="1">  1       21 0.69373397E-01 0.23514964E+03</pdfrwt>
<pdfrwt beam="2">  1       21 0.29666052E-01 0.23514964E+03</pdfrwt>
<totfact> 0.20093842E+04</totfact>
</mgrwt>
</event>
<event>
 4    1  0.4056666E+000  0.1973789E+03  0.7546771E-02  0.1151969E+00
         21   -1    0    0  501  502  0.00000000000E+00  0.00000000000E+00  0.42234771324E+03  0.42234771324E+03  0.00000000000E+00 0.  1.
         21   -1    0    0  502  503 -0.00000000000E+00 -0.00000000000E+00 -0.16197264939E+03  0.16197264939E+03  0.00000000000E+00 0.  1.
          6    1    1    2  501    0 -0.40591842181E+02  0.85916987852E+02  0.32188234027E+03  0.37758001460E+03  0.17300000000E+03 0.  1.
         -6    1    1    2    0  503  0.40591842181E+02 -0.85916987852E+02 -0.61507276417E+02  0.20674034803E+03  0.17300000000E+03 0.  1.
<mgrwt>
<rscale>  2 0.19737889E+03</rscale>
<asrwt>0</asrwt>
<pdfrwt beam="1">  1       21 0.64976571E-01 0.19737889E+03</pdfrwt>
<pdfrwt beam="2">  1       21 0.24918869E-01 0.19737889E+03</pdfrwt>
<totfact> 0.33159039E+04</totfact>
</mgrwt>
</event>
<event>
 4    1  0.4056666E+000  0.1883113E+03  0.7546771E-02  0.1159993E+00
         21   -1    0    0  503  502  0.00000000000E+00  0.00000000000E+00  0.19273712304E+04  0.19273712304E+04  0.00000000000E+00 0.  1.
         21   -1    0    0  501  503 -0.00000000000E+00 -0.00000000000E+00 -0.19825332297E+02  0.19825332297E+02  0.00000000000E+00 0.  1.
          6    1    1    2  501    0 -0.69026644659E+02  0.27703161788E+02  0.12149434860E+04  0.12294506159E+04  0.17300000000E+03 0.  1.
         -6    1    1    2    0  502  0.69026644659E+02 -0.27703161788E+02  0.69260241212E+03  0.71774594678E+03  0.17300000000E+03 0.  1.
<mgrwt>
<rscale>  2 0.18831129E+03</rscale>
<asrwt>0</asrwt>
<pdfrwt beam="1">  1       21 0.29651850E+00 0.18831129E+03</pdfrwt>
<pdfrwt beam="2">  1       21 0.30500526E-02 0.18831129E+03</pdfrwt>
<totfact> 0.22102257E+04</totfact>
</mgrwt>
</event>
<event>
 4    1  0.4056666E+000  0.2376478E+03  0.7546771E-02  0.1121370E+00
         21   -1    0    0  503  502  0.00000000000E+00  0.00000000000E+00  0.66434649657E+02  0.66434649657E+02  0.00000000000E+00 0.  1.
         21   -1    0    0  501  503 -0.00000000000E+00 -0.00000000000E+00 -0.15688470647E+04  0.15688470647E+04  0.00000000000E+00 0.  1.
          6    1    1    2  501    0  0.53822081286E+02 -0.15378778596E+03 -0.13046308402E+04  0.13260988383E+04  0.17300000000E+03 0.  1.
         -6    1    1    2    0  502 -0.53822081286E+02  0.15378778596E+03 -0.19778157484E+03  0.30918287613E+03  0.17300000000E+03 0.  1.
<mgrwt>
<rscale>  2 0.23764785E+03</rscale>
<asrwt>0</asrwt>
<pdfrwt beam="1">  1       21 0.10220716E-01 0.23764785E+03</pdfrwt>
<pdfrwt beam="2">  1       21 0.24136108E+00 0.23764785E+03</pdfrwt>
<totfact> 0.56015207E+03</totfact>
</mgrwt>
</event>
<event>
 4    1  0.4056666E+000  0.2014733E+03  0.7546771E-02  0.1148502E+00
         21   -1    0    0  503  502  0.00000000000E+00  0.00000000000E+00  0.18720669351E+04  0.18720669351E+04  0.00000000000E+00 0. -1.
         21   -1    0    0  501  503 -0.00000000000E+00 -0.00000000000E+00 -0.54564082456E+02  0.54564082456E+02  0.00000000000E+00 0. -1.
          6    1    1    2  501    0  0.99842947011E+02 -0.26341201324E+02  0.16094338177E+03  0.25786478063E+03  0.17300000000E+03 0. -1.
         -6    1    1    2    0  502 -0.99842947011E+02  0.26341201324E+02  0.16565594709E+04  0.16687662369E+04  0.17300000000E+03 0. -1.
<mgrwt>
<rscale>  2 0.20147326E+03</rscale>
<asrwt>0</asrwt>
<pdfrwt beam="1">  1       21 0.28801025E+00 0.20147326E+03</pdfrwt>
<pdfrwt beam="2">  1       21 0.83944757E-02 0.20147326E+03</pdfrwt>
<totfact> 0.43717466E+03</totfact>
</mgrwt>
</event>
<event>
 4    1  0.4056666E+000  0.2357521E+03  0.7546771E-02  0.1122655E+00
         21   -1    0    0  501  502  0.00000000000E+00  0.00000000000E+00  0.78296455199E+03  0.78296455199E+03  0.00000000000E+00 0. -1.
         21   -1    0    0  502  503 -0.00000000000E+00 -0.00000000000E+00 -0.13499534236E+03  0.13499534236E+03  0.00000000000E+00 0.  1.
          6    1    1    2  501    0 -0.75374380278E+02 -0.14131077909E+03  0.64003629500E+03  0.68207440386E+03  0.17300000000E+03 0. -1.
         -6    1    1    2    0  503  0.75374380278E+02  0.14131077909E+03  0.79329146292E+01  0.23588549049E+03  0.17300000000E+03 0.  1.
<mgrwt>
<rscale>  2 0.23575206E+03</rscale>
<asrwt>0</asrwt>
<pdfrwt beam="1">  1       21 0.12045608E+00 0.23575206E+03</pdfrwt>
<pdfrwt beam="2">  1       21 0.20768515E-01 0.23575206E+03</pdfrwt>
<totfact> 0.10935232E+04</totfact>
</mgrwt>
</event>
<event>
 4    1  0.4056666E+000  0.2039052E+03  0.7546771E-02  0.1146485E+00
         21   -1    0    0  501  502  0.00000000000E+00  0.00000000000E+00  0.63027581481E+02  0.63027581481E+02  0.00000000000E+00 0. -1.
         21   -1    0    0  502  503 -0.00000000000E+00 -0.00000000000E+00 -0.80280851445E+03  0.80280851445E+03  0.00000000000E+00 0.  1.
          6    1    1    2  501    0  0.10533888911E+03  0.23495607194E+02 -0.18708891628E+03  0.27673017131E+03  0.17300000000E+03 0.  1.
         -6    1    1    2    0  503 -0.10533888911E+03 -0.23495607194E+02 -0.55269201669E+03  0.58910592462E+03  0.17300000000E+03 0. -1.
<mgrwt>
<rscale>  2 0.20390519E+03</rscale>
<asrwt>0</asrwt>
<pdfrwt beam="1">  1       21 0.96965516E-02 0.20390519E+03</pdfrwt>
<pdfrwt beam="2">  1       21 0.12350899E+00 0.20390519E+03</pdfrwt>
<totfact> 0.41853677E+04</totfact>
</mgrwt>
</event>
<event>
 4    1  0.4056666E+000  0.1732712E+03  0.7546771E-02  0.1174479E+00
         21   -1    0    0  503  502  0.00000000000E+00  0.00000000000E+00  0.50091056906E+03  0.50091056906E+03  0.00000000000E+00 0.  1.
         21   -1    0    0  501  503 -0.00000000000E+00 -0.00000000000E+00 -0.78776640981E+02  0.78776640981E+02  0.00000000000E+00 0.  1.
          6    1    1    2  501    0 -0.82690803319E+01  0.50517465677E+01  0.69322723243E+02  0.18662405469E+03  0.17300000000E+03 0.  1.
         -6    1    1    2    0  502  0.82690803319E+01 -0.50517465677E+01  0.35281120484E+03  0.39306315535E+03  0.17300000000E+03 0.  1.
<mgrwt>
<rscale>  2 0.17327117E+03</rscale>
<asrwt>0</asrwt>
<pdfrwt beam="1">  1       21 0.77063162E-01 0.17327117E+03</pdfrwt>
<pdfrwt beam="2">  1       21 0.12119484E-01 0.17327117E+03</pdfrwt>
<totfact> 0.86956222E+04</totfact>
</mgrwt>
</event>
<event>
 4    1  0.4056666E+000  0.2099207E+03  0.7546771E-02  0.1141629E+00
         21   -1    0    0  503  502  0.00000000000E+00  0.00000000000E+00  0.49625127917E+02  0.49625127917E+02  0.00000000000E+00 0.  1.
         21   -1    0    0  501  503 -0.00000000000E+00 -0.00000000000E+00 -0.10359041945E+04  0.10359041945E+04  0.00000000000E+00 0.  1.
          6    1    1    2  501    0 -0.79426343939E+01  0.11863653913E+03 -0.28804511608E+03  0.35642208511E+03  0.17300000000E+03 0.  1.
         -6    1    1    2    0  502  0.79426343939E+01 -0.11863653913E+03 -0.69823395052E+03  0.72910723732E+03  0.17300000000E+03 0.  1.
<mgrwt>
<rscale>  2 0.20992073E+03</rscale>
<asrwt>0</asrwt>
<pdfrwt beam="1">  1       21 0.76346352E-02 0.20992073E+03</pdfrwt>
<pdfrwt beam="2">  1       21 0.15936987E+00 0.20992073E+03</pdfrwt>
<totfact> 0.32756646E+04</totfact>
</mgrwt>
</event>
<event>
 4    1  0.4056666E+000  0.1770905E+03  0.7546771E-02  0.1170649E+00
         21   -1    0    0  501  502  0.00000000000E+00  0.00000000000E+00  0.41982739050E+03  0.41982739050E+03  0.00000000000E+00 0. -1.
         21   -1    0    0  502  503 -0.00000000000E+00 -0.00000000000E+00 -0.19797355806E+03  0.19797355806E+03  0.00000000000E+00 0. -1.
          6    1    1    2  501    0 -0.37212012060E+02 -0.68788785741E+01  0.35468002874E+03  0.39643281347E+03  0.17300000000E+03 0. -1.
         -6    1    1    2    0  503  0.37212012060E+02  0.68788785741E+01 -0.13282619629E+03  0.22136813509E+03  0.17300000000E+03 0. -1.
<mgrwt>
<rscale>  2 0.17709052E+03</rscale>
<asrwt>0</asrwt>
<pdfrwt beam="1">  1       21 0.64588829E-01 0.17709052E+03</pdfrwt>
<pdfrwt beam="2">  1       21 0.30457471E-01 0.17709052E+03</pdfrwt>
<totfact> 0.23071445E+04</totfact>
</mgrwt>
</event>
<event>
 4    1  0.4056666E+000  0.2139072E+03  0.7546771E-02  0.1138509E+00
         21   -1    0    0  503  502  0.00000000000E+00  0.00000000000E+00  0.10836618300E+03  0.10836618300E+03  0.00000000000E+00 0. -1.
         21   -1    0    0  501  503 -0.00000000000E+00 -0.00000000000E+00 -0.42283291645E+03  0.42283291645E+03  0.00000000000E+00 0. -1.
          6    1    1    2  501    0 -0.11845898246E+03  0.42364681115E+02 -0.14726898029E+03  0.25970069173E+03  0.17300000000E+03 0. -1.
         -6    1    1    2    0  502  0.11845898246E+03 -0.42364681115E+02 -0.16719775316E+03  0.27149840772E+03  0.17300000000E+03 0. -1.
<mgrwt>
<rscale>  2 0.21390722E+03</rscale>
<asrwt>0</asrwt>
<pdfrwt beam="1">  1       21 0.16671720E-01 0.21390722E+03</pdfrwt>
<pdfrwt beam="2">  1       21 0.65051218E-01 0.21390722E+03</pdfrwt>
<totfact> 0.69690438E+04</totfact>
</mgrwt>
</event>
<event>
 4    1  0.4056666E+000  0.2033439E+03  0.7546771E-02  0.1146948E+00
         21   -1    0    0  501  502  0.00000000000E+00  0.00000000000E+00  0.36353819712E+02  0.36353819712E+02  0.00000000000E+00 0.  1.
         21   -1    0    0  502  503 -0.00000000000E+00 -0.00000000000E+00 -0.11696674124E+04  0.11696674124E+04  0.00000000000E+00 0.  1.
          6    1    1    2  501    0 -0.93338679936E+02  0.52034836270E+02 -0.46649673955E+03  0.50888892832E+03  0.17300000000E+03 0. -1.
         -6    1    1    2    0  503  0.93338679936E+02 -0.52034836270E+02 -0.66681685312E+03  0.69713230377E+03  0.17300000000E+03 0. -1.
<mgrwt>
<rscale>  2 0.20334388E+03</rscale>
<asrwt>0</asrwt>
<pdfrwt beam="1">  1       21 0.55928957E-02 0.20334388E+03</pdfrwt>
<pdfrwt beam="2">  1       21 0.17994882E+00 0.20334388E+03</pdfrwt>
<totfact> 0.40210547E+04</totfact>
</mgrwt>
</event>
<event>
 4    1  0.4056666E+000  0.1989721E+03  0.7546771E-02  0.1150609E+00
         21   -1    0    0  501  502  0.00000000000E+00  0.00000000000E+00  0.18750945801E+03  0.18750945801E+03  0.00000000000E+00 0.  1.
         21   -1    0    0  502  503 -0.00000000000E+00 -0.00000000000E+00 -0.50391237629E+03  0.50391237629E+03  0.00000000000E+00 0.  1.
          6    1    1    2  501    0 -0.73489623066E+02  0.65270082152E+02  0.10531269526E+03  0.22512368179E+03  0.17300000000E+03 0.  1.
         -6    1    1    2    0  503  0.73489623066E+02 -0.65270082152E+02 -0.42171561354E+03  0.46629815250E+03  0.17300000000E+03 0.  1.
<mgrwt>
<rscale>  2 0.19897213E+03</rscale>
<asrwt>0</asrwt>
<pdfrwt beam="1">  1       21 0.28847609E-01 0.19897213E+03</pdfrwt>
<pdfrwt beam="2">  1       21 0.77524980E-01 0.19897213E+03</pdfrwt>
<totfact> 0.16909266E+04</totfact>
</mgrwt>
</event>
<event>
 4    1  0.4056666E+000  0.1759861E+03  0.7546771E-02  0.1171745E+00
         21   -1    0    0  501  502  0.00000000000E+00  0.00000000000E+00  0.56805666727E+02  0.56805666727E+02  0.00000000000E+00 0.  1.
         21   -1    0    0  502  503 -0.00000000000E+00 -0.00000000000E+00 -0.74448216387E+03  0.74448216387E+03  0.00000000000E+00 0. -1.
          6    1    1    2  501    0  0.31986309831E+02  0.43571248387E+01 -0.13656036032E+03  0.22275511344E+03  0.17300000000E+03 0.  1.
         -6    1    1    2    0  503 -0.31986309831E+02 -0.43571248387E+01 -0.55111613683E+03  0.57853271716E+03  0.17300000000E+03 0. -1.
<mgrwt>
<rscale>  2 0.17598610E+03</rscale>
<asrwt>0</asrwt>
<pdfrwt beam="1">  1       21 0.87393337E-02 0.17598610E+03</pdfrwt>
<pdfrwt beam="2">  1       21 0.11453571E+00 0.17598610E+03</pdfrwt>
<totfact> 0.61392424E+04</totfact>
</mgrwt>
</event>
<event>
 4    1  0.4056666E+000  0.2149215E+03  0.7546771E-02  0.1137727E+00
         21   -1    0    0  503  502  0.00000000000E+00  0.00000000000E+00  0.12458077433E+03  0.12458077433E+03  0.00000000000E+00 0. -1.
         21   -1    0    0  501  503 -0.00000000000E+00 -0.00000000000E+00 -0.39777492658E+03  0.39777492658E+03  0.00000000000E+00 0. -1.
          6    1    1    2  501    0 -0.12420157223E+03  0.28917265944E+02 -0.20464450195E+03  0.29676693043E+03  0.17300000000E+03 0. -1.
         -6    1    1    2    0  502  0.12420157223E+03 -0.28917265944E+02 -0.68549650298E+02  0.22558877049E+03  0.17300000000E+03 0. -1.
<mgrwt>
<rscale>  2 0.21492147E+03</rscale>
<asrwt>0</asrwt>
<pdfrwt beam="1">  1       21 0.19166273E-01 0.21492147E+03</pdfrwt>
<pdfrwt beam="2">  1       21 0.61196143E-01 0.21492147E+03</pdfrwt>
<totfact> 0.61432450E+04</totfact>
</mgrwt>
</event>
<event>
 4    1  0.4056666E+000  0.2053616E+03  0.7546771E-02  0.1145293E+00
         21   -1    0    0  501  502  0.00000000000E+00  0.00000000000E+00  0.57390390658E+03  0.57390390658E+03  0.00000000000E+00 0.  1.
         21   -1    0    0  502  503 -0.00000000000E+00 -0.00000000000E+00 -0.74688673882E+02  0.74688673882E+02  0.00000000000E+00 0.  1.
          6    1    1    2  501    0  0.10722601702E+03  0.27330816847E+02  0.20844063717E+03  0.29261047743E+03  0.17300000000E+03 0.  1.
         -6    1    1    2    0  503 -0.10722601702E+03 -0.27330816847E+02  0.29077459552E+03  0.35598210303E+03  0.17300000000E+03 0.  1.
<mgrwt>
<rscale>  2 0.20536161E+03</rscale>
<asrwt>0</asrwt>
<pdfrwt beam="1">  1       21 0.88292906E-01 0.20536161E+03</pdfrwt>
<pdfrwt beam="2">  1       21 0.11490566E-01 0.20536161E+03</pdfrwt>
<totfact> 0.69219629E+04</totfact>
</mgrwt>
</event>
<event>
 4    1  0.4056666E+000  0.2252565E+03  0.7546771E-02  0.1130024E+00
         21   -1    0    0  503  502  0.00000000000E+00  0.00000000000E+00  0.84511388346E+02  0.84511388346E+02  0.00000000000E+00 0. -1.
         21   -1    0    0  501  503 -0.00000000000E+00 -0.00000000000E+00 -0.60590927324E+03  0.60590927324E+03  0.00000000000E+00 0.  1.
          6    1    1    2  501    0  0.11954679207E+03  0.80746795535E+02 -0.29362201717E+03  0.37007346494E+03  0.17300000000E+03 0.  1.
         -6    1    1    2    0  502 -0.11954679207E+03 -0.80746795535E+02 -0.22777586772E+03  0.32034719665E+03  0.17300000000E+03 0. -1.
<mgrwt>
<rscale>  2 0.22525648E+03</rscale>
<asrwt>0</asrwt>
<pdfrwt beam="1">  1       21 0.13001752E-01 0.22525648E+03</pdfrwt>
<pdfrwt beam="2">  1       21 0.93216813E-01 0.22525648E+03</pdfrwt>
<totfact> 0.48423772E+04</totfact>
</mgrwt>
</event>
<event>
 4    1  0.4056666E+000  0.1955618E+03  0.7546771E-02  0.1153538E+00
         21   -1    0    0  501  502  0.00000000000E+00  0.00000000000E+00  0.74695743484E+02  0.74695743484E+02  0.00000000000E+00 0.  1.
         21   -1    0    0  502  503 -0.00000000000E+00 -0.00000000000E+00 -0.51962994590E+03  0.51962994590E+03  0.00000000000E+00 0. -1.
          6    1    1    2  501    0 -0.86734381120E+02 -0.28152801896E+02 -0.18646505486E+03  0.27021038065E+03  0.17300000000E+03 0.  1.
         -6    1    1    2    0  503  0.86734381120E+02  0.28152801896E+02 -0.25846914755E+03  0.32411530874E+03  0.17300000000E+03 0. -1.
<mgrwt>
<rscale>  2 0.19556184E+03</rscale>
<asrwt>0</asrwt>
<pdfrwt beam="1">  1       21 0.11491653E-01 0.19556184E+03</pdfrwt>
<pdfrwt beam="2">  1       21 0.79943070E-01 0.19556184E+03</pdfrwt>
<totfact> 0.87229821E+04</totfact>
</mgrwt>
</event>
<event>
 4    1  0.4056666E+000  0.2204920E+03  0.7546771E-02  0.1133517E+00
         21   -1    0    0  503  502  0.00000000000E+00  0.00000000000E+00  0.38077152370E+03  0.38077152370E+03  0.00000000000E+00 0. -1.
         21   -1    0    0  501  503 -0.00000000000E+00 -0.00000000000E+00 -0.14780927669E+03  0.14780927669E+03  0.00000000000E+00 0.  1.
          6    1    1    2  501    0  0.11548926732E+03 -0.73143210448E+02  0.18948361849E+02  0.22130463284E+03  0.17300000000E+03 0. -1.
         -6    1    1    2    0  502 -0.11548926732E+03  0.73143210448E+02  0.21401388516E+03  0.30727616755E+03  0.17300000000E+03 0.  1.
<mgrwt>
<rscale>  2 0.22049195E+03</rscale>
<asrwt>0</asrwt>
<pdfrwt beam="1">  1       21 0.58580234E-01 0.22049195E+03</pdfrwt>
<pdfrwt beam="2">  1       21 0.22739889E-01 0.22049195E+03</pdfrwt>
<totfact> 0.48809658E+04</totfact>
</mgrwt>
</event>
<event>
 4    1  0.4056666E+000  0.2136592E+03  0.7546771E-02  0.1138701E+00
         21   -1    0    0  503  502  0.00000000000E+00  0.00000000000E+00  0.38616040624E+03  0.38616040624E+03  0.00000000000E+00 0.  1.
         21   -1    0    0  501  503 -0.00000000000E+00 -0.00000000000E+00 -0.15773250055E+03  0.15773250055E+03  0.00000000000E+00 0. -1.
          6    1    1    2  501    0  0.11605809339E+03  0.47452853207E+02 -0.21903321243E+02  0.21477897895E+03  0.17300000000E+03 0. -1.
         -6    1    1    2    0  502 -0.11605809339E+03 -0.47452853207E+02  0.25033122693E+03  0.32911392784E+03  0.17300000000E+03 0. -1.
<mgrwt>
<rscale>  2 0.21365920E+03</rscale>
<asrwt>0</asrwt>
<pdfrwt beam="1">  1       21 0.59409293E-01 0.21365920E+03</pdfrwt>
<pdfrwt beam="2">  1       21 0.24266539E-01 0.21365920E+03</pdfrwt>
<totfact> 0.41985406E+04</totfact>
</mgrwt>
</event>
<event>
 4    1  0.4056666E+000  0.2190864E+03  0.7546771E-02  0.1134566E+00
         21   -1    0    0  501  502  0.00000000000E+00  0.00000000000E+00  0.42314593108E+03  0.42314593108E+03  0.00000000000E+00 0.  1.
         21   -1    0    0  502  503 -0.00000000000E+00 -0.00000000000E+00 -0.29585873228E+03  0.29585873228E+03  0.00000000000E+00 0. -1.
          6    1    1    2  501    0  0.21381703861E+02  0.13271281952E+03  0.34593790781E+03  0.40947760108E+03  0.17300000000E+03 0.  1.
         -6    1    1    2    0  503 -0.21381703861E+02 -0.13271281952E+03 -0.21865070901E+03  0.30952706227E+03  0.17300000000E+03 0. -1.
<mgrwt>
<rscale>  2 0.21908644E+03</rscale>
<asrwt>0</asrwt>
<pdfrwt beam="1">  1       21 0.65099374E-01 0.21908644E+03</pdfrwt>
<pdfrwt beam="2">  1       21 0.45516728E-01 0.21908644E+03</pdfrwt>
<totfact> 0.98783252E+03</totfact>
</mgrwt>
</event>
<event>
 4    1  0.4056666E+000  0.1963509E+03  0.7546771E-02  0.1152855E+00
         21   -1    0    0  501  502  0.00000000000E+00  0.00000000000E+00  0.74704495602E+03  0.74704495602E+03  0.00000000000E+00 0.  1.
         21   -1    0    0  502  503 -0.00000000000E+00 -0.00000000000E+00 -0.61066482576E+02  0.61066482576E+02  0.00000000000E+00 0.  1.
          6    1    1    2  501    0 -0.64657395027E+02 -0.66664016936E+02  0.50200683828E+03  0.53904038398E+03  0.17300000000E+03 0.  1.
         -6    1    1    2    0  503  0.64657395027E+02  0.66664016936E+02  0.18397163517E+03  0.26907105461E+03  0.17300000000E+03 0.  1.
<mgrwt>
<rscale>  2 0.19635088E+03</rscale>
<asrwt>0</asrwt>
<pdfrwt beam="1">  1       21 0.11492999E+00 0.19635088E+03</pdfrwt>
<pdfrwt beam="2">  1       21 0.93948440E-02 0.19635088E+03</pdfrwt>
<totfact> 0.53084141E+04</totfact>
</mgrwt>
</event>
<event>
 4    1  0.4056666E+000  0.2930400E+03  0.7546771E-02  0.1088773E+00
         21   -1    0    0  501  502  0.00000000000E+00  0.00000000000E+00  0.25593858277E+03  0.25593858277E+03  0.00000000000E+00 0. -1.
         21   -1    0    0  502  503 -0.00000000000E+00 -0.00000000000E+00 -0.40255113920E+03  0.40255113920E+03  0.00000000000E+00 0.  1.
          6    1    1    2  501    0  0.22682197771E+03 -0.67046355376E+02  0.61046890491E+02  0.29933116473E+03  0.17300000000E+03 0. -1.
         -6    1    1    2    0  503 -0.22682197771E+03  0.67046355376E+02 -0.20765944693E+03  0.35915855724E+03  0.17300000000E+03 0.  1.
<mgrwt>
<rscale>  2 0.29303997E+03</rscale>
<asrwt>0</asrwt>
<pdfrwt beam="1">  1       21 0.39375166E-01 0.29303997E+03</pdfrwt>
<pdfrwt beam="2">  1       21 0.61930945E-01 0.29303997E+03</pdfrwt>
<totfact> 0.14263891E+04</totfact>
</mgrwt>
</event>
<event>
 4    1  0.4056666E+000  0.2023654E+03  0.7546771E-02  0.1147759E+00
         21   -1    0    0  503  502  0.00000000000E+00  0.00000000000E+00  0.45328561288E+03  0.45328561288E+03  0.00000000000E+00 0.  1.
         21   -1    0    0  501  503 -0.00000000000E+00 -0.00000000000E+00 -0.11621756365E+03  0.11621756365E+03  0.00000000000E+00 0.  1.
          6    1    1    2  501    0 -0.10250290547E+01 -0.10498424218E+03  0.34178222230E+02  0.20523131502E+03  0.17300000000E+03 0.  1.
         -6    1    1    2    0  502  0.10250290547E+01  0.10498424218E+03  0.30288982700E+03  0.36427186151E+03  0.17300000000E+03 0.  1.
<mgrwt>
<rscale>  2 0.20236537E+03</rscale>
<asrwt>0</asrwt>
<pdfrwt beam="1">  1       21 0.69736247E-01 0.20236537E+03</pdfrwt>
<pdfrwt beam="2">  1       21 0.17879625E-01 0.20236537E+03</pdfrwt>
<totfact> 0.52859611E+04</totfact>
</mgrwt>
</event>
<event>
 4    1  0.4056666E+000  0.1950652E+03  0.7546771E-02  0.1153971E+00
         21   -1    0    0  503  502  0.00000000000E+00  0.00000000000E+00  0.94411038444E+03  0.94411038444E+03  0.00000000000E+00 0.  1.
         21   -1    0    0  501  503 -0.00000000000E+00 -0.00000000000E+00 -0.41436226203E+02  0.41436226203E+02  0.00000000000E+00 0.  1.
          6    1    1    2  501    0  0.61961912835E+02 -0.65438130230E+02  0.36984297390E+03  0.41813186063E+03  0.17300000000E+03 0.  1.
         -6    1    1    2    0  502 -0.61961912835E+02  0.65438130230E+02  0.53283118434E+03  0.56741475001E+03  0.17300000000E+03 0.  1.
<mgrwt>
<rscale>  2 0.19506519E+03</rscale>
<asrwt>0</asrwt>
<pdfrwt beam="1">  1       21 0.14524774E+00 0.19506519E+03</pdfrwt>
<pdfrwt beam="2">  1       21 0.63748047E-02 0.19506519E+03</pdfrwt>
<totfact> 0.57722147E+04</totfact>
</mgrwt>
</event>
<event>
 4    1  0.4056666E+000  0.2092853E+03  0.7546771E-02  0.1142133E+00
         21   -1    0    0  501  502  0.00000000000E+00  0.00000000000E+00  0.18846050166E+03  0.18846050166E+03  0.00000000000E+00 0. -1.
         21   -1    0    0  502  503 -0.00000000000E+00 -0.00000000000E+00 -0.28492255611E+03  0.28492255611E+03  0.00000000000E+00 0.  1.
          6    1    1    2  501    0  0.62272498447E+02  0.99967342221E+02  0.53381175777E+02  0.21598584097E+03  0.17300000000E+03 0. -1.
         -6    1    1    2    0  503 -0.62272498447E+02 -0.99967342221E+02 -0.14984323022E+03  0.25739721680E+03  0.17300000000E+03 0.  1.
<mgrwt>
<rscale>  2 0.20928529E+03</rscale>
<asrwt>0</asrwt>
<pdfrwt beam="1">  1       21 0.28993923E-01 0.20928529E+03</pdfrwt>
<pdfrwt beam="2">  1       21 0.43834239E-01 0.20928529E+03</pdfrwt>
<totfact> 0.56500628E+04</totfact>
</mgrwt>
</event>
<event>
 4    1  0.4056666E+000  0.2093372E+03  0.7546771E-02  0.1142092E+00
         21   -1    0    0  501  502  0.00000000000E+00  0.00000000000E+00  0.41190414992E+03  0.41190414992E+03  0.00000000000E+00 0. -1.
         21   -1    0    0  502  503 -0.00000000000E+00 -0.00000000000E+00 -0.32087991709E+03  0.32087991709E+03  0.00000000000E+00 0. -1.
          6    1    1    2  501    0  0.11764525781E+03  0.72561691485E+01  0.34506895338E+03  0.40360208283E+03  0.17300000000E+03 0. -1.
         -6    1    1    2    0  503 -0.11764525781E+03 -0.72561691485E+01 -0.25404472054E+03  0.32918198418E+03  0.17300000000E+03 0. -1.
<mgrwt>
<rscale>  2 0.20933719E+03</rscale>
<asrwt>0</asrwt>
<pdfrwt beam="1">  1       21 0.63369869E-01 0.20933719E+03</pdfrwt>
<pdfrwt beam="2">  1       21 0.49366141E-01 0.20933719E+03</pdfrwt>
<totfact> 0.89080505E+03</totfact>
</mgrwt>
</event>
<event>
 4    1  0.4056666E+000  0.2028068E+03  0.7546771E-02  0.1147392E+00
         21   -1    0    0  503  502  0.00000000000E+00  0.00000000000E+00  0.16911060746E+03  0.16911060746E+03  0.00000000000E+00 0.  1.
         21   -1    0    0  501  503 -0.00000000000E+00 -0.00000000000E+00 -0.29411833633E+03  0.29411833633E+03  0.00000000000E+00 0.  1.
          6    1    1    2  501    0  0.62587971871E+02  0.85348483063E+02 -0.15885750857E+03  0.25761662565E+03  0.17300000000E+03 0.  1.
         -6    1    1    2    0  502 -0.62587971871E+02 -0.85348483063E+02  0.33849779706E+02  0.20561231814E+03  0.17300000000E+03 0.  1.
<mgrwt>
<rscale>  2 0.20280685E+03</rscale>
<asrwt>0</asrwt>
<pdfrwt beam="1">  1       21 0.26017017E-01 0.20280685E+03</pdfrwt>
<pdfrwt beam="2">  1       21 0.45248974E-01 0.20280685E+03</pdfrwt>
<totfact> 0.65450558E+04</totfact>
</mgrwt>
</event>
<event>
 4    1  0.4056666E+000  0.1886113E+03  0.7546771E-02  0.1159720E+00
         21   -1    0    0  503  502  0.00000000000E+00  0.00000000000E+00  0.47363253967E+02  0.47363253967E+02  0.00000000000E+00 0. -1.
         21   -1    0    0  501  503 -0.00000000000E+00 -0.00000000000E+00 -0.86455185869E+03  0.86455185869E+03  0.00000000000E+00 0. -1.
          6    1    1    2  501    0  0.57720128781E+02 -0.48099832793E+02 -0.57377076154E+03  0.60397607070E+03  0.17300000000E+03 0. -1.
         -6    1    1    2    0  502 -0.57720128781E+02  0.48099832793E+02 -0.24341784319E+03  0.30793904196E+03  0.17300000000E+03 0. -1.
<mgrwt>
<rscale>  2 0.18861126E+03</rscale>
<asrwt>0</asrwt>
<pdfrwt beam="1">  1       21 0.72866545E-02 0.18861126E+03</pdfrwt>
<pdfrwt beam="2">  1       21 0.13300798E+00 0.18861126E+03</pdfrwt>
<totfact> 0.57692326E+04</totfact>
</mgrwt>
</event>
<event>
 4    1  0.4056666E+000  0.2434125E+03  0.7546771E-02  0.1117540E+00
         21   -1    0    0  503  502  0.00000000000E+00  0.00000000000E+00  0.43142292508E+02  0.43142292508E+02  0.00000000000E+00 0. -1.
         21   -1    0    0  501  503 -0.00000000000E+00 -0.00000000000E+00 -0.16226902864E+04  0.16226902864E+04  0.00000000000E+00 0. -1.
          6    1    1    2  501    0 -0.58519218799E+02 -0.16092279326E+03 -0.46327925420E+03  0.52333288807E+03  0.17300000000E+03 0. -1.
         -6    1    1    2    0  502  0.58519218799E+02  0.16092279326E+03 -0.11162687396E+04  0.11424996908E+04  0.17300000000E+03 0. -1.
<mgrwt>
<rscale>  2 0.24341250E+03</rscale>
<asrwt>0</asrwt>
<pdfrwt beam="1">  1       21 0.66372753E-02 0.24341250E+03</pdfrwt>
<pdfrwt beam="2">  1       21 0.24964468E+00 0.24341250E+03</pdfrwt>
<totfact> 0.10605981E+04</totfact>
</mgrwt>
</event>
<event>
 4    1  0.4056666E+000  0.2817119E+03  0.7546771E-02  0.1094758E+00
         21   -1    0    0  503  502  0.00000000000E+00  0.00000000000E+00  0.12618007095E+03  0.12618007095E+03  0.00000000000E+00 0.  1.
         21   -1    0    0  501  503 -0.00000000000E+00 -0.00000000000E+00 -0.76870027925E+03  0.76870027925E+03  0.00000000000E+00 0. -1.
          6    1    1    2  501    0  0.11882385946E+03  0.18791886694E+03 -0.51203654362E+03  0.58441683080E+03  0.17300000000E+03 0. -1.
         -6    1    1    2    0  502 -0.11882385946E+03 -0.18791886694E+03 -0.13048366468E+03  0.31046351940E+03  0.17300000000E+03 0. -1.
<mgrwt>
<rscale>  2 0.28171193E+03</rscale>
<asrwt>0</asrwt>
<pdfrwt beam="1">  1       21 0.19412318E-01 0.28171193E+03</pdfrwt>
<pdfrwt beam="2">  1       21 0.11826158E+00 0.28171193E+03</pdfrwt>
<totfact> 0.12681568E+04</totfact>
</mgrwt>
</event>
<event>
 4    1  0.4056666E+000  0.2894795E+03  0.7546771E-02  0.1090621E+00
         21   -1    0    0  503  502  0.00000000000E+00  0.00000000000E+00  0.74743309695E+03  0.74743309695E+03  0.00000000000E+00 0. -1.
         21   -1    0    0  501  503 -0.00000000000E+00 -0.00000000000E+00 -0.80781377627E+03  0.80781377627E+03  0.00000000000E+00 0.  1.
          6    1    1    2  501    0 -0.83272392650E+02  0.21664513822E+03 -0.75183658441E+03  0.80564052589E+03  0.17300000000E+03 0.  1.
         -6    1    1    2    0  502  0.83272392650E+02 -0.21664513822E+03  0.69145590509E+03  0.74960634734E+03  0.17300000000E+03 0. -1.
<mgrwt>
<rscale>  2 0.28947955E+03</rscale>
<asrwt>0</asrwt>
<pdfrwt beam="1">  1       21 0.11498971E+00 0.28947955E+03</pdfrwt>
<pdfrwt beam="2">  1       21 0.12427904E+00 0.28947955E+03</pdfrwt>
<totfact> 0.25773286E+02</totfact>
</mgrwt>
</event>
<event>
 4    1  0.4056666E+000  0.2482213E+03  0.7546771E-02  0.1114434E+00
         21   -1    0    0  501  502  0.00000000000E+00  0.00000000000E+00  0.17864463437E+03  0.17864463437E+03  0.00000000000E+00 0.  1.
         21   -1    0    0  502  503 -0.00000000000E+00 -0.00000000000E+00 -0.46838910353E+03  0.46838910353E+03  0.00000000000E+00 0. -1.
          6    1    1    2  501    0 -0.14568263653E+02  0.17740515049E+03 -0.31098953811E+03  0.39790490640E+03  0.17300000000E+03 0. -1.
         -6    1    1    2    0  503  0.14568263653E+02 -0.17740515049E+03  0.21245068952E+02  0.24912883149E+03  0.17300000000E+03 0.  1.
<mgrwt>
<rscale>  2 0.24822132E+03</rscale>
<asrwt>0</asrwt>
<pdfrwt beam="1">  1       21 0.27483790E-01 0.24822132E+03</pdfrwt>
<pdfrwt beam="2">  1       21 0.72059862E-01 0.24822132E+03</pdfrwt>
<totfact> 0.21293497E+04</totfact>
</mgrwt>
</event>
<event>
 4    1  0.4056666E+000  0.2170653E+03  0.7546771E-02  0.1136090E+00
         21   -1    0    0  501  502  0.00000000000E+00  0.00000000000E+00  0.17959147485E+03  0.17959147485E+03  0.00000000000E+00 0.  1.
         21   -1    0    0  502  503 -0.00000000000E+00 -0.00000000000E+00 -0.31352785045E+03  0.31352785045E+03  0.00000000000E+00 0. -1.
          6    1    1    2  501    0 -0.70278824388E+02  0.11067619236E+03  0.32638689286E+02  0.21950539117E+03  0.17300000000E+03 0.  1.
         -6    1    1    2    0  503  0.70278824388E+02 -0.11067619236E+03 -0.16657506488E+03  0.27361393414E+03  0.17300000000E+03 0. -1.
<mgrwt>
<rscale>  2 0.21706527E+03</rscale>
<asrwt>0</asrwt>
<pdfrwt beam="1">  1       21 0.27629458E-01 0.21706527E+03</pdfrwt>
<pdfrwt beam="2">  1       21 0.48235053E-01 0.21706527E+03</pdfrwt>
<totfact> 0.50739343E+04</totfact>
</mgrwt>
</event>
<event>
 4    1  0.4056666E+000  0.3914356E+03  0.7546771E-02  0.1046786E+00
         21   -1    0    0  501  502  0.00000000000E+00  0.00000000000E+00  0.69316071082E+03  0.69316071082E+03  0.00000000000E+00 0. -1.
         21   -1    0    0  502  503 -0.00000000000E+00 -0.00000000000E+00 -0.22316928851E+03  0.22316928851E+03  0.00000000000E+00 0. -1.
          6    1    1    2  501    0 -0.34535978877E+03 -0.63398929373E+02  0.27966424911E+03  0.48107577384E+03  0.17300000000E+03 0. -1.
         -6    1    1    2    0  503  0.34535978877E+03  0.63398929373E+02  0.19032717321E+03  0.43525422549E+03  0.17300000000E+03 0. -1.
<mgrwt>
<rscale>  2 0.39143557E+03</rscale>
<asrwt>0</asrwt>
<pdfrwt beam="1">  1       21 0.10664011E+00 0.39143557E+03</pdfrwt>
<pdfrwt beam="2">  1       21 0.34333737E-01 0.39143557E+03</pdfrwt>
<totfact> 0.51579214E+03</totfact>
</mgrwt>
</event>
<event>
 4    1  0.4056666E+000  0.1971969E+03  0.7546771E-02  0.1152126E+00
         21   -1    0    0  503  502  0.00000000000E+00  0.00000000000E+00  0.20816711006E+03  0.20816711006E+03  0.00000000000E+00 0. -1.
         21   -1    0    0  501  503 -0.00000000000E+00 -0.00000000000E+00 -0.23077889626E+03  0.23077889626E+03  0.00000000000E+00 0. -1.
          6    1    1    2  501    0  0.92176593901E+02  0.21473515266E+02  0.84497529482E+02  0.21453780275E+03  0.17300000000E+03 0. -1.
         -6    1    1    2    0  502 -0.92176593901E+02 -0.21473515266E+02 -0.10710931568E+03  0.22440820356E+03  0.17300000000E+03 0. -1.
<mgrwt>
<rscale>  2 0.19719695E+03</rscale>
<asrwt>0</asrwt>
<pdfrwt beam="1">  1       21 0.32025709E-01 0.19719695E+03</pdfrwt>
<pdfrwt beam="2">  1       21 0.35504445E-01 0.19719695E+03</pdfrwt>
<totfact> 0.71583832E+04</totfact>
</mgrwt>
</event>
<event>
 4    1  0.4056666E+000  0.1789272E+03  0.7546771E-02  0.1168845E+00
         21   -1    0    0  501  502  0.00000000000E+00  0.00000000000E+00  0.51196960105E+02  0.51196960105E+02  0.00000000000E+00 0. -1.
         21   -1    0    0  502  503 -0.00000000000E+00 -0.00000000000E+00 -0.63691361499E+03  0.63691361499E+03  0.00000000000E+00 0. -1.
          6    1    1    2  501    0  0.44835046695E+02 -0.87040108256E+01 -0.24645707079E+03  0.30455874468E+03  0.17300000000E+03 0.  1.
         -6    1    1    2    0  503 -0.44835046695E+02  0.87040108256E+01 -0.33925958410E+03  0.38355183042E+03  0.17300000000E+03 0.  1.
<mgrwt>
<rscale>  2 0.17892720E+03</rscale>
<asrwt>0</asrwt>
<pdfrwt beam="1">  1       21 0.78764554E-02 0.17892720E+03</pdfrwt>
<pdfrwt beam="2">  1       21 0.97986710E-01 0.17892720E+03</pdfrwt>
<totfact> 0.10679212E+05</totfact>
</mgrwt>
</event>
<event>
 4    1  0.4056666E+000  0.3211610E+03  0.7546771E-02  0.1075116E+00
         21   -1    0    0  503  502  0.00000000000E+00  0.00000000000E+00  0.17184493709E+03  0.17184493709E+03  0.00000000000E+00 0.  1.
         21   -1    0    0  501  503 -0.00000000000E+00 -0.00000000000E+00 -0.61047397810E+03  0.61047397810E+03  0.00000000000E+00 0.  1.
          6    1    1    2  501    0  0.92153746061E+02 -0.25440724820E+03 -0.27001553333E+03  0.41958640241E+03  0.17300000000E+03 0.  1.
         -6    1    1    2    0  502 -0.92153746061E+02  0.25440724820E+03 -0.16861350768E+03  0.36273251277E+03  0.17300000000E+03 0.  1.
<mgrwt>
<rscale>  2 0.32116096E+03</rscale>
<asrwt>0</asrwt>
<pdfrwt beam="1">  1       21 0.26437683E-01 0.32116096E+03</pdfrwt>
<pdfrwt beam="2">  1       21 0.93919071E-01 0.32116096E+03</pdfrwt>
<totfact> 0.12090926E+04</totfact>
</mgrwt>
</event>
<event>
 4    1  0.4056666E+000  0.1850774E+03  0.7546771E-02  0.1162978E+00
         21   -1    0    0  503  502  0.00000000000E+00  0.00000000000E+00  0.43708851911E+03  0.43708851911E+03  0.00000000000E+00 0.  1.
         21   -1    0    0  501  503 -0.00000000000E+00 -0.00000000000E+00 -0.11080240449E+03  0.11080240449E+03  0.00000000000E+00 0.  1.
          6    1    1    2  501    0 -0.21064303117E+02  0.62297233265E+02  0.14927408802E+02  0.18567842543E+03  0.17300000000E+03 0.  1.
         -6    1    1    2    0  502  0.21064303117E+02 -0.62297233265E+02  0.31135870582E+03  0.36221249817E+03  0.17300000000E+03 0.  1.
<mgrwt>
<rscale>  2 0.18507742E+03</rscale>
<asrwt>0</asrwt>
<pdfrwt beam="1">  1       21 0.67244387E-01 0.18507742E+03</pdfrwt>
<pdfrwt beam="2">  1       21 0.17046524E-01 0.18507742E+03</pdfrwt>
<totfact> 0.63032554E+04</totfact>
</mgrwt>
</event>
<event>
 4    1  0.4056666E+000  0.2051393E+03  0.7546771E-02  0.1145474E+00
         21   -1    0    0  501  502  0.00000000000E+00  0.00000000000E+00  0.15979890058E+03  0.15979890058E+03  0.00000000000E+00 0.  1.
         21   -1    0    0  502  503 -0.00000000000E+00 -0.00000000000E+00 -0.27427852975E+03  0.27427852975E+03  0.00000000000E+00 0. -1.
          6    1    1    2  501    0  0.10617979119E+03 -0.29647355609E+02 -0.10057467202E+03  0.22846745589E+03  0.17300000000E+03 0. -1.
         -6    1    1    2    0  503 -0.10617979119E+03  0.29647355609E+02 -0.13904957154E+02  0.20560997443E+03  0.17300000000E+03 0.  1.
<mgrwt>
<rscale>  2 0.20513925E+03</rscale>
<asrwt>0</asrwt>
<pdfrwt beam="1">  1       21 0.24584446E-01 0.20513925E+03</pdfrwt>
<pdfrwt beam="2">  1       21 0.42196696E-01 0.20513925E+03</pdfrwt>
<totfact> 0.84075874E+04</totfact>
</mgrwt>
</event>
<event>
 4    1  0.4056666E+000  0.1781574E+03  0.7546771E-02  0.1169598E+00
         21   -1    0    0  503  502  0.00000000000E+00  0.00000000000E+00  0.18821413164E+03  0.18821413164E+03  0.00000000000E+00 0. -1.
         21   -1    0    0  501  503 -0.00000000000E+00 -0.00000000000E+00 -0.34747502811E+03  0.34747502811E+03  0.00000000000E+00 0. -1.
          6    1    1    2  501    0 -0.25743704623E+02 -0.33886751133E+02 -0.27178461845E+03  0.32497219736E+03  0.17300000000E+03 0. -1.
         -6    1    1    2    0  502  0.25743704623E+02  0.33886751133E+02  0.11252372198E+03  0.21071696239E+03  0.17300000000E+03 0. -1.
<mgrwt>
<rscale>  2 0.17815737E+03</rscale>
<asrwt>0</asrwt>
<pdfrwt beam="1">  1       21 0.28956020E-01 0.17815737E+03</pdfrwt>
<pdfrwt beam="2">  1       21 0.53457697E-01 0.17815737E+03</pdfrwt>
<totfact> 0.38093651E+04</totfact>
</mgrwt>
</event>
<event>
 4    1  0.4056666E+000  0.2097521E+03  0.7546771E-02  0.1141762E+00
         21   -1    0    0  501  502  0.00000000000E+00  0.00000000000E+00  0.23682126564E+03  0.23682126564E+03  0.00000000000E+00 0.  1.
         21   -1    0    0  502  503 -0.00000000000E+00 -0.00000000000E+00 -0.37355953462E+03  0.37355953462E+03  0.00000000000E+00 0.  1.
          6    1    1    2  501    0  0.69677427451E+02 -0.95979205586E+02  0.14801156347E+03  0.25671652600E+03  0.17300000000E+03 0.  1.
         -6    1    1    2    0  503 -0.69677427451E+02  0.95979205586E+02 -0.28474983245E+03  0.35366427425E+03  0.17300000000E+03 0.  1.
<mgrwt>
<rscale>  2 0.20975212E+03</rscale>
<asrwt>0</asrwt>
<pdfrwt beam="1">  1       21 0.36434041E-01 0.20975212E+03</pdfrwt>
<pdfrwt beam="2">  1       21 0.57470698E-01 0.20975212E+03</pdfrwt>
<totfact> 0.20434321E+04</totfact>
</mgrwt>
</event>
<event>
 4    1  0.4056666E+000  0.1837665E+03  0.7546771E-02  0.1164207E+00
         21   -1    0    0  501  502  0.00000000000E+00  0.00000000000E+00  0.10432268907E+04  0.10432268907E+04  0.00000000000E+00 0.  1.
         21   -1    0    0  502  503 -0.00000000000E+00 -0.00000000000E+00 -0.34327134467E+02  0.34327134467E+02  0.00000000000E+00 0.  1.
          6    1    1    2  501    0  0.34392617958E+02  0.51558361294E+02  0.63306998975E+03  0.65920234277E+03  0.17300000000E+03 0.  1.
         -6    1    1    2    0  503 -0.34392617958E+02 -0.51558361294E+02  0.37582976646E+03  0.41835168238E+03  0.17300000000E+03 0.  1.
<mgrwt>
<rscale>  2 0.18376647E+03</rscale>
<asrwt>0</asrwt>
<pdfrwt beam="1">  1       21 0.16049642E+00 0.18376647E+03</pdfrwt>
<pdfrwt beam="2">  1       21 0.52810984E-02 0.18376647E+03</pdfrwt>
<totfact> 0.61486303E+04</totfact>
</mgrwt>
</event>
<event>
 4    1  0.4056666E+000  0.2382706E+03  0.7546771E-02  0.1120950E+00
         21   -1    0    0  503  502  0.00000000000E+00  0.00000000000E+00  0.11046749265E+03  0.11046749265E+03  0.00000000000E+00 0. -1.
         21   -1    0    0  501  503 -0.00000000000E+00 -0.00000000000E+00 -0.59665966571E+03  0.59665966571E+03  0.00000000000E+00 0.  1.
          6    1    1    2  501    0  0.16243816461E+03 -0.21394318884E+02 -0.37474804215E+03  0.44408216503E+03  0.17300000000E+03 0. -1.
         -6    1    1    2    0  502 -0.16243816461E+03  0.21394318884E+02 -0.11144413091E+03  0.26304499333E+03  0.17300000000E+03 0. -1.
<mgrwt>
<rscale>  2 0.23827059E+03</rscale>
<asrwt>0</asrwt>
<pdfrwt beam="1">  1       21 0.16994999E-01 0.23827059E+03</pdfrwt>
<pdfrwt beam="2">  1       21 0.91793794E-01 0.23827059E+03</pdfrwt>
<totfact> 0.30581265E+04</totfact>
</mgrwt>
</event>
<event>
 4    1  0.4056666E+000  0.1748761E+03  0.7546771E-02  0.1172856E+00
         21   -1    0    0  501  502  0.00000000000E+00  0.00000000000E+00  0.29991458906E+03  0.29991458906E+03  0.00000000000E+00 0. -1.
         21   -1    0    0  502  503 -0.00000000000E+00 -0.00000000000E+00 -0.42330527137E+03  0.42330527137E+03  0.00000000000E+00 0. -1.
          6    1    1    2  501    0 -0.72293070460E+01  0.24503015827E+02  0.25336528264E+03  0.30785650409E+03  0.17300000000E+03 0. -1.
         -6    1    1    2    0  503  0.72293070460E+01 -0.24503015827E+02 -0.37675596495E+03  0.41536335634E+03  0.17300000000E+03 0. -1.
<mgrwt>
<rscale>  2 0.17487613E+03</rscale>
<asrwt>0</asrwt>
<pdfrwt beam="1">  1       21 0.46140706E-01 0.17487613E+03</pdfrwt>
<pdfrwt beam="2">  1       21 0.65123888E-01 0.17487613E+03</pdfrwt>
<totfact> 0.98919453E+03</totfact>
</mgrwt>
</event>
<event>
 4    1  0.4056666E+000  0.2634876E+03  0.7546771E-02  0.1105066E+00
         21   -1    0    0  503  502  0.00000000000E+00  0.00000000000E+00  0.29445674241E+03  0.29445674241E+03  0.00000000000E+00 0. -1.
         21   -1    0    0  501  503 -0.00000000000E+00 -0.00000000000E+00 -0.23808958056E+03  0.23808958056E+03  0.00000000000E+00 0.  1.
          6    1    1    2  501    0  0.10011647031E+03 -0.17167825539E+03  0.19334188203E+01  0.26349472312E+03  0.17300000000E+03 0.  1.
         -6    1    1    2    0  502 -0.10011647031E+03  0.17167825539E+03  0.54433743036E+02  0.26905159985E+03  0.17300000000E+03 0. -1.
<mgrwt>
<rscale>  2 0.26348763E+03</rscale>
<asrwt>0</asrwt>
<pdfrwt beam="1">  1       21 0.45301037E-01 0.26348763E+03</pdfrwt>
<pdfrwt beam="2">  1       21 0.36629166E-01 0.26348763E+03</pdfrwt>
<totfact> 0.32480749E+04</totfact>
</mgrwt>
</event>
<event>
 4    1  0.4056666E+000  0.2037192E+03  0.7546771E-02  0.1146639E+00
         21   -1    0    0  501  502  0.00000000000E+00  0.00000000000E+00  0.18094304234E+03  0.18094304234E+03  0.00000000000E+00 0. -1.
         21   -1    0    0  502  503 -0.00000000000E+00 -0.00000000000E+00 -0.48057839637E+03  0.48057839637E+03  0.00000000000E+00 0. -1.
          6    1    1    2  501    0 -0.10567634343E+03 -0.20124700159E+02  0.89324197526E+02  0.22244168984E+03  0.17300000000E+03 0. -1.
         -6    1    1    2    0  503  0.10567634343E+03  0.20124700159E+02 -0.38895955156E+03  0.43907974887E+03  0.17300000000E+03 0. -1.
<mgrwt>
<rscale>  2 0.20371915E+03</rscale>
<asrwt>0</asrwt>
<pdfrwt beam="1">  1       21 0.27837391E-01 0.20371915E+03</pdfrwt>
<pdfrwt beam="2">  1       21 0.73935137E-01 0.20371915E+03</pdfrwt>
<totfact> 0.20089794E+04</totfact>
</mgrwt>
</event>
<event>
 4    1  0.4056666E+000  0.2230803E+03  0.7546771E-02  0.1131607E+00
         21   -1    0    0  503  502  0.00000000000E+00  0.00000000000E+00  0.19830256960E+03  0.19830256960E+03  0.00000000000E+00 0. -1.
         21   -1    0    0  501  503 -0.00000000000E+00 -0.00000000000E+00 -0.45412223879E+03  0.45412223879E+03  0.00000000000E+00 0.  1.
          6    1    1    2  501    0 -0.13376566138E+03 -0.44074627097E+02 -0.34610342252E+03  0.41176741493E+03  0.17300000000E+03 0.  1.
         -6    1    1    2    0  502  0.13376566138E+03  0.44074627097E+02  0.90283753326E+02  0.24065739347E+03  0.17300000000E+03 0. -1.
<mgrwt>
<rscale>  2 0.22308031E+03</rscale>
<asrwt>0</asrwt>
<pdfrwt beam="1">  1       21 0.30508088E-01 0.22308031E+03</pdfrwt>
<pdfrwt beam="2">  1       21 0.69864960E-01 0.22308031E+03</pdfrwt>
<totfact> 0.18848854E+04</totfact>
</mgrwt>
</event>
<event>
 4    1  0.4056666E+000  0.1922100E+03  0.7546771E-02  0.1156483E+00
         21   -1    0    0  501  502  0.00000000000E+00  0.00000000000E+00  0.31108049284E+03  0.31108049284E+03  0.00000000000E+00 0.  1.
         21   -1    0    0  502  503 -0.00000000000E+00 -0.00000000000E+00 -0.35081063978E+03  0.35081063978E+03  0.00000000000E+00 0.  1.
          6    1    1    2  501    0  0.58464963728E+02 -0.59979387389E+02  0.24929416386E+03  0.31478922953E+03  0.17300000000E+03 0.  1.
         -6    1    1    2    0  503 -0.58464963728E+02  0.59979387389E+02 -0.28902431080E+03  0.34710190309E+03  0.17300000000E+03 0.  1.
<mgrwt>
<rscale>  2 0.19220999E+03</rscale>
<asrwt>0</asrwt>
<pdfrwt beam="1">  1       21 0.47858537E-01 0.19220999E+03</pdfrwt>
<pdfrwt beam="2">  1       21 0.53970868E-01 0.19220999E+03</pdfrwt>
<totfact> 0.13552010E+04</totfact>
</mgrwt>
</event>
<event>
 4    1  0.4056666E+000  0.2135613E+03  0.7546771E-02  0.1138776E+00
         21   -1    0    0  503  502  0.00000000000E+00  0.00000000000E+00  0.39812492533E+02  0.39812492533E+02  0.00000000000E+00 0. -1.
         21   -1    0    0  501  503 -0.00000000000E+00 -0.00000000000E+00 -0.11885989344E+04  0.11885989344E+04  0.00000000000E+00 0. -1.
          6    1    1    2  501    0 -0.11174163698E+03  0.56508784586E+02 -0.45754534745E+03  0.50493185792E+03  0.17300000000E+03 0. -1.
         -6    1    1    2    0  502  0.11174163698E+03 -0.56508784586E+02 -0.69124109447E+03  0.72347956906E+03  0.17300000000E+03 0. -1.
<mgrwt>
<rscale>  2 0.21356132E+03</rscale>
<asrwt>0</asrwt>
<pdfrwt beam="1">  1       21 0.61249989E-02 0.21356132E+03</pdfrwt>
<pdfrwt beam="2">  1       21 0.18286137E+00 0.21356132E+03</pdfrwt>
<totfact> 0.32670439E+04</totfact>
</mgrwt>
</event>
<event>
 4    1  0.4056666E+000  0.1963097E+03  0.7546771E-02  0.1152890E+00
         21   -1    0    0  501  502  0.00000000000E+00  0.00000000000E+00  0.15153860605E+03  0.15153860605E+03  0.00000000000E+00 0. -1.
         21   -1    0    0  502  503 -0.00000000000E+00 -0.00000000000E+00 -0.26748972794E+03  0.26748972794E+03  0.00000000000E+00 0. -1.
          6    1    1    2  501    0  0.90888337057E+02  0.18649261339E+02 -0.10448546842E+03  0.22238412235E+03  0.17300000000E+03 0.  1.
         -6    1    1    2    0  503 -0.90888337057E+02 -0.18649261339E+02 -0.11465653472E+02  0.19664421164E+03  0.17300000000E+03 0.  1.
<mgrwt>
<rscale>  2 0.19630967E+03</rscale>
<asrwt>0</asrwt>
<pdfrwt beam="1">  1       21 0.23313632E-01 0.19630967E+03</pdfrwt>
<pdfrwt beam="2">  1       21 0.41152266E-01 0.19630967E+03</pdfrwt>
<totfact> 0.98235517E+04</totfact>
</mgrwt>
</event>
<event>
 4    1  0.4056666E+000  0.1876504E+03  0.7546771E-02  0.1160598E+00
         21   -1    0    0  501  502  0.00000000000E+00  0.00000000000E+00  0.57769965800E+03  0.57769965800E+03  0.00000000000E+00 0. -1.
         21   -1    0    0  502  503 -0.00000000000E+00 -0.00000000000E+00 -0.14063010632E+03  0.14063010632E+03  0.00000000000E+00 0. -1.
          6    1    1    2  501    0 -0.10700377371E+01  0.72681070127E+02  0.48888127864E+03  0.52365789170E+03  0.17300000000E+03 0. -1.
         -6    1    1    2    0  503  0.10700377371E+01 -0.72681070127E+02 -0.51811726971E+02  0.19467187261E+03  0.17300000000E+03 0. -1.
<mgrwt>
<rscale>  2 0.18765043E+03</rscale>
<asrwt>0</asrwt>
<pdfrwt beam="1">  1       21 0.88876870E-01 0.18765043E+03</pdfrwt>
<pdfrwt beam="2">  1       21 0.21635401E-01 0.18765043E+03</pdfrwt>
<totfact> 0.21608721E+04</totfact>
</mgrwt>
</event>
<event>
 4    1  0.4056666E+000  0.1896405E+03  0.7546771E-02  0.1158786E+00
         21   -1    0    0  503  502  0.00000000000E+00  0.00000000000E+00  0.35185556239E+03  0.35185556239E+03  0.00000000000E+00 0.  1.
         21   -1    0    0  501  503 -0.00000000000E+00 -0.00000000000E+00 -0.10252994572E+03  0.10252994572E+03  0.00000000000E+00 0.  1.
          6    1    1    2  501    0 -0.48518575785E+02  0.60666950406E+02  0.13733304075E+03  0.23414503016E+03  0.17300000000E+03 0.  1.
         -6    1    1    2    0  502  0.48518575785E+02 -0.60666950406E+02  0.11199257592E+03  0.22024047795E+03  0.17300000000E+03 0.  1.
<mgrwt>
<rscale>  2 0.18964053E+03</rscale>
<asrwt>0</asrwt>
<pdfrwt beam="1">  1       21 0.54131624E-01 0.18964053E+03</pdfrwt>
<pdfrwt beam="2">  1       21 0.15773838E-01 0.18964053E+03</pdfrwt>
<totfact> 0.11557544E+05</totfact>
</mgrwt>
</event>
<event>
 4    1  0.4056666E+000  0.1860072E+03  0.7546771E-02  0.1162113E+00
         21   -1    0    0  501  502  0.00000000000E+00  0.00000000000E+00  0.36626280591E+03  0.36626280591E+03  0.00000000000E+00 0. -1.
         21   -1    0    0  502  503 -0.00000000000E+00 -0.00000000000E+00 -0.98631614146E+02  0.98631614146E+02  0.00000000000E+00 0. -1.
          6    1    1    2  501    0  0.48095517316E+02 -0.48543666341E+02  0.86034329769E+02  0.20494041140E+03  0.17300000000E+03 0. -1.
         -6    1    1    2    0  503 -0.48095517316E+02  0.48543666341E+02  0.18159686200E+03  0.25995400865E+03  0.17300000000E+03 0. -1.
<mgrwt>
<rscale>  2 0.18600717E+03</rscale>
<asrwt>0</asrwt>
<pdfrwt beam="1">  1       21 0.56348123E-01 0.18600717E+03</pdfrwt>
<pdfrwt beam="2">  1       21 0.15174095E-01 0.18600717E+03</pdfrwt>
<totfact> 0.11409464E+05</totfact>
</mgrwt>
</event>
<event>
 4    1  0.4056666E+000  0.2744174E+03  0.7546771E-02  0.1098778E+00
         21   -1    0    0  503  502  0.00000000000E+00  0.00000000000E+00  0.47990467819E+03  0.47990467819E+03  0.00000000000E+00 0. -1.
         21   -1    0    0  501  503 -0.00000000000E+00 -0.00000000000E+00 -0.31386004677E+03  0.31386004677E+03  0.00000000000E+00 0.  1.
          6    1    1    2  501    0 -0.22331340857E+02 -0.21184250568E+03 -0.19762803507E+03  0.33817418033E+03  0.17300000000E+03 0.  1.
         -6    1    1    2    0  502  0.22331340857E+02  0.21184250568E+03  0.36367266649E+03  0.45559054462E+03  0.17300000000E+03 0. -1.
<mgrwt>
<rscale>  2 0.27441745E+03</rscale>
<asrwt>0</asrwt>
<pdfrwt beam="1">  1       21 0.73831489E-01 0.27441745E+03</pdfrwt>
<pdfrwt beam="2">  1       21 0.48286161E-01 0.27441745E+03</pdfrwt>
<totfact> 0.64015687E+03</totfact>
</mgrwt>
</event>
<event>
 4    1  0.4056666E+000  0.1836021E+03  0.7546771E-02  0.1164362E+00
         21   -1    0    0  501  502  0.00000000000E+00  0.00000000000E+00  0.72130543667E+02  0.72130543667E+02  0.00000000000E+00 0. -1.
         21   -1    0    0  502  503 -0.00000000000E+00 -0.00000000000E+00 -0.46902438425E+03  0.46902438425E+03  0.00000000000E+00 0. -1.
          6    1    1    2  501    0 -0.60649939998E+02 -0.10114720647E+02 -0.21464617151E+03  0.28245831859E+03  0.17300000000E+03 0. -1.
         -6    1    1    2    0  503  0.60649939998E+02  0.10114720647E+02 -0.18224766907E+03  0.25869660932E+03  0.17300000000E+03 0. -1.
<mgrwt>
<rscale>  2 0.18360208E+03</rscale>
<asrwt>0</asrwt>
<pdfrwt beam="1">  1       21 0.11097007E-01 0.18360208E+03</pdfrwt>
<pdfrwt beam="2">  1       21 0.72157596E-01 0.18360208E+03</pdfrwt>
<totfact> 0.11729209E+05</totfact>
</mgrwt>
</event>
<event>
 4    1  0.4056666E+000  0.1838132E+03  0.7546771E-02  0.1164163E+00
         21   -1    0    0  503  502  0.00000000000E+00  0.00000000000E+00  0.66723900335E+03  0.66723900335E+03  0.00000000000E+00 0.  1.
         21   -1    0    0  501  503 -0.00000000000E+00 -0.00000000000E+00 -0.53519860299E+02  0.53519860299E+02  0.00000000000E+00 0.  1.
          6    1    1    2  501    0  0.36647756142E+02  0.50152189911E+02  0.22322644728E+03  0.28916664218E+03  0.17300000000E+03 0.  1.
         -6    1    1    2    0  502 -0.36647756142E+02 -0.50152189911E+02  0.39049269577E+03  0.43159222147E+03  0.17300000000E+03 0.  1.
<mgrwt>
<rscale>  2 0.18381322E+03</rscale>
<asrwt>0</asrwt>
<pdfrwt beam="1">  1       21 0.10265215E+00 0.18381322E+03</pdfrwt>
<pdfrwt beam="2">  1       21 0.82338251E-02 0.18381322E+03</pdfrwt>
<totfact> 0.88358873E+04</totfact>
</mgrwt>
</event>
<event>
 4    1  0.4056666E+000  0.2076842E+03  0.7546771E-02  0.1143413E+00
         21   -1    0    0  501  502  0.00000000000E+00  0.00000000000E+00  0.48478621807E+03  0.48478621807E+03  0.00000000000E+00 0.  1.
         21   -1    0    0  502  503 -0.00000000000E+00 -0.00000000000E+00 -0.14346611613E+03  0.14346611613E+03  0.00000000000E+00 0. -1.
          6    1    1    2  501    0  0.96445555403E+02 -0.62465977491E+02  0.36425829884E+03  0.41930520122E+03  0.17300000000E+03 0.  1.
         -6    1    1    2    0  503 -0.96445555403E+02  0.62465977491E+02 -0.22938196900E+02  0.20894713297E+03  0.17300000000E+03 0. -1.
<mgrwt>
<rscale>  2 0.20768424E+03</rscale>
<asrwt>0</asrwt>
<pdfrwt beam="1">  1       21 0.74582494E-01 0.20768424E+03</pdfrwt>
<pdfrwt beam="2">  1       21 0.22071710E-01 0.20768424E+03</pdfrwt>
<totfact> 0.30629947E+04</totfact>
</mgrwt>
</event>
<event>
 4    1  0.4056666E+000  0.1794333E+03  0.7546771E-02  0.1168353E+00
         21   -1    0    0  503  502  0.00000000000E+00  0.00000000000E+00  0.27062190050E+02  0.27062190050E+02  0.00000000000E+00 0.  1.
         21   -1    0    0  501  503 -0.00000000000E+00 -0.00000000000E+00 -0.13339672904E+04  0.13339672904E+04  0.00000000000E+00 0.  1.
          6    1    1    2  501    0  0.45409549161E+02  0.14327470465E+02 -0.87723485450E+03  0.89539784092E+03  0.17300000000E+03 0.  1.
         -6    1    1    2    0  502 -0.45409549161E+02 -0.14327470465E+02 -0.42967024582E+03  0.46563163951E+03  0.17300000000E+03 0.  1.
<mgrwt>
<rscale>  2 0.17943328E+03</rscale>
<asrwt>0</asrwt>
<pdfrwt beam="1">  1       21 0.41634149E-02 0.17943328E+03</pdfrwt>
<pdfrwt beam="2">  1       21 0.20522569E+00 0.17943328E+03</pdfrwt>
<totfact> 0.45975304E+04</totfact>
</mgrwt>
</event>
<event>
 4    1  0.4056666E+000  0.2398501E+03  0.7546771E-02  0.1119893E+00
         21   -1    0    0  501  502  0.00000000000E+00  0.00000000000E+00  0.20573115780E+03  0.20573115780E+03  0.00000000000E+00 0.  1.
         21   -1    0    0  502  503 -0.00000000000E+00 -0.00000000000E+00 -0.31128386557E+03  0.31128386557E+03  0.00000000000E+00 0.  1.
          6    1    1    2  501    0 -0.93956504275E+02  0.13700812494E+03 -0.13521420568E+03  0.27533785140E+03  0.17300000000E+03 0.  1.
         -6    1    1    2    0  503  0.93956504275E+02 -0.13700812494E+03  0.29661497909E+02  0.24167717197E+03  0.17300000000E+03 0.  1.
<mgrwt>
<rscale>  2 0.23985006E+03</rscale>
<asrwt>0</asrwt>
<pdfrwt beam="1">  1       21 0.31650947E-01 0.23985006E+03</pdfrwt>
<pdfrwt beam="2">  1       21 0.47889826E-01 0.23985006E+03</pdfrwt>
<totfact> 0.39096708E+04</totfact>
</mgrwt>
</event>
<event>
 4    1  0.4056666E+000  0.1748017E+03  0.7546771E-02  0.1172931E+00
         21   -1    0    0  501  502  0.00000000000E+00  0.00000000000E+00  0.37000606188E+03  0.37000606188E+03  0.00000000000E+00 0.  1.
         21   -1    0    0  502  503 -0.00000000000E+00 -0.00000000000E+00 -0.36367308996E+03  0.36367308996E+03  0.00000000000E+00 0.  1.
          6    1    1    2  501    0 -0.66840595391E+01  0.24123813381E+02  0.32567751310E+03  0.36962342670E+03  0.17300000000E+03 0.  1.
         -6    1    1    2    0  503  0.66840595391E+01 -0.24123813381E+02 -0.31934454118E+03  0.36405572514E+03  0.17300000000E+03 0.  1.
<mgrwt>
<rscale>  2 0.17480170E+03</rscale>
<asrwt>0</asrwt>
<pdfrwt beam="1">  1       21 0.56924009E-01 0.17480170E+03</pdfrwt>
<pdfrwt beam="2">  1       21 0.55949706E-01 0.17480170E+03</pdfrwt>
<totfact> 0.88354699E+03</totfact>
</mgrwt>
</event>
<event>
 4    1  0.4056666E+000  0.1829745E+03  0.7546771E-02  0.1164955E+00
         21   -1    0    0  501  502  0.00000000000E+00  0.00000000000E+00  0.25500248420E+03  0.25500248420E+03  0.00000000000E+00 0. -1.
         21   -1    0    0  502  503 -0.00000000000E+00 -0.00000000000E+00 -0.16106876584E+03  0.16106876584E+03  0.00000000000E+00 0. -1.
          6    1    1    2  501    0  0.17490339856E+02  0.56962755539E+02  0.13641559406E+03  0.22822988807E+03  0.17300000000E+03 0. -1.
         -6    1    1    2    0  503 -0.17490339856E+02 -0.56962755539E+02 -0.42481875694E+02  0.18784136198E+03  0.17300000000E+03 0. -1.
<mgrwt>
<rscale>  2 0.18297450E+03</rscale>
<asrwt>0</asrwt>
<pdfrwt beam="1">  1       21 0.39231152E-01 0.18297450E+03</pdfrwt>
<pdfrwt beam="2">  1       21 0.24779810E-01 0.18297450E+03</pdfrwt>
<totfact> 0.96850101E+04</totfact>
</mgrwt>
</event>
<event>
 4    1  0.4056666E+000  0.1836620E+03  0.7546771E-02  0.1164305E+00
         21   -1    0    0  503  502  0.00000000000E+00  0.00000000000E+00  0.39812088849E+02  0.39812088849E+02  0.00000000000E+00 0.  1.
         21   -1    0    0  501  503 -0.00000000000E+00 -0.00000000000E+00 -0.84751587329E+03  0.84751587329E+03  0.00000000000E+00 0.  1.
          6    1    1    2  501    0  0.38004755928E+02  0.48563128485E+02 -0.41135037852E+03  0.45048959236E+03  0.17300000000E+03 0. -1.
         -6    1    1    2    0  502 -0.38004755928E+02 -0.48563128485E+02 -0.39635340593E+03  0.43683836978E+03  0.17300000000E+03 0. -1.
<mgrwt>
<rscale>  2 0.18366202E+03</rscale>
<asrwt>0</asrwt>
<pdfrwt beam="1">  1       21 0.61249362E-02 0.18366202E+03</pdfrwt>
<pdfrwt beam="2">  1       21 0.13038707E+00 0.18366202E+03</pdfrwt>
<totfact> 0.82005224E+04</totfact>
</mgrwt>
</event>
<event>
 4    1  0.4056666E+000  0.1933898E+03  0.7546771E-02  0.1155439E+00
         21   -1    0    0  501  502  0.00000000000E+00  0.00000000000E+00  0.51645405471E+03  0.51645405471E+03  0.00000000000E+00 0.  1.
         21   -1    0    0  502  503 -0.00000000000E+00 -0.00000000000E+00 -0.73617403825E+02  0.73617403825E+02  0.00000000000E+00 0.  1.
          6    1    1    2  501    0  0.85514617177E+02  0.12563740765E+02  0.18372992616E+03  0.26675135070E+03  0.17300000000E+03 0.  1.
         -6    1    1    2    0  503 -0.85514617177E+02 -0.12563740765E+02  0.25910672473E+03  0.32332010784E+03  0.17300000000E+03 0.  1.
<mgrwt>
<rscale>  2 0.19338975E+03</rscale>
<asrwt>0</asrwt>
<pdfrwt beam="1">  1       21 0.79454468E-01 0.19338975E+03</pdfrwt>
<pdfrwt beam="2">  1       21 0.11325755E-01 0.19338975E+03</pdfrwt>
<totfact> 0.90857745E+04</totfact>
</mgrwt>
</event>
<event>
 4    1  0.4056666E+000  0.1954209E+03  0.7546771E-02  0.1153661E+00
         21   -1    0    0  501  502  0.00000000000E+00  0.00000000000E+00  0.20262251536E+03  0.20262251536E+03  0.00000000000E+00 0.  1.
         21   -1    0    0  502  503 -0.00000000000E+00 -0.00000000000E+00 -0.22880938062E+03  0.22880938062E+03  0.00000000000E+00 0.  1.
          6    1    1    2  501    0 -0.88087577742E+02 -0.22380998005E+02 -0.10366286791E+03  0.22121329211E+03  0.17300000000E+03 0.  1.
         -6    1    1    2    0  503  0.88087577742E+02  0.22380998005E+02  0.77476002645E+02  0.21021860386E+03  0.17300000000E+03 0.  1.
<mgrwt>
<rscale>  2 0.19542091E+03</rscale>
<asrwt>0</asrwt>
<pdfrwt beam="1">  1       21 0.31172695E-01 0.19542091E+03</pdfrwt>
<pdfrwt beam="2">  1       21 0.35201443E-01 0.19542091E+03</pdfrwt>
<totfact> 0.76835592E+04</totfact>
</mgrwt>
</event>
<event>
 4    1  0.4056666E+000  0.1743597E+03  0.7546771E-02  0.1173376E+00
         21   -1    0    0  501  502  0.00000000000E+00  0.00000000000E+00  0.37906768093E+03  0.37906768093E+03  0.00000000000E+00 0.  1.
         21   -1    0    0  502  503 -0.00000000000E+00 -0.00000000000E+00 -0.14030863670E+03  0.14030863670E+03  0.00000000000E+00 0.  1.
          6    1    1    2  501    0 -0.45374212579E+00 -0.21728040059E+02 -0.50592549686E+02  0.18155142437E+03  0.17300000000E+03 0.  1.
         -6    1    1    2    0  503  0.45374212579E+00  0.21728040059E+02  0.28935159392E+03  0.33782489326E+03  0.17300000000E+03 0.  1.
<mgrwt>
<rscale>  2 0.17435972E+03</rscale>
<asrwt>0</asrwt>
<pdfrwt beam="1">  1       21 0.58318104E-01 0.17435972E+03</pdfrwt>
<pdfrwt beam="2">  1       21 0.21585944E-01 0.17435972E+03</pdfrwt>
<totfact> 0.55566811E+04</totfact>
</mgrwt>
</event>
<event>
 4    1  0.4056666E+000  0.1748292E+03  0.7546771E-02  0.1172903E+00
         21   -1    0    0  503  502  0.00000000000E+00  0.00000000000E+00  0.15590426917E+03  0.15590426917E+03  0.00000000000E+00 0.  1.
         21   -1    0    0  501  503 -0.00000000000E+00 -0.00000000000E+00 -0.23731797729E+03  0.23731797729E+03  0.00000000000E+00 0.  1.
          6    1    1    2  501    0 -0.24639374908E+02  0.53996843610E+01 -0.12269325387E+03  0.21358579057E+03  0.17300000000E+03 0.  1.
         -6    1    1    2    0  502  0.24639374908E+02 -0.53996843610E+01  0.41279545749E+02  0.17963645589E+03  0.17300000000E+03 0.  1.
<mgrwt>
<rscale>  2 0.17482922E+03</rscale>
<asrwt>0</asrwt>
<pdfrwt beam="1">  1       21 0.23985272E-01 0.17482922E+03</pdfrwt>
<pdfrwt beam="2">  1       21 0.36510458E-01 0.17482922E+03</pdfrwt>
<totfact> 0.11933804E+05</totfact>
</mgrwt>
</event>
<event>
 4    1  0.4056666E+000  0.1810650E+03  0.7546771E-02  0.1166776E+00
         21   -1    0    0  501  502  0.00000000000E+00  0.00000000000E+00  0.18153498524E+03  0.18153498524E+03  0.00000000000E+00 0.  1.
         21   -1    0    0  502  503 -0.00000000000E+00 -0.00000000000E+00 -0.18563955163E+03  0.18563955163E+03  0.00000000000E+00 0.  1.
          6    1    1    2  501    0 -0.38679817048E+02  0.36869940220E+02  0.28207706102E+02  0.18324899842E+03  0.17300000000E+03 0. -1.
         -6    1    1    2    0  503  0.38679817048E+02 -0.36869940220E+02 -0.32312272487E+02  0.18392553844E+03  0.17300000000E+03 0. -1.
<mgrwt>
<rscale>  2 0.18106496E+03</rscale>
<asrwt>0</asrwt>
<pdfrwt beam="1">  1       21 0.27928459E-01 0.18106496E+03</pdfrwt>
<pdfrwt beam="2">  1       21 0.28559931E-01 0.18106496E+03</pdfrwt>
<totfact> 0.14410623E+05</totfact>
</mgrwt>
</event>
<event>
 4    1  0.4056666E+000  0.1895518E+03  0.7546771E-02  0.1158866E+00
         21   -1    0    0  501  502  0.00000000000E+00  0.00000000000E+00  0.89467623100E+03  0.89467623100E+03  0.00000000000E+00 0.  1.
         21   -1    0    0  502  503 -0.00000000000E+00 -0.00000000000E+00 -0.55261823927E+02  0.55261823927E+02  0.00000000000E+00 0.  1.
          6    1    1    2  501    0 -0.58215993168E+02  0.51105552550E+02  0.66800478890E+03  0.69437761870E+03  0.17300000000E+03 0.  1.
         -6    1    1    2    0  503  0.58215993168E+02 -0.51105552550E+02  0.17140961818E+03  0.25556043623E+03  0.17300000000E+03 0.  1.
<mgrwt>
<rscale>  2 0.18955179E+03</rscale>
<asrwt>0</asrwt>
<pdfrwt beam="1">  1       21 0.13764249E+00 0.18955179E+03</pdfrwt>
<pdfrwt beam="2">  1       21 0.85018197E-02 0.18955179E+03</pdfrwt>
<totfact> 0.40417600E+04</totfact>
</mgrwt>
</event>
<event>
 4    1  0.4056666E+000  0.1946092E+03  0.7546771E-02  0.1154369E+00
         21   -1    0    0  501  502  0.00000000000E+00  0.00000000000E+00  0.54436681472E+03  0.54436681472E+03  0.00000000000E+00 0. -1.
         21   -1    0    0  502  503 -0.00000000000E+00 -0.00000000000E+00 -0.72389948518E+02  0.72389948518E+02  0.00000000000E+00 0. -1.
          6    1    1    2  501    0 -0.88389243890E+02  0.11448305268E+02  0.29683085480E+03  0.35493841507E+03  0.17300000000E+03 0. -1.
         -6    1    1    2    0  503  0.88389243890E+02 -0.11448305268E+02  0.17514601140E+03  0.26181834817E+03  0.17300000000E+03 0. -1.
<mgrwt>
<rscale>  2 0.19460915E+03</rscale>
<asrwt>0</asrwt>
<pdfrwt beam="1">  1       21 0.83748738E-01 0.19460915E+03</pdfrwt>
<pdfrwt beam="2">  1       21 0.11136916E-01 0.19460915E+03</pdfrwt>
<totfact> 0.83033183E+04</totfact>
</mgrwt>
</event>
<event>
 4    1  0.4056666E+000  0.1999389E+03  0.7546771E-02  0.1149791E+00
         21   -1    0    0  501  502  0.00000000000E+00  0.00000000000E+00  0.51202087034E+03  0.51202087034E+03  0.00000000000E+00 0.  1.
         21   -1    0    0  502  503 -0.00000000000E+00 -0.00000000000E+00 -0.87805450479E+02  0.87805450479E+02  0.00000000000E+00 0.  1.
          6    1    1    2  501    0  0.31131398235E+02 -0.95275336947E+02  0.31195171411E+03  0.37052587726E+03  0.17300000000E+03 0.  1.
         -6    1    1    2    0  503 -0.31131398235E+02  0.95275336947E+02  0.11226370576E+03  0.22930044356E+03  0.17300000000E+03 0.  1.
<mgrwt>
<rscale>  2 0.19993888E+03</rscale>
<asrwt>0</asrwt>
<pdfrwt beam="1">  1       21 0.78772440E-01 0.19993888E+03</pdfrwt>
<pdfrwt beam="2">  1       21 0.13508531E-01 0.19993888E+03</pdfrwt>
<totfact> 0.67325364E+04</totfact>
</mgrwt>
</event>
<event>
 4    1  0.4056666E+000  0.2182227E+03  0.7546771E-02  0.1135215E+00
         21   -1    0    0  501  502  0.00000000000E+00  0.00000000000E+00  0.22578848774E+03  0.22578848774E+03  0.00000000000E+00 0.  1.
         21   -1    0    0  502  503 -0.00000000000E+00 -0.00000000000E+00 -0.22244261473E+03  0.22244261473E+03  0.00000000000E+00 0.  1.
          6    1    1    2  501    0 -0.33575212484E+00  0.13301147532E+03  0.52701961458E+02  0.22449646331E+03  0.17300000000E+03 0.  1.
         -6    1    1    2    0  503  0.33575212484E+00 -0.13301147532E+03 -0.49356088441E+02  0.22373463916E+03  0.17300000000E+03 0.  1.
<mgrwt>
<rscale>  2 0.21822274E+03</rscale>
<asrwt>0</asrwt>
<pdfrwt beam="1">  1       21 0.34736691E-01 0.21822274E+03</pdfrwt>
<pdfrwt beam="2">  1       21 0.34221941E-01 0.21822274E+03</pdfrwt>
<totfact> 0.64985088E+04</totfact>
</mgrwt>
</event>
<event>
 4    1  0.4056666E+000  0.2046557E+03  0.7546771E-02  0.1145869E+00
         21   -1    0    0  501  502  0.00000000000E+00  0.00000000000E+00  0.31183128964E+03  0.31183128964E+03  0.00000000000E+00 0. -1.
         21   -1    0    0  502  503 -0.00000000000E+00 -0.00000000000E+00 -0.17412465171E+03  0.17412465171E+03  0.00000000000E+00 0. -1.
          6    1    1    2  501    0 -0.81448382602E+02 -0.72946113296E+02  0.18503154819E+03  0.27589970696E+03  0.17300000000E+03 0. -1.
         -6    1    1    2    0  503  0.81448382602E+02  0.72946113296E+02 -0.47324910268E+02  0.21005623439E+03  0.17300000000E+03 0. -1.
<mgrwt>
<rscale>  2 0.20465575E+03</rscale>
<asrwt>0</asrwt>
<pdfrwt beam="1">  1       21 0.47974044E-01 0.20465575E+03</pdfrwt>
<pdfrwt beam="2">  1       21 0.26788408E-01 0.20465575E+03</pdfrwt>
<totfact> 0.54784368E+04</totfact>
</mgrwt>
</event>
<event>
 4    1  0.4056666E+000  0.2344127E+03  0.7546771E-02  0.1123572E+00
         21   -1    0    0  501  502  0.00000000000E+00  0.00000000000E+00  0.13546426512E+03  0.13546426512E+03  0.00000000000E+00 0.  1.
         21   -1    0    0  502  503 -0.00000000000E+00 -0.00000000000E+00 -0.44577871659E+03  0.44577871659E+03  0.00000000000E+00 0. -1.
          6    1    1    2  501    0 -0.99434264930E+02  0.12301674504E+03 -0.67947072337E+02  0.24406166688E+03  0.17300000000E+03 0. -1.
         -6    1    1    2    0  503  0.99434264930E+02 -0.12301674504E+03 -0.24236737913E+03  0.33718131483E+03  0.17300000000E+03 0. -1.
<mgrwt>
<rscale>  2 0.23441265E+03</rscale>
<asrwt>0</asrwt>
<pdfrwt beam="1">  1       21 0.20840656E-01 0.23441265E+03</pdfrwt>
<pdfrwt beam="2">  1       21 0.68581341E-01 0.23441265E+03</pdfrwt>
<totfact> 0.40586781E+04</totfact>
</mgrwt>
</event>
<event>
 4    1  0.4056666E+000  0.1839405E+03  0.7546771E-02  0.1164043E+00
         21   -1    0    0  501  502  0.00000000000E+00  0.00000000000E+00  0.27506248317E+03  0.27506248317E+03  0.00000000000E+00 0. -1.
         21   -1    0    0  502  503 -0.00000000000E+00 -0.00000000000E+00 -0.17144688281E+03  0.17144688281E+03  0.00000000000E+00 0. -1.
          6    1    1    2  501    0  0.71901647930E+00 -0.62486586693E+02  0.17047912838E+03  0.25079318913E+03  0.17300000000E+03 0. -1.
         -6    1    1    2    0  503 -0.71901647930E+00  0.62486586693E+02 -0.66863528014E+02  0.19571617685E+03  0.17300000000E+03 0. -1.
<mgrwt>
<rscale>  2 0.18394045E+03</rscale>
<asrwt>0</asrwt>
<pdfrwt beam="1">  1       21 0.42317305E-01 0.18394045E+03</pdfrwt>
<pdfrwt beam="2">  1       21 0.26376443E-01 0.18394045E+03</pdfrwt>
<totfact> 0.73717418E+04</totfact>
</mgrwt>
</event>
<event>
 4    1  0.4056666E+000  0.2002021E+03  0.7546771E-02  0.1149569E+00
         21   -1    0    0  503  502  0.00000000000E+00  0.00000000000E+00  0.21552460322E+03  0.21552460322E+03  0.00000000000E+00 0.  1.
         21   -1    0    0  501  503 -0.00000000000E+00 -0.00000000000E+00 -0.22787373776E+03  0.22787373776E+03  0.00000000000E+00 0. -1.
          6    1    1    2  501    0  0.10065525647E+03  0.45155718942E+01  0.88896652978E+02  0.21905133178E+03  0.17300000000E+03 0.  1.
         -6    1    1    2    0  502 -0.10065525647E+03 -0.45155718942E+01 -0.10124578753E+03  0.22434700920E+03  0.17300000000E+03 0. -1.
<mgrwt>
<rscale>  2 0.20020208E+03</rscale>
<asrwt>0</asrwt>
<pdfrwt beam="1">  1       21 0.33157632E-01 0.20020208E+03</pdfrwt>
<pdfrwt beam="2">  1       21 0.35057498E-01 0.20020208E+03</pdfrwt>
<totfact> 0.68463050E+04</totfact>
</mgrwt>
</event>
<event>
 4    1  0.4056666E+000  0.1863278E+03  0.7546771E-02  0.1161816E+00
         21   -1    0    0  503  502  0.00000000000E+00  0.00000000000E+00  0.22956318768E+03  0.22956318768E+03  0.00000000000E+00 0. -1.
         21   -1    0    0  501  503 -0.00000000000E+00 -0.00000000000E+00 -0.18810121766E+03  0.18810121766E+03  0.00000000000E+00 0. -1.
          6    1    1    2  501    0 -0.10874089314E+02 -0.68343205279E+02 -0.71720662077E+02  0.19965443370E+03  0.17300000000E+03 0. -1.
         -6    1    1    2    0  502  0.10874089314E+02  0.68343205279E+02  0.11318263209E+03  0.21800997164E+03  0.17300000000E+03 0. -1.
<mgrwt>
<rscale>  2 0.18632777E+03</rscale>
<asrwt>0</asrwt>
<pdfrwt beam="1">  1       21 0.35317413E-01 0.18632777E+03</pdfrwt>
<pdfrwt beam="2">  1       21 0.28938649E-01 0.18632777E+03</pdfrwt>
<totfact> 0.88563444E+04</totfact>
</mgrwt>
</event>
<event>
 4    1  0.4056666E+000  0.1819867E+03  0.7546771E-02  0.1165894E+00
         21   -1    0    0  503  502  0.00000000000E+00  0.00000000000E+00  0.28540485581E+03  0.28540485581E+03  0.00000000000E+00 0.  1.
         21   -1    0    0  501  503 -0.00000000000E+00 -0.00000000000E+00 -0.12369758421E+03  0.12369758421E+03  0.00000000000E+00 0.  1.
          6    1    1    2  501    0 -0.15088054420E+02  0.54428951793E+02  0.29968636550E+02  0.18443773843E+03  0.17300000000E+03 0.  1.
         -6    1    1    2    0  502  0.15088054420E+02 -0.54428951793E+02  0.13173863504E+03  0.22466470160E+03  0.17300000000E+03 0.  1.
<mgrwt>
<rscale>  2 0.18198670E+03</rscale>
<asrwt>0</asrwt>
<pdfrwt beam="1">  1       21 0.43908439E-01 0.18198670E+03</pdfrwt>
<pdfrwt beam="2">  1       21 0.19030398E-01 0.18198670E+03</pdfrwt>
<totfact> 0.12665699E+05</totfact>
</mgrwt>
</event>
<event>
 4    1  0.4056666E+000  0.1792511E+03  0.7546771E-02  0.1168530E+00
         21   -1    0    0  501  502  0.00000000000E+00  0.00000000000E+00  0.13013138751E+04  0.13013138751E+04  0.00000000000E+00 0.  1.
         21   -1    0    0  502  503 -0.00000000000E+00 -0.00000000000E+00 -0.46543327326E+02  0.46543327326E+02  0.00000000000E+00 0.  1.
          6    1    1    2  501    0 -0.14582029183E+02 -0.44601791147E+02  0.10891623668E+04  0.11038141223E+04  0.17300000000E+03 0.  1.
         -6    1    1    2    0  503  0.14582029183E+02  0.44601791147E+02  0.16560818097E+03  0.24404308012E+03  0.17300000000E+03 0.  1.
<mgrwt>
<rscale>  2 0.17925110E+03</rscale>
<asrwt>0</asrwt>
<pdfrwt beam="1">  1       21 0.20020211E+00 0.17925110E+03</pdfrwt>
<pdfrwt beam="2">  1       21 0.71605129E-02 0.17925110E+03</pdfrwt>
<totfact> 0.19675233E+04</totfact>
</mgrwt>
</event>
<event>
 4    1  0.4056666E+000  0.2049117E+03  0.7546771E-02  0.1145660E+00
         21   -1    0    0  503  502  0.00000000000E+00  0.00000000000E+00  0.57472789670E+03  0.57472789670E+03  0.00000000000E+00 0. -1.
         21   -1    0    0  501  503 -0.00000000000E+00 -0.00000000000E+00 -0.14377373328E+03  0.14377373328E+03  0.00000000000E+00 0. -1.
          6    1    1    2  501    0  0.45698990801E+02 -0.99856923789E+02 -0.36472844864E+02  0.20813234108E+03  0.17300000000E+03 0. -1.
         -6    1    1    2    0  502 -0.45698990801E+02  0.99856923789E+02  0.46742700828E+03  0.51036928891E+03  0.17300000000E+03 0. -1.
<mgrwt>
<rscale>  2 0.20491170E+03</rscale>
<asrwt>0</asrwt>
<pdfrwt beam="1">  1       21 0.88419675E-01 0.20491170E+03</pdfrwt>
<pdfrwt beam="2">  1       21 0.22119036E-01 0.20491170E+03</pdfrwt>
<totfact> 0.20757628E+04</totfact>
</mgrwt>
</event>
<event>
 4    1  0.4056666E+000  0.2337721E+03  0.7546771E-02  0.1124013E+00
         21   -1    0    0  503  502  0.00000000000E+00  0.00000000000E+00  0.52992663069E+03  0.52992663069E+03  0.00000000000E+00 0. -1.
         21   -1    0    0  501  503 -0.00000000000E+00 -0.00000000000E+00 -0.10564756349E+03  0.10564756349E+03  0.00000000000E+00 0. -1.
          6    1    1    2  501    0  0.24397280255E+02  0.15532271981E+03  0.16304701317E+03  0.28501526815E+03  0.17300000000E+03 0. -1.
         -6    1    1    2    0  502 -0.24397280255E+02 -0.15532271981E+03  0.26123205403E+03  0.35055892604E+03  0.17300000000E+03 0. -1.
<mgrwt>
<rscale>  2 0.23377206E+03</rscale>
<asrwt>0</asrwt>
<pdfrwt beam="1">  1       21 0.81527172E-01 0.23377206E+03</pdfrwt>
<pdfrwt beam="2">  1       21 0.16253472E-01 0.23377206E+03</pdfrwt>
<totfact> 0.43756670E+04</totfact>
</mgrwt>
</event>
<event>
 4    1  0.4056666E+000  0.2103279E+03  0.7546771E-02  0.1141307E+00
         21   -1    0    0  501  502  0.00000000000E+00  0.00000000000E+00  0.20469954471E+03  0.20469954471E+03  0.00000000000E+00 0.  1.
         21   -1    0    0  502  503 -0.00000000000E+00 -0.00000000000E+00 -0.22947977126E+03  0.22947977126E+03  0.00000000000E+00 0.  1.
          6    1    1    2  501    0 -0.56229913627E+02  0.10557950719E+03  0.40007524366E+02  0.21409913015E+03  0.17300000000E+03 0.  1.
         -6    1    1    2    0  503  0.56229913627E+02 -0.10557950719E+03 -0.64787750908E+02  0.22008018582E+03  0.17300000000E+03 0.  1.
<mgrwt>
<rscale>  2 0.21032792E+03</rscale>
<asrwt>0</asrwt>
<pdfrwt beam="1">  1       21 0.31492238E-01 0.21032792E+03</pdfrwt>
<pdfrwt beam="2">  1       21 0.35304580E-01 0.21032792E+03</pdfrwt>
<totfact> 0.74392993E+04</totfact>
</mgrwt>
</event>
<event>
 4    1  0.4056666E+000  0.1922188E+03  0.7546771E-02  0.1156475E+00
         21   -1    0    0  501  502  0.00000000000E+00  0.00000000000E+00  0.94641043309E+02  0.94641043309E+02  0.00000000000E+00 0.  1.
         21   -1    0    0  502  503 -0.00000000000E+00 -0.00000000000E+00 -0.68227178990E+03  0.68227178990E+03  0.00000000000E+00 0.  1.
          6    1    1    2  501    0 -0.80664736408E+02  0.22633614557E+02 -0.39742705432E+02  0.19628439276E+03  0.17300000000E+03 0.  1.
         -6    1    1    2    0  503  0.80664736408E+02 -0.22633614557E+02 -0.54788804116E+03  0.58062844045E+03  0.17300000000E+03 0.  1.
<mgrwt>
<rscale>  2 0.19221883E+03</rscale>
<asrwt>0</asrwt>
<pdfrwt beam="1">  1       21 0.14560161E-01 0.19221883E+03</pdfrwt>
<pdfrwt beam="2">  1       21 0.10496489E+00 0.19221883E+03</pdfrwt>
<totfact> 0.30287984E+04</totfact>
</mgrwt>
</event>
<event>
 4    1  0.4056666E+000  0.2176672E+03  0.7546771E-02  0.1135634E+00
         21   -1    0    0  501  502  0.00000000000E+00  0.00000000000E+00  0.49111756433E+03  0.49111756433E+03  0.00000000000E+00 0.  1.
         21   -1    0    0  502  503 -0.00000000000E+00 -0.00000000000E+00 -0.11348234444E+03  0.11348234444E+03  0.00000000000E+00 0. -1.
          6    1    1    2  501    0  0.12383006331E+03  0.46001469913E+02  0.30585709583E+03  0.37540322706E+03  0.17300000000E+03 0.  1.
         -6    1    1    2    0  503 -0.12383006331E+03 -0.46001469913E+02  0.71778124062E+02  0.22919668171E+03  0.17300000000E+03 0. -1.
<mgrwt>
<rscale>  2 0.21766722E+03</rscale>
<asrwt>0</asrwt>
<pdfrwt beam="1">  1       21 0.75556547E-01 0.21766722E+03</pdfrwt>
<pdfrwt beam="2">  1       21 0.17458823E-01 0.21766722E+03</pdfrwt>
<totfact> 0.45880913E+04</totfact>
</mgrwt>
</event>
<event>
 4    1  0.4056666E+000  0.1874420E+03  0.7546771E-02  0.1160789E+00
         21   -1    0    0  501  502  0.00000000000E+00  0.00000000000E+00  0.76735008387E+03  0.76735008387E+03  0.00000000000E+00 0. -1.
         21   -1    0    0  502  503 -0.00000000000E+00 -0.00000000000E+00 -0.10105124636E+03  0.10105124636E+03  0.00000000000E+00 0. -1.
          6    1    1    2  501    0 -0.35155017799E+02  0.63004985340E+02  0.65425109000E+03  0.68057254736E+03  0.17300000000E+03 0. -1.
         -6    1    1    2    0  503  0.35155017799E+02 -0.63004985340E+02  0.12047747516E+02  0.18782878287E+03  0.17300000000E+03 0. -1.
<mgrwt>
<rscale>  2 0.18744200E+03</rscale>
<asrwt>0</asrwt>
<pdfrwt beam="1">  1       21 0.11805386E+00 0.18744200E+03</pdfrwt>
<pdfrwt beam="2">  1       21 0.15546346E-01 0.18744200E+03</pdfrwt>
<totfact> 0.20275080E+04</totfact>
</mgrwt>
</event>
<event>
 4    1  0.4056666E+000  0.3068460E+03  0.7546771E-02  0.1081868E+00
         21   -1    0    0  501  502  0.00000000000E+00  0.00000000000E+00  0.27147146543E+03  0.27147146543E+03  0.00000000000E+00 0. -1.
         21   -1    0    0  502  503 -0.00000000000E+00 -0.00000000000E+00 -0.38732164124E+03  0.38732164124E+03  0.00000000000E+00 0.  1.
          6    1    1    2  501    0 -0.21480923158E+03 -0.13447103982E+03 -0.16442898518E+03  0.34812549129E+03  0.17300000000E+03 0.  1.
         -6    1    1    2    0  503  0.21480923158E+03  0.13447103982E+03  0.48578809373E+02  0.31066761537E+03  0.17300000000E+03 0. -1.
<mgrwt>
<rscale>  2 0.30684600E+03</rscale>
<asrwt>0</asrwt>
<pdfrwt beam="1">  1       21 0.41764841E-01 0.30684600E+03</pdfrwt>
<pdfrwt beam="2">  1       21 0.59587944E-01 0.30684600E+03</pdfrwt>
<totfact> 0.13670304E+04</totfact>
</mgrwt>
</event>
<event>
 4    1  0.4056666E+000  0.1869337E+03  0.7546771E-02  0.1161256E+00
         21   -1    0    0  503  502  0.00000000000E+00  0.00000000000E+00  0.37675758434E+03  0.37675758434E+03  0.00000000000E+00 0.  1.
         21   -1    0    0  501  503 -0.00000000000E+00 -0.00000000000E+00 -0.92750333626E+02  0.92750333626E+02  0.00000000000E+00 0.  1.
          6    1    1    2  501    0 -0.17674921844E+02  0.68577134264E+02  0.14251441381E+03  0.23506293699E+03  0.17300000000E+03 0. -1.
         -6    1    1    2    0  502  0.17674921844E+02 -0.68577134264E+02  0.14149283691E+03  0.23444498097E+03  0.17300000000E+03 0. -1.
<mgrwt>
<rscale>  2 0.18693375E+03</rscale>
<asrwt>0</asrwt>
<pdfrwt beam="1">  1       21 0.57962705E-01 0.18693375E+03</pdfrwt>
<pdfrwt beam="2">  1       21 0.14269282E-01 0.18693375E+03</pdfrwt>
<totfact> 0.12009534E+05</totfact>
</mgrwt>
</event>
<event>
 4    1  0.4056666E+000  0.1935626E+03  0.7546771E-02  0.1155287E+00
         21   -1    0    0  501  502  0.00000000000E+00  0.00000000000E+00  0.17243127537E+03  0.17243127537E+03  0.00000000000E+00 0.  1.
         21   -1    0    0  502  503 -0.00000000000E+00 -0.00000000000E+00 -0.68752019467E+03  0.68752019467E+03  0.00000000000E+00 0. -1.
          6    1    1    2  501    0  0.72158719327E+02 -0.48276099027E+02  0.98053695139E+02  0.21698154217E+03  0.17300000000E+03 0.  1.
         -6    1    1    2    0  503 -0.72158719327E+02  0.48276099027E+02 -0.61314261444E+03  0.64296992787E+03  0.17300000000E+03 0. -1.
<mgrwt>
<rscale>  2 0.19356255E+03</rscale>
<asrwt>0</asrwt>
<pdfrwt beam="1">  1       21 0.26527889E-01 0.19356255E+03</pdfrwt>
<pdfrwt beam="2">  1       21 0.10577234E+00 0.19356255E+03</pdfrwt>
<totfact> 0.96998660E+03</totfact>
</mgrwt>
</event>
<event>
 4    1  0.4056666E+000  0.1743299E+03  0.7546771E-02  0.1173406E+00
         21   -1    0    0  503  502  0.00000000000E+00  0.00000000000E+00  0.21636610418E+04  0.21636610418E+04  0.00000000000E+00 0. -1.
         21   -1    0    0  501  503 -0.00000000000E+00 -0.00000000000E+00 -0.14064620043E+02  0.14064620043E+02  0.00000000000E+00 0. -1.
          6    1    1    2  501    0  0.13592216969E+02 -0.16648766123E+02  0.11143446073E+04  0.11278984145E+04  0.17300000000E+03 0.  1.
         -6    1    1    2    0  502 -0.13592216969E+02  0.16648766123E+02  0.10352518145E+04  0.10498272473E+04  0.17300000000E+03 0.  1.
<mgrwt>
<rscale>  2 0.17432995E+03</rscale>
<asrwt>0</asrwt>
<pdfrwt beam="1">  1       21 0.33287066E+00 0.17432995E+03</pdfrwt>
<pdfrwt beam="2">  1       21 0.21637894E-02 0.17432995E+03</pdfrwt>
<totfact> 0.24344576E+04</totfact>
</mgrwt>
</event>
<event>
 4    1  0.4056666E+000  0.4158354E+03  0.7546771E-02  0.1038430E+00
         21   -1    0    0  501  502  0.00000000000E+00  0.00000000000E+00  0.83681612934E+02  0.83681612934E+02  0.00000000000E+00 0.  1.
         21   -1    0    0  502  503 -0.00000000000E+00 -0.00000000000E+00 -0.20721214916E+04  0.20721214916E+04  0.00000000000E+00 0. -1.
          6    1    1    2  501    0  0.37537516836E+03  0.45645771959E+02 -0.93754222593E+03  0.10256239462E+04  0.17300000000E+03 0. -1.
         -6    1    1    2    0  503 -0.37537516836E+03 -0.45645771959E+02 -0.10508976528E+04  0.11301791584E+04  0.17300000000E+03 0.  1.
<mgrwt>
<rscale>  2 0.41583537E+03</rscale>
<asrwt>0</asrwt>
<pdfrwt beam="1">  1       21 0.12874094E-01 0.41583537E+03</pdfrwt>
<pdfrwt beam="2">  1       21 0.31878793E+00 0.41583537E+03</pdfrwt>
<totfact> 0.11279338E+03</totfact>
</mgrwt>
</event>
<event>
 4    1  0.4056666E+000  0.1757161E+03  0.7546771E-02  0.1172015E+00
         21   -1    0    0  503  502  0.00000000000E+00  0.00000000000E+00  0.15781100530E+03  0.15781100530E+03  0.00000000000E+00 0.  1.
         21   -1    0    0  501  503 -0.00000000000E+00 -0.00000000000E+00 -0.20072854028E+03  0.20072854028E+03  0.00000000000E+00 0.  1.
          6    1    1    2  501    0 -0.29489554646E+02  0.88040183166E+01  0.70486420144E+01  0.17585740794E+03  0.17300000000E+03 0.  1.
         -6    1    1    2    0  502  0.29489554646E+02 -0.88040183166E+01 -0.49966176985E+02  0.18268213764E+03  0.17300000000E+03 0.  1.
<mgrwt>
<rscale>  2 0.17571609E+03</rscale>
<asrwt>0</asrwt>
<pdfrwt beam="1">  1       21 0.24278616E-01 0.17571609E+03</pdfrwt>
<pdfrwt beam="2">  1       21 0.30881314E-01 0.17571609E+03</pdfrwt>
<totfact> 0.16214859E+05</totfact>
</mgrwt>
</event>
<event>
 4    1  0.4056666E+000  0.1993385E+03  0.7546771E-02  0.1150298E+00
         21   -1    0    0  503  502  0.00000000000E+00  0.00000000000E+00  0.45331172307E+03  0.45331172307E+03  0.00000000000E+00 0.  1.
         21   -1    0    0  501  503 -0.00000000000E+00 -0.00000000000E+00 -0.14875028148E+03  0.14875028148E+03  0.00000000000E+00 0.  1.
          6    1    1    2  501    0  0.96803461431E+02 -0.20879027768E+02 -0.40640433083E+02  0.20343915244E+03  0.17300000000E+03 0.  1.
         -6    1    1    2    0  502 -0.96803461431E+02  0.20879027768E+02  0.34520187467E+03  0.39862285211E+03  0.17300000000E+03 0.  1.
<mgrwt>
<rscale>  2 0.19933852E+03</rscale>
<asrwt>0</asrwt>
<pdfrwt beam="1">  1       21 0.69740264E-01 0.19933852E+03</pdfrwt>
<pdfrwt beam="2">  1       21 0.22884659E-01 0.19933852E+03</pdfrwt>
<totfact> 0.33352368E+04</totfact>
</mgrwt>
</event>
<event>
 4    1  0.4056666E+000  0.1736409E+03  0.7546771E-02  0.1174103E+00
         21   -1    0    0  501  502  0.00000000000E+00  0.00000000000E+00  0.80705410784E+03  0.80705410784E+03  0.00000000000E+00 0. -1.
         21   -1    0    0  502  503 -0.00000000000E+00 -0.00000000000E+00 -0.64654464959E+02  0.64654464959E+02  0.00000000000E+00 0. -1.
          6    1    1    2  501    0  0.11532057297E+02 -0.94436301613E+01  0.65439314474E+03  0.67703881600E+03  0.17300000000E+03 0. -1.
         -6    1    1    2    0  503 -0.11532057297E+02  0.94436301613E+01  0.88006498147E+02  0.19466975680E+03  0.17300000000E+03 0. -1.
<mgrwt>
<rscale>  2 0.17364092E+03</rscale>
<asrwt>0</asrwt>
<pdfrwt beam="1">  1       21 0.12416216E+00 0.17364092E+03</pdfrwt>
<pdfrwt beam="2">  1       21 0.99468413E-02 0.17364092E+03</pdfrwt>
<totfact> 0.40162715E+04</totfact>
</mgrwt>
</event>
<event>
 4    1  0.4056666E+000  0.1762559E+03  0.7546771E-02  0.1171477E+00
         21   -1    0    0  503  502  0.00000000000E+00  0.00000000000E+00  0.83535270045E+02  0.83535270045E+02  0.00000000000E+00 0.  1.
         21   -1    0    0  501  503 -0.00000000000E+00 -0.00000000000E+00 -0.40702721219E+03  0.40702721219E+03  0.00000000000E+00 0.  1.
          6    1    1    2  501    0  0.31586210415E+02 -0.11809378881E+02 -0.23381025817E+03  0.29280264162E+03  0.17300000000E+03 0.  1.
         -6    1    1    2    0  502 -0.31586210415E+02  0.11809378881E+02 -0.89681683982E+02  0.19775984061E+03  0.17300000000E+03 0.  1.
<mgrwt>
<rscale>  2 0.17625592E+03</rscale>
<asrwt>0</asrwt>
<pdfrwt beam="1">  1       21 0.12851580E-01 0.17625592E+03</pdfrwt>
<pdfrwt beam="2">  1       21 0.62619571E-01 0.17625592E+03</pdfrwt>
<totfact> 0.12335821E+05</totfact>
</mgrwt>
</event>
<event>
 4    1  0.4056666E+000  0.2098272E+03  0.7546771E-02  0.1141703E+00
         21   -1    0    0  503  502  0.00000000000E+00  0.00000000000E+00  0.84145546352E+02  0.84145546352E+02  0.00000000000E+00 0. -1.
         21   -1    0    0  501  503 -0.00000000000E+00 -0.00000000000E+00 -0.53000788449E+03  0.53000788449E+03  0.00000000000E+00 0. -1.
          6    1    1    2  501    0  0.10649754360E+03  0.52504453298E+02 -0.18820441811E+03  0.28186583228E+03  0.17300000000E+03 0. -1.
         -6    1    1    2    0  502 -0.10649754360E+03 -0.52504453298E+02 -0.25765792002E+03  0.33228759856E+03  0.17300000000E+03 0. -1.
<mgrwt>
<rscale>  2 0.20982718E+03</rscale>
<asrwt>0</asrwt>
<pdfrwt beam="1">  1       21 0.12945469E-01 0.20982718E+03</pdfrwt>
<pdfrwt beam="2">  1       21 0.81539673E-01 0.20982718E+03</pdfrwt>
<totfact> 0.66932575E+04</totfact>
</mgrwt>
</event>
<event>
 4    1  0.4056666E+000  0.1892027E+03  0.7546771E-02  0.1159182E+00
         21   -1    0    0  501  502  0.00000000000E+00  0.00000000000E+00  0.34536621532E+03  0.34536621532E+03  0.00000000000E+00 0. -1.
         21   -1    0    0  502  503 -0.00000000000E+00 -0.00000000000E+00 -0.18380990100E+03  0.18380990100E+03  0.00000000000E+00 0.  1.
          6    1    1    2  501    0 -0.68355372126E+02  0.34586063805E+02  0.25550550628E+03  0.31793193681E+03  0.17300000000E+03 0. -1.
         -6    1    1    2    0  503  0.68355372126E+02 -0.34586063805E+02 -0.93949191948E+02  0.21124417951E+03  0.17300000000E+03 0.  1.
<mgrwt>
<rscale>  2 0.18920268E+03</rscale>
<asrwt>0</asrwt>
<pdfrwt beam="1">  1       21 0.53133264E-01 0.18920268E+03</pdfrwt>
<pdfrwt beam="2">  1       21 0.28278446E-01 0.18920268E+03</pdfrwt>
<totfact> 0.40169147E+04</totfact>
</mgrwt>
</event>
<event>
 4    1  0.4056666E+000  0.1836403E+03  0.7546771E-02  0.1164326E+00
         21   -1    0    0  503  502  0.00000000000E+00  0.00000000000E+00  0.27118588277E+03  0.27118588277E+03  0.00000000000E+00 0.  1.
         21   -1    0    0  501  503 -0.00000000000E+00 -0.00000000000E+00 -0.28391549857E+03  0.28391549857E+03  0.00000000000E+00 0.  1.
          6    1    1    2  501    0  0.60285641948E+02 -0.12664699820E+02 -0.21443424029E+03  0.28232215049E+03  0.17300000000E+03 0.  1.
         -6    1    1    2    0  502 -0.60285641948E+02  0.12664699820E+02  0.20170462449E+03  0.27277923086E+03  0.17300000000E+03 0.  1.
<mgrwt>
<rscale>  2 0.18364028E+03</rscale>
<asrwt>0</asrwt>
<pdfrwt beam="1">  1       21 0.41720905E-01 0.18364028E+03</pdfrwt>
<pdfrwt beam="2">  1       21 0.43679308E-01 0.18364028E+03</pdfrwt>
<totfact> 0.27995225E+04</totfact>
</mgrwt>
</event>
<event>
 4    1  0.4056666E+000  0.1767847E+03  0.7546771E-02  0.1170952E+00
         21   -1    0    0  503  502  0.00000000000E+00  0.00000000000E+00  0.11241721239E+03  0.11241721239E+03  0.00000000000E+00 0.  1.
         21   -1    0    0  501  503 -0.00000000000E+00 -0.00000000000E+00 -0.27822693803E+03  0.27822693803E+03  0.00000000000E+00 0.  1.
          6    1    1    2  501    0  0.32110150978E+02  0.17110508001E+02 -0.77419815941E+02  0.19299393560E+03  0.17300000000E+03 0.  1.
         -6    1    1    2    0  502 -0.32110150978E+02 -0.17110508001E+02 -0.88389909699E+02  0.19765021482E+03  0.17300000000E+03 0.  1.
<mgrwt>
<rscale>  2 0.17678470E+03</rscale>
<asrwt>0</asrwt>
<pdfrwt beam="1">  1       21 0.17294956E-01 0.17678470E+03</pdfrwt>
<pdfrwt beam="2">  1       21 0.42804144E-01 0.17678470E+03</pdfrwt>
<totfact> 0.15946263E+05</totfact>
</mgrwt>
</event>
<event>
 4    1  0.4056666E+000  0.1867942E+03  0.7546771E-02  0.1161385E+00
         21   -1    0    0  503  502  0.00000000000E+00  0.00000000000E+00  0.14121210027E+04  0.14121210027E+04  0.00000000000E+00 0. -1.
         21   -1    0    0  501  503 -0.00000000000E+00 -0.00000000000E+00 -0.25965184578E+02  0.25965184578E+02  0.00000000000E+00 0. -1.
          6    1    1    2  501    0  0.42522567289E+02 -0.56168507298E+02  0.85123525121E+03  0.87148925573E+03  0.17300000000E+03 0. -1.
         -6    1    1    2    0  502 -0.42522567289E+02  0.56168507298E+02  0.53492056692E+03  0.56659693156E+03  0.17300000000E+03 0. -1.
<mgrwt>
<rscale>  2 0.18679419E+03</rscale>
<asrwt>0</asrwt>
<pdfrwt beam="1">  1       21 0.21724932E+00 0.18679419E+03</pdfrwt>
<pdfrwt beam="2">  1       21 0.39946449E-02 0.18679419E+03</pdfrwt>
<totfact> 0.41250942E+04</totfact>
</mgrwt>
</event>
<event>
 4    1  0.4056666E+000  0.2077348E+03  0.7546771E-02  0.1143372E+00
         21   -1    0    0  503  502  0.00000000000E+00  0.00000000000E+00  0.15945172667E+03  0.15945172667E+03  0.00000000000E+00 0. -1.
         21   -1    0    0  501  503 -0.00000000000E+00 -0.00000000000E+00 -0.27598809414E+03  0.27598809414E+03  0.00000000000E+00 0. -1.
          6    1    1    2  501    0 -0.57853954219E+02  0.99386385495E+02 -0.88580854763E+02  0.22583246328E+03  0.17300000000E+03 0. -1.
         -6    1    1    2    0  502  0.57853954219E+02 -0.99386385495E+02 -0.27955512702E+02  0.20960735753E+03  0.17300000000E+03 0. -1.
<mgrwt>
<rscale>  2 0.20773477E+03</rscale>
<asrwt>0</asrwt>
<pdfrwt beam="1">  1       21 0.24531035E-01 0.20773477E+03</pdfrwt>
<pdfrwt beam="2">  1       21 0.42459707E-01 0.20773477E+03</pdfrwt>
<totfact> 0.83272331E+04</totfact>
</mgrwt>
</event>
<event>
 4    1  0.4056666E+000  0.2604594E+03  0.7546771E-02  0.1106868E+00
         21   -1    0    0  501  502  0.00000000000E+00  0.00000000000E+00  0.26882430899E+03  0.26882430899E+03  0.00000000000E+00 0.  1.
         21   -1    0    0  502  503 -0.00000000000E+00 -0.00000000000E+00 -0.62203918653E+03  0.62203918653E+03  0.00000000000E+00 0. -1.
          6    1    1    2  501    0 -0.82142084224E+02 -0.17652984577E+03  0.16678271769E+03  0.30928236834E+03  0.17300000000E+03 0.  1.
         -6    1    1    2    0  503  0.82142084224E+02  0.17652984577E+03 -0.51999759523E+03  0.58158112718E+03  0.17300000000E+03 0. -1.
<mgrwt>
<rscale>  2 0.26045942E+03</rscale>
<asrwt>0</asrwt>
<pdfrwt beam="1">  1       21 0.41357587E-01 0.26045942E+03</pdfrwt>
<pdfrwt beam="2">  1       21 0.95698335E-01 0.26045942E+03</pdfrwt>
<totfact> 0.48897175E+03</totfact>
</mgrwt>
</event>
<event>
 4    1  0.4056666E+000  0.1979735E+03  0.7546771E-02  0.1151460E+00
         21   -1    0    0  501  502  0.00000000000E+00  0.00000000000E+00  0.12846351914E+04  0.12846351914E+04  0.00000000000E+00 0. -1.
         21   -1    0    0  502  503 -0.00000000000E+00 -0.00000000000E+00 -0.34783921366E+02  0.34783921366E+02  0.00000000000E+00 0. -1.
          6    1    1    2  501    0 -0.79304493169E+02 -0.54546351591E+02  0.85618799297E+03  0.87877834886E+03  0.17300000000E+03 0. -1.
         -6    1    1    2    0  503  0.79304493169E+02  0.54546351591E+02  0.39366327702E+03  0.44064076387E+03  0.17300000000E+03 0. -1.
<mgrwt>
<rscale>  2 0.19797350E+03</rscale>
<asrwt>0</asrwt>
<pdfrwt beam="1">  1       21 0.19763615E+00 0.19797350E+03</pdfrwt>
<pdfrwt beam="2">  1       21 0.53513735E-02 0.19797350E+03</pdfrwt>
<totfact> 0.33206820E+04</totfact>
</mgrwt>
</event>
<event>
 4    1  0.4056666E+000  0.2311632E+03  0.7546771E-02  0.1125824E+00
         21   -1    0    0  501  502  0.00000000000E+00  0.00000000000E+00  0.29989538444E+03  0.29989538444E+03  0.00000000000E+00 0. -1.
         21   -1    0    0  502  503 -0.00000000000E+00 -0.00000000000E+00 -0.18194900240E+03  0.18194900240E+03  0.00000000000E+00 0. -1.
          6    1    1    2  501    0  0.12927862639E+03 -0.82428520196E+02  0.93631754511E+02  0.24940595349E+03  0.17300000000E+03 0. -1.
         -6    1    1    2    0  503 -0.12927862639E+03  0.82428520196E+02  0.24314627528E+02  0.23243843334E+03  0.17300000000E+03 0. -1.
<mgrwt>
<rscale>  2 0.23116320E+03</rscale>
<asrwt>0</asrwt>
<pdfrwt beam="1">  1       21 0.46137751E-01 0.23116320E+03</pdfrwt>
<pdfrwt beam="2">  1       21 0.27992154E-01 0.23116320E+03</pdfrwt>
<totfact> 0.53920980E+04</totfact>
</mgrwt>
</event>
<event>
 4    1  0.4056666E+000  0.2306848E+03  0.7546771E-02  0.1126159E+00
         21   -1    0    0  503  502  0.00000000000E+00  0.00000000000E+00  0.88314321060E+03  0.88314321060E+03  0.00000000000E+00 0.  1.
         21   -1    0    0  501  503 -0.00000000000E+00 -0.00000000000E+00 -0.14799861788E+03  0.14799861788E+03  0.00000000000E+00 0.  1.
          6    1    1    2  501    0 -0.60458964307E+02  0.14011139001E+03 -0.29402195173E+02  0.23255102033E+03  0.17300000000E+03 0.  1.
         -6    1    1    2    0  502  0.60458964307E+02 -0.14011139001E+03  0.76454678790E+03  0.79859080815E+03  0.17300000000E+03 0.  1.
<mgrwt>
<rscale>  2 0.23068482E+03</rscale>
<asrwt>0</asrwt>
<pdfrwt beam="1">  1       21 0.13586818E+00 0.23068482E+03</pdfrwt>
<pdfrwt beam="2">  1       21 0.22769019E-01 0.23068482E+03</pdfrwt>
<totfact> 0.67971262E+03</totfact>
</mgrwt>
</event>
<event>
 4    1  0.4056666E+000  0.1749953E+03  0.7546771E-02  0.1172736E+00
         21   -1    0    0  501  502  0.00000000000E+00  0.00000000000E+00  0.93628247531E+03  0.93628247531E+03  0.00000000000E+00 0. -1.
         21   -1    0    0  502  503 -0.00000000000E+00 -0.00000000000E+00 -0.11997407716E+03  0.11997407716E+03  0.00000000000E+00 0. -1.
          6    1    1    2  501    0  0.19557821146E+02  0.17659502824E+02  0.85857654553E+03  0.87622888046E+03  0.17300000000E+03 0. -1.
         -6    1    1    2    0  503 -0.19557821146E+02 -0.17659502824E+02 -0.42268147373E+02  0.18002767201E+03  0.17300000000E+03 0. -1.
<mgrwt>
<rscale>  2 0.17499533E+03</rscale>
<asrwt>0</asrwt>
<pdfrwt beam="1">  1       21 0.14404345E+00 0.17499533E+03</pdfrwt>
<pdfrwt beam="2">  1       21 0.18457551E-01 0.17499533E+03</pdfrwt>
<totfact> 0.90311439E+03</totfact>
</mgrwt>
</event>
<event>
 4    1  0.4056666E+000  0.1886481E+03  0.7546771E-02  0.1159686E+00
         21   -1    0    0  503  502  0.00000000000E+00  0.00000000000E+00  0.57926282084E+03  0.57926282084E+03  0.00000000000E+00 0. -1.
         21   -1    0    0  501  503 -0.00000000000E+00 -0.00000000000E+00 -0.61442765389E+02  0.61442765389E+02  0.00000000000E+00 0. -1.
          6    1    1    2  501    0  0.73489913118E+02 -0.16073175840E+02  0.26203894165E+03  0.32288159014E+03  0.17300000000E+03 0.  1.
         -6    1    1    2    0  502 -0.73489913118E+02  0.16073175840E+02  0.25578111381E+03  0.31782399609E+03  0.17300000000E+03 0.  1.
<mgrwt>
<rscale>  2 0.18864812E+03</rscale>
<asrwt>0</asrwt>
<pdfrwt beam="1">  1       21 0.89117353E-01 0.18864812E+03</pdfrwt>
<pdfrwt beam="2">  1       21 0.94527335E-02 0.18864812E+03</pdfrwt>
<totfact> 0.96471002E+04</totfact>
</mgrwt>
</event>
<event>
 4    1  0.4056666E+000  0.1771409E+03  0.7546771E-02  0.1170599E+00
         21   -1    0    0  503  502  0.00000000000E+00  0.00000000000E+00  0.10501273786E+03  0.10501273786E+03  0.00000000000E+00 0. -1.
         21   -1    0    0  501  503 -0.00000000000E+00 -0.00000000000E+00 -0.34511648058E+03  0.34511648058E+03  0.00000000000E+00 0. -1.
          6    1    1    2  501    0 -0.19585901280E+02 -0.32654179997E+02 -0.37610889276E+02  0.18108970703E+03  0.17300000000E+03 0. -1.
         -6    1    1    2    0  502  0.19585901280E+02  0.32654179997E+02 -0.20249285344E+03  0.26903951140E+03  0.17300000000E+03 0. -1.
<mgrwt>
<rscale>  2 0.17714091E+03</rscale>
<asrwt>0</asrwt>
<pdfrwt beam="1">  1       21 0.16155806E-01 0.17714091E+03</pdfrwt>
<pdfrwt beam="2">  1       21 0.53094843E-01 0.17714091E+03</pdfrwt>
<totfact> 0.11574649E+05</totfact>
</mgrwt>
</event>
<event>
 4    1  0.4056666E+000  0.1849346E+03  0.7546771E-02  0.1163111E+00
         21   -1    0    0  503  502  0.00000000000E+00  0.00000000000E+00  0.62532789752E+03  0.62532789752E+03  0.00000000000E+00 0. -1.
         21   -1    0    0  501  503 -0.00000000000E+00 -0.00000000000E+00 -0.54827705108E+02  0.54827705108E+02  0.00000000000E+00 0.  1.
          6    1    1    2  501    0  0.55611780548E+02 -0.34338669886E+02  0.26836905685E+03  0.32591834109E+03  0.17300000000E+03 0. -1.
         -6    1    1    2    0  502 -0.55611780548E+02  0.34338669886E+02  0.30213113556E+03  0.35423726154E+03  0.17300000000E+03 0.  1.
<mgrwt>
<rscale>  2 0.18493462E+03</rscale>
<asrwt>0</asrwt>
<pdfrwt beam="1">  1       21 0.96204287E-01 0.18493462E+03</pdfrwt>
<pdfrwt beam="2">  1       21 0.84350320E-02 0.18493462E+03</pdfrwt>
<totfact> 0.98720127E+04</totfact>
</mgrwt>
</event>
<event>
 4    1  0.4056666E+000  0.1788008E+03  0.7546771E-02  0.1168969E+00
         21   -1    0    0  503  502  0.00000000000E+00  0.00000000000E+00  0.21733742617E+03  0.21733742617E+03  0.00000000000E+00 0.  1.
         21   -1    0    0  501  503 -0.00000000000E+00 -0.00000000000E+00 -0.18881410752E+03  0.18881410752E+03  0.00000000000E+00 0. -1.
          6    1    1    2  501    0 -0.36220723653E+02  0.26996161516E+02 -0.81192921396E+02  0.19637215700E+03  0.17300000000E+03 0. -1.
         -6    1    1    2    0  502  0.36220723653E+02 -0.26996161516E+02  0.10971624005E+03  0.20977937670E+03  0.17300000000E+03 0.  1.
<mgrwt>
<rscale>  2 0.17880082E+03</rscale>
<asrwt>0</asrwt>
<pdfrwt beam="1">  1       21 0.33436527E-01 0.17880082E+03</pdfrwt>
<pdfrwt beam="2">  1       21 0.29048324E-01 0.17880082E+03</pdfrwt>
<totfact> 0.98251806E+04</totfact>
</mgrwt>
</event>
<event>
 4    1  0.4056666E+000  0.2451346E+03  0.7546771E-02  0.1116419E+00
         21   -1    0    0  501  502  0.00000000000E+00  0.00000000000E+00  0.54513213149E+03  0.54513213149E+03  0.00000000000E+00 0.  1.
         21   -1    0    0  502  503 -0.00000000000E+00 -0.00000000000E+00 -0.17680946511E+03  0.17680946511E+03  0.00000000000E+00 0. -1.
          6    1    1    2  501    0 -0.17251098083E+03 -0.20048403296E+02  0.40566611745E+03  0.47397887698E+03  0.17300000000E+03 0.  1.
         -6    1    1    2    0  503  0.17251098083E+03  0.20048403296E+02 -0.37343451061E+02  0.24796271962E+03  0.17300000000E+03 0. -1.
<mgrwt>
<rscale>  2 0.24513461E+03</rscale>
<asrwt>0</asrwt>
<pdfrwt beam="1">  1       21 0.83866481E-01 0.24513461E+03</pdfrwt>
<pdfrwt beam="2">  1       21 0.27201456E-01 0.24513461E+03</pdfrwt>
<totfact> 0.15434466E+04</totfact>
</mgrwt>
</event>
<event>
 4    1  0.4056666E+000  0.2096569E+03  0.7546771E-02  0.1141838E+00
         21   -1    0    0  501  502  0.00000000000E+00  0.00000000000E+00  0.23424114847E+02  0.23424114847E+02  0.00000000000E+00 0.  1.
         21   -1    0    0  502  503 -0.00000000000E+00 -0.00000000000E+00 -0.21491292763E+04  0.21491292763E+04  0.00000000000E+00 0. -1.
          6    1    1    2  501    0 -0.81270784070E+02  0.86151469870E+02 -0.67597564595E+03  0.70774224830E+03  0.17300000000E+03 0.  1.
         -6    1    1    2    0  503  0.81270784070E+02 -0.86151469870E+02 -0.14497295155E+04  0.14648111429E+04  0.17300000000E+03 0. -1.
<mgrwt>
<rscale>  2 0.20965690E+03</rscale>
<asrwt>0</asrwt>
<pdfrwt beam="1">  1       21 0.36037089E-02 0.20965690E+03</pdfrwt>
<pdfrwt beam="2">  1       21 0.33063537E+00 0.20965690E+03</pdfrwt>
<totfact> 0.10396767E+04</totfact>
</mgrwt>
</event>
<event>
 4    1  0.4056666E+000  0.1830709E+03  0.7546771E-02  0.1164864E+00
         21   -1    0    0  503  502  0.00000000000E+00  0.00000000000E+00  0.27813499618E+03  0.27813499618E+03  0.00000000000E+00 0. -1.
         21   -1    0    0  501  503 -0.00000000000E+00 -0.00000000000E+00 -0.12128773915E+03  0.12128773915E+03  0.00000000000E+00 0. -1.
          6    1    1    2  501    0 -0.48777758230E+02 -0.34737595951E+02  0.62317933220E+02  0.19338690512E+03  0.17300000000E+03 0. -1.
         -6    1    1    2    0  502  0.48777758230E+02  0.34737595951E+02  0.94529323811E+02  0.20603583021E+03  0.17300000000E+03 0. -1.
<mgrwt>
<rscale>  2 0.18307094E+03</rscale>
<asrwt>0</asrwt>
<pdfrwt beam="1">  1       21 0.42789999E-01 0.18307094E+03</pdfrwt>
<pdfrwt beam="2">  1       21 0.18659652E-01 0.18307094E+03</pdfrwt>
<totfact> 0.13841341E+05</totfact>
</mgrwt>
</event>
<event>
 4    1  0.4056666E+000  0.2123247E+03  0.7546771E-02  0.1139738E+00
         21   -1    0    0  501  502  0.00000000000E+00  0.00000000000E+00  0.52173966797E+03  0.52173966797E+03  0.00000000000E+00 0. -1.
         21   -1    0    0  502  503 -0.00000000000E+00 -0.00000000000E+00 -0.86747859848E+02  0.86747859848E+02  0.00000000000E+00 0. -1.
          6    1    1    2  501    0 -0.83970928594E+02  0.90009324678E+02  0.19841580974E+03  0.29060390385E+03  0.17300000000E+03 0. -1.
         -6    1    1    2    0  503  0.83970928594E+02 -0.90009324678E+02  0.23657599839E+03  0.31788362397E+03  0.17300000000E+03 0. -1.
<mgrwt>
<rscale>  2 0.21232474E+03</rscale>
<asrwt>0</asrwt>
<pdfrwt beam="1">  1       21 0.80267639E-01 0.21232474E+03</pdfrwt>
<pdfrwt beam="2">  1       21 0.13345825E-01 0.21232474E+03</pdfrwt>
<totfact> 0.65579561E+04</totfact>
</mgrwt>
</event>
<event>
 4    1  0.4056666E+000  0.1763705E+03  0.7546771E-02  0.1171363E+00
         21   -1    0    0  501  502  0.00000000000E+00  0.00000000000E+00  0.14005616834E+03  0.14005616834E+03  0.00000000000E+00 0. -1.
         21   -1    0    0  502  503 -0.00000000000E+00 -0.00000000000E+00 -0.35680910515E+03  0.35680910515E+03  0.00000000000E+00 0. -1.
          6    1    1    2  501    0  0.66534319918E+01  0.33664067309E+02  0.44270590060E+02  0.18184175189E+03  0.17300000000E+03 0. -1.
         -6    1    1    2    0  503 -0.66534319918E+01 -0.33664067309E+02 -0.26102352687E+03  0.31502352160E+03  0.17300000000E+03 0. -1.
<mgrwt>
<rscale>  2 0.17637046E+03</rscale>
<asrwt>0</asrwt>
<pdfrwt beam="1">  1       21 0.21547103E-01 0.17637046E+03</pdfrwt>
<pdfrwt beam="2">  1       21 0.54893708E-01 0.17637046E+03</pdfrwt>
<totfact> 0.63328285E+04</totfact>
</mgrwt>
</event>
<event>
 4    1  0.4056666E+000  0.1788934E+03  0.7546771E-02  0.1168878E+00
         21   -1    0    0  503  502  0.00000000000E+00  0.00000000000E+00  0.12864270754E+03  0.12864270754E+03  0.00000000000E+00 0. -1.
         21   -1    0    0  501  503 -0.00000000000E+00 -0.00000000000E+00 -0.40239877901E+03  0.40239877901E+03  0.00000000000E+00 0. -1.
          6    1    1    2  501    0 -0.35945149844E+02 -0.27960668954E+02 -0.30093775028E+03  0.35009481908E+03  0.17300000000E+03 0. -1.
         -6    1    1    2    0  502  0.35945149844E+02  0.27960668954E+02  0.27181678805E+02  0.18094666747E+03  0.17300000000E+03 0. -1.
<mgrwt>
<rscale>  2 0.17889341E+03</rscale>
<asrwt>0</asrwt>
<pdfrwt beam="1">  1       21 0.19791186E-01 0.17889341E+03</pdfrwt>
<pdfrwt beam="2">  1       21 0.61907505E-01 0.17889341E+03</pdfrwt>
<totfact> 0.57382325E+04</totfact>
</mgrwt>
</event>
<event>
 4    1  0.4056666E+000  0.1829387E+03  0.7546771E-02  0.1164989E+00
         21   -1    0    0  503  502  0.00000000000E+00  0.00000000000E+00  0.51559598458E+02  0.51559598458E+02  0.00000000000E+00 0. -1.
         21   -1    0    0  501  503 -0.00000000000E+00 -0.00000000000E+00 -0.68614048914E+03  0.68614048914E+03  0.00000000000E+00 0. -1.
          6    1    1    2  501    0  0.27472197989E+02 -0.52752695008E+02 -0.23157307311E+03  0.29511465006E+03  0.17300000000E+03 0. -1.
         -6    1    1    2    0  502 -0.27472197989E+02  0.52752695008E+02 -0.40300781758E+03  0.44258543754E+03  0.17300000000E+03 0. -1.
<mgrwt>
<rscale>  2 0.18293870E+03</rscale>
<asrwt>0</asrwt>
<pdfrwt beam="1">  1       21 0.79322461E-02 0.18293870E+03</pdfrwt>
<pdfrwt beam="2">  1       21 0.10556007E+00 0.18293870E+03</pdfrwt>
<totfact> 0.88221156E+04</totfact>
</mgrwt>
</event>
<event>
 4    1  0.4056666E+000  0.1775392E+03  0.7546771E-02  0.1170206E+00
         21   -1    0    0  501  502  0.00000000000E+00  0.00000000000E+00  0.20288123289E+03  0.20288123289E+03  0.00000000000E+00 0. -1.
         21   -1    0    0  502  503 -0.00000000000E+00 -0.00000000000E+00 -0.21499789620E+03  0.21499789620E+03  0.00000000000E+00 0.  1.
          6    1    1    2  501    0  0.15240594420E+02 -0.36863264869E+02  0.10398276458E+03  0.20574885503E+03  0.17300000000E+03 0. -1.
         -6    1    1    2    0  503 -0.15240594420E+02  0.36863264869E+02 -0.11609942789E+03  0.21213027406E+03  0.17300000000E+03 0.  1.
<mgrwt>
<rscale>  2 0.17753922E+03</rscale>
<asrwt>0</asrwt>
<pdfrwt beam="1">  1       21 0.31212497E-01 0.17753922E+03</pdfrwt>
<pdfrwt beam="2">  1       21 0.33076600E-01 0.17753922E+03</pdfrwt>
<totfact> 0.87313676E+04</totfact>
</mgrwt>
</event>
<event>
 4    1  0.4056666E+000  0.3481683E+03  0.7546771E-02  0.1063369E+00
         21   -1    0    0  501  502  0.00000000000E+00  0.00000000000E+00  0.16767800728E+04  0.16767800728E+04  0.00000000000E+00 0. -1.
         21   -1    0    0  502  503 -0.00000000000E+00 -0.00000000000E+00 -0.73461205777E+02  0.73461205777E+02  0.00000000000E+00 0. -1.
          6    1    1    2  501    0 -0.60047729379E+02 -0.29611892890E+03  0.91196853937E+03  0.97616994763E+03  0.17300000000E+03 0. -1.
         -6    1    1    2    0  503  0.60047729379E+02  0.29611892890E+03  0.69135032770E+03  0.77407133099E+03  0.17300000000E+03 0. -1.
<mgrwt>
<rscale>  2 0.34816828E+03</rscale>
<asrwt>0</asrwt>
<pdfrwt beam="1">  1       21 0.25796614E+00 0.34816828E+03</pdfrwt>
<pdfrwt beam="2">  1       21 0.11301725E-01 0.34816828E+03</pdfrwt>
<totfact> 0.34415154E+03</totfact>
</mgrwt>
</event>
<event>
 4    1  0.4056666E+000  0.1820561E+03  0.7546771E-02  0.1165828E+00
         21   -1    0    0  503  502  0.00000000000E+00  0.00000000000E+00  0.88819716575E+02  0.88819716575E+02  0.00000000000E+00 0. -1.
         21   -1    0    0  501  503 -0.00000000000E+00 -0.00000000000E+00 -0.18481393152E+04  0.18481393152E+04  0.00000000000E+00 0. -1.
          6    1    1    2  501    0 -0.29195234679E+02  0.48611217042E+02 -0.17448574093E+04  0.17543294420E+04  0.17300000000E+03 0. -1.
         -6    1    1    2    0  502  0.29195234679E+02 -0.48611217042E+02 -0.14462189312E+02  0.18262958980E+03  0.17300000000E+03 0. -1.
<mgrwt>
<rscale>  2 0.18205607E+03</rscale>
<asrwt>0</asrwt>
<pdfrwt beam="1">  1       21 0.13664573E-01 0.18205607E+03</pdfrwt>
<pdfrwt beam="2">  1       21 0.28432910E+00 0.18205607E+03</pdfrwt>
<totfact> 0.19785080E+03</totfact>
</mgrwt>
</event>
<event>
 4    1  0.4056666E+000  0.2479087E+03  0.7546771E-02  0.1114634E+00
         21   -1    0    0  503  502  0.00000000000E+00  0.00000000000E+00  0.59395803161E+02  0.59395803161E+02  0.00000000000E+00 0. -1.
         21   -1    0    0  501  503 -0.00000000000E+00 -0.00000000000E+00 -0.11021220695E+04  0.11021220695E+04  0.00000000000E+00 0. -1.
          6    1    1    2  501    0 -0.16058587775E+03  0.75775402325E+02 -0.66497129969E+03  0.70967990330E+03  0.17300000000E+03 0. -1.
         -6    1    1    2    0  502  0.16058587775E+03 -0.75775402325E+02 -0.37775496662E+03  0.45183796934E+03  0.17300000000E+03 0. -1.
<mgrwt>
<rscale>  2 0.24790872E+03</rscale>
<asrwt>0</asrwt>
<pdfrwt beam="1">  1       21 0.91378153E-02 0.24790872E+03</pdfrwt>
<pdfrwt beam="2">  1       21 0.16955725E+00 0.24790872E+03</pdfrwt>
<totfact> 0.19728547E+04</totfact>
</mgrwt>
</event>
<event>
 4    1  0.4056666E+000  0.2011181E+03  0.7546771E-02  0.1148799E+00
         21   -1    0    0  503  502  0.00000000000E+00  0.00000000000E+00  0.80606973582E+02  0.80606973582E+02  0.00000000000E+00 0.  1.
         21   -1    0    0  501  503 -0.00000000000E+00 -0.00000000000E+00 -0.74843447613E+03  0.74843447613E+03  0.00000000000E+00 0.  1.
          6    1    1    2  501    0 -0.10210522574E+03  0.96961089305E+01 -0.57187005095E+03  0.60620445959E+03  0.17300000000E+03 0.  1.
         -6    1    1    2    0  502  0.10210522574E+03 -0.96961089305E+01 -0.95957451598E+02  0.22283699013E+03  0.17300000000E+03 0.  1.
<mgrwt>
<rscale>  2 0.20111810E+03</rscale>
<asrwt>0</asrwt>
<pdfrwt beam="1">  1       21 0.12401073E-01 0.20111810E+03</pdfrwt>
<pdfrwt beam="2">  1       21 0.11514376E+00 0.20111810E+03</pdfrwt>
<totfact> 0.32178770E+04</totfact>
</mgrwt>
</event>
<event>
 4    1  0.4056666E+000  0.2278995E+03  0.7546771E-02  0.1128127E+00
         21   -1    0    0  503  502  0.00000000000E+00  0.00000000000E+00  0.21437083396E+04  0.21437083396E+04  0.00000000000E+00 0. -1.
         21   -1    0    0  501  503 -0.00000000000E+00 -0.00000000000E+00 -0.25254710415E+02  0.25254710415E+02  0.00000000000E+00 0.  1.
          6    1    1    2  501    0 -0.12724527275E+03  0.76274675760E+02  0.84058485605E+03  0.87093116021E+03  0.17300000000E+03 0.  1.
         -6    1    1    2    0  502  0.12724527275E+03 -0.76274675760E+02  0.12778687731E+04  0.12980318898E+04  0.17300000000E+03 0.  1.
<mgrwt>
<rscale>  2 0.22789951E+03</rscale>
<asrwt>0</asrwt>
<pdfrwt beam="1">  1       21 0.32980114E+00 0.22789951E+03</pdfrwt>
<pdfrwt beam="2">  1       21 0.38853418E-02 0.22789951E+03</pdfrwt>
<totfact> 0.90936961E+03</totfact>
</mgrwt>
</event>
<event>
 4    1  0.4056666E+000  0.1826187E+03  0.7546771E-02  0.1165292E+00
         21   -1    0    0  501  502  0.00000000000E+00  0.00000000000E+00  0.32388232072E+03  0.32388232072E+03  0.00000000000E+00 0. -1.
         21   -1    0    0  502  503 -0.00000000000E+00 -0.00000000000E+00 -0.10297196889E+03  0.10297196889E+03  0.00000000000E+00 0. -1.
          6    1    1    2  501    0  0.40684147583E+02 -0.42016380753E+02  0.10916213709E+03  0.21275795705E+03  0.17300000000E+03 0. -1.
         -6    1    1    2    0  503 -0.40684147583E+02  0.42016380753E+02  0.11174821473E+03  0.21409633255E+03  0.17300000000E+03 0. -1.
<mgrwt>
<rscale>  2 0.18261866E+03</rscale>
<asrwt>0</asrwt>
<pdfrwt beam="1">  1       21 0.49828049E-01 0.18261866E+03</pdfrwt>
<pdfrwt beam="2">  1       21 0.15841841E-01 0.18261866E+03</pdfrwt>
<totfact> 0.13673570E+05</totfact>
</mgrwt>
</event>
<event>
 4    1  0.4056666E+000  0.1958769E+03  0.7546771E-02  0.1153265E+00
         21   -1    0    0  503  502  0.00000000000E+00  0.00000000000E+00  0.47240408573E+02  0.47240408573E+02  0.00000000000E+00 0. -1.
         21   -1    0    0  501  503 -0.00000000000E+00 -0.00000000000E+00 -0.93401120640E+03  0.93401120640E+03  0.00000000000E+00 0. -1.
          6    1    1    2  501    0 -0.58756511018E+02 -0.70614570976E+02 -0.62058081336E+03  0.65075977989E+03  0.17300000000E+03 0. -1.
         -6    1    1    2    0  502  0.58756511018E+02  0.70614570976E+02 -0.26618998447E+03  0.33049183508E+03  0.17300000000E+03 0. -1.
<mgrwt>
<rscale>  2 0.19587686E+03</rscale>
<asrwt>0</asrwt>
<pdfrwt beam="1">  1       21 0.72677551E-02 0.19587686E+03</pdfrwt>
<pdfrwt beam="2">  1       21 0.14369403E+00 0.19587686E+03</pdfrwt>
<totfact> 0.47327230E+04</totfact>
</mgrwt>
</event>
<event>
 4    1  0.4056666E+000  0.1824768E+03  0.7546771E-02  0.1165427E+00
         21   -1    0    0  501  502  0.00000000000E+00  0.00000000000E+00  0.32948810366E+03  0.32948810366E+03  0.00000000000E+00 0. -1.
         21   -1    0    0  502  503 -0.00000000000E+00 -0.00000000000E+00 -0.17874677907E+03  0.17874677907E+03  0.00000000000E+00 0. -1.
          6    1    1    2  501    0 -0.53379334620E+02  0.22790818954E+02  0.24290020564E+03  0.30380632760E+03  0.17300000000E+03 0. -1.
         -6    1    1    2    0  503  0.53379334620E+02 -0.22790818954E+02 -0.92158881046E+02  0.20442855512E+03  0.17300000000E+03 0. -1.
<mgrwt>
<rscale>  2 0.18247678E+03</rscale>
<asrwt>0</asrwt>
<pdfrwt beam="1">  1       21 0.50690477E-01 0.18247678E+03</pdfrwt>
<pdfrwt beam="2">  1       21 0.27499505E-01 0.18247678E+03</pdfrwt>
<totfact> 0.46941739E+04</totfact>
</mgrwt>
</event>
<event>
 4    1  0.4056666E+000  0.1789306E+03  0.7546771E-02  0.1168842E+00
         21   -1    0    0  503  502  0.00000000000E+00  0.00000000000E+00  0.38990995710E+02  0.38990995710E+02  0.00000000000E+00 0. -1.
         21   -1    0    0  501  503 -0.00000000000E+00 -0.00000000000E+00 -0.85413881160E+03  0.85413881160E+03  0.00000000000E+00 0. -1.
          6    1    1    2  501    0  0.29774378212E+02  0.34650203222E+02 -0.49537987955E+03  0.52670425786E+03  0.17300000000E+03 0. -1.
         -6    1    1    2    0  502 -0.29774378212E+02 -0.34650203222E+02 -0.31976793633E+03  0.36642554945E+03  0.17300000000E+03 0. -1.
<mgrwt>
<rscale>  2 0.17893057E+03</rscale>
<asrwt>0</asrwt>
<pdfrwt beam="1">  1       21 0.59986147E-02 0.17893057E+03</pdfrwt>
<pdfrwt beam="2">  1       21 0.13140597E+00 0.17893057E+03</pdfrwt>
<totfact> 0.83517322E+04</totfact>
</mgrwt>
</event>
<event>
 4    1  0.4056666E+000  0.2161082E+03  0.7546771E-02  0.1136818E+00
         21   -1    0    0  503  502  0.00000000000E+00  0.00000000000E+00  0.31880571707E+02  0.31880571707E+02  0.00000000000E+00 0. -1.
         21   -1    0    0  501  503 -0.00000000000E+00 -0.00000000000E+00 -0.16048383827E+04  0.16048383827E+04  0.00000000000E+00 0. -1.
          6    1    1    2  501    0  0.51555584738E+02 -0.11880980692E+03 -0.10281101698E+04  0.10505775886E+04  0.17300000000E+03 0. -1.
         -6    1    1    2    0  502 -0.51555584738E+02  0.11880980692E+03 -0.54484764128E+03  0.58614136584E+03  0.17300000000E+03 0. -1.
<mgrwt>
<rscale>  2 0.21610819E+03</rscale>
<asrwt>0</asrwt>
<pdfrwt beam="1">  1       21 0.49047037E-02 0.21610819E+03</pdfrwt>
<pdfrwt beam="2">  1       21 0.24689819E+00 0.21610819E+03</pdfrwt>
<totfact> 0.18896467E+04</totfact>
</mgrwt>
</event>
<event>
 4    1  0.4056666E+000  0.1794179E+03  0.7546771E-02  0.1168368E+00
         21   -1    0    0  503  502  0.00000000000E+00  0.00000000000E+00  0.64598019132E+02  0.64598019132E+02  0.00000000000E+00 0. -1.
         21   -1    0    0  501  503 -0.00000000000E+00 -0.00000000000E+00 -0.53150555196E+03  0.53150555196E+03  0.00000000000E+00 0. -1.
          6    1    1    2  501    0 -0.42587457089E+02  0.21167815598E+02 -0.30792416480E+03  0.35638190076E+03  0.17300000000E+03 0.  1.
         -6    1    1    2    0  502  0.42587457089E+02 -0.21167815598E+02 -0.15898336802E+03  0.23972167033E+03  0.17300000000E+03 0.  1.
<mgrwt>
<rscale>  2 0.17941786E+03</rscale>
<asrwt>0</asrwt>
<pdfrwt beam="1">  1       21 0.99381562E-02 0.17941786E+03</pdfrwt>
<pdfrwt beam="2">  1       21 0.81770090E-01 0.17941786E+03</pdfrwt>
<totfact> 0.10792625E+05</totfact>
</mgrwt>
</event>
<event>
 4    1  0.4056666E+000  0.2151254E+03  0.7546771E-02  0.1137570E+00
         21   -1    0    0  503  502  0.00000000000E+00  0.00000000000E+00  0.53756503625E+02  0.53756503625E+02  0.00000000000E+00 0.  1.
         21   -1    0    0  501  503 -0.00000000000E+00 -0.00000000000E+00 -0.86161255217E+03  0.86161255217E+03  0.00000000000E+00 0.  1.
          6    1    1    2  501    0  0.80972120414E+02  0.98961791043E+02 -0.39075691958E+03  0.44606041134E+03  0.17300000000E+03 0.  1.
         -6    1    1    2    0  502 -0.80972120414E+02 -0.98961791043E+02 -0.41709912897E+03  0.46930864445E+03  0.17300000000E+03 0.  1.
<mgrwt>
<rscale>  2 0.21512536E+03</rscale>
<asrwt>0</asrwt>
<pdfrwt beam="1">  1       21 0.82702321E-02 0.21512536E+03</pdfrwt>
<pdfrwt beam="2">  1       21 0.13255577E+00 0.21512536E+03</pdfrwt>
<totfact> 0.46036156E+04</totfact>
</mgrwt>
</event>
<event>
 4    1  0.4056666E+000  0.2422420E+03  0.7546771E-02  0.1118308E+00
         21   -1    0    0  503  502  0.00000000000E+00  0.00000000000E+00  0.62929783914E+03  0.62929783914E+03  0.00000000000E+00 0.  1.
         21   -1    0    0  501  503 -0.00000000000E+00 -0.00000000000E+00 -0.93883143000E+02  0.93883143000E+02  0.00000000000E+00 0.  1.
          6    1    1    2  501    0  0.15493343139E+03  0.68904373942E+02  0.29743309816E+03  0.38359826484E+03  0.17300000000E+03 0.  1.
         -6    1    1    2    0  502 -0.15493343139E+03 -0.68904373942E+02  0.23798159798E+03  0.33958271730E+03  0.17300000000E+03 0.  1.
<mgrwt>
<rscale>  2 0.24224199E+03</rscale>
<asrwt>0</asrwt>
<pdfrwt beam="1">  1       21 0.96815050E-01 0.24224199E+03</pdfrwt>
<pdfrwt beam="2">  1       21 0.14443561E-01 0.24224199E+03</pdfrwt>
<totfact> 0.36308895E+04</totfact>
</mgrwt>
</event>
<event>
 4    1  0.4056666E+000  0.2490940E+03  0.7546771E-02  0.1113879E+00
         21   -1    0    0  501  502  0.00000000000E+00  0.00000000000E+00  0.10522020921E+03  0.10522020921E+03  0.00000000000E+00 0. -1.
         21   -1    0    0  502  503 -0.00000000000E+00 -0.00000000000E+00 -0.65523419391E+03  0.65523419391E+03  0.00000000000E+00 0. -1.
          6    1    1    2  501    0  0.78817096939E+02 -0.16095549241E+03 -0.15475389484E+03  0.29325172340E+03  0.17300000000E+03 0. -1.
         -6    1    1    2    0  503 -0.78817096939E+02  0.16095549241E+03 -0.39526008986E+03  0.46720267973E+03  0.17300000000E+03 0. -1.
<mgrwt>
<rscale>  2 0.24909397E+03</rscale>
<asrwt>0</asrwt>
<pdfrwt beam="1">  1       21 0.16187725E-01 0.24909397E+03</pdfrwt>
<pdfrwt beam="2">  1       21 0.10080526E+00 0.24909397E+03</pdfrwt>
<totfact> 0.26673200E+04</totfact>
</mgrwt>
</event>
<event>
 4    1  0.4056666E+000  0.2071469E+03  0.7546771E-02  0.1143845E+00
         21   -1    0    0  501  502  0.00000000000E+00  0.00000000000E+00  0.56865994447E+02  0.56865994447E+02  0.00000000000E+00 0.  1.
         21   -1    0    0  502  503 -0.00000000000E+00 -0.00000000000E+00 -0.20314747731E+04  0.20314747731E+04  0.00000000000E+00 0.  1.
          6    1    1    2  501    0  0.10827739798E+03 -0.35452040402E+02 -0.15946991566E+03  0.26142015241E+03  0.17300000000E+03 0.  1.
         -6    1    1    2    0  503 -0.10827739798E+03  0.35452040402E+02 -0.18151388630E+04  0.18269206151E+04  0.17300000000E+03 0.  1.
<mgrwt>
<rscale>  2 0.20714691E+03</rscale>
<asrwt>0</asrwt>
<pdfrwt beam="1">  1       21 0.87486136E-02 0.20714691E+03</pdfrwt>
<pdfrwt beam="2">  1       21 0.31253461E+00 0.20714691E+03</pdfrwt>
<totfact> 0.29156161E+03</totfact>
</mgrwt>
</event>
<event>
 4    1  0.4056666E+000  0.1788367E+03  0.7546771E-02  0.1168934E+00
         21   -1    0    0  503  502  0.00000000000E+00  0.00000000000E+00  0.46455075087E+03  0.46455075087E+03  0.00000000000E+00 0.  1.
         21   -1    0    0  501  503 -0.00000000000E+00 -0.00000000000E+00 -0.79796509606E+02  0.79796509606E+02  0.00000000000E+00 0. -1.
          6    1    1    2  501    0 -0.33862402359E+02 -0.30114784999E+02  0.91552423127E+02  0.20090895637E+03  0.17300000000E+03 0. -1.
         -6    1    1    2    0  502  0.33862402359E+02  0.30114784999E+02  0.29320181814E+03  0.34343830411E+03  0.17300000000E+03 0.  1.
<mgrwt>
<rscale>  2 0.17883669E+03</rscale>
<asrwt>0</asrwt>
<pdfrwt beam="1">  1       21 0.71469344E-01 0.17883669E+03</pdfrwt>
<pdfrwt beam="2">  1       21 0.12276386E-01 0.17883669E+03</pdfrwt>
<totfact> 0.10024416E+05</totfact>
</mgrwt>
</event>
<event>
 4    1  0.4056666E+000  0.1795996E+03  0.7546771E-02  0.1168191E+00
         21   -1    0    0  503  502  0.00000000000E+00  0.00000000000E+00  0.51549890682E+02  0.51549890682E+02  0.00000000000E+00 0. -1.
         21   -1    0    0  501  503 -0.00000000000E+00 -0.00000000000E+00 -0.73227057023E+03  0.73227057023E+03  0.00000000000E+00 0. -1.
          6    1    1    2  501    0 -0.16938109575E+02 -0.45167803818E+02 -0.48985287572E+03  0.52173927388E+03  0.17300000000E+03 0. -1.
         -6    1    1    2    0  502  0.16938109575E+02  0.45167803818E+02 -0.19086780383E+03  0.26208118703E+03  0.17300000000E+03 0. -1.
<mgrwt>
<rscale>  2 0.17959964E+03</rscale>
<asrwt>0</asrwt>
<pdfrwt beam="1">  1       21 0.79307522E-02 0.17959964E+03</pdfrwt>
<pdfrwt beam="2">  1       21 0.11265701E+00 0.17959964E+03</pdfrwt>
<totfact> 0.75546776E+04</totfact>
</mgrwt>
</event>
<event>
 4    1  0.4056666E+000  0.1836597E+03  0.7546771E-02  0.1164307E+00
         21   -1    0    0  503  502  0.00000000000E+00  0.00000000000E+00  0.60488032880E+03  0.60488032880E+03  0.00000000000E+00 0.  1.
         21   -1    0    0  501  503 -0.00000000000E+00 -0.00000000000E+00 -0.99679556534E+02  0.99679556534E+02  0.00000000000E+00 0.  1.
          6    1    1    2  501    0  0.30025072658E+02 -0.53855346567E+02  0.18775275748E+02  0.18461693942E+03  0.17300000000E+03 0.  1.
         -6    1    1    2    0  502 -0.30025072658E+02  0.53855346567E+02  0.48642549652E+03  0.51994294592E+03  0.17300000000E+03 0.  1.
<mgrwt>
<rscale>  2 0.18365975E+03</rscale>
<asrwt>0</asrwt>
<pdfrwt beam="1">  1       21 0.93058510E-01 0.18365975E+03</pdfrwt>
<pdfrwt beam="2">  1       21 0.15335317E-01 0.18365975E+03</pdfrwt>
<totfact> 0.36803885E+04</totfact>
</mgrwt>
</event>
<event>
 4    1  0.4056666E+000  0.2178260E+03  0.7546771E-02  0.1135514E+00
         21   -1    0    0  501  502  0.00000000000E+00  0.00000000000E+00  0.13628017875E+04  0.13628017875E+04  0.00000000000E+00 0.  1.
         21   -1    0    0  502  503 -0.00000000000E+00 -0.00000000000E+00 -0.36458539450E+02  0.36458539450E+02  0.00000000000E+00 0.  1.
          6    1    1    2  501    0 -0.37348661850E+02  0.12698131609E+03  0.81164287556E+03  0.84036440586E+03  0.17300000000E+03 0.  1.
         -6    1    1    2    0  503  0.37348661850E+02 -0.12698131609E+03  0.51470037249E+03  0.55889592110E+03  0.17300000000E+03 0.  1.
<mgrwt>
<rscale>  2 0.21782603E+03</rscale>
<asrwt>0</asrwt>
<pdfrwt beam="1">  1       21 0.20966177E+00 0.21782603E+03</pdfrwt>
<pdfrwt beam="2">  1       21 0.56090071E-02 0.21782603E+03</pdfrwt>
<totfact> 0.25329018E+04</totfact>
</mgrwt>
</event>
<event>
 4    1  0.4056666E+000  0.1740299E+03  0.7546771E-02  0.1173709E+00
         21   -1    0    0  503  502  0.00000000000E+00  0.00000000000E+00  0.30823345122E+03  0.30823345122E+03  0.00000000000E+00 0. -1.
         21   -1    0    0  501  503 -0.00000000000E+00 -0.00000000000E+00 -0.12535486695E+03  0.12535486695E+03  0.00000000000E+00 0. -1.
          6    1    1    2  501    0 -0.18897120289E+02 -0.54658367252E+00 -0.93551493013E+01  0.17428114851E+03  0.17300000000E+03 0. -1.
         -6    1    1    2    0  502  0.18897120289E+02  0.54658367252E+00  0.19223373358E+03  0.25930716965E+03  0.17300000000E+03 0. -1.
<mgrwt>
<rscale>  2 0.17402988E+03</rscale>
<asrwt>0</asrwt>
<pdfrwt beam="1">  1       21 0.47420531E-01 0.17402988E+03</pdfrwt>
<pdfrwt beam="2">  1       21 0.19285364E-01 0.17402988E+03</pdfrwt>
<totfact> 0.10581488E+05</totfact>
</mgrwt>
</event>
<event>
 4    1  0.4056666E+000  0.2210513E+03  0.7546771E-02  0.1133102E+00
         21   -1    0    0  501  502  0.00000000000E+00  0.00000000000E+00  0.13992623989E+04  0.13992623989E+04  0.00000000000E+00 0.  1.
         21   -1    0    0  502  503 -0.00000000000E+00 -0.00000000000E+00 -0.39145798125E+02  0.39145798125E+02  0.00000000000E+00 0.  1.
          6    1    1    2  501    0  0.56430403893E+02  0.12550011549E+03  0.91632991978E+03  0.94261561166E+03  0.17300000000E+03 0.  1.
         -6    1    1    2    0  503 -0.56430403893E+02 -0.12550011549E+03  0.44378668103E+03  0.49579258540E+03  0.17300000000E+03 0.  1.
<mgrwt>
<rscale>  2 0.22105128E+03</rscale>
<asrwt>0</asrwt>
<pdfrwt beam="1">  1       21 0.21527110E+00 0.22105128E+03</pdfrwt>
<pdfrwt beam="2">  1       21 0.60224316E-02 0.22105128E+03</pdfrwt>
<totfact> 0.20629593E+04</totfact>
</mgrwt>
</event>
<event>
 4    1  0.4056666E+000  0.2521731E+03  0.7546771E-02  0.1111939E+00
         21   -1    0    0  503  502  0.00000000000E+00  0.00000000000E+00  0.10402372996E+03  0.10402372996E+03  0.00000000000E+00 0. -1.
         21   -1    0    0  501  503 -0.00000000000E+00 -0.00000000000E+00 -0.61282240722E+03  0.61282240722E+03  0.00000000000E+00 0. -1.
          6    1    1    2  501    0  0.12124850028E+03  0.13769925031E+03 -0.27217484354E+03  0.37103965800E+03  0.17300000000E+03 0. -1.
         -6    1    1    2    0  502 -0.12124850028E+03 -0.13769925031E+03 -0.23662383372E+03  0.34580647918E+03  0.17300000000E+03 0. -1.
<mgrwt>
<rscale>  2 0.25217312E+03</rscale>
<asrwt>0</asrwt>
<pdfrwt beam="1">  1       21 0.16003650E-01 0.25217312E+03</pdfrwt>
<pdfrwt beam="2">  1       21 0.94280372E-01 0.25217312E+03</pdfrwt>
<totfact> 0.31886240E+04</totfact>
</mgrwt>
</event>
<event>
 4    1  0.4056666E+000  0.2235971E+03  0.7546771E-02  0.1131229E+00
         21   -1    0    0  503  502  0.00000000000E+00  0.00000000000E+00  0.68145336144E+03  0.68145336144E+03  0.00000000000E+00 0. -1.
         21   -1    0    0  501  503 -0.00000000000E+00 -0.00000000000E+00 -0.74317685259E+02  0.74317685259E+02  0.00000000000E+00 0.  1.
          6    1    1    2  501    0 -0.14041853587E+03  0.18689753742E+02  0.34632468326E+03  0.41223349978E+03  0.17300000000E+03 0. -1.
         -6    1    1    2    0  502  0.14041853587E+03 -0.18689753742E+02  0.26081099293E+03  0.34353754692E+03  0.17300000000E+03 0. -1.
<mgrwt>
<rscale>  2 0.22359712E+03</rscale>
<asrwt>0</asrwt>
<pdfrwt beam="1">  1       21 0.10483897E+00 0.22359712E+03</pdfrwt>
<pdfrwt beam="2">  1       21 0.11433490E-01 0.22359712E+03</pdfrwt>
<totfact> 0.46182434E+04</totfact>
</mgrwt>
</event>
<event>
 4    1  0.4056666E+000  0.2094306E+03  0.7546771E-02  0.1142018E+00
         21   -1    0    0  503  502  0.00000000000E+00  0.00000000000E+00  0.57563447655E+02  0.57563447655E+02  0.00000000000E+00 0. -1.
         21   -1    0    0  501  503 -0.00000000000E+00 -0.00000000000E+00 -0.83505755793E+03  0.83505755793E+03  0.00000000000E+00 0. -1.
          6    1    1    2  501    0  0.75093275627E+02  0.91066899117E+02 -0.25670163632E+03  0.33129580476E+03  0.17300000000E+03 0. -1.
         -6    1    1    2    0  502 -0.75093275627E+02 -0.91066899117E+02 -0.52079247395E+03  0.56132520083E+03  0.17300000000E+03 0. -1.
<mgrwt>
<rscale>  2 0.20943061E+03</rscale>
<asrwt>0</asrwt>
<pdfrwt beam="1">  1       21 0.88559157E-02 0.20943061E+03</pdfrwt>
<pdfrwt beam="2">  1       21 0.12847038E+00 0.20943061E+03</pdfrwt>
<totfact> 0.44339976E+04</totfact>
</mgrwt>
</event>
<event>
 4    1  0.4056666E+000  0.2073228E+03  0.7546771E-02  0.1143704E+00
         21   -1    0    0  503  502  0.00000000000E+00  0.00000000000E+00  0.22430870409E+03  0.22430870409E+03  0.00000000000E+00 0. -1.
         21   -1    0    0  501  503 -0.00000000000E+00 -0.00000000000E+00 -0.19881382098E+03  0.19881382098E+03  0.00000000000E+00 0. -1.
          6    1    1    2  501    0  0.41795269835E+02 -0.10633393212E+03 -0.27486847085E+02  0.20913698014E+03  0.17300000000E+03 0. -1.
         -6    1    1    2    0  502 -0.41795269835E+02  0.10633393212E+03  0.52981730198E+02  0.21398554492E+03  0.17300000000E+03 0. -1.
<mgrwt>
<rscale>  2 0.20732282E+03</rscale>
<asrwt>0</asrwt>
<pdfrwt beam="1">  1       21 0.34509031E-01 0.20732282E+03</pdfrwt>
<pdfrwt beam="2">  1       21 0.30586742E-01 0.20732282E+03</pdfrwt>
<totfact> 0.82527056E+04</totfact>
</mgrwt>
</event>
<event>
 4    1  0.4056666E+000  0.1895330E+03  0.7546771E-02  0.1158883E+00
         21   -1    0    0  503  502  0.00000000000E+00  0.00000000000E+00  0.49514253882E+03  0.49514253882E+03  0.00000000000E+00 0.  1.
         21   -1    0    0  501  503 -0.00000000000E+00 -0.00000000000E+00 -0.74730522884E+02  0.74730522884E+02  0.00000000000E+00 0. -1.
          6    1    1    2  501    0 -0.36292319438E+02 -0.68385984867E+02  0.25887388468E+03  0.32084024614E+03  0.17300000000E+03 0.  1.
         -6    1    1    2    0  502  0.36292319438E+02  0.68385984867E+02  0.16153813126E+03  0.24903281556E+03  0.17300000000E+03 0.  1.
<mgrwt>
<rscale>  2 0.18953305E+03</rscale>
<asrwt>0</asrwt>
<pdfrwt beam="1">  1       21 0.76175773E-01 0.18953305E+03</pdfrwt>
<pdfrwt beam="2">  1       21 0.11497004E-01 0.18953305E+03</pdfrwt>
<totfact> 0.97395000E+04</totfact>
</mgrwt>
</event>
<event>
 4    1  0.4056666E+000  0.1982250E+03  0.7546771E-02  0.1151245E+00
         21   -1    0    0  501  502  0.00000000000E+00  0.00000000000E+00  0.24817820505E+03  0.24817820505E+03  0.00000000000E+00 0. -1.
         21   -1    0    0  502  503 -0.00000000000E+00 -0.00000000000E+00 -0.16525909447E+03  0.16525909447E+03  0.00000000000E+00 0. -1.
          6    1    1    2  501    0 -0.65733157946E+02 -0.71016210899E+02  0.83799419126E+02  0.21521034573E+03  0.17300000000E+03 0. -1.
         -6    1    1    2    0  503  0.65733157946E+02  0.71016210899E+02 -0.88030855173E+00  0.19822695379E+03  0.17300000000E+03 0. -1.
<mgrwt>
<rscale>  2 0.19822500E+03</rscale>
<asrwt>0</asrwt>
<pdfrwt beam="1">  1       21 0.38181262E-01 0.19822500E+03</pdfrwt>
<pdfrwt beam="2">  1       21 0.25424476E-01 0.19822500E+03</pdfrwt>
<totfact> 0.96807470E+04</totfact>
</mgrwt>
</event>
<event>
 4    1  0.4056666E+000  0.2337786E+03  0.7546771E-02  0.1124008E+00
         21   -1    0    0  501  502  0.00000000000E+00  0.00000000000E+00  0.69164154136E+03  0.69164154136E+03  0.00000000000E+00 0.  1.
         21   -1    0    0  502  503 -0.00000000000E+00 -0.00000000000E+00 -0.12776151805E+03  0.12776151805E+03  0.00000000000E+00 0.  1.
          6    1    1    2  501    0  0.66750864609E+02 -0.14236494908E+03  0.53500023895E+03  0.58384733649E+03  0.17300000000E+03 0.  1.
         -6    1    1    2    0  503 -0.66750864609E+02  0.14236494908E+03  0.28879784357E+02  0.23555572292E+03  0.17300000000E+03 0.  1.
<mgrwt>
<rscale>  2 0.23377865E+03</rscale>
<asrwt>0</asrwt>
<pdfrwt beam="1">  1       21 0.10640639E+00 0.23377865E+03</pdfrwt>
<pdfrwt beam="2">  1       21 0.19655618E-01 0.23377865E+03</pdfrwt>
<totfact> 0.16452863E+04</totfact>
</mgrwt>
</event>
<event>
 4    1  0.4056666E+000  0.3133620E+03  0.7546771E-02  0.1078745E+00
         21   -1    0    0  503  502  0.00000000000E+00  0.00000000000E+00  0.18679871692E+04  0.18679871692E+04  0.00000000000E+00 0.  1.
         21   -1    0    0  501  503 -0.00000000000E+00 -0.00000000000E+00 -0.59947098465E+02  0.59947098465E+02  0.00000000000E+00 0. -1.
          6    1    1    2  501    0 -0.23881199527E+03 -0.10599813351E+03  0.12422319256E+04  0.12811463345E+04  0.17300000000E+03 0. -1.
         -6    1    1    2    0  502  0.23881199527E+03  0.10599813351E+03  0.56580814507E+03  0.64678793312E+03  0.17300000000E+03 0. -1.
<mgrwt>
<rscale>  2 0.31336205E+03</rscale>
<asrwt>0</asrwt>
<pdfrwt beam="1">  1       21 0.28738260E+00 0.31336205E+03</pdfrwt>
<pdfrwt beam="2">  1       21 0.92226320E-02 0.31336205E+03</pdfrwt>
<totfact> 0.33837058E+03</totfact>
</mgrwt>
</event>
<event>
 4    1  0.4056666E+000  0.2159876E+03  0.7546771E-02  0.1136910E+00
         21   -1    0    0  503  502  0.00000000000E+00  0.00000000000E+00  0.11948359146E+03  0.11948359146E+03  0.00000000000E+00 0. -1.
         21   -1    0    0  501  503 -0.00000000000E+00 -0.00000000000E+00 -0.40241042414E+03  0.40241042414E+03  0.00000000000E+00 0. -1.
          6    1    1    2  501    0  0.10675591376E+03  0.72971297231E+02 -0.96448737011E+02  0.23654385262E+03  0.17300000000E+03 0. -1.
         -6    1    1    2    0  502 -0.10675591376E+03 -0.72971297231E+02 -0.18647809568E+03  0.28535016298E+03  0.17300000000E+03 0. -1.
<mgrwt>
<rscale>  2 0.21598758E+03</rscale>
<asrwt>0</asrwt>
<pdfrwt beam="1">  1       21 0.18382091E-01 0.21598758E+03</pdfrwt>
<pdfrwt beam="2">  1       21 0.61909296E-01 0.21598758E+03</pdfrwt>
<totfact> 0.64726891E+04</totfact>
</mgrwt>
</event>
<event>
 4    1  0.4056666E+000  0.2406262E+03  0.7546771E-02  0.1119376E+00
         21   -1    0    0  503  502  0.00000000000E+00  0.00000000000E+00  0.21180862543E+03  0.21180862543E+03  0.00000000000E+00 0.  1.
         21   -1    0    0  501  503 -0.00000000000E+00 -0.00000000000E+00 -0.27770407284E+03  0.27770407284E+03  0.00000000000E+00 0. -1.
          6    1    1    2  501    0 -0.16707472792E+03 -0.76163342451E+01 -0.23518428379E+01  0.24063770366E+03  0.17300000000E+03 0.  1.
         -6    1    1    2    0  502  0.16707472792E+03  0.76163342451E+01 -0.63543604571E+02  0.24887499461E+03  0.17300000000E+03 0. -1.
<mgrwt>
<rscale>  2 0.24062621E+03</rscale>
<asrwt>0</asrwt>
<pdfrwt beam="1">  1       21 0.32585943E-01 0.24062621E+03</pdfrwt>
<pdfrwt beam="2">  1       21 0.42723703E-01 0.24062621E+03</pdfrwt>
<totfact> 0.46716539E+04</totfact>
</mgrwt>
</event>
<event>
 4    1  0.4056666E+000  0.1847132E+03  0.7546771E-02  0.1163318E+00
         21   -1    0    0  503  502  0.00000000000E+00  0.00000000000E+00  0.27203363736E+03  0.27203363736E+03  0.00000000000E+00 0.  1.
         21   -1    0    0  501  503 -0.00000000000E+00 -0.00000000000E+00 -0.14660687106E+03  0.14660687106E+03  0.00000000000E+00 0.  1.
          6    1    1    2  501    0 -0.35983751480E+02 -0.53806360485E+02 -0.16856517279E+02  0.18548071860E+03  0.17300000000E+03 0.  1.
         -6    1    1    2    0  502  0.35983751480E+02  0.53806360485E+02  0.14228328358E+03  0.23315978981E+03  0.17300000000E+03 0.  1.
<mgrwt>
<rscale>  2 0.18471317E+03</rscale>
<asrwt>0</asrwt>
<pdfrwt beam="1">  1       21 0.41851329E-01 0.18471317E+03</pdfrwt>
<pdfrwt beam="2">  1       21 0.22554903E-01 0.18471317E+03</pdfrwt>
<totfact> 0.10151307E+05</totfact>
</mgrwt>
</event>
<event>
 4    1  0.4056666E+000  0.2836573E+03  0.7546771E-02  0.1093708E+00
         21   -1    0    0  501  502  0.00000000000E+00  0.00000000000E+00  0.31608429835E+02  0.31608429835E+02  0.00000000000E+00 0.  1.
         21   -1    0    0  502  503 -0.00000000000E+00 -0.00000000000E+00 -0.25530028280E+04  0.25530028280E+04  0.00000000000E+00 0.  1.
          6    1    1    2  501    0  0.18009234152E+03  0.13453326028E+03 -0.11909645495E+04  0.12242785663E+04  0.17300000000E+03 0.  1.
         -6    1    1    2    0  503 -0.18009234152E+03 -0.13453326028E+03 -0.13304298487E+04  0.13603326916E+04  0.17300000000E+03 0.  1.
<mgrwt>
<rscale>  2 0.28365727E+03</rscale>
<asrwt>0</asrwt>
<pdfrwt beam="1">  1       21 0.48628322E-02 0.28365727E+03</pdfrwt>
<pdfrwt beam="2">  1       21 0.39276992E+00 0.28365727E+03</pdfrwt>
<totfact> 0.24492325E+03</totfact>
</mgrwt>
</event>
<event>
 4    1  0.4056666E+000  0.1856117E+03  0.7546771E-02  0.1162480E+00
         21   -1    0    0  503  502  0.00000000000E+00  0.00000000000E+00  0.11023332970E+03  0.11023332970E+03  0.00000000000E+00 0.  1.
         21   -1    0    0  501  503 -0.00000000000E+00 -0.00000000000E+00 -0.32202404796E+03  0.32202404796E+03  0.00000000000E+00 0.  1.
          6    1    1    2  501    0  0.21533908011E+02  0.63710211618E+02 -0.14299714651E+03  0.23430724310E+03  0.17300000000E+03 0.  1.
         -6    1    1    2    0  502 -0.21533908011E+02 -0.63710211618E+02 -0.68793571746E+02  0.19795013456E+03  0.17300000000E+03 0.  1.
<mgrwt>
<rscale>  2 0.18561169E+03</rscale>
<asrwt>0</asrwt>
<pdfrwt beam="1">  1       21 0.16958974E-01 0.18561169E+03</pdfrwt>
<pdfrwt beam="2">  1       21 0.49542160E-01 0.18561169E+03</pdfrwt>
<totfact> 0.12201553E+05</totfact>
</mgrwt>
</event>
<event>
 4    1  0.4056666E+000  0.1757321E+03  0.7546771E-02  0.1171999E+00
         21   -1    0    0  501  502  0.00000000000E+00  0.00000000000E+00  0.33089781580E+02  0.33089781580E+02  0.00000000000E+00 0.  1.
         21   -1    0    0  502  503 -0.00000000000E+00 -0.00000000000E+00 -0.10050689549E+04  0.10050689549E+04  0.00000000000E+00 0.  1.
          6    1    1    2  501    0 -0.14866606592E+02 -0.27050833858E+02 -0.62472557357E+03  0.64897134442E+03  0.17300000000E+03 0.  1.
         -6    1    1    2    0  503  0.14866606592E+02  0.27050833858E+02 -0.34725359979E+03  0.38918739210E+03  0.17300000000E+03 0.  1.
<mgrwt>
<rscale>  2 0.17573208E+03</rscale>
<asrwt>0</asrwt>
<pdfrwt beam="1">  1       21 0.50907353E-02 0.17573208E+03</pdfrwt>
<pdfrwt beam="2">  1       21 0.15462600E+00 0.17573208E+03</pdfrwt>
<totfact> 0.72615120E+04</totfact>
</mgrwt>
</event>
<event>
 4    1  0.4056666E+000  0.2352231E+03  0.7546771E-02  0.1123017E+00
         21   -1    0    0  501  502  0.00000000000E+00  0.00000000000E+00  0.19690332337E+02  0.19690332337E+02  0.00000000000E+00 0. -1.
         21   -1    0    0  502  503 -0.00000000000E+00 -0.00000000000E+00 -0.28214974256E+04  0.28214974256E+04  0.00000000000E+00 0.  1.
          6    1    1    2  501    0  0.98762145566E+02 -0.12508772268E+03 -0.14915742949E+04  0.15100078731E+04  0.17300000000E+03 0.  1.
         -6    1    1    2    0  503 -0.98762145566E+02  0.12508772268E+03 -0.13102327984E+04  0.13311798849E+04  0.17300000000E+03 0.  1.
<mgrwt>
<rscale>  2 0.23522309E+03</rscale>
<asrwt>0</asrwt>
<pdfrwt beam="1">  1       21 0.30292811E-02 0.23522309E+03</pdfrwt>
<pdfrwt beam="2">  1       21 0.43407664E+00 0.23522309E+03</pdfrwt>
<totfact> 0.31142678E+03</totfact>
</mgrwt>
</event>
<event>
 4    1  0.4056666E+000  0.2181001E+03  0.7546771E-02  0.1135307E+00
         21   -1    0    0  503  502  0.00000000000E+00  0.00000000000E+00  0.21090721860E+03  0.21090721860E+03  0.00000000000E+00 0. -1.
         21   -1    0    0  501  503 -0.00000000000E+00 -0.00000000000E+00 -0.37598513096E+03  0.37598513096E+03  0.00000000000E+00 0. -1.
          6    1    1    2  501    0 -0.13191942948E+03 -0.15359710272E+02 -0.26816317222E+03  0.34565755237E+03  0.17300000000E+03 0. -1.
         -6    1    1    2    0  502  0.13191942948E+03  0.15359710272E+02  0.10308525986E+03  0.24123479719E+03  0.17300000000E+03 0. -1.
<mgrwt>
<rscale>  2 0.21810011E+03</rscale>
<asrwt>0</asrwt>
<pdfrwt beam="1">  1       21 0.32447265E-01 0.21810011E+03</pdfrwt>
<pdfrwt beam="2">  1       21 0.57843865E-01 0.21810011E+03</pdfrwt>
<totfact> 0.25251297E+04</totfact>
</mgrwt>
</event>
<event>
 4    1  0.4056666E+000  0.2073523E+03  0.7546771E-02  0.1143680E+00
         21   -1    0    0  501  502  0.00000000000E+00  0.00000000000E+00  0.67757766020E+03  0.67757766020E+03  0.00000000000E+00 0. -1.
         21   -1    0    0  502  503 -0.00000000000E+00 -0.00000000000E+00 -0.71787441289E+02  0.71787441289E+02  0.00000000000E+00 0. -1.
          6    1    1    2  501    0  0.32897296747E+02 -0.10947038066E+03  0.43055429069E+03  0.47788282414E+03  0.17300000000E+03 0. -1.
         -6    1    1    2    0  503 -0.32897296747E+02  0.10947038066E+03  0.17523592822E+03  0.27148227735E+03  0.17300000000E+03 0. -1.
<mgrwt>
<rscale>  2 0.20735235E+03</rscale>
<asrwt>0</asrwt>
<pdfrwt beam="1">  1       21 0.10424271E+00 0.20735235E+03</pdfrwt>
<pdfrwt beam="2">  1       21 0.11044222E-01 0.20735235E+03</pdfrwt>
<totfact> 0.50205832E+04</totfact>
</mgrwt>
</event>
<event>
 4    1  0.4056666E+000  0.2989271E+03  0.7546771E-02  0.1085778E+00
         21   -1    0    0  501  502  0.00000000000E+00  0.00000000000E+00  0.44493627066E+03  0.44493627066E+03  0.00000000000E+00 0. -1.
         21   -1    0    0  502  503 -0.00000000000E+00 -0.00000000000E+00 -0.20899398967E+03  0.20899398967E+03  0.00000000000E+00 0.  1.
          6    1    1    2  501    0  0.14662567470E+03  0.19475449354E+03  0.18258637801E+03  0.35027872712E+03  0.17300000000E+03 0. -1.
         -6    1    1    2    0  503 -0.14662567470E+03 -0.19475449354E+03  0.53355902985E+02  0.30365153321E+03  0.17300000000E+03 0.  1.
<mgrwt>
<rscale>  2 0.29892708E+03</rscale>
<asrwt>0</asrwt>
<pdfrwt beam="1">  1       21 0.68451734E-01 0.29892708E+03</pdfrwt>
<pdfrwt beam="2">  1       21 0.32152922E-01 0.29892708E+03</pdfrwt>
<totfact> 0.17151828E+04</totfact>
</mgrwt>
</event>
<event>
 4    1  0.4056666E+000  0.1834700E+03  0.7546771E-02  0.1164486E+00
         21   -1    0    0  503  502  0.00000000000E+00  0.00000000000E+00  0.28040985535E+03  0.28040985535E+03  0.00000000000E+00 0. -1.
         21   -1    0    0  501  503 -0.00000000000E+00 -0.00000000000E+00 -0.21079394424E+03  0.21079394424E+03  0.00000000000E+00 0. -1.
          6    1    1    2  501    0  0.54252596861E+01 -0.60850570557E+02 -0.12634132094E+03  0.22276300132E+03  0.17300000000E+03 0. -1.
         -6    1    1    2    0  502 -0.54252596861E+01  0.60850570557E+02  0.19595723205E+03  0.26844079826E+03  0.17300000000E+03 0. -1.
<mgrwt>
<rscale>  2 0.18346996E+03</rscale>
<asrwt>0</asrwt>
<pdfrwt beam="1">  1       21 0.43139978E-01 0.18346996E+03</pdfrwt>
<pdfrwt beam="2">  1       21 0.32429838E-01 0.18346996E+03</pdfrwt>
<totfact> 0.47475321E+04</totfact>
</mgrwt>
</event>
<event>
 4    1  0.4056666E+000  0.1775407E+03  0.7546771E-02  0.1170205E+00
         21   -1    0    0  503  502  0.00000000000E+00  0.00000000000E+00  0.72493017574E+03  0.72493017574E+03  0.00000000000E+00 0.  1.
         21   -1    0    0  501  503 -0.00000000000E+00 -0.00000000000E+00 -0.43511883078E+02  0.43511883078E+02  0.00000000000E+00 0.  1.
          6    1    1    2  501    0  0.33634550861E+02 -0.21456952369E+02  0.35094649448E+03  0.39329902848E+03  0.17300000000E+03 0. -1.
         -6    1    1    2    0  502 -0.33634550861E+02  0.21456952369E+02  0.33047179818E+03  0.37514303033E+03  0.17300000000E+03 0. -1.
<mgrwt>
<rscale>  2 0.17754065E+03</rscale>
<asrwt>0</asrwt>
<pdfrwt beam="1">  1       21 0.11152771E+00 0.17754065E+03</pdfrwt>
<pdfrwt beam="2">  1       21 0.66941364E-02 0.17754065E+03</pdfrwt>
<totfact> 0.10385830E+05</totfact>
</mgrwt>
</event>
<event>
 4    1  0.4056666E+000  0.1891690E+03  0.7546771E-02  0.1159213E+00
         21   -1    0    0  503  502  0.00000000000E+00  0.00000000000E+00  0.17016202849E+03  0.17016202849E+03  0.00000000000E+00 0.  1.
         21   -1    0    0  501  503 -0.00000000000E+00 -0.00000000000E+00 -0.21090372905E+03  0.21090372905E+03  0.00000000000E+00 0.  1.
          6    1    1    2  501    0  0.72967129087E+02  0.23058473015E+02 -0.10167850151E+02  0.18944202354E+03  0.17300000000E+03 0. -1.
         -6    1    1    2    0  502 -0.72967129087E+02 -0.23058473015E+02 -0.30573850410E+02  0.19162373400E+03  0.17300000000E+03 0. -1.
<mgrwt>
<rscale>  2 0.18916896E+03</rscale>
<asrwt>0</asrwt>
<pdfrwt beam="1">  1       21 0.26178774E-01 0.18916896E+03</pdfrwt>
<pdfrwt beam="2">  1       21 0.32446727E-01 0.18916896E+03</pdfrwt>
<totfact> 0.12690917E+05</totfact>
</mgrwt>
</event>
<event>
 4    1  0.4056666E+000  0.1878718E+03  0.7546771E-02  0.1160395E+00
         21   -1    0    0  501  502  0.00000000000E+00  0.00000000000E+00  0.26592532791E+03  0.26592532791E+03  0.00000000000E+00 0.  1.
         21   -1    0    0  502  503 -0.00000000000E+00 -0.00000000000E+00 -0.41405870528E+03  0.41405870528E+03  0.00000000000E+00 0.  1.
          6    1    1    2  501    0 -0.28004209877E+02  0.67694745654E+02  0.20618362168E+03  0.27893995808E+03  0.17300000000E+03 0.  1.
         -6    1    1    2    0  503  0.28004209877E+02 -0.67694745654E+02 -0.35431699906E+03  0.40104407511E+03  0.17300000000E+03 0.  1.
<mgrwt>
<rscale>  2 0.18787180E+03</rscale>
<asrwt>0</asrwt>
<pdfrwt beam="1">  1       21 0.40911589E-01 0.18787180E+03</pdfrwt>
<pdfrwt beam="2">  1       21 0.63701339E-01 0.18787180E+03</pdfrwt>
<totfact> 0.13146079E+04</totfact>
</mgrwt>
</event>
<event>
 4    1  0.4056666E+000  0.1794708E+03  0.7546771E-02  0.1168316E+00
         21   -1    0    0  501  502  0.00000000000E+00  0.00000000000E+00  0.17554885367E+03  0.17554885367E+03  0.00000000000E+00 0.  1.
         21   -1    0    0  502  503 -0.00000000000E+00 -0.00000000000E+00 -0.35260325065E+03  0.35260325065E+03  0.00000000000E+00 0.  1.
          6    1    1    2  501    0 -0.38721717373E+02  0.27953446399E+02  0.94361581016E+02  0.20276556545E+03  0.17300000000E+03 0.  1.
         -6    1    1    2    0  503  0.38721717373E+02 -0.27953446399E+02 -0.27141597799E+03  0.32538653886E+03  0.17300000000E+03 0.  1.
<mgrwt>
<rscale>  2 0.17947080E+03</rscale>
<asrwt>0</asrwt>
<pdfrwt beam="1">  1       21 0.27007516E-01 0.17947080E+03</pdfrwt>
<pdfrwt beam="2">  1       21 0.54246653E-01 0.17947080E+03</pdfrwt>
<totfact> 0.42223524E+04</totfact>
</mgrwt>
</event>
<event>
 4    1  0.4056666E+000  0.2002068E+03  0.7546771E-02  0.1149565E+00
         21   -1    0    0  503  502  0.00000000000E+00  0.00000000000E+00  0.59585419677E+03  0.59585419677E+03  0.00000000000E+00 0. -1.
         21   -1    0    0  501  503 -0.00000000000E+00 -0.00000000000E+00 -0.89924143848E+02  0.89924143848E+02  0.00000000000E+00 0.  1.
          6    1    1    2  501    0  0.68792262495E+02 -0.73630013117E+02  0.80859350876E+02  0.21591894043E+03  0.17300000000E+03 0. -1.
         -6    1    1    2    0  502 -0.68792262495E+02  0.73630013117E+02  0.42507070205E+03  0.46985940019E+03  0.17300000000E+03 0.  1.
<mgrwt>
<rscale>  2 0.20020678E+03</rscale>
<asrwt>0</asrwt>
<pdfrwt beam="1">  1       21 0.91669874E-01 0.20020678E+03</pdfrwt>
<pdfrwt beam="2">  1       21 0.13834484E-01 0.20020678E+03</pdfrwt>
<totfact> 0.45558951E+04</totfact>
</mgrwt>
</event>
<event>
 4    1  0.4056666E+000  0.1887185E+03  0.7546771E-02  0.1159622E+00
         21   -1    0    0  501  502  0.00000000000E+00  0.00000000000E+00  0.37093470772E+03  0.37093470772E+03  0.00000000000E+00 0.  1.
         21   -1    0    0  502  503 -0.00000000000E+00 -0.00000000000E+00 -0.10901212533E+03  0.10901212533E+03  0.00000000000E+00 0. -1.
          6    1    1    2  501    0 -0.13206677437E+02 -0.74237769736E+02  0.21382758240E+03  0.28519624433E+03  0.17300000000E+03 0. -1.
         -6    1    1    2    0  503  0.13206677437E+02  0.74237769736E+02  0.48094999987E+02  0.19475058872E+03  0.17300000000E+03 0. -1.
<mgrwt>
<rscale>  2 0.18871847E+03</rscale>
<asrwt>0</asrwt>
<pdfrwt beam="1">  1       21 0.57066878E-01 0.18871847E+03</pdfrwt>
<pdfrwt beam="2">  1       21 0.16771096E-01 0.18871847E+03</pdfrwt>
<totfact> 0.92397035E+04</totfact>
</mgrwt>
</event>
<event>
 4    1  0.4056666E+000  0.2266061E+03  0.7546771E-02  0.1129052E+00
         21   -1    0    0  503  502  0.00000000000E+00  0.00000000000E+00  0.11183755928E+04  0.11183755928E+04  0.00000000000E+00 0.  1.
         21   -1    0    0  501  503 -0.00000000000E+00 -0.00000000000E+00 -0.26357527339E+03  0.26357527339E+03  0.00000000000E+00 0. -1.
          6    1    1    2  501    0  0.53897960541E+02 -0.13607481019E+03 -0.20051323018E+03  0.30258205432E+03  0.17300000000E+03 0. -1.
         -6    1    1    2    0  502 -0.53897960541E+02  0.13607481019E+03  0.10553135496E+04  0.10793688119E+04  0.17300000000E+03 0.  1.
<mgrwt>
<rscale>  2 0.22660614E+03</rscale>
<asrwt>0</asrwt>
<pdfrwt beam="1">  1       21 0.17205778E+00 0.22660614E+03</pdfrwt>
<pdfrwt beam="2">  1       21 0.40550043E-01 0.22660614E+03</pdfrwt>
<totfact> 0.11692300E+03</totfact>
</mgrwt>
</event>
<event>
 4    1  0.4056666E+000  0.2048230E+03  0.7546771E-02  0.1145732E+00
         21   -1    0    0  503  502  0.00000000000E+00  0.00000000000E+00  0.40418008222E+03  0.40418008222E+03  0.00000000000E+00 0. -1.
         21   -1    0    0  501  503 -0.00000000000E+00 -0.00000000000E+00 -0.15526868687E+03  0.15526868687E+03  0.00000000000E+00 0. -1.
          6    1    1    2  501    0  0.10293252137E+03  0.37793677031E+02 -0.36599528302E+02  0.20806727626E+03  0.17300000000E+03 0. -1.
         -6    1    1    2    0  502 -0.10293252137E+03 -0.37793677031E+02  0.28551092365E+03  0.35138149283E+03  0.17300000000E+03 0. -1.
<mgrwt>
<rscale>  2 0.20482301E+03</rscale>
<asrwt>0</asrwt>
<pdfrwt beam="1">  1       21 0.62181551E-01 0.20482301E+03</pdfrwt>
<pdfrwt beam="2">  1       21 0.23887490E-01 0.20482301E+03</pdfrwt>
<totfact> 0.39384433E+04</totfact>
</mgrwt>
</event>
<event>
 4    1  0.4056666E+000  0.2287679E+03  0.7546771E-02  0.1127510E+00
         21   -1    0    0  503  502  0.00000000000E+00  0.00000000000E+00  0.47821255481E+03  0.47821255481E+03  0.00000000000E+00 0.  1.
         21   -1    0    0  501  503 -0.00000000000E+00 -0.00000000000E+00 -0.25572173256E+03  0.25572173256E+03  0.00000000000E+00 0.  1.
          6    1    1    2  501    0 -0.12012496214E+03 -0.89307092324E+02 -0.16630440991E+03  0.28282842860E+03  0.17300000000E+03 0.  1.
         -6    1    1    2    0  502  0.12012496214E+03  0.89307092324E+02  0.38879523215E+03  0.45110585877E+03  0.17300000000E+03 0.  1.
<mgrwt>
<rscale>  2 0.22876792E+03</rscale>
<asrwt>0</asrwt>
<pdfrwt beam="1">  1       21 0.73571162E-01 0.22876792E+03</pdfrwt>
<pdfrwt beam="2">  1       21 0.39341805E-01 0.22876792E+03</pdfrwt>
<totfact> 0.10094859E+04</totfact>
</mgrwt>
</event>
<event>
 4    1  0.4056666E+000  0.1793627E+03  0.7546771E-02  0.1168421E+00
         21   -1    0    0  503  502  0.00000000000E+00  0.00000000000E+00  0.38233307471E+03  0.38233307471E+03  0.00000000000E+00 0. -1.
         21   -1    0    0  501  503 -0.00000000000E+00 -0.00000000000E+00 -0.17616794912E+03  0.17616794912E+03  0.00000000000E+00 0. -1.
          6    1    1    2  501    0  0.39498659250E+02 -0.26112129718E+02 -0.98745360273E+02  0.20474773155E+03  0.17300000000E+03 0. -1.
         -6    1    1    2    0  502 -0.39498659250E+02  0.26112129718E+02  0.30491048586E+03  0.35375329227E+03  0.17300000000E+03 0. -1.
<mgrwt>
<rscale>  2 0.17936273E+03</rscale>
<asrwt>0</asrwt>
<pdfrwt beam="1">  1       21 0.58820473E-01 0.17936273E+03</pdfrwt>
<pdfrwt beam="2">  1       21 0.27102761E-01 0.17936273E+03</pdfrwt>
<totfact> 0.35323877E+04</totfact>
</mgrwt>
</event>
<event>
 4    1  0.4056666E+000  0.1927721E+03  0.7546771E-02  0.1155985E+00
         21   -1    0    0  503  502  0.00000000000E+00  0.00000000000E+00  0.24050669434E+03  0.24050669434E+03  0.00000000000E+00 0. -1.
         21   -1    0    0  501  503 -0.00000000000E+00 -0.00000000000E+00 -0.17403231427E+03  0.17403231427E+03  0.00000000000E+00 0. -1.
          6    1    1    2  501    0  0.61913751303E+02 -0.58299052099E+02 -0.36180072664E+02  0.19613793548E+03  0.17300000000E+03 0. -1.
         -6    1    1    2    0  502 -0.61913751303E+02  0.58299052099E+02  0.10265445273E+03  0.21840107312E+03  0.17300000000E+03 0. -1.
<mgrwt>
<rscale>  2 0.19277212E+03</rscale>
<asrwt>0</asrwt>
<pdfrwt beam="1">  1       21 0.37001030E-01 0.19277212E+03</pdfrwt>
<pdfrwt beam="2">  1       21 0.26774202E-01 0.19277212E+03</pdfrwt>
<totfact> 0.93567778E+04</totfact>
</mgrwt>
</event>
<event>
 4    1  0.4056666E+000  0.2643903E+03  0.7546771E-02  0.1104534E+00
         21   -1    0    0  501  502  0.00000000000E+00  0.00000000000E+00  0.18688230343E+03  0.18688230343E+03  0.00000000000E+00 0.  1.
         21   -1    0    0  502  503 -0.00000000000E+00 -0.00000000000E+00 -0.64043280498E+03  0.64043280498E+03  0.00000000000E+00 0. -1.
          6    1    1    2  501    0  0.64624375224E+02  0.18920078411E+03  0.40010097931E+02  0.26740055070E+03  0.17300000000E+03 0.  1.
         -6    1    1    2    0  503 -0.64624375224E+02 -0.18920078411E+03 -0.49356059947E+03  0.55991455771E+03  0.17300000000E+03 0. -1.
<mgrwt>
<rscale>  2 0.26439033E+03</rscale>
<asrwt>0</asrwt>
<pdfrwt beam="1">  1       21 0.28751123E-01 0.26439033E+03</pdfrwt>
<pdfrwt beam="2">  1       21 0.98528124E-01 0.26439033E+03</pdfrwt>
<totfact> 0.94105584E+03</totfact>
</mgrwt>
</event>
<event>
 4    1  0.4056666E+000  0.2149840E+03  0.7546771E-02  0.1137679E+00
         21   -1    0    0  503  502  0.00000000000E+00  0.00000000000E+00  0.18198590188E+03  0.18198590188E+03  0.00000000000E+00 0.  1.
         21   -1    0    0  501  503 -0.00000000000E+00 -0.00000000000E+00 -0.25400780531E+03  0.25400780531E+03  0.00000000000E+00 0.  1.
          6    1    1    2  501    0  0.12329843496E+03  0.32964150495E+02 -0.33197365321E+02  0.21753207659E+03  0.17300000000E+03 0.  1.
         -6    1    1    2    0  502 -0.12329843496E+03 -0.32964150495E+02 -0.38824538115E+02  0.21846163060E+03  0.17300000000E+03 0.  1.
<mgrwt>
<rscale>  2 0.21498404E+03</rscale>
<asrwt>0</asrwt>
<pdfrwt beam="1">  1       21 0.27997831E-01 0.21498404E+03</pdfrwt>
<pdfrwt beam="2">  1       21 0.39078124E-01 0.21498404E+03</pdfrwt>
<totfact> 0.76201285E+04</totfact>
</mgrwt>
</event>
<event>
 4    1  0.4056666E+000  0.1818403E+03  0.7546771E-02  0.1166034E+00
         21   -1    0    0  503  502  0.00000000000E+00  0.00000000000E+00  0.35776404221E+03  0.35776404221E+03  0.00000000000E+00 0. -1.
         21   -1    0    0  501  503 -0.00000000000E+00 -0.00000000000E+00 -0.11819871048E+03  0.11819871048E+03  0.00000000000E+00 0. -1.
          6    1    1    2  501    0  0.31425106741E+02 -0.46361161470E+02  0.86515689110E+01  0.18204599493E+03  0.17300000000E+03 0. -1.
         -6    1    1    2    0  502 -0.31425106741E+02  0.46361161470E+02  0.23091376282E+03  0.29391675775E+03  0.17300000000E+03 0. -1.
<mgrwt>
<rscale>  2 0.18184030E+03</rscale>
<asrwt>0</asrwt>
<pdfrwt beam="1">  1       21 0.55040621E-01 0.18184030E+03</pdfrwt>
<pdfrwt beam="2">  1       21 0.18184417E-01 0.18184030E+03</pdfrwt>
<totfact> 0.86174430E+04</totfact>
</mgrwt>
</event>
<event>
 4    1  0.4056666E+000  0.1942277E+03  0.7546771E-02  0.1154703E+00
         21   -1    0    0  503  502  0.00000000000E+00  0.00000000000E+00  0.34026835318E+03  0.34026835318E+03  0.00000000000E+00 0.  1.
         21   -1    0    0  501  503 -0.00000000000E+00 -0.00000000000E+00 -0.19818009900E+03  0.19818009900E+03  0.00000000000E+00 0. -1.
          6    1    1    2  501    0  0.84569287685E+02  0.25365951569E+02 -0.10765597853E+03  0.22206802028E+03  0.17300000000E+03 0. -1.
         -6    1    1    2    0  502 -0.84569287685E+02 -0.25365951569E+02  0.24974423271E+03  0.31638043190E+03  0.17300000000E+03 0.  1.
<mgrwt>
<rscale>  2 0.19422769E+03</rscale>
<asrwt>0</asrwt>
<pdfrwt beam="1">  1       21 0.52348977E-01 0.19422769E+03</pdfrwt>
<pdfrwt beam="2">  1       21 0.30489246E-01 0.19422769E+03</pdfrwt>
<totfact> 0.35712126E+04</totfact>
</mgrwt>
</event>
<event>
 4    1  0.4056666E+000  0.2595283E+03  0.7546771E-02  0.1107427E+00
         21   -1    0    0  501  502  0.00000000000E+00  0.00000000000E+00  0.26346353904E+03  0.26346353904E+03  0.00000000000E+00 0.  1.
         21   -1    0    0  502  503 -0.00000000000E+00 -0.00000000000E+00 -0.33362754178E+03  0.33362754178E+03  0.00000000000E+00 0. -1.
          6    1    1    2  501    0  0.71685293854E+02  0.17968622870E+03  0.10924894515E+03  0.28158525202E+03  0.17300000000E+03 0.  1.
         -6    1    1    2    0  503 -0.71685293854E+02 -0.17968622870E+03 -0.17941294789E+03  0.31550582880E+03  0.17300000000E+03 0. -1.
<mgrwt>
<rscale>  2 0.25952827E+03</rscale>
<asrwt>0</asrwt>
<pdfrwt beam="1">  1       21 0.40532852E-01 0.25952827E+03</pdfrwt>
<pdfrwt beam="2">  1       21 0.51327314E-01 0.25952827E+03</pdfrwt>
<totfact> 0.20416672E+04</totfact>
</mgrwt>
</event>
<event>
 4    1  0.4056666E+000  0.2063774E+03  0.7546771E-02  0.1144467E+00
         21   -1    0    0  503  502  0.00000000000E+00  0.00000000000E+00  0.33231397417E+04  0.33231397417E+04  0.00000000000E+00 0.  1.
         21   -1    0    0  501  503 -0.00000000000E+00 -0.00000000000E+00 -0.17929797477E+02  0.17929797477E+02  0.00000000000E+00 0.  1.
          6    1    1    2  501    0 -0.89407201655E+02  0.68329998423E+02  0.76051124381E+03  0.78801585540E+03  0.17300000000E+03 0. -1.
         -6    1    1    2    0  502  0.89407201655E+02 -0.68329998423E+02  0.25446987004E+04  0.25530536838E+04  0.17300000000E+03 0. -1.
<mgrwt>
<rscale>  2 0.20637741E+03</rscale>
<asrwt>0</asrwt>
<pdfrwt beam="1">  1       21 0.51125178E+00 0.20637741E+03</pdfrwt>
<pdfrwt beam="2">  1       21 0.27584330E-02 0.20637741E+03</pdfrwt>
<totfact> 0.11214417E+03</totfact>
</mgrwt>
</event>
<event>
 4    1  0.4056666E+000  0.2178635E+03  0.7546771E-02  0.1135486E+00
         21   -1    0    0  503  502  0.00000000000E+00  0.00000000000E+00  0.27925628358E+03  0.27925628358E+03  0.00000000000E+00 0. -1.
         21   -1    0    0  501  503 -0.00000000000E+00 -0.00000000000E+00 -0.17017633070E+03  0.17017633070E+03  0.00000000000E+00 0. -1.
          6    1    1    2  501    0  0.12929571550E+03  0.28602505359E+02  0.46667555338E+02  0.22280562399E+03  0.17300000000E+03 0. -1.
         -6    1    1    2    0  502 -0.12929571550E+03 -0.28602505359E+02  0.62412397543E+02  0.22662699029E+03  0.17300000000E+03 0. -1.
<mgrwt>
<rscale>  2 0.21786346E+03</rscale>
<asrwt>0</asrwt>
<pdfrwt beam="1">  1       21 0.42962505E-01 0.21786346E+03</pdfrwt>
<pdfrwt beam="2">  1       21 0.26180974E-01 0.21786346E+03</pdfrwt>
<totfact> 0.71459004E+04</totfact>
</mgrwt>
</event>
<event>
 4    1  0.4056666E+000  0.2191997E+03  0.7546771E-02  0.1134481E+00
         21   -1    0    0  501  502  0.00000000000E+00  0.00000000000E+00  0.56323829237E+03  0.56323829237E+03  0.00000000000E+00 0.  1.
         21   -1    0    0  502  503 -0.00000000000E+00 -0.00000000000E+00 -0.12422590543E+03  0.12422590543E+03  0.00000000000E+00 0.  1.
          6    1    1    2  501    0 -0.12131278000E+03 -0.58332961054E+02  0.27112519776E+02  0.22087012851E+03  0.17300000000E+03 0.  1.
         -6    1    1    2    0  503  0.12131278000E+03  0.58332961054E+02  0.41189986716E+03  0.46659406930E+03  0.17300000000E+03 0.  1.
<mgrwt>
<rscale>  2 0.21919974E+03</rscale>
<asrwt>0</asrwt>
<pdfrwt beam="1">  1       21 0.86652043E-01 0.21919974E+03</pdfrwt>
<pdfrwt beam="2">  1       21 0.19111678E-01 0.21919974E+03</pdfrwt>
<totfact> 0.28383589E+04</totfact>
</mgrwt>
</event>
<event>
 4    1  0.4056666E+000  0.2260363E+03  0.7546771E-02  0.1129461E+00
         21   -1    0    0  501  502  0.00000000000E+00  0.00000000000E+00  0.98274828549E+03  0.98274828549E+03  0.00000000000E+00 0. -1.
         21   -1    0    0  502  503 -0.00000000000E+00 -0.00000000000E+00 -0.56397844722E+02  0.56397844722E+02  0.00000000000E+00 0. -1.
          6    1    1    2  501    0 -0.10352939264E+03  0.10220119589E+03  0.60844048869E+03  0.64907029500E+03  0.17300000000E+03 0. -1.
         -6    1    1    2    0  503  0.10352939264E+03 -0.10220119589E+03  0.31790995208E+03  0.39007583521E+03  0.17300000000E+03 0. -1.
<mgrwt>
<rscale>  2 0.22603632E+03</rscale>
<asrwt>0</asrwt>
<pdfrwt beam="1">  1       21 0.15119203E+00 0.22603632E+03</pdfrwt>
<pdfrwt beam="2">  1       21 0.86765922E-02 0.22603632E+03</pdfrwt>
<totfact> 0.29880408E+04</totfact>
</mgrwt>
</event>
<event>
 4    1  0.4056666E+000  0.2054306E+03  0.7546771E-02  0.1145236E+00
         21   -1    0    0  501  502  0.00000000000E+00  0.00000000000E+00  0.86712597664E+03  0.86712597664E+03  0.00000000000E+00 0.  1.
         21   -1    0    0  502  503 -0.00000000000E+00 -0.00000000000E+00 -0.73497288181E+02  0.73497288181E+02  0.00000000000E+00 0. -1.
          6    1    1    2  501    0  0.58758776217E+02  0.93915691553E+02  0.67016965692E+03  0.70094872848E+03  0.17300000000E+03 0.  1.
         -6    1    1    2    0  503 -0.58758776217E+02 -0.93915691553E+02  0.12345903154E+03  0.23967453635E+03  0.17300000000E+03 0. -1.
<mgrwt>
<rscale>  2 0.20543065E+03</rscale>
<asrwt>0</asrwt>
<pdfrwt beam="1">  1       21 0.13340399E+00 0.20543065E+03</pdfrwt>
<pdfrwt beam="2">  1       21 0.11307276E-01 0.20543065E+03</pdfrwt>
<totfact> 0.26212369E+04</totfact>
</mgrwt>
</event>
<event>
 4    1  0.4056666E+000  0.3682082E+03  0.7546771E-02  0.1055380E+00
         21   -1    0    0  503  502  0.00000000000E+00  0.00000000000E+00  0.23693380461E+03  0.23693380461E+03  0.00000000000E+00 0.  1.
         21   -1    0    0  501  503 -0.00000000000E+00 -0.00000000000E+00 -0.60586232698E+03  0.60586232698E+03  0.00000000000E+00 0.  1.
          6    1    1    2  501    0 -0.32199814989E+03 -0.44333813539E+02 -0.28377012536E+03  0.46486856164E+03  0.17300000000E+03 0.  1.
         -6    1    1    2    0  502  0.32199814989E+03  0.44333813539E+02 -0.85158397013E+02  0.37792756996E+03  0.17300000000E+03 0.  1.
<mgrwt>
<rscale>  2 0.36820822E+03</rscale>
<asrwt>0</asrwt>
<pdfrwt beam="1">  1       21 0.36451355E-01 0.36820822E+03</pdfrwt>
<pdfrwt beam="2">  1       21 0.93209586E-01 0.36820822E+03</pdfrwt>
<totfact> 0.63866343E+03</totfact>
</mgrwt>
</event>
<event>
 4    1  0.4056666E+000  0.1921398E+03  0.7546771E-02  0.1156545E+00
         21   -1    0    0  503  502  0.00000000000E+00  0.00000000000E+00  0.49947815901E+03  0.49947815901E+03  0.00000000000E+00 0. -1.
         21   -1    0    0  501  503 -0.00000000000E+00 -0.00000000000E+00 -0.12341841249E+03  0.12341841249E+03  0.00000000000E+00 0. -1.
          6    1    1    2  501    0  0.70200510382E+02 -0.45393896933E+02 -0.92233765715E+01  0.19236108809E+03  0.17300000000E+03 0. -1.
         -6    1    1    2    0  502 -0.70200510382E+02  0.45393896933E+02  0.38528312309E+03  0.43053548341E+03  0.17300000000E+03 0. -1.
<mgrwt>
<rscale>  2 0.19213984E+03</rscale>
<asrwt>0</asrwt>
<pdfrwt beam="1">  1       21 0.76842792E-01 0.19213984E+03</pdfrwt>
<pdfrwt beam="2">  1       21 0.18987448E-01 0.19213984E+03</pdfrwt>
<totfact> 0.38305552E+04</totfact>
</mgrwt>
</event>
<event>
 4    1  0.4056666E+000  0.1815014E+03  0.7546771E-02  0.1166358E+00
         21   -1    0    0  501  502  0.00000000000E+00  0.00000000000E+00  0.11649685230E+03  0.11649685230E+03  0.00000000000E+00 0.  1.
         21   -1    0    0  502  503 -0.00000000000E+00 -0.00000000000E+00 -0.36283591186E+03  0.36283591186E+03  0.00000000000E+00 0.  1.
          6    1    1    2  501    0 -0.52029239346E+02  0.17513593236E+02 -0.10591502952E+02  0.18181019672E+03  0.17300000000E+03 0.  1.
         -6    1    1    2    0  503  0.52029239346E+02 -0.17513593236E+02 -0.23574755661E+03  0.29752256745E+03  0.17300000000E+03 0.  1.
<mgrwt>
<rscale>  2 0.18150143E+03</rscale>
<asrwt>0</asrwt>
<pdfrwt beam="1">  1       21 0.17922593E-01 0.18150143E+03</pdfrwt>
<pdfrwt beam="2">  1       21 0.55820910E-01 0.18150143E+03</pdfrwt>
<totfact> 0.85929017E+04</totfact>
</mgrwt>
</event>
<event>
 4    1  0.4056666E+000  0.2294046E+03  0.7546771E-02  0.1127060E+00
         21   -1    0    0  503  502  0.00000000000E+00  0.00000000000E+00  0.14631255927E+03  0.14631255927E+03  0.00000000000E+00 0. -1.
         21   -1    0    0  501  503 -0.00000000000E+00 -0.00000000000E+00 -0.95746976467E+03  0.95746976467E+03  0.00000000000E+00 0.  1.
          6    1    1    2  501    0  0.30774926454E+02  0.14748004996E+03 -0.84165567748E+03  0.87235929563E+03  0.17300000000E+03 0.  1.
         -6    1    1    2    0  502 -0.30774926454E+02 -0.14748004996E+03  0.30498472085E+02  0.23142302831E+03  0.17300000000E+03 0. -1.
<mgrwt>
<rscale>  2 0.22940458E+03</rscale>
<asrwt>0</asrwt>
<pdfrwt beam="1">  1       21 0.22509624E-01 0.22940458E+03</pdfrwt>
<pdfrwt beam="2">  1       21 0.14730304E+00 0.22940458E+03</pdfrwt>
<totfact> 0.56318956E+03</totfact>
</mgrwt>
</event>
<event>
 4    1  0.4056666E+000  0.1980463E+03  0.7546771E-02  0.1151398E+00
         21   -1    0    0  501  502  0.00000000000E+00  0.00000000000E+00  0.81679202375E+03  0.81679202375E+03  0.00000000000E+00 0.  1.
         21   -1    0    0  502  503 -0.00000000000E+00 -0.00000000000E+00 -0.48939014156E+02  0.48939014156E+02  0.00000000000E+00 0.  1.
          6    1    1    2  501    0  0.88919697768E+02 -0.37237257934E+02  0.44324556758E+03  0.48547807284E+03  0.17300000000E+03 0.  1.
         -6    1    1    2    0  503 -0.88919697768E+02  0.37237257934E+02  0.32460744201E+03  0.38025296506E+03  0.17300000000E+03 0.  1.
<mgrwt>
<rscale>  2 0.19804627E+03</rscale>
<asrwt>0</asrwt>
<pdfrwt beam="1">  1       21 0.12566030E+00 0.19804627E+03</pdfrwt>
<pdfrwt beam="2">  1       21 0.75290797E-02 0.19804627E+03</pdfrwt>
<totfact> 0.62601611E+04</totfact>
</mgrwt>
</event>
<event>
 4    1  0.4056666E+000  0.1786579E+03  0.7546771E-02  0.1169108E+00
         21   -1    0    0  501  502  0.00000000000E+00  0.00000000000E+00  0.18711349799E+03  0.18711349799E+03  0.00000000000E+00 0. -1.
         21   -1    0    0  502  503 -0.00000000000E+00 -0.00000000000E+00 -0.39483487838E+03  0.39483487838E+03  0.00000000000E+00 0. -1.
          6    1    1    2  501    0  0.38059486818E+02  0.23262171682E+02  0.11542654443E+03  0.21270152874E+03  0.17300000000E+03 0. -1.
         -6    1    1    2    0  503 -0.38059486818E+02 -0.23262171682E+02 -0.32314792482E+03  0.36924684763E+03  0.17300000000E+03 0. -1.
<mgrwt>
<rscale>  2 0.17865792E+03</rscale>
<asrwt>0</asrwt>
<pdfrwt beam="1">  1       21 0.28786692E-01 0.17865792E+03</pdfrwt>
<pdfrwt beam="2">  1       21 0.60743828E-01 0.17865792E+03</pdfrwt>
<totfact> 0.29362393E+04</totfact>
</mgrwt>
</event>
<event>
 4    1  0.4056666E+000  0.2441709E+03  0.7546771E-02  0.1117045E+00
         21   -1    0    0  501  502  0.00000000000E+00  0.00000000000E+00  0.11100000464E+03  0.11100000464E+03  0.00000000000E+00 0.  1.
         21   -1    0    0  502  503 -0.00000000000E+00 -0.00000000000E+00 -0.55564515595E+03  0.55564515595E+03  0.00000000000E+00 0.  1.
          6    1    1    2  501    0  0.52811466437E+02 -0.16401644967E+03 -0.16144752091E+03  0.29271957358E+03  0.17300000000E+03 0.  1.
         -6    1    1    2    0  503 -0.52811466437E+02  0.16401644967E+03 -0.28319763041E+03  0.37392558701E+03  0.17300000000E+03 0.  1.
<mgrwt>
<rscale>  2 0.24417094E+03</rscale>
<asrwt>0</asrwt>
<pdfrwt beam="1">  1       21 0.17076924E-01 0.24417094E+03</pdfrwt>
<pdfrwt beam="2">  1       21 0.85483869E-01 0.24417094E+03</pdfrwt>
<totfact> 0.35663531E+04</totfact>
</mgrwt>
</event>
<event>
 4    1  0.4056666E+000  0.2104298E+03  0.7546771E-02  0.1141226E+00
         21   -1    0    0  501  502  0.00000000000E+00  0.00000000000E+00  0.58050943715E+03  0.58050943715E+03  0.00000000000E+00 0.  1.
         21   -1    0    0  502  503 -0.00000000000E+00 -0.00000000000E+00 -0.95851870687E+02  0.95851870687E+02  0.00000000000E+00 0. -1.
          6    1    1    2  501    0 -0.79020022835E+02  0.90041811202E+02  0.39514712720E+03  0.44768509458E+03  0.17300000000E+03 0.  1.
         -6    1    1    2    0  503  0.79020022835E+02 -0.90041811202E+02  0.89510439262E+02  0.22867621326E+03  0.17300000000E+03 0. -1.
<mgrwt>
<rscale>  2 0.21042978E+03</rscale>
<asrwt>0</asrwt>
<pdfrwt beam="1">  1       21 0.89309142E-01 0.21042978E+03</pdfrwt>
<pdfrwt beam="2">  1       21 0.14746442E-01 0.21042978E+03</pdfrwt>
<totfact> 0.42878999E+04</totfact>
</mgrwt>
</event>
<event>
 4    1  0.4056666E+000  0.2657411E+03  0.7546771E-02  0.1103742E+00
         21   -1    0    0  501  502  0.00000000000E+00  0.00000000000E+00  0.93524662459E+03  0.93524662459E+03  0.00000000000E+00 0. -1.
         21   -1    0    0  502  503 -0.00000000000E+00 -0.00000000000E+00 -0.96842412968E+02  0.96842412968E+02  0.00000000000E+00 0.  1.
          6    1    1    2  501    0  0.93295466575E+01  0.20150004718E+03  0.66141535879E+03  0.71280332932E+03  0.17300000000E+03 0. -1.
         -6    1    1    2    0  503 -0.93295466575E+01 -0.20150004718E+03  0.17698885283E+03  0.31928570823E+03  0.17300000000E+03 0.  1.
<mgrwt>
<rscale>  2 0.26574106E+03</rscale>
<asrwt>0</asrwt>
<pdfrwt beam="1">  1       21 0.14388409E+00 0.26574106E+03</pdfrwt>
<pdfrwt beam="2">  1       21 0.14898833E-01 0.26574106E+03</pdfrwt>
<totfact> 0.12641314E+04</totfact>
</mgrwt>
</event>
<event>
 4    1  0.4056666E+000  0.2929611E+03  0.7546771E-02  0.1088813E+00
         21   -1    0    0  501  502  0.00000000000E+00  0.00000000000E+00  0.20285050117E+03  0.20285050117E+03  0.00000000000E+00 0.  1.
         21   -1    0    0  502  503 -0.00000000000E+00 -0.00000000000E+00 -0.43105671465E+03  0.43105671465E+03  0.00000000000E+00 0. -1.
          6    1    1    2  501    0 -0.23599668420E+03  0.14240334734E+02 -0.71043324134E+02  0.30145211227E+03  0.17300000000E+03 0.  1.
         -6    1    1    2    0  503  0.23599668420E+03 -0.14240334734E+02 -0.15716288934E+03  0.33245510355E+03  0.17300000000E+03 0. -1.
<mgrwt>
<rscale>  2 0.29296113E+03</rscale>
<asrwt>0</asrwt>
<pdfrwt beam="1">  1       21 0.31207770E-01 0.29296113E+03</pdfrwt>
<pdfrwt beam="2">  1       21 0.66316417E-01 0.29296113E+03</pdfrwt>
<totfact> 0.19566919E+04</totfact>
</mgrwt>
</event>
<event>
 4    1  0.4056666E+000  0.1823712E+03  0.7546771E-02  0.1165528E+00
         21   -1    0    0  503  502  0.00000000000E+00  0.00000000000E+00  0.91726791324E+02  0.91726791324E+02  0.00000000000E+00 0. -1.
         21   -1    0    0  501  503 -0.00000000000E+00 -0.00000000000E+00 -0.37875312835E+03  0.37875312835E+03  0.00000000000E+00 0. -1.
          6    1    1    2  501    0 -0.14168076268E+02  0.55942211138E+02 -0.94918497400E+02  0.20559374144E+03  0.17300000000E+03 0. -1.
         -6    1    1    2    0  502  0.14168076268E+02 -0.55942211138E+02 -0.19210783963E+03  0.26488617823E+03  0.17300000000E+03 0. -1.
<mgrwt>
<rscale>  2 0.18237123E+03</rscale>
<asrwt>0</asrwt>
<pdfrwt beam="1">  1       21 0.14111814E-01 0.18237123E+03</pdfrwt>
<pdfrwt beam="2">  1       21 0.58269712E-01 0.18237123E+03</pdfrwt>
<totfact> 0.12135638E+05</totfact>
</mgrwt>
</event>
<event>
 4    1  0.4056666E+000  0.1938950E+03  0.7546771E-02  0.1154994E+00
         21   -1    0    0  501  502  0.00000000000E+00  0.00000000000E+00  0.65263623192E+02  0.65263623192E+02  0.00000000000E+00 0.  1.
         21   -1    0    0  502  503 -0.00000000000E+00 -0.00000000000E+00 -0.18610418708E+04  0.18610418708E+04  0.00000000000E+00 0.  1.
          6    1    1    2  501    0 -0.72196657434E+02 -0.49536944019E+02 -0.97563205526E+02  0.21705723955E+03  0.17300000000E+03 0.  1.
         -6    1    1    2    0  503  0.72196657434E+02  0.49536944019E+02 -0.16982150421E+04  0.17092482545E+04  0.17300000000E+03 0.  1.
<mgrwt>
<rscale>  2 0.19389499E+03</rscale>
<asrwt>0</asrwt>
<pdfrwt beam="1">  1       21 0.10040557E-01 0.19389499E+03</pdfrwt>
<pdfrwt beam="2">  1       21 0.28631416E+00 0.19389499E+03</pdfrwt>
<totfact> 0.32923359E+03</totfact>
</mgrwt>
</event>
<event>
 4    1  0.4056666E+000  0.1802957E+03  0.7546771E-02  0.1167517E+00
         21   -1    0    0  503  502  0.00000000000E+00  0.00000000000E+00  0.10001003155E+03  0.10001003155E+03  0.00000000000E+00 0. -1.
         21   -1    0    0  501  503 -0.00000000000E+00 -0.00000000000E+00 -0.33100376188E+03  0.33100376188E+03  0.00000000000E+00 0. -1.
          6    1    1    2  501    0 -0.11945859187E+02  0.49344058448E+02 -0.14444144135E+03  0.23101919755E+03  0.17300000000E+03 0. -1.
         -6    1    1    2    0  502  0.11945859187E+02 -0.49344058448E+02 -0.86552288974E+02  0.19999459588E+03  0.17300000000E+03 0. -1.
<mgrwt>
<rscale>  2 0.18029570E+03</rscale>
<asrwt>0</asrwt>
<pdfrwt beam="1">  1       21 0.15386159E-01 0.18029570E+03</pdfrwt>
<pdfrwt beam="2">  1       21 0.50923656E-01 0.18029570E+03</pdfrwt>
<totfact> 0.13793061E+05</totfact>
</mgrwt>
</event>
<event>
 4    1  0.4056666E+000  0.2069579E+03  0.7546771E-02  0.1143998E+00
         21   -1    0    0  501  502  0.00000000000E+00  0.00000000000E+00  0.93780984762E+02  0.93780984762E+02  0.00000000000E+00 0.  1.
         21   -1    0    0  502  503 -0.00000000000E+00 -0.00000000000E+00 -0.49289176774E+03  0.49289176774E+03  0.00000000000E+00 0.  1.
          6    1    1    2  501    0 -0.97920626855E+02 -0.57568587052E+02 -0.12008985008E+03  0.23927633287E+03  0.17300000000E+03 0.  1.
         -6    1    1    2    0  503  0.97920626855E+02  0.57568587052E+02 -0.27902093289E+03  0.34739641963E+03  0.17300000000E+03 0.  1.
<mgrwt>
<rscale>  2 0.20695795E+03</rscale>
<asrwt>0</asrwt>
<pdfrwt beam="1">  1       21 0.14427844E-01 0.20695795E+03</pdfrwt>
<pdfrwt beam="2">  1       21 0.75829504E-01 0.20695795E+03</pdfrwt>
<totfact> 0.64881141E+04</totfact>
</mgrwt>
</event>
<event>
 4    1  0.4056666E+000  0.2157440E+03  0.7546771E-02  0.1137096E+00
         21   -1    0    0  501  502  0.00000000000E+00  0.00000000000E+00  0.28544643149E+02  0.28544643149E+02  0.00000000000E+00 0.  1.
         21   -1    0    0  502  503 -0.00000000000E+00 -0.00000000000E+00 -0.16465420253E+04  0.16465420253E+04  0.00000000000E+00 0.  1.
          6    1    1    2  501    0 -0.12777195185E+03 -0.17052543727E+02 -0.72663752975E+03  0.75798915597E+03  0.17300000000E+03 0.  1.
         -6    1    1    2    0  503  0.12777195185E+03  0.17052543727E+02 -0.89135985244E+03  0.91709751252E+03  0.17300000000E+03 0.  1.
<mgrwt>
<rscale>  2 0.21574397E+03</rscale>
<asrwt>0</asrwt>
<pdfrwt beam="1">  1       21 0.43914831E-02 0.21574397E+03</pdfrwt>
<pdfrwt beam="2">  1       21 0.25331418E+00 0.21574397E+03</pdfrwt>
<totfact> 0.20883998E+04</totfact>
</mgrwt>
</event>
<event>
 4    1  0.4056666E+000  0.2143266E+03  0.7546771E-02  0.1138185E+00
         21   -1    0    0  503  502  0.00000000000E+00  0.00000000000E+00  0.41055250257E+03  0.41055250257E+03  0.00000000000E+00 0. -1.
         21   -1    0    0  501  503 -0.00000000000E+00 -0.00000000000E+00 -0.19871119274E+03  0.19871119274E+03  0.00000000000E+00 0.  1.
          6    1    1    2  501    0  0.12532662749E+03  0.17324698894E+02 -0.95443402041E+02  0.23461745831E+03  0.17300000000E+03 0.  1.
         -6    1    1    2    0  502 -0.12532662749E+03 -0.17324698894E+02  0.30728471187E+03  0.37464623700E+03  0.17300000000E+03 0. -1.
<mgrwt>
<rscale>  2 0.21432664E+03</rscale>
<asrwt>0</asrwt>
<pdfrwt beam="1">  1       21 0.63161923E-01 0.21432664E+03</pdfrwt>
<pdfrwt beam="2">  1       21 0.30570953E-01 0.21432664E+03</pdfrwt>
<totfact> 0.23531256E+04</totfact>
</mgrwt>
</event>
<event>
 4    1  0.4056666E+000  0.1925084E+03  0.7546771E-02  0.1156218E+00
         21   -1    0    0  501  502  0.00000000000E+00  0.00000000000E+00  0.28385242960E+03  0.28385242960E+03  0.00000000000E+00 0. -1.
         21   -1    0    0  502  503 -0.00000000000E+00 -0.00000000000E+00 -0.36331300246E+03  0.36331300246E+03  0.00000000000E+00 0.  1.
          6    1    1    2  501    0  0.67569183438E+02 -0.50644599231E+02  0.21926597082E+03  0.29178251480E+03  0.17300000000E+03 0. -1.
         -6    1    1    2    0  503 -0.67569183438E+02  0.50644599231E+02 -0.29872654368E+03  0.35538291726E+03  0.17300000000E+03 0.  1.
<mgrwt>
<rscale>  2 0.19250836E+03</rscale>
<asrwt>0</asrwt>
<pdfrwt beam="1">  1       21 0.43669605E-01 0.19250836E+03</pdfrwt>
<pdfrwt beam="2">  1       21 0.55894308E-01 0.19250836E+03</pdfrwt>
<totfact> 0.15192616E+04</totfact>
</mgrwt>
</event>
<event>
 4    1  0.4056666E+000  0.3349714E+03  0.7546771E-02  0.1068958E+00
         21   -1    0    0  503  502  0.00000000000E+00  0.00000000000E+00  0.15085116530E+03  0.15085116530E+03  0.00000000000E+00 0. -1.
         21   -1    0    0  501  503 -0.00000000000E+00 -0.00000000000E+00 -0.80854130289E+03  0.80854130289E+03  0.00000000000E+00 0.  1.
          6    1    1    2  501    0 -0.14303663366E+03  0.24863098385E+03 -0.46456536981E+03  0.57273626350E+03  0.17300000000E+03 0. -1.
         -6    1    1    2    0  502  0.14303663366E+03 -0.24863098385E+03 -0.19312476778E+03  0.38665620469E+03  0.17300000000E+03 0.  1.
<mgrwt>
<rscale>  2 0.33497141E+03</rscale>
<asrwt>0</asrwt>
<pdfrwt beam="1">  1       21 0.23207871E-01 0.33497141E+03</pdfrwt>
<pdfrwt beam="2">  1       21 0.12439097E+00 0.33497141E+03</pdfrwt>
<totfact> 0.77591268E+03</totfact>
</mgrwt>
</event>
<event>
 4    1  0.4056666E+000  0.3027866E+03  0.7546771E-02  0.1083856E+00
         21   -1    0    0  501  502  0.00000000000E+00  0.00000000000E+00  0.43527672182E+03  0.43527672182E+03  0.00000000000E+00 0. -1.
         21   -1    0    0  502  503 -0.00000000000E+00 -0.00000000000E+00 -0.25552169109E+03  0.25552169109E+03  0.00000000000E+00 0.  1.
          6    1    1    2  501    0 -0.24482292171E+03 -0.42572821436E+02  0.23466120235E+03  0.38307386757E+03  0.17300000000E+03 0. -1.
         -6    1    1    2    0  503  0.24482292171E+03  0.42572821436E+02 -0.54906171626E+02  0.30772454534E+03  0.17300000000E+03 0.  1.
<mgrwt>
<rscale>  2 0.30278657E+03</rscale>
<asrwt>0</asrwt>
<pdfrwt beam="1">  1       21 0.66965650E-01 0.30278657E+03</pdfrwt>
<pdfrwt beam="2">  1       21 0.39311029E-01 0.30278657E+03</pdfrwt>
<totfact> 0.12002304E+04</totfact>
</mgrwt>
</event>
<event>
 4    1  0.4056666E+000  0.2348062E+03  0.7546771E-02  0.1123302E+00
         21   -1    0    0  503  502  0.00000000000E+00  0.00000000000E+00  0.74076920708E+03  0.74076920708E+03  0.00000000000E+00 0.  1.
         21   -1    0    0  501  503 -0.00000000000E+00 -0.00000000000E+00 -0.75422380163E+02  0.75422380163E+02  0.00000000000E+00 0. -1.
          6    1    1    2  501    0  0.19963629774E+02 -0.15750049070E+03  0.37953251572E+03  0.44629461298E+03  0.17300000000E+03 0.  1.
         -6    1    1    2    0  502 -0.19963629774E+02  0.15750049070E+03  0.28581431119E+03  0.36989697426E+03  0.17300000000E+03 0.  1.
<mgrwt>
<rscale>  2 0.23480620E+03</rscale>
<asrwt>0</asrwt>
<pdfrwt beam="1">  1       21 0.11396449E+00 0.23480620E+03</pdfrwt>
<pdfrwt beam="2">  1       21 0.11603444E-01 0.23480620E+03</pdfrwt>
<totfact> 0.36522110E+04</totfact>
</mgrwt>
</event>
<event>
 4    1  0.4056666E+000  0.2782120E+03  0.7546771E-02  0.1096670E+00
         21   -1    0    0  501  502  0.00000000000E+00  0.00000000000E+00  0.13457862885E+03  0.13457862885E+03  0.00000000000E+00 0. -1.
         21   -1    0    0  502  503 -0.00000000000E+00 -0.00000000000E+00 -0.67227854782E+03  0.67227854782E+03  0.00000000000E+00 0. -1.
          6    1    1    2  501    0 -0.17125838712E+03  0.13469773771E+03 -0.11550065316E+03  0.30123465369E+03  0.17300000000E+03 0. -1.
         -6    1    1    2    0  503  0.17125838712E+03 -0.13469773771E+03 -0.42219926581E+03  0.50562252298E+03  0.17300000000E+03 0. -1.
<mgrwt>
<rscale>  2 0.27821200E+03</rscale>
<asrwt>0</asrwt>
<pdfrwt beam="1">  1       21 0.20704405E-01 0.27821200E+03</pdfrwt>
<pdfrwt beam="2">  1       21 0.10342747E+00 0.27821200E+03</pdfrwt>
<totfact> 0.15623887E+04</totfact>
</mgrwt>
</event>
<event>
 4    1  0.4056666E+000  0.2533067E+03  0.7546771E-02  0.1111233E+00
         21   -1    0    0  501  502  0.00000000000E+00  0.00000000000E+00  0.18845661040E+03  0.18845661040E+03  0.00000000000E+00 0.  1.
         21   -1    0    0  502  503 -0.00000000000E+00 -0.00000000000E+00 -0.34050190057E+03  0.34050190057E+03  0.00000000000E+00 0.  1.
          6    1    1    2  501    0  0.79223201434E+02  0.16720931782E+03 -0.73560251131E+02  0.26377145819E+03  0.17300000000E+03 0.  1.
         -6    1    1    2    0  503 -0.79223201434E+02 -0.16720931782E+03 -0.78485039038E+02  0.26518705278E+03  0.17300000000E+03 0.  1.
<mgrwt>
<rscale>  2 0.25330668E+03</rscale>
<asrwt>0</asrwt>
<pdfrwt beam="1">  1       21 0.28993325E-01 0.25330668E+03</pdfrwt>
<pdfrwt beam="2">  1       21 0.52384907E-01 0.25330668E+03</pdfrwt>
<totfact> 0.38252526E+04</totfact>
</mgrwt>
</event>
<event>
 4    1  0.4056666E+000  0.2039839E+03  0.7546771E-02  0.1146421E+00
         21   -1    0    0  503  502  0.00000000000E+00  0.00000000000E+00  0.41954471418E+03  0.41954471418E+03  0.00000000000E+00 0.  1.
         21   -1    0    0  501  503 -0.00000000000E+00 -0.00000000000E+00 -0.99209067404E+02  0.99209067404E+02  0.00000000000E+00 0. -1.
          6    1    1    2  501    0  0.68534391408E+02 -0.83567269654E+02  0.15555078387E+03  0.25652582273E+03  0.17300000000E+03 0. -1.
         -6    1    1    2    0  502 -0.68534391408E+02  0.83567269654E+02  0.16478486290E+03  0.26222795885E+03  0.17300000000E+03 0. -1.
<mgrwt>
<rscale>  2 0.20398395E+03</rscale>
<asrwt>0</asrwt>
<pdfrwt beam="1">  1       21 0.64545340E-01 0.20398395E+03</pdfrwt>
<pdfrwt beam="2">  1       21 0.15262934E-01 0.20398395E+03</pdfrwt>
<totfact> 0.83697290E+04</totfact>
</mgrwt>
</event>
<event>
 4    1  0.4056666E+000  0.2170652E+03  0.7546771E-02  0.1136090E+00
         21   -1    0    0  503  502  0.00000000000E+00  0.00000000000E+00  0.19899133066E+04  0.19899133066E+04  0.00000000000E+00 0. -1.
         21   -1    0    0  501  503 -0.00000000000E+00 -0.00000000000E+00 -0.51584376891E+02  0.51584376891E+02  0.00000000000E+00 0.  1.
          6    1    1    2  501    0  0.92682955757E+02 -0.92726262119E+02  0.21838730990E+03  0.30791282387E+03  0.17300000000E+03 0.  1.
         -6    1    1    2    0  502 -0.92682955757E+02  0.92726262119E+02  0.17199416198E+04  0.17335848596E+04  0.17300000000E+03 0. -1.
<mgrwt>
<rscale>  2 0.21706517E+03</rscale>
<asrwt>0</asrwt>
<pdfrwt beam="1">  1       21 0.30614045E+00 0.21706517E+03</pdfrwt>
<pdfrwt beam="2">  1       21 0.79360595E-02 0.21706517E+03</pdfrwt>
<totfact> 0.37233881E+03</totfact>
</mgrwt>
</event>
<event>
 4    1  0.4056666E+000  0.1768316E+03  0.7546771E-02  0.1170905E+00
         21   -1    0    0  503  502  0.00000000000E+00  0.00000000000E+00  0.37377173505E+03  0.37377173505E+03  0.00000000000E+00 0.  1.
         21   -1    0    0  501  503 -0.00000000000E+00 -0.00000000000E+00 -0.10137204645E+03  0.10137204645E+03  0.00000000000E+00 0.  1.
          6    1    1    2  501    0  0.32444617287E+02 -0.16963688855E+02  0.36892600942E+02  0.18063909858E+03  0.17300000000E+03 0.  1.
         -6    1    1    2    0  502 -0.32444617287E+02  0.16963688855E+02  0.23550708765E+03  0.29450468292E+03  0.17300000000E+03 0.  1.
<mgrwt>
<rscale>  2 0.17683161E+03</rscale>
<asrwt>0</asrwt>
<pdfrwt beam="1">  1       21 0.57503343E-01 0.17683161E+03</pdfrwt>
<pdfrwt beam="2">  1       21 0.15595700E-01 0.17683161E+03</pdfrwt>
<totfact> 0.10431587E+05</totfact>
</mgrwt>
</event>
<event>
 4    1  0.4056666E+000  0.1819424E+03  0.7546771E-02  0.1165936E+00
         21   -1    0    0  503  502  0.00000000000E+00  0.00000000000E+00  0.12139202182E+03  0.12139202182E+03  0.00000000000E+00 0.  1.
         21   -1    0    0  501  503 -0.00000000000E+00 -0.00000000000E+00 -0.16692828737E+04  0.16692828737E+04  0.00000000000E+00 0.  1.
          6    1    1    2  501    0  0.36431223771E+02 -0.42974378651E+02 -0.15928925658E+04  0.16032497490E+04  0.17300000000E+03 0.  1.
         -6    1    1    2    0  502 -0.36431223771E+02  0.42974378651E+02  0.45001713980E+02  0.18742514652E+03  0.17300000000E+03 0.  1.
<mgrwt>
<rscale>  2 0.18194238E+03</rscale>
<asrwt>0</asrwt>
<pdfrwt beam="1">  1       21 0.18675698E-01 0.18194238E+03</pdfrwt>
<pdfrwt beam="2">  1       21 0.25681272E+00 0.18194238E+03</pdfrwt>
<totfact> 0.16115369E+03</totfact>
</mgrwt>
</event>
<event>
 4    1  0.4056666E+000  0.1738791E+03  0.7546771E-02  0.1173862E+00
         21   -1    0    0  503  502  0.00000000000E+00  0.00000000000E+00  0.83201092706E+02  0.83201092706E+02  0.00000000000E+00 0. -1.
         21   -1    0    0  501  503 -0.00000000000E+00 -0.00000000000E+00 -0.48814353279E+03  0.48814353279E+03  0.00000000000E+00 0. -1.
          6    1    1    2  501    0 -0.66240498773E+00 -0.17450336509E+02 -0.34689247052E+03  0.38803136359E+03  0.17300000000E+03 0. -1.
         -6    1    1    2    0  502  0.66240498773E+00  0.17450336509E+02 -0.58049969563E+02  0.18331326191E+03  0.17300000000E+03 0. -1.
<mgrwt>
<rscale>  2 0.17387913E+03</rscale>
<asrwt>0</asrwt>
<pdfrwt beam="1">  1       21 0.12800168E-01 0.17387913E+03</pdfrwt>
<pdfrwt beam="2">  1       21 0.75099003E-01 0.17387913E+03</pdfrwt>
<totfact> 0.83511832E+04</totfact>
</mgrwt>
</event>
<event>
 4    1  0.4056666E+000  0.1948269E+03  0.7546771E-02  0.1154178E+00
         21   -1    0    0  501  502  0.00000000000E+00  0.00000000000E+00  0.44737273021E+03  0.44737273021E+03  0.00000000000E+00 0. -1.
         21   -1    0    0  502  503 -0.00000000000E+00 -0.00000000000E+00 -0.87111837851E+02  0.87111837851E+02  0.00000000000E+00 0. -1.
          6    1    1    2  501    0  0.70652918402E+02  0.55106147500E+02  0.13702445755E+03  0.23818737233E+03  0.17300000000E+03 0. -1.
         -6    1    1    2    0  503 -0.70652918402E+02 -0.55106147500E+02  0.22323643481E+03  0.29629719573E+03  0.17300000000E+03 0. -1.
<mgrwt>
<rscale>  2 0.19482690E+03</rscale>
<asrwt>0</asrwt>
<pdfrwt beam="1">  1       21 0.68826572E-01 0.19482690E+03</pdfrwt>
<pdfrwt beam="2">  1       21 0.13401821E-01 0.19482690E+03</pdfrwt>
<totfact> 0.92456200E+04</totfact>
</mgrwt>
</event>
<event>
 4    1  0.4056666E+000  0.1900133E+03  0.7546771E-02  0.1158449E+00
         21   -1    0    0  503  502  0.00000000000E+00  0.00000000000E+00  0.34085312407E+03  0.34085312407E+03  0.00000000000E+00 0.  1.
         21   -1    0    0  501  503 -0.00000000000E+00 -0.00000000000E+00 -0.20813090610E+03  0.20813090610E+03  0.00000000000E+00 0.  1.
          6    1    1    2  501    0  0.37936040566E+02  0.68825136024E+02 -0.12599161076E+03  0.22798887803E+03  0.17300000000E+03 0.  1.
         -6    1    1    2    0  502 -0.37936040566E+02 -0.68825136024E+02  0.25871382874E+03  0.32099515215E+03  0.17300000000E+03 0.  1.
<mgrwt>
<rscale>  2 0.19001327E+03</rscale>
<asrwt>0</asrwt>
<pdfrwt beam="1">  1       21 0.52438942E-01 0.19001327E+03</pdfrwt>
<pdfrwt beam="2">  1       21 0.32020139E-01 0.19001327E+03</pdfrwt>
<totfact> 0.32399598E+04</totfact>
</mgrwt>
</event>
<event>
 4    1  0.4056666E+000  0.1798775E+03  0.7546771E-02  0.1167922E+00
         21   -1    0    0  503  502  0.00000000000E+00  0.00000000000E+00  0.42866831626E+03  0.42866831626E+03  0.00000000000E+00 0. -1.
         21   -1    0    0  501  503 -0.00000000000E+00 -0.00000000000E+00 -0.12716541482E+03  0.12716541482E+03  0.00000000000E+00 0. -1.
          6    1    1    2  501    0  0.18784342610E+02  0.45541936319E+02 -0.26428288076E+02  0.18180861889E+03  0.17300000000E+03 0. -1.
         -6    1    1    2    0  502 -0.18784342610E+02 -0.45541936319E+02  0.32793118952E+03  0.37402511219E+03  0.17300000000E+03 0. -1.
<mgrwt>
<rscale>  2 0.17987751E+03</rscale>
<asrwt>0</asrwt>
<pdfrwt beam="1">  1       21 0.65948971E-01 0.17987751E+03</pdfrwt>
<pdfrwt beam="2">  1       21 0.19563910E-01 0.17987751E+03</pdfrwt>
<totfact> 0.51100728E+04</totfact>
</mgrwt>
</event>
<event>
 4    1  0.4056666E+000  0.1756136E+03  0.7546771E-02  0.1172117E+00
         21   -1    0    0  503  502  0.00000000000E+00  0.00000000000E+00  0.17792088256E+02  0.17792088256E+02  0.00000000000E+00 0. -1.
         21   -1    0    0  501  503 -0.00000000000E+00 -0.00000000000E+00 -0.23152595726E+04  0.23152595726E+04  0.00000000000E+00 0. -1.
          6    1    1    2  501    0  0.16160589493E+02  0.25494597101E+02 -0.17335475124E+04  0.17424199025E+04  0.17300000000E+03 0. -1.
         -6    1    1    2    0  502 -0.16160589493E+02 -0.25494597101E+02 -0.56391997193E+03  0.59063175827E+03  0.17300000000E+03 0. -1.
<mgrwt>
<rscale>  2 0.17561361E+03</rscale>
<asrwt>0</asrwt>
<pdfrwt beam="1">  1       21 0.27372436E-02 0.17561361E+03</pdfrwt>
<pdfrwt beam="2">  1       21 0.35619388E+00 0.17561361E+03</pdfrwt>
<totfact> 0.12084638E+04</totfact>
</mgrwt>
</event>
<event>
 4    1  0.4056666E+000  0.2262532E+03  0.7546771E-02  0.1129305E+00
         21   -1    0    0  503  502  0.00000000000E+00  0.00000000000E+00  0.63498201918E+03  0.63498201918E+03  0.00000000000E+00 0. -1.
         21   -1    0    0  501  503 -0.00000000000E+00 -0.00000000000E+00 -0.81017159592E+02  0.81017159592E+02  0.00000000000E+00 0.  1.
          6    1    1    2  501    0  0.11459792959E+03  0.90159987786E+02  0.30213433759E+03  0.37745949030E+03  0.17300000000E+03 0.  1.
         -6    1    1    2    0  502 -0.11459792959E+03 -0.90159987786E+02  0.25183052200E+03  0.33853968847E+03  0.17300000000E+03 0.  1.
<mgrwt>
<rscale>  2 0.22625320E+03</rscale>
<asrwt>0</asrwt>
<pdfrwt beam="1">  1       21 0.97689539E-01 0.22625320E+03</pdfrwt>
<pdfrwt beam="2">  1       21 0.12464179E-01 0.22625320E+03</pdfrwt>
<totfact> 0.46774834E+04</totfact>
</mgrwt>
</event>
<event>
 4    1  0.4056666E+000  0.2688367E+03  0.7546771E-02  0.1101947E+00
         21   -1    0    0  501  502  0.00000000000E+00  0.00000000000E+00  0.10915686070E+03  0.10915686070E+03  0.00000000000E+00 0. -1.
         21   -1    0    0  502  503 -0.00000000000E+00 -0.00000000000E+00 -0.10098709466E+04  0.10098709466E+04  0.00000000000E+00 0. -1.
          6    1    1    2  501    0 -0.20397566513E+03 -0.27168159743E+02 -0.12201827002E+03  0.29523150083E+03  0.17300000000E+03 0. -1.
         -6    1    1    2    0  503  0.20397566513E+03  0.27168159743E+02 -0.77869581591E+03  0.82379630649E+03  0.17300000000E+03 0. -1.
<mgrwt>
<rscale>  2 0.26883672E+03</rscale>
<asrwt>0</asrwt>
<pdfrwt beam="1">  1       21 0.16793363E-01 0.26883672E+03</pdfrwt>
<pdfrwt beam="2">  1       21 0.15536476E+00 0.26883672E+03</pdfrwt>
<totfact> 0.82498132E+03</totfact>
</mgrwt>
</event>
<event>
 4    1  0.4056666E+000  0.2335407E+03  0.7546771E-02  0.1124172E+00
         21   -1    0    0  503  502  0.00000000000E+00  0.00000000000E+00  0.12082631850E+03  0.12082631850E+03  0.00000000000E+00 0. -1.
         21   -1    0    0  501  503 -0.00000000000E+00 -0.00000000000E+00 -0.46140452114E+03  0.46140452114E+03  0.00000000000E+00 0. -1.
          6    1    1    2  501    0  0.15007366768E+03  0.45717965623E+02 -0.21315181790E+03  0.31618813322E+03  0.17300000000E+03 0. -1.
         -6    1    1    2    0  502 -0.15007366768E+03 -0.45717965623E+02 -0.12742638474E+03  0.26604270642E+03  0.17300000000E+03 0. -1.
<mgrwt>
<rscale>  2 0.23354066E+03</rscale>
<asrwt>0</asrwt>
<pdfrwt beam="1">  1       21 0.18588664E-01 0.23354066E+03</pdfrwt>
<pdfrwt beam="2">  1       21 0.70985311E-01 0.23354066E+03</pdfrwt>
<totfact> 0.46608350E+04</totfact>
</mgrwt>
</event>
<event>
 4    1  0.4056666E+000  0.1780073E+03  0.7546771E-02  0.1169746E+00
         21   -1    0    0  503  502  0.00000000000E+00  0.00000000000E+00  0.19362457711E+04  0.19362457711E+04  0.00000000000E+00 0. -1.
         21   -1    0    0  501  503 -0.00000000000E+00 -0.00000000000E+00 -0.16368067265E+02  0.16368067265E+02  0.00000000000E+00 0. -1.
          6    1    1    2  501    0  0.39255163963E+02  0.14718468073E+02  0.94650574023E+03  0.96309901749E+03  0.17300000000E+03 0. -1.
         -6    1    1    2    0  502 -0.39255163963E+02 -0.14718468073E+02  0.97337196358E+03  0.98951482085E+03  0.17300000000E+03 0. -1.
<mgrwt>
<rscale>  2 0.17800731E+03</rscale>
<asrwt>0</asrwt>
<pdfrwt beam="1">  1       21 0.29788378E+00 0.17800731E+03</pdfrwt>
<pdfrwt beam="2">  1       21 0.25181657E-02 0.17800731E+03</pdfrwt>
<totfact> 0.30075298E+04</totfact>
</mgrwt>
</event>
<event>
 4    1  0.4056666E+000  0.2527458E+03  0.7546771E-02  0.1111582E+00
         21   -1    0    0  501  502  0.00000000000E+00  0.00000000000E+00  0.18123071644E+03  0.18123071644E+03  0.00000000000E+00 0. -1.
         21   -1    0    0  502  503 -0.00000000000E+00 -0.00000000000E+00 -0.43423474519E+03  0.43423474519E+03  0.00000000000E+00 0. -1.
          6    1    1    2  501    0 -0.14858815196E+03 -0.10896339536E+03  0.70234559263E+01  0.25284340878E+03  0.17300000000E+03 0. -1.
         -6    1    1    2    0  503  0.14858815196E+03  0.10896339536E+03 -0.26002748468E+03  0.36262205286E+03  0.17300000000E+03 0. -1.
<mgrwt>
<rscale>  2 0.25274584E+03</rscale>
<asrwt>0</asrwt>
<pdfrwt beam="1">  1       21 0.27881649E-01 0.25274584E+03</pdfrwt>
<pdfrwt beam="2">  1       21 0.66805345E-01 0.25274584E+03</pdfrwt>
<totfact> 0.24438636E+04</totfact>
</mgrwt>
</event>
<event>
 4    1  0.4056666E+000  0.2179570E+03  0.7546771E-02  0.1135415E+00
         21   -1    0    0  501  502  0.00000000000E+00  0.00000000000E+00  0.72211801225E+02  0.72211801225E+02  0.00000000000E+00 0. -1.
         21   -1    0    0  502  503 -0.00000000000E+00 -0.00000000000E+00 -0.66296431197E+03  0.66296431197E+03  0.00000000000E+00 0.  1.
          6    1    1    2  501    0  0.72868994473E+02  0.11075354013E+03 -0.26312134433E+03  0.34166954627E+03  0.17300000000E+03 0. -1.
         -6    1    1    2    0  503 -0.72868994473E+02 -0.11075354013E+03 -0.32763116641E+03  0.39350656692E+03  0.17300000000E+03 0.  1.
<mgrwt>
<rscale>  2 0.21795696E+03</rscale>
<asrwt>0</asrwt>
<pdfrwt beam="1">  1       21 0.11109508E-01 0.21795696E+03</pdfrwt>
<pdfrwt beam="2">  1       21 0.10199451E+00 0.21795696E+03</pdfrwt>
<totfact> 0.52079760E+04</totfact>
</mgrwt>
</event>
<event>
 4    1  0.4056666E+000  0.2095097E+03  0.7546771E-02  0.1141955E+00
         21   -1    0    0  503  502  0.00000000000E+00  0.00000000000E+00  0.37059071015E+03  0.37059071015E+03  0.00000000000E+00 0.  1.
         21   -1    0    0  501  503 -0.00000000000E+00 -0.00000000000E+00 -0.16529944490E+03  0.16529944490E+03  0.00000000000E+00 0. -1.
          6    1    1    2  501    0  0.27106822714E+02  0.11502411883E+03 -0.40010056774E+02  0.21329587993E+03  0.17300000000E+03 0. -1.
         -6    1    1    2    0  502 -0.27106822714E+02 -0.11502411883E+03  0.24530132202E+03  0.32259427511E+03  0.17300000000E+03 0.  1.
<mgrwt>
<rscale>  2 0.20950973E+03</rscale>
<asrwt>0</asrwt>
<pdfrwt beam="1">  1       21 0.57013955E-01 0.20950973E+03</pdfrwt>
<pdfrwt beam="2">  1       21 0.25430684E-01 0.20950973E+03</pdfrwt>
<totfact> 0.42008794E+04</totfact>
</mgrwt>
</event>
<event>
 4    1  0.4056666E+000  0.1924432E+03  0.7546771E-02  0.1156276E+00
         21   -1    0    0  501  502  0.00000000000E+00  0.00000000000E+00  0.31149411288E+03  0.31149411288E+03  0.00000000000E+00 0.  1.
         21   -1    0    0  502  503 -0.00000000000E+00 -0.00000000000E+00 -0.15082647104E+03  0.15082647104E+03  0.00000000000E+00 0.  1.
          6    1    1    2  501    0 -0.77264775326E+02  0.33697790849E+02 -0.26031320973E+02  0.19419581943E+03  0.17300000000E+03 0.  1.
         -6    1    1    2    0  503  0.77264775326E+02 -0.33697790849E+02  0.18669896282E+03  0.26812476449E+03  0.17300000000E+03 0.  1.
<mgrwt>
<rscale>  2 0.19244320E+03</rscale>
<asrwt>0</asrwt>
<pdfrwt beam="1">  1       21 0.47922171E-01 0.19244320E+03</pdfrwt>
<pdfrwt beam="2">  1       21 0.23204073E-01 0.19244320E+03</pdfrwt>
<totfact> 0.72652236E+04</totfact>
</mgrwt>
</event>
<event>
 4    1  0.4056666E+000  0.2557564E+03  0.7546771E-02  0.1109720E+00
         21   -1    0    0  503  502  0.00000000000E+00  0.00000000000E+00  0.77004806089E+02  0.77004806089E+02  0.00000000000E+00 0.  1.
         21   -1    0    0  501  503 -0.00000000000E+00 -0.00000000000E+00 -0.93186959415E+03  0.93186959415E+03  0.00000000000E+00 0.  1.
          6    1    1    2  501    0  0.96467656993E+02  0.16179105620E+03 -0.57745534297E+03  0.63155841206E+03  0.17300000000E+03 0.  1.
         -6    1    1    2    0  502 -0.96467656993E+02 -0.16179105620E+03 -0.27740944509E+03  0.37731598819E+03  0.17300000000E+03 0.  1.
<mgrwt>
<rscale>  2 0.25575644E+03</rscale>
<asrwt>0</asrwt>
<pdfrwt beam="1">  1       21 0.11846894E-01 0.25575644E+03</pdfrwt>
<pdfrwt beam="2">  1       21 0.14336455E+00 0.25575644E+03</pdfrwt>
<totfact> 0.19454035E+04</totfact>
</mgrwt>
</event>
<event>
 4    1  0.4056666E+000  0.1960330E+03  0.7546771E-02  0.1153130E+00
         21   -1    0    0  501  502  0.00000000000E+00  0.00000000000E+00  0.13733030281E+04  0.13733030281E+04  0.00000000000E+00 0.  1.
         21   -1    0    0  502  503 -0.00000000000E+00 -0.00000000000E+00 -0.46878951746E+02  0.46878951746E+02  0.00000000000E+00 0.  1.
          6    1    1    2  501    0 -0.40175825369E+01 -0.92107459828E+02  0.11140403984E+04  0.11311564589E+04  0.17300000000E+03 0.  1.
         -6    1    1    2    0  503  0.40175825369E+01  0.92107459828E+02  0.21238367794E+03  0.28902552099E+03  0.17300000000E+03 0.  1.
<mgrwt>
<rscale>  2 0.19603297E+03</rscale>
<asrwt>0</asrwt>
<pdfrwt beam="1">  1       21 0.21127736E+00 0.19603297E+03</pdfrwt>
<pdfrwt beam="2">  1       21 0.72121475E-02 0.19603297E+03</pdfrwt>
<totfact> 0.16321391E+04</totfact>
</mgrwt>
</event>
<event>
 4    1  0.4056666E+000  0.1935227E+03  0.7546771E-02  0.1155322E+00
         21   -1    0    0  501  502  0.00000000000E+00  0.00000000000E+00  0.22679606434E+03  0.22679606434E+03  0.00000000000E+00 0. -1.
         21   -1    0    0  502  503 -0.00000000000E+00 -0.00000000000E+00 -0.16689540408E+03  0.16689540408E+03  0.00000000000E+00 0. -1.
          6    1    1    2  501    0 -0.76939187798E+02  0.40029715119E+02  0.50191090489E+02  0.19992539177E+03  0.17300000000E+03 0. -1.
         -6    1    1    2    0  503  0.76939187798E+02 -0.40029715119E+02  0.97095697720E+01  0.19376607664E+03  0.17300000000E+03 0. -1.
<mgrwt>
<rscale>  2 0.19352265E+03</rscale>
<asrwt>0</asrwt>
<pdfrwt beam="1">  1       21 0.34891702E-01 0.19352265E+03</pdfrwt>
<pdfrwt beam="2">  1       21 0.25676216E-01 0.19352265E+03</pdfrwt>
<totfact> 0.11393548E+05</totfact>
</mgrwt>
</event>
<event>
 4    1  0.4056666E+000  0.2051872E+03  0.7546771E-02  0.1145435E+00
         21   -1    0    0  503  502  0.00000000000E+00  0.00000000000E+00  0.11385270535E+03  0.11385270535E+03  0.00000000000E+00 0. -1.
         21   -1    0    0  501  503 -0.00000000000E+00 -0.00000000000E+00 -0.36989424587E+03  0.36989424587E+03  0.00000000000E+00 0.  1.
          6    1    1    2  501    0  0.42906361673E+02 -0.10164566909E+03 -0.12399566927E+03  0.23974303726E+03  0.17300000000E+03 0.  1.
         -6    1    1    2    0  502 -0.42906361673E+02  0.10164566909E+03 -0.13204587125E+03  0.24400391396E+03  0.17300000000E+03 0. -1.
<mgrwt>
<rscale>  2 0.20518723E+03</rscale>
<asrwt>0</asrwt>
<pdfrwt beam="1">  1       21 0.17515801E-01 0.20518723E+03</pdfrwt>
<pdfrwt beam="2">  1       21 0.56906807E-01 0.20518723E+03</pdfrwt>
<totfact> 0.85216547E+04</totfact>
</mgrwt>
</event>
<event>
 4    1  0.4056666E+000  0.1762715E+03  0.7546771E-02  0.1171461E+00
         21   -1    0    0  501  502  0.00000000000E+00  0.00000000000E+00  0.40387902031E+03  0.40387902031E+03  0.00000000000E+00 0. -1.
         21   -1    0    0  502  503 -0.00000000000E+00 -0.00000000000E+00 -0.11968158071E+04  0.11968158071E+04  0.00000000000E+00 0. -1.
          6    1    1    2  501    0  0.97951090444E+01  0.32352443550E+02  0.37772805765E+03  0.41683343232E+03  0.17300000000E+03 0. -1.
         -6    1    1    2    0  503 -0.97951090444E+01 -0.32352443550E+02 -0.11706648444E+04  0.11838613951E+04  0.17300000000E+03 0. -1.
<mgrwt>
<rscale>  2 0.17627145E+03</rscale>
<asrwt>0</asrwt>
<pdfrwt beam="1">  1       21 0.62135235E-01 0.17627145E+03</pdfrwt>
<pdfrwt beam="2">  1       21 0.18412551E+00 0.17627145E+03</pdfrwt>
<totfact> 0.41871142E+02</totfact>
</mgrwt>
</event>
<event>
 4    1  0.4056666E+000  0.3235451E+03  0.7546771E-02  0.1074029E+00
         21   -1    0    0  503  502  0.00000000000E+00  0.00000000000E+00  0.15523485182E+03  0.15523485182E+03  0.00000000000E+00 0.  1.
         21   -1    0    0  501  503 -0.00000000000E+00 -0.00000000000E+00 -0.67516227184E+03  0.67516227184E+03  0.00000000000E+00 0.  1.
          6    1    1    2  501    0  0.18316323213E+03 -0.20298686519E+03 -0.27443256373E+03  0.42425778611E+03  0.17300000000E+03 0.  1.
         -6    1    1    2    0  502 -0.18316323213E+03  0.20298686519E+03 -0.24549485629E+03  0.40613933755E+03  0.17300000000E+03 0.  1.
<mgrwt>
<rscale>  2 0.32354511E+03</rscale>
<asrwt>0</asrwt>
<pdfrwt beam="1">  1       21 0.23882285E-01 0.32354511E+03</pdfrwt>
<pdfrwt beam="2">  1       21 0.10387112E+00 0.32354511E+03</pdfrwt>
<totfact> 0.11544127E+04</totfact>
</mgrwt>
</event>
<event>
 4    1  0.4056666E+000  0.2249642E+03  0.7546771E-02  0.1130235E+00
         21   -1    0    0  503  502  0.00000000000E+00  0.00000000000E+00  0.25266474740E+03  0.25266474740E+03  0.00000000000E+00 0.  1.
         21   -1    0    0  501  503 -0.00000000000E+00 -0.00000000000E+00 -0.24081349748E+03  0.24081349748E+03  0.00000000000E+00 0.  1.
          6    1    1    2  501    0  0.14320683947E+03  0.13103064188E+02 -0.95277633604E+02  0.24430865033E+03  0.17300000000E+03 0.  1.
         -6    1    1    2    0  502 -0.14320683947E+03 -0.13103064188E+02  0.10712888353E+03  0.24916959455E+03  0.17300000000E+03 0.  1.
<mgrwt>
<rscale>  2 0.22496420E+03</rscale>
<asrwt>0</asrwt>
<pdfrwt beam="1">  1       21 0.38871500E-01 0.22496420E+03</pdfrwt>
<pdfrwt beam="2">  1       21 0.37048230E-01 0.22496420E+03</pdfrwt>
<totfact> 0.44144558E+04</totfact>
</mgrwt>
</event>
<event>
 4    1  0.4056666E+000  0.1748906E+03  0.7546771E-02  0.1172842E+00
         21   -1    0    0  503  502  0.00000000000E+00  0.00000000000E+00  0.20137194067E+03  0.20137194067E+03  0.00000000000E+00 0.  1.
         21   -1    0    0  501  503 -0.00000000000E+00 -0.00000000000E+00 -0.24647863052E+03  0.24647863052E+03  0.00000000000E+00 0.  1.
          6    1    1    2  501    0  0.14545430398E+02  0.21122257806E+02 -0.16127017233E+03  0.23789659057E+03  0.17300000000E+03 0.  1.
         -6    1    1    2    0  502 -0.14545430398E+02 -0.21122257806E+02  0.11616348248E+03  0.20995398063E+03  0.17300000000E+03 0.  1.
<mgrwt>
<rscale>  2 0.17489059E+03</rscale>
<asrwt>0</asrwt>
<pdfrwt beam="1">  1       21 0.30980299E-01 0.17489059E+03</pdfrwt>
<pdfrwt beam="2">  1       21 0.37919789E-01 0.17489059E+03</pdfrwt>
<totfact> 0.67639809E+04</totfact>
</mgrwt>
</event>
<event>
 4    1  0.4056666E+000  0.2092345E+03  0.7546771E-02  0.1142174E+00
         21   -1    0    0  501  502  0.00000000000E+00  0.00000000000E+00  0.17990110805E+03  0.17990110805E+03  0.00000000000E+00 0.  1.
         21   -1    0    0  502  503 -0.00000000000E+00 -0.00000000000E+00 -0.40806453420E+03  0.40806453420E+03  0.00000000000E+00 0.  1.
          6    1    1    2  501    0 -0.11553252722E+03 -0.22412194834E+02  0.72694896352E+02  0.22150309090E+03  0.17300000000E+03 0.  1.
         -6    1    1    2    0  503  0.11553252722E+03  0.22412194834E+02 -0.30085832250E+03  0.36646255135E+03  0.17300000000E+03 0.  1.
<mgrwt>
<rscale>  2 0.20923449E+03</rscale>
<asrwt>0</asrwt>
<pdfrwt beam="1">  1       21 0.27677094E-01 0.20923449E+03</pdfrwt>
<pdfrwt beam="2">  1       21 0.62779159E-01 0.20923449E+03</pdfrwt>
<totfact> 0.29016602E+04</totfact>
</mgrwt>
</event>
<event>
 4    1  0.4056666E+000  0.1830824E+03  0.7546771E-02  0.1164853E+00
         21   -1    0    0  503  502  0.00000000000E+00  0.00000000000E+00  0.18164037073E+02  0.18164037073E+02  0.00000000000E+00 0.  1.
         21   -1    0    0  501  503 -0.00000000000E+00 -0.00000000000E+00 -0.22748693153E+04  0.22748693153E+04  0.00000000000E+00 0. -1.
          6    1    1    2  501    0 -0.59304479769E+02 -0.85526815744E+01 -0.16265356784E+04  0.16368071001E+04  0.17300000000E+03 0. -1.
         -6    1    1    2    0  502  0.59304479769E+02  0.85526815744E+01 -0.63016959978E+03  0.65622625227E+03  0.17300000000E+03 0.  1.
<mgrwt>
<rscale>  2 0.18308241E+03</rscale>
<asrwt>0</asrwt>
<pdfrwt beam="1">  1       21 0.27944684E-02 0.18308241E+03</pdfrwt>
<pdfrwt beam="2">  1       21 0.34997975E+00 0.18308241E+03</pdfrwt>
<totfact> 0.12589021E+04</totfact>
</mgrwt>
</event>
<event>
 4    1  0.4056666E+000  0.2095078E+03  0.7546771E-02  0.1141956E+00
         21   -1    0    0  501  502  0.00000000000E+00  0.00000000000E+00  0.10235628788E+03  0.10235628788E+03  0.00000000000E+00 0.  1.
         21   -1    0    0  502  503 -0.00000000000E+00 -0.00000000000E+00 -0.47424443027E+03  0.47424443027E+03  0.00000000000E+00 0.  1.
          6    1    1    2  501    0  0.18218787222E+02  0.11675865319E+03 -0.27515913262E+03  0.34584108426E+03  0.17300000000E+03 0.  1.
         -6    1    1    2    0  503 -0.18218787222E+02 -0.11675865319E+03 -0.96729009768E+02  0.23075963389E+03  0.17300000000E+03 0.  1.
<mgrwt>
<rscale>  2 0.20950777E+03</rscale>
<asrwt>0</asrwt>
<pdfrwt beam="1">  1       21 0.15747121E-01 0.20950777E+03</pdfrwt>
<pdfrwt beam="2">  1       21 0.72960681E-01 0.20950777E+03</pdfrwt>
<totfact> 0.60211958E+04</totfact>
</mgrwt>
</event>
<event>
 4    1  0.4056666E+000  0.1762401E+03  0.7546771E-02  0.1171492E+00
         21   -1    0    0  503  502  0.00000000000E+00  0.00000000000E+00  0.90302464506E+03  0.90302464506E+03  0.00000000000E+00 0. -1.
         21   -1    0    0  501  503 -0.00000000000E+00 -0.00000000000E+00 -0.34396565917E+02  0.34396565917E+02  0.00000000000E+00 0. -1.
          6    1    1    2  501    0 -0.33506727012E+02  0.29756819711E+01  0.43265044645E+03  0.46716909599E+03  0.17300000000E+03 0.  1.
         -6    1    1    2    0  502  0.33506727012E+02 -0.29756819711E+01  0.43597763269E+03  0.47025211498E+03  0.17300000000E+03 0.  1.
<mgrwt>
<rscale>  2 0.17624005E+03</rscale>
<asrwt>0</asrwt>
<pdfrwt beam="1">  1       21 0.13892685E+00 0.17624005E+03</pdfrwt>
<pdfrwt beam="2">  1       21 0.52917800E-02 0.17624005E+03</pdfrwt>
<totfact> 0.89868753E+04</totfact>
</mgrwt>
</event>
<event>
 4    1  0.4056666E+000  0.2004151E+03  0.7546771E-02  0.1149389E+00
         21   -1    0    0  501  502  0.00000000000E+00  0.00000000000E+00  0.52903432243E+03  0.52903432243E+03  0.00000000000E+00 0. -1.
         21   -1    0    0  502  503 -0.00000000000E+00 -0.00000000000E+00 -0.14554347252E+03  0.14554347252E+03  0.00000000000E+00 0.  1.
          6    1    1    2  501    0 -0.82035367659E+02 -0.59223445871E+02  0.42502253554E+03  0.46990464331E+03  0.17300000000E+03 0. -1.
         -6    1    1    2    0  503  0.82035367659E+02  0.59223445871E+02 -0.41531685640E+02  0.20467315163E+03  0.17300000000E+03 0.  1.
<mgrwt>
<rscale>  2 0.20041511E+03</rscale>
<asrwt>0</asrwt>
<pdfrwt beam="1">  1       21 0.81389895E-01 0.20041511E+03</pdfrwt>
<pdfrwt beam="2">  1       21 0.22391304E-01 0.20041511E+03</pdfrwt>
<totfact> 0.24585921E+04</totfact>
</mgrwt>
</event>
<event>
 4    1  0.4056666E+000  0.2917347E+03  0.7546771E-02  0.1089447E+00
         21   -1    0    0  503  502  0.00000000000E+00  0.00000000000E+00  0.76547523176E+03  0.76547523176E+03  0.00000000000E+00 0.  1.
         21   -1    0    0  501  503 -0.00000000000E+00 -0.00000000000E+00 -0.11285018562E+03  0.11285018562E+03  0.00000000000E+00 0. -1.
          6    1    1    2  501    0 -0.23468866711E+03  0.10068346876E+02  0.27296142232E+03  0.39952106347E+03  0.17300000000E+03 0. -1.
         -6    1    1    2    0  502  0.23468866711E+03 -0.10068346876E+02  0.37966362382E+03  0.47880435392E+03  0.17300000000E+03 0. -1.
<mgrwt>
<rscale>  2 0.29173471E+03</rscale>
<asrwt>0</asrwt>
<pdfrwt beam="1">  1       21 0.11776542E+00 0.29173471E+03</pdfrwt>
<pdfrwt beam="2">  1       21 0.17361568E-01 0.29173471E+03</pdfrwt>
<totfact> 0.15715852E+04</totfact>
</mgrwt>
</event>
<event>
 4    1  0.4056666E+000  0.2688182E+03  0.7546771E-02  0.1101958E+00
         21   -1    0    0  501  502  0.00000000000E+00  0.00000000000E+00  0.28738841874E+02  0.28738841874E+02  0.00000000000E+00 0.  1.
         21   -1    0    0  502  503 -0.00000000000E+00 -0.00000000000E+00 -0.26286812183E+04  0.26286812183E+04  0.00000000000E+00 0. -1.
          6    1    1    2  501    0 -0.15299922136E+03 -0.13756986006E+03 -0.10230235844E+04  0.10577525620E+04  0.17300000000E+03 0. -1.
         -6    1    1    2    0  503  0.15299922136E+03  0.13756986006E+03 -0.15769187921E+04  0.15996674982E+04  0.17300000000E+03 0. -1.
<mgrwt>
<rscale>  2 0.26881821E+03</rscale>
<asrwt>0</asrwt>
<pdfrwt beam="1">  1       21 0.44213612E-02 0.26881821E+03</pdfrwt>
<pdfrwt beam="2">  1       21 0.40441241E+00 0.26881821E+03</pdfrwt>
<totfact> 0.24688308E+03</totfact>
</mgrwt>
</event>
<event>
 4    1  0.4056666E+000  0.1814142E+03  0.7546771E-02  0.1166441E+00
         21   -1    0    0  501  502  0.00000000000E+00  0.00000000000E+00  0.12343613085E+03  0.12343613085E+03  0.00000000000E+00 0. -1.
         21   -1    0    0  502  503 -0.00000000000E+00 -0.00000000000E+00 -0.35393890010E+03  0.35393890010E+03  0.00000000000E+00 0. -1.
          6    1    1    2  501    0 -0.44503761544E+02 -0.31646858015E+02  0.33004436661E+01  0.18144421000E+03  0.17300000000E+03 0. -1.
         -6    1    1    2    0  503  0.44503761544E+02  0.31646858015E+02 -0.23380321292E+03  0.29593082095E+03  0.17300000000E+03 0. -1.
<mgrwt>
<rscale>  2 0.18141419E+03</rscale>
<asrwt>0</asrwt>
<pdfrwt beam="1">  1       21 0.18990174E-01 0.18141419E+03</pdfrwt>
<pdfrwt beam="2">  1       21 0.54452138E-01 0.18141419E+03</pdfrwt>
<totfact> 0.81365269E+04</totfact>
</mgrwt>
</event>
<event>
 4    1  0.4056666E+000  0.1928515E+03  0.7546771E-02  0.1155914E+00
         21   -1    0    0  501  502  0.00000000000E+00  0.00000000000E+00  0.82767643742E+03  0.82767643742E+03  0.00000000000E+00 0. -1.
         21   -1    0    0  502  503 -0.00000000000E+00 -0.00000000000E+00 -0.45827511266E+02  0.45827511266E+02  0.00000000000E+00 0. -1.
          6    1    1    2  501    0 -0.55761564167E+02 -0.64446365754E+02  0.45187327627E+03  0.49130555045E+03  0.17300000000E+03 0. -1.
         -6    1    1    2    0  503  0.55761564167E+02  0.64446365754E+02  0.32997564989E+03  0.38219839824E+03  0.17300000000E+03 0. -1.
<mgrwt>
<rscale>  2 0.19285146E+03</rscale>
<asrwt>0</asrwt>
<pdfrwt beam="1">  1       21 0.12733483E+00 0.19285146E+03</pdfrwt>
<pdfrwt beam="2">  1       21 0.70503870E-02 0.19285146E+03</pdfrwt>
<totfact> 0.68034371E+04</totfact>
</mgrwt>
</event>
<event>
 4    1  0.4056666E+000  0.2225238E+03  0.7546771E-02  0.1132015E+00
         21   -1    0    0  503  502  0.00000000000E+00  0.00000000000E+00  0.80143716564E+03  0.80143716564E+03  0.00000000000E+00 0. -1.
         21   -1    0    0  501  503 -0.00000000000E+00 -0.00000000000E+00 -0.10937624794E+03  0.10937624794E+03  0.00000000000E+00 0.  1.
          6    1    1    2  501    0  0.13547508843E+03 -0.35133291355E+02  0.45629607330E+02  0.22715393198E+03  0.17300000000E+03 0.  1.
         -6    1    1    2    0  502 -0.13547508843E+03  0.35133291355E+02  0.64643131038E+03  0.68365948160E+03  0.17300000000E+03 0. -1.
<mgrwt>
<rscale>  2 0.22252381E+03</rscale>
<asrwt>0</asrwt>
<pdfrwt beam="1">  1       21 0.12329802E+00 0.22252381E+03</pdfrwt>
<pdfrwt beam="2">  1       21 0.16827116E-01 0.22252381E+03</pdfrwt>
<totfact> 0.15391698E+04</totfact>
</mgrwt>
</event>
<event>
 4    1  0.4056666E+000  0.2409318E+03  0.7546771E-02  0.1119174E+00
         21   -1    0    0  503  502  0.00000000000E+00  0.00000000000E+00  0.28321834217E+04  0.28321834217E+04  0.00000000000E+00 0. -1.
         21   -1    0    0  501  503 -0.00000000000E+00 -0.00000000000E+00 -0.35906848851E+02  0.35906848851E+02  0.00000000000E+00 0.  1.
          6    1    1    2  501    0  0.51341131676E+02  0.15963465693E+03  0.45865528522E+03  0.51808571314E+03  0.17300000000E+03 0.  1.
         -6    1    1    2    0  502 -0.51341131676E+02 -0.15963465693E+03  0.23376212876E+04  0.23500045574E+04  0.17300000000E+03 0. -1.
<mgrwt>
<rscale>  2 0.24093181E+03</rscale>
<asrwt>0</asrwt>
<pdfrwt beam="1">  1       21 0.43572035E+00 0.24093181E+03</pdfrwt>
<pdfrwt beam="2">  1       21 0.55241328E-02 0.24093181E+03</pdfrwt>
<totfact> 0.10954242E+03</totfact>
</mgrwt>
</event>
<event>
 4    1  0.4056666E+000  0.2291191E+03  0.7546771E-02  0.1127261E+00
         21   -1    0    0  501  502  0.00000000000E+00  0.00000000000E+00  0.32584794693E+03  0.32584794693E+03  0.00000000000E+00 0. -1.
         21   -1    0    0  502  503 -0.00000000000E+00 -0.00000000000E+00 -0.28282043159E+03  0.28282043159E+03  0.00000000000E+00 0.  1.
          6    1    1    2  501    0 -0.14891252130E+03  0.19789892777E+02  0.22116362331E+03  0.31844768351E+03  0.17300000000E+03 0. -1.
         -6    1    1    2    0  503  0.14891252130E+03 -0.19789892777E+02 -0.17813610797E+03  0.29022069502E+03  0.17300000000E+03 0.  1.
<mgrwt>
<rscale>  2 0.22911914E+03</rscale>
<asrwt>0</asrwt>
<pdfrwt beam="1">  1       21 0.50130453E-01 0.22911914E+03</pdfrwt>
<pdfrwt beam="2">  1       21 0.43510836E-01 0.22911914E+03</pdfrwt>
<totfact> 0.18838811E+04</totfact>
</mgrwt>
</event>
<event>
 4    1  0.4056666E+000  0.2358071E+03  0.7546771E-02  0.1122618E+00
         21   -1    0    0  501  502  0.00000000000E+00  0.00000000000E+00  0.68819392934E+02  0.68819392934E+02  0.00000000000E+00 0.  1.
         21   -1    0    0  502  503 -0.00000000000E+00 -0.00000000000E+00 -0.80815840935E+03  0.80815840935E+03  0.00000000000E+00 0. -1.
          6    1    1    2  501    0  0.15076207946E+03 -0.54284096093E+02 -0.36322770183E+03  0.43305811512E+03  0.17300000000E+03 0.  1.
         -6    1    1    2    0  503 -0.15076207946E+03  0.54284096093E+02 -0.37611131458E+03  0.44391968716E+03  0.17300000000E+03 0.  1.
<mgrwt>
<rscale>  2 0.23580706E+03</rscale>
<asrwt>0</asrwt>
<pdfrwt beam="1">  1       21 0.10587599E-01 0.23580706E+03</pdfrwt>
<pdfrwt beam="2">  1       21 0.12433206E+00 0.23580706E+03</pdfrwt>
<totfact> 0.34637607E+04</totfact>
</mgrwt>
</event>
<event>
 4    1  0.4056666E+000  0.1802900E+03  0.7546771E-02  0.1167523E+00
         21   -1    0    0  501  502  0.00000000000E+00  0.00000000000E+00  0.21186174176E+03  0.21186174176E+03  0.00000000000E+00 0. -1.
         21   -1    0    0  502  503 -0.00000000000E+00 -0.00000000000E+00 -0.15358894345E+03  0.15358894345E+03  0.00000000000E+00 0. -1.
          6    1    1    2  501    0 -0.36120191318E+02 -0.35648572433E+02  0.35140456462E+02  0.18368271725E+03  0.17300000000E+03 0. -1.
         -6    1    1    2    0  503  0.36120191318E+02  0.35648572433E+02  0.23132341850E+02  0.18176796796E+03  0.17300000000E+03 0. -1.
<mgrwt>
<rscale>  2 0.18029001E+03</rscale>
<asrwt>0</asrwt>
<pdfrwt beam="1">  1       21 0.32594114E-01 0.18029001E+03</pdfrwt>
<pdfrwt beam="2">  1       21 0.23629068E-01 0.18029001E+03</pdfrwt>
<totfact> 0.15336210E+05</totfact>
</mgrwt>
</event>
<event>
 4    1  0.4056666E+000  0.1905563E+03  0.7546771E-02  0.1157961E+00
         21   -1    0    0  503  502  0.00000000000E+00  0.00000000000E+00  0.44751341918E+02  0.44751341918E+02  0.00000000000E+00 0. -1.
         21   -1    0    0  501  503 -0.00000000000E+00 -0.00000000000E+00 -0.21875129096E+04  0.21875129096E+04  0.00000000000E+00 0. -1.
          6    1    1    2  501    0 -0.53301883610E+02 -0.59511587540E+02 -0.19566301709E+04  0.19658874194E+04  0.17300000000E+03 0. -1.
         -6    1    1    2    0  502  0.53301883610E+02  0.59511587540E+02 -0.18613139675E+03  0.26637683214E+03  0.17300000000E+03 0. -1.
<mgrwt>
<rscale>  2 0.19055634E+03</rscale>
<asrwt>0</asrwt>
<pdfrwt beam="1">  1       21 0.68848228E-02 0.19055634E+03</pdfrwt>
<pdfrwt beam="2">  1       21 0.33654040E+00 0.19055634E+03</pdfrwt>
<totfact> 0.32740447E+03</totfact>
</mgrwt>
</event>
<event>
 4    1  0.4056666E+000  0.2018883E+03  0.7546771E-02  0.1148156E+00
         21   -1    0    0  503  502  0.00000000000E+00  0.00000000000E+00  0.33734732277E+02  0.33734732277E+02  0.00000000000E+00 0. -1.
         21   -1    0    0  501  503 -0.00000000000E+00 -0.00000000000E+00 -0.12114458571E+04  0.12114458571E+04  0.00000000000E+00 0. -1.
          6    1    1    2  501    0 -0.53881020153E+02 -0.89032156576E+02 -0.62099589860E+03  0.65298912343E+03  0.17300000000E+03 0. -1.
         -6    1    1    2    0  502  0.53881020153E+02  0.89032156576E+02 -0.55671522626E+03  0.59219146599E+03  0.17300000000E+03 0. -1.
<mgrwt>
<rscale>  2 0.20188831E+03</rscale>
<asrwt>0</asrwt>
<pdfrwt beam="1">  1       21 0.51899579E-02 0.20188831E+03</pdfrwt>
<pdfrwt beam="2">  1       21 0.18637632E+00 0.20188831E+03</pdfrwt>
<totfact> 0.41370654E+04</totfact>
</mgrwt>
</event>
<event>
 4    1  0.4056666E+000  0.2302696E+03  0.7546771E-02  0.1126450E+00
         21   -1    0    0  503  502  0.00000000000E+00  0.00000000000E+00  0.14173779408E+04  0.14173779408E+04  0.00000000000E+00 0. -1.
         21   -1    0    0  501  503 -0.00000000000E+00 -0.00000000000E+00 -0.46259954444E+02  0.46259954444E+02  0.00000000000E+00 0.  1.
          6    1    1    2  501    0 -0.79260758761E+02 -0.12966424184E+03  0.36546906840E+03  0.43196264127E+03  0.17300000000E+03 0.  1.
         -6    1    1    2    0  502  0.79260758761E+02  0.12966424184E+03  0.10056489180E+04  0.10316752540E+04  0.17300000000E+03 0. -1.
<mgrwt>
<rscale>  2 0.23026959E+03</rscale>
<asrwt>0</asrwt>
<pdfrwt beam="1">  1       21 0.21805811E+00 0.23026959E+03</pdfrwt>
<pdfrwt beam="2">  1       21 0.71169171E-02 0.23026959E+03</pdfrwt>
<totfact> 0.14756912E+04</totfact>
</mgrwt>
</event>
<event>
 4    1  0.4056666E+000  0.2294291E+03  0.7546771E-02  0.1127042E+00
         21   -1    0    0  501  502  0.00000000000E+00  0.00000000000E+00  0.54382802547E+03  0.54382802547E+03  0.00000000000E+00 0. -1.
         21   -1    0    0  502  503 -0.00000000000E+00 -0.00000000000E+00 -0.22856987017E+03  0.22856987017E+03  0.00000000000E+00 0. -1.
          6    1    1    2  501    0  0.13949078659E+03 -0.57017657963E+02  0.45086986769E+03  0.50588667748E+03  0.17300000000E+03 0. -1.
         -6    1    1    2    0  503 -0.13949078659E+03  0.57017657963E+02 -0.13561171239E+03  0.26651121815E+03  0.17300000000E+03 0. -1.
<mgrwt>
<rscale>  2 0.22942906E+03</rscale>
<asrwt>0</asrwt>
<pdfrwt beam="1">  1       21 0.83665850E-01 0.22942906E+03</pdfrwt>
<pdfrwt beam="2">  1       21 0.35164595E-01 0.22942906E+03</pdfrwt>
<totfact> 0.94513540E+03</totfact>
</mgrwt>
</event>
<event>
 4    1  0.4056666E+000  0.1925679E+03  0.7546771E-02  0.1156165E+00
         21   -1    0    0  503  502  0.00000000000E+00  0.00000000000E+00  0.24506715771E+03  0.24506715771E+03  0.00000000000E+00 0. -1.
         21   -1    0    0  501  503 -0.00000000000E+00 -0.00000000000E+00 -0.15684307703E+03  0.15684307703E+03  0.00000000000E+00 0. -1.
          6    1    1    2  501    0 -0.32454195239E+02 -0.78103230638E+02  0.63856696401E+01  0.19267372992E+03  0.17300000000E+03 0. -1.
         -6    1    1    2    0  502  0.32454195239E+02  0.78103230638E+02  0.81838411043E+02  0.20923650481E+03  0.17300000000E+03 0. -1.
<mgrwt>
<rscale>  2 0.19256788E+03</rscale>
<asrwt>0</asrwt>
<pdfrwt beam="1">  1       21 0.37702640E-01 0.19256788E+03</pdfrwt>
<pdfrwt beam="2">  1       21 0.24129704E-01 0.19256788E+03</pdfrwt>
<totfact> 0.10995350E+05</totfact>
</mgrwt>
</event>
<event>
 4    1  0.4056666E+000  0.1738521E+03  0.7546771E-02  0.1173889E+00
         21   -1    0    0  503  502  0.00000000000E+00  0.00000000000E+00  0.12331197793E+03  0.12331197793E+03  0.00000000000E+00 0.  1.
         21   -1    0    0  501  503 -0.00000000000E+00 -0.00000000000E+00 -0.30506487274E+03  0.30506487274E+03  0.00000000000E+00 0.  1.
          6    1    1    2  501    0  0.14045114124E+02 -0.99142502639E+01 -0.18583303542E+03  0.25447686465E+03  0.17300000000E+03 0.  1.
         -6    1    1    2    0  502 -0.14045114124E+02  0.99142502639E+01  0.40801406059E+01  0.17389998602E+03  0.17300000000E+03 0.  1.
<mgrwt>
<rscale>  2 0.17385211E+03</rscale>
<asrwt>0</asrwt>
<pdfrwt beam="1">  1       21 0.18971074E-01 0.17385211E+03</pdfrwt>
<pdfrwt beam="2">  1       21 0.46933057E-01 0.17385211E+03</pdfrwt>
<totfact> 0.11144767E+05</totfact>
</mgrwt>
</event>
<event>
 4    1  0.4056666E+000  0.3895485E+03  0.7546771E-02  0.1047460E+00
         21   -1    0    0  503  502  0.00000000000E+00  0.00000000000E+00  0.12500163681E+04  0.12500163681E+04  0.00000000000E+00 0. -1.
         21   -1    0    0  501  503 -0.00000000000E+00 -0.00000000000E+00 -0.29342231654E+03  0.29342231654E+03  0.00000000000E+00 0.  1.
          6    1    1    2  501    0 -0.30396166575E+03  0.17154101269E+03 -0.11259648908E+03  0.40549473811E+03  0.17300000000E+03 0.  1.
         -6    1    1    2    0  502  0.30396166575E+03 -0.17154101269E+03  0.10691905406E+04  0.11379439465E+04  0.17300000000E+03 0. -1.
<mgrwt>
<rscale>  2 0.38954847E+03</rscale>
<asrwt>0</asrwt>
<pdfrwt beam="1">  1       21 0.19231021E+00 0.38954847E+03</pdfrwt>
<pdfrwt beam="2">  1       21 0.45141896E-01 0.38954847E+03</pdfrwt>
<totfact> 0.60556992E+02</totfact>
</mgrwt>
</event>
<event>
 4    1  0.4056666E+000  0.3064800E+03  0.7546771E-02  0.1082045E+00
         21   -1    0    0  501  502  0.00000000000E+00  0.00000000000E+00  0.50128764520E+03  0.50128764520E+03  0.00000000000E+00 0.  1.
         21   -1    0    0  502  503 -0.00000000000E+00 -0.00000000000E+00 -0.22706876888E+03  0.22706876888E+03  0.00000000000E+00 0. -1.
          6    1    1    2  501    0  0.21776855369E+03  0.12875507325E+03  0.28936841032E+03  0.42150218119E+03  0.17300000000E+03 0.  1.
         -6    1    1    2    0  503 -0.21776855369E+03 -0.12875507325E+03 -0.15149534005E+02  0.30685423289E+03  0.17300000000E+03 0. -1.
<mgrwt>
<rscale>  2 0.30648004E+03</rscale>
<asrwt>0</asrwt>
<pdfrwt beam="1">  1       21 0.77121176E-01 0.30648004E+03</pdfrwt>
<pdfrwt beam="2">  1       21 0.34933657E-01 0.30648004E+03</pdfrwt>
<totfact> 0.11084217E+04</totfact>
</mgrwt>
</event>
<event>
 4    1  0.4056666E+000  0.2137271E+03  0.7546771E-02  0.1138648E+00
         21   -1    0    0  501  502  0.00000000000E+00  0.00000000000E+00  0.10638466099E+03  0.10638466099E+03  0.00000000000E+00 0.  1.
         21   -1    0    0  502  503 -0.00000000000E+00 -0.00000000000E+00 -0.43001108531E+03  0.43001108531E+03  0.00000000000E+00 0.  1.
          6    1    1    2  501    0 -0.12525344441E+03  0.78652102292E+01 -0.17209983378E+03  0.27440415386E+03  0.17300000000E+03 0.  1.
         -6    1    1    2    0  503  0.12525344441E+03 -0.78652102292E+01 -0.15152659054E+03  0.26199159244E+03  0.17300000000E+03 0.  1.
<mgrwt>
<rscale>  2 0.21372713E+03</rscale>
<asrwt>0</asrwt>
<pdfrwt beam="1">  1       21 0.16366871E-01 0.21372713E+03</pdfrwt>
<pdfrwt beam="2">  1       21 0.66155553E-01 0.21372713E+03</pdfrwt>
<totfact> 0.69498036E+04</totfact>
</mgrwt>
</event>
<event>
 4    1  0.4056666E+000  0.1912656E+03  0.7546771E-02  0.1157325E+00
         21   -1    0    0  503  502  0.00000000000E+00  0.00000000000E+00  0.65568036420E+03  0.65568036420E+03  0.00000000000E+00 0. -1.
         21   -1    0    0  501  503 -0.00000000000E+00 -0.00000000000E+00 -0.57954514254E+02  0.57954514254E+02  0.00000000000E+00 0. -1.
          6    1    1    2  501    0  0.64953560385E+01 -0.81310055774E+02  0.22995645566E+03  0.29910280226E+03  0.17300000000E+03 0.  1.
         -6    1    1    2    0  502 -0.64953560385E+01  0.81310055774E+02  0.36776939429E+03  0.41453207620E+03  0.17300000000E+03 0.  1.
<mgrwt>
<rscale>  2 0.19126556E+03</rscale>
<asrwt>0</asrwt>
<pdfrwt beam="1">  1       21 0.10087390E+00 0.19126556E+03</pdfrwt>
<pdfrwt beam="2">  1       21 0.89160796E-02 0.19126556E+03</pdfrwt>
<totfact> 0.79903430E+04</totfact>
</mgrwt>
</event>
<event>
 4    1  0.4056666E+000  0.2550359E+03  0.7546771E-02  0.1110163E+00
         21   -1    0    0  503  502  0.00000000000E+00  0.00000000000E+00  0.19488815286E+03  0.19488815286E+03  0.00000000000E+00 0. -1.
         21   -1    0    0  501  503 -0.00000000000E+00 -0.00000000000E+00 -0.42483131157E+03  0.42483131157E+03  0.00000000000E+00 0. -1.
          6    1    1    2  501    0 -0.16779590554E+02  0.18663540091E+03 -0.25844742069E+03  0.36309557529E+03  0.17300000000E+03 0. -1.
         -6    1    1    2    0  502  0.16779590554E+02 -0.18663540091E+03  0.28504261983E+02  0.25662388915E+03  0.17300000000E+03 0. -1.
<mgrwt>
<rscale>  2 0.25503593E+03</rscale>
<asrwt>0</asrwt>
<pdfrwt beam="1">  1       21 0.29982793E-01 0.25503593E+03</pdfrwt>
<pdfrwt beam="2">  1       21 0.65358663E-01 0.25503593E+03</pdfrwt>
<totfact> 0.22226565E+04</totfact>
</mgrwt>
</event>
<event>
 4    1  0.4056666E+000  0.2086995E+03  0.7546771E-02  0.1142600E+00
         21   -1    0    0  501  502  0.00000000000E+00  0.00000000000E+00  0.10891707136E+04  0.10891707136E+04  0.00000000000E+00 0. -1.
         21   -1    0    0  502  503 -0.00000000000E+00 -0.00000000000E+00 -0.13492102496E+03  0.13492102496E+03  0.00000000000E+00 0. -1.
          6    1    1    2  501    0 -0.10492395985E+03 -0.51160884923E+02  0.99051698202E+03  0.10122644739E+04  0.17300000000E+03 0. -1.
         -6    1    1    2    0  503  0.10492395985E+03  0.51160884923E+02 -0.36267293337E+02  0.21182726468E+03  0.17300000000E+03 0. -1.
<mgrwt>
<rscale>  2 0.20869948E+03</rscale>
<asrwt>0</asrwt>
<pdfrwt beam="1">  1       21 0.16756472E+00 0.20869948E+03</pdfrwt>
<pdfrwt beam="2">  1       21 0.20757081E-01 0.20869948E+03</pdfrwt>
<totfact> 0.47147218E+03</totfact>
</mgrwt>
</event>
<event>
 4    1  0.4056666E+000  0.2366726E+03  0.7546771E-02  0.1122030E+00
         21   -1    0    0  503  502  0.00000000000E+00  0.00000000000E+00  0.12759378814E+03  0.12759378814E+03  0.00000000000E+00 0.  1.
         21   -1    0    0  501  503 -0.00000000000E+00 -0.00000000000E+00 -0.45050612462E+03  0.45050612462E+03  0.00000000000E+00 0.  1.
          6    1    1    2  501    0 -0.15542215849E+03 -0.43918679015E+02 -0.20764679490E+03  0.31485089987E+03  0.17300000000E+03 0.  1.
         -6    1    1    2    0  502  0.15542215849E+03  0.43918679015E+02 -0.11526554158E+03  0.26324901290E+03  0.17300000000E+03 0.  1.
<mgrwt>
<rscale>  2 0.23667255E+03</rscale>
<asrwt>0</asrwt>
<pdfrwt beam="1">  1       21 0.19629813E-01 0.23667255E+03</pdfrwt>
<pdfrwt beam="2">  1       21 0.69308635E-01 0.23667255E+03</pdfrwt>
<totfact> 0.44326927E+04</totfact>
</mgrwt>
</event>
<event>
 4    1  0.4056666E+000  0.2570015E+03  0.7546771E-02  0.1108958E+00
         21   -1    0    0  501  502  0.00000000000E+00  0.00000000000E+00  0.38341787826E+02  0.38341787826E+02  0.00000000000E+00 0.  1.
         21   -1    0    0  502  503 -0.00000000000E+00 -0.00000000000E+00 -0.20182808864E+04  0.20182808864E+04  0.00000000000E+00 0.  1.
          6    1    1    2  501    0  0.18566883311E+03 -0.40593689183E+02 -0.59641647149E+03  0.64943234494E+03  0.17300000000E+03 0.  1.
         -6    1    1    2    0  503 -0.18566883311E+03  0.40593689183E+02 -0.13835226271E+04  0.14071903293E+04  0.17300000000E+03 0.  1.
<mgrwt>
<rscale>  2 0.25700148E+03</rscale>
<asrwt>0</asrwt>
<pdfrwt beam="1">  1       21 0.58987369E-02 0.25700148E+03</pdfrwt>
<pdfrwt beam="2">  1       21 0.31050474E+00 0.25700148E+03</pdfrwt>
<totfact> 0.56474018E+03</totfact>
</mgrwt>
</event>
<event>
 4    1  0.4056666E+000  0.2394516E+03  0.7546771E-02  0.1120159E+00
         21   -1    0    0  503  502  0.00000000000E+00  0.00000000000E+00  0.20486631132E+03  0.20486631132E+03  0.00000000000E+00 0.  1.
         21   -1    0    0  501  503 -0.00000000000E+00 -0.00000000000E+00 -0.55721653280E+03  0.55721653280E+03  0.00000000000E+00 0.  1.
          6    1    1    2  501    0 -0.16550264019E+03  0.41166687007E+01 -0.44499860397E+03  0.50533239398E+03  0.17300000000E+03 0.  1.
         -6    1    1    2    0  502  0.16550264019E+03 -0.41166687007E+01  0.92648382494E+02  0.25675045014E+03  0.17300000000E+03 0.  1.
<mgrwt>
<rscale>  2 0.23945160E+03</rscale>
<asrwt>0</asrwt>
<pdfrwt beam="1">  1       21 0.31517894E-01 0.23945160E+03</pdfrwt>
<pdfrwt beam="2">  1       21 0.85725620E-01 0.23945160E+03</pdfrwt>
<totfact> 0.11038358E+04</totfact>
</mgrwt>
</event>
<event>
 4    1  0.4056666E+000  0.1865746E+03  0.7546771E-02  0.1161588E+00
         21   -1    0    0  503  502  0.00000000000E+00  0.00000000000E+00  0.64381274608E+03  0.64381274608E+03  0.00000000000E+00 0. -1.
         21   -1    0    0  501  503 -0.00000000000E+00 -0.00000000000E+00 -0.54119989008E+02  0.54119989008E+02  0.00000000000E+00 0. -1.
          6    1    1    2  501    0  0.63126487672E+02  0.29935348961E+02  0.28409714420E+03  0.33988419484E+03  0.17300000000E+03 0. -1.
         -6    1    1    2    0  502 -0.63126487672E+02 -0.29935348961E+02  0.30559561288E+03  0.35804854025E+03  0.17300000000E+03 0. -1.
<mgrwt>
<rscale>  2 0.18657459E+03</rscale>
<asrwt>0</asrwt>
<pdfrwt beam="1">  1       21 0.99048109E-01 0.18657459E+03</pdfrwt>
<pdfrwt beam="2">  1       21 0.83261526E-02 0.18657459E+03</pdfrwt>
<totfact> 0.94230880E+04</totfact>
</mgrwt>
</event>
<event>
 4    1  0.4056666E+000  0.2007833E+03  0.7546771E-02  0.1149080E+00
         21   -1    0    0  503  502  0.00000000000E+00  0.00000000000E+00  0.64746104090E+03  0.64746104090E+03  0.00000000000E+00 0. -1.
         21   -1    0    0  501  503 -0.00000000000E+00 -0.00000000000E+00 -0.73700498996E+02  0.73700498996E+02  0.00000000000E+00 0. -1.
          6    1    1    2  501    0 -0.99594022021E+02 -0.21586177674E+02  0.14484322346E+03  0.24757522426E+03  0.17300000000E+03 0. -1.
         -6    1    1    2    0  502  0.99594022021E+02  0.21586177674E+02  0.42891731845E+03  0.47358631563E+03  0.17300000000E+03 0. -1.
<mgrwt>
<rscale>  2 0.20078330E+03</rscale>
<asrwt>0</asrwt>
<pdfrwt beam="1">  1       21 0.99609387E-01 0.20078330E+03</pdfrwt>
<pdfrwt beam="2">  1       21 0.11338539E-01 0.20078330E+03</pdfrwt>
<totfact> 0.53584015E+04</totfact>
</mgrwt>
</event>
<event>
 4    1  0.4056666E+000  0.2266417E+03  0.7546771E-02  0.1129026E+00
         21   -1    0    0  503  502  0.00000000000E+00  0.00000000000E+00  0.13182494093E+03  0.13182494093E+03  0.00000000000E+00 0. -1.
         21   -1    0    0  501  503 -0.00000000000E+00 -0.00000000000E+00 -0.55454663228E+03  0.55454663228E+03  0.00000000000E+00 0.  1.
          6    1    1    2  501    0 -0.13174128187E+03 -0.63888104228E+02 -0.39849690884E+03  0.45843891803E+03  0.17300000000E+03 0.  1.
         -6    1    1    2    0  502  0.13174128187E+03  0.63888104228E+02 -0.24224782512E+02  0.22793265518E+03  0.17300000000E+03 0.  1.
<mgrwt>
<rscale>  2 0.22664169E+03</rscale>
<asrwt>0</asrwt>
<pdfrwt beam="1">  1       21 0.20280760E-01 0.22664169E+03</pdfrwt>
<pdfrwt beam="2">  1       21 0.85314867E-01 0.22664169E+03</pdfrwt>
<totfact> 0.26222329E+04</totfact>
</mgrwt>
</event>
<event>
 4    1  0.4056666E+000  0.2513765E+03  0.7546771E-02  0.1112438E+00
         21   -1    0    0  501  502  0.00000000000E+00  0.00000000000E+00  0.16695245231E+03  0.16695245231E+03  0.00000000000E+00 0.  1.
         21   -1    0    0  502  503 -0.00000000000E+00 -0.00000000000E+00 -0.37868562530E+03  0.37868562530E+03  0.00000000000E+00 0.  1.
          6    1    1    2  501    0  0.42611630897E+02 -0.17732854466E+03 -0.99697207729E+02  0.27042503040E+03  0.17300000000E+03 0.  1.
         -6    1    1    2    0  503 -0.42611630897E+02  0.17732854466E+03 -0.11203596526E+03  0.27521304720E+03  0.17300000000E+03 0.  1.
<mgrwt>
<rscale>  2 0.25137654E+03</rscale>
<asrwt>0</asrwt>
<pdfrwt beam="1">  1       21 0.25684993E-01 0.25137654E+03</pdfrwt>
<pdfrwt beam="2">  1       21 0.58259327E-01 0.25137654E+03</pdfrwt>
<totfact> 0.38609816E+04</totfact>
</mgrwt>
</event>
<event>
 4    1  0.4056666E+000  0.1961513E+03  0.7546771E-02  0.1153027E+00
         21   -1    0    0  501  502  0.00000000000E+00  0.00000000000E+00  0.79660486015E+02  0.79660486015E+02  0.00000000000E+00 0.  1.
         21   -1    0    0  502  503 -0.00000000000E+00 -0.00000000000E+00 -0.50107698887E+03  0.50107698887E+03  0.00000000000E+00 0.  1.
          6    1    1    2  501    0 -0.43008357466E+02 -0.81832785669E+02 -0.15554309366E+03  0.25033772710E+03  0.17300000000E+03 0.  1.
         -6    1    1    2    0  503  0.43008357466E+02  0.81832785669E+02 -0.26587340919E+03  0.33039974778E+03  0.17300000000E+03 0.  1.
<mgrwt>
<rscale>  2 0.19615128E+03</rscale>
<asrwt>0</asrwt>
<pdfrwt beam="1">  1       21 0.12255459E-01 0.19615128E+03</pdfrwt>
<pdfrwt beam="2">  1       21 0.77088770E-01 0.19615128E+03</pdfrwt>
<totfact> 0.84361937E+04</totfact>
</mgrwt>
</event>
<event>
 4    1  0.4056666E+000  0.1928812E+03  0.7546771E-02  0.1155888E+00
         21   -1    0    0  503  502  0.00000000000E+00  0.00000000000E+00  0.22203471853E+03  0.22203471853E+03  0.00000000000E+00 0.  1.
         21   -1    0    0  501  503 -0.00000000000E+00 -0.00000000000E+00 -0.23905992746E+03  0.23905992746E+03  0.00000000000E+00 0.  1.
          6    1    1    2  501    0  0.52157650754E+02  0.67481315916E+02 -0.13460039039E+03  0.23520292010E+03  0.17300000000E+03 0.  1.
         -6    1    1    2    0  502 -0.52157650754E+02 -0.67481315916E+02  0.11757518145E+03  0.22589172589E+03  0.17300000000E+03 0.  1.
<mgrwt>
<rscale>  2 0.19288118E+03</rscale>
<asrwt>0</asrwt>
<pdfrwt beam="1">  1       21 0.34159188E-01 0.19288118E+03</pdfrwt>
<pdfrwt beam="2">  1       21 0.36778450E-01 0.19288118E+03</pdfrwt>
<totfact> 0.58876443E+04</totfact>
</mgrwt>
</event>
<event>
 4    1  0.4056666E+000  0.1930251E+03  0.7546771E-02  0.1155761E+00
         21   -1    0    0  503  502  0.00000000000E+00  0.00000000000E+00  0.11262310207E+04  0.11262310207E+04  0.00000000000E+00 0.  1.
         21   -1    0    0  501  503 -0.00000000000E+00 -0.00000000000E+00 -0.39394404650E+02  0.39394404650E+02  0.00000000000E+00 0. -1.
          6    1    1    2  501    0  0.46735218497E+02  0.71732280947E+02  0.77670339666E+03  0.80032922423E+03  0.17300000000E+03 0.  1.
         -6    1    1    2    0  502 -0.46735218497E+02 -0.71732280947E+02  0.31013321936E+03  0.36529620109E+03  0.17300000000E+03 0.  1.
<mgrwt>
<rscale>  2 0.19302513E+03</rscale>
<asrwt>0</asrwt>
<pdfrwt beam="1">  1       21 0.17326629E+00 0.19302513E+03</pdfrwt>
<pdfrwt beam="2">  1       21 0.60606785E-02 0.19302513E+03</pdfrwt>
<totfact> 0.39231150E+04</totfact>
</mgrwt>
</event>
<event>
 4    1  0.4056666E+000  0.2429175E+03  0.7546771E-02  0.1117864E+00
         21   -1    0    0  503  502  0.00000000000E+00  0.00000000000E+00  0.63551909442E+03  0.63551909442E+03  0.00000000000E+00 0.  1.
         21   -1    0    0  501  503 -0.00000000000E+00 -0.00000000000E+00 -0.14087752198E+03  0.14087752198E+03  0.00000000000E+00 0. -1.
          6    1    1    2  501    0 -0.16632271041E+03 -0.37638754558E+02  0.20662833633E+02  0.24379473443E+03  0.17300000000E+03 0. -1.
         -6    1    1    2    0  502  0.16632271041E+03  0.37638754558E+02  0.47397873881E+03  0.53260188198E+03  0.17300000000E+03 0.  1.
<mgrwt>
<rscale>  2 0.24291752E+03</rscale>
<asrwt>0</asrwt>
<pdfrwt beam="1">  1       21 0.97772167E-01 0.24291752E+03</pdfrwt>
<pdfrwt beam="2">  1       21 0.21673465E-01 0.24291752E+03</pdfrwt>
<totfact> 0.16687747E+04</totfact>
</mgrwt>
</event>
<event>
 4    1  0.4056666E+000  0.2168918E+03  0.7546771E-02  0.1136222E+00
         21   -1    0    0  503  502  0.00000000000E+00  0.00000000000E+00  0.27901391185E+03  0.27901391185E+03  0.00000000000E+00 0. -1.
         21   -1    0    0  501  503 -0.00000000000E+00 -0.00000000000E+00 -0.42718518653E+03  0.42718518653E+03  0.00000000000E+00 0.  1.
          6    1    1    2  501    0 -0.35884858601E+02  0.12579879431E+03 -0.34880542765E+03  0.41073992512E+03  0.17300000000E+03 0.  1.
         -6    1    1    2    0  502  0.35884858601E+02 -0.12579879431E+03  0.20063415297E+03  0.29545917326E+03  0.17300000000E+03 0. -1.
<mgrwt>
<rscale>  2 0.21689182E+03</rscale>
<asrwt>0</asrwt>
<pdfrwt beam="1">  1       21 0.42925217E-01 0.21689182E+03</pdfrwt>
<pdfrwt beam="2">  1       21 0.65720798E-01 0.21689182E+03</pdfrwt>
<totfact> 0.10928957E+04</totfact>
</mgrwt>
</event>
<event>
 4    1  0.4056666E+000  0.1995328E+03  0.7546771E-02  0.1150134E+00
         21   -1    0    0  501  502  0.00000000000E+00  0.00000000000E+00  0.18399392080E+03  0.18399392080E+03  0.00000000000E+00 0.  1.
         21   -1    0    0  502  503 -0.00000000000E+00 -0.00000000000E+00 -0.22376194734E+03  0.22376194734E+03  0.00000000000E+00 0. -1.
          6    1    1    2  501    0  0.11021918756E+02  0.98807122518E+02  0.17136850496E+02  0.20026732584E+03  0.17300000000E+03 0.  1.
         -6    1    1    2    0  503 -0.11021918756E+02 -0.98807122518E+02 -0.56904877039E+02  0.20748854230E+03  0.17300000000E+03 0. -1.
<mgrwt>
<rscale>  2 0.19953278E+03</rscale>
<asrwt>0</asrwt>
<pdfrwt beam="1">  1       21 0.28306757E-01 0.19953278E+03</pdfrwt>
<pdfrwt beam="2">  1       21 0.34424915E-01 0.19953278E+03</pdfrwt>
<totfact> 0.96741182E+04</totfact>
</mgrwt>
</event>
<event>
 4    1  0.4056666E+000  0.2194259E+03  0.7546771E-02  0.1134312E+00
         21   -1    0    0  503  502  0.00000000000E+00  0.00000000000E+00  0.15842224786E+03  0.15842224786E+03  0.00000000000E+00 0. -1.
         21   -1    0    0  501  503 -0.00000000000E+00 -0.00000000000E+00 -0.30475920285E+03  0.30475920285E+03  0.00000000000E+00 0. -1.
          6    1    1    2  501    0 -0.12055769077E+02 -0.13443731197E+03 -0.61017639599E+02  0.22775180517E+03  0.17300000000E+03 0. -1.
         -6    1    1    2    0  502  0.12055769077E+02  0.13443731197E+03 -0.85319315391E+02  0.23542964553E+03  0.17300000000E+03 0. -1.
<mgrwt>
<rscale>  2 0.21942592E+03</rscale>
<asrwt>0</asrwt>
<pdfrwt beam="1">  1       21 0.24372653E-01 0.21942592E+03</pdfrwt>
<pdfrwt beam="2">  1       21 0.46886031E-01 0.21942592E+03</pdfrwt>
<totfact> 0.68422790E+04</totfact>
</mgrwt>
</event>
<event>
 4    1  0.4056666E+000  0.2140694E+03  0.7546771E-02  0.1138383E+00
         21   -1    0    0  503  502  0.00000000000E+00  0.00000000000E+00  0.15346812071E+04  0.15346812071E+04  0.00000000000E+00 0. -1.
         21   -1    0    0  501  503 -0.00000000000E+00 -0.00000000000E+00 -0.70013761607E+02  0.70013761607E+02  0.00000000000E+00 0. -1.
          6    1    1    2  501    0  0.11883489856E+03 -0.42130467615E+02  0.12471177206E+03  0.24774732190E+03  0.17300000000E+03 0. -1.
         -6    1    1    2    0  502 -0.11883489856E+03  0.42130467615E+02  0.13399556735E+04  0.13569476469E+04  0.17300000000E+03 0. -1.
<mgrwt>
<rscale>  2 0.21406940E+03</rscale>
<asrwt>0</asrwt>
<pdfrwt beam="1">  1       21 0.23610478E+00 0.21406940E+03</pdfrwt>
<pdfrwt beam="2">  1       21 0.10771349E-01 0.21406940E+03</pdfrwt>
<totfact> 0.56017744E+03</totfact>
</mgrwt>
</event>
<event>
 4    1  0.4056666E+000  0.1769310E+03  0.7546771E-02  0.1170807E+00
         21   -1    0    0  501  502  0.00000000000E+00  0.00000000000E+00  0.64173470942E+03  0.64173470942E+03  0.00000000000E+00 0.  1.
         21   -1    0    0  502  503 -0.00000000000E+00 -0.00000000000E+00 -0.88895491288E+02  0.88895491288E+02  0.00000000000E+00 0.  1.
          6    1    1    2  501    0 -0.44980708159E+01 -0.36815029211E+02  0.52182121747E+03  0.55100087297E+03  0.17300000000E+03 0.  1.
         -6    1    1    2    0  503  0.44980708159E+01  0.36815029211E+02  0.31018000662E+02  0.17962932773E+03  0.17300000000E+03 0.  1.
<mgrwt>
<rscale>  2 0.17693100E+03</rscale>
<asrwt>0</asrwt>
<pdfrwt beam="1">  1       21 0.98728414E-01 0.17693100E+03</pdfrwt>
<pdfrwt beam="2">  1       21 0.13676230E-01 0.17693100E+03</pdfrwt>
<totfact> 0.39581882E+04</totfact>
</mgrwt>
</event>
<event>
 4    1  0.4056666E+000  0.1852187E+03  0.7546771E-02  0.1162846E+00
         21   -1    0    0  503  502  0.00000000000E+00  0.00000000000E+00  0.24870785090E+03  0.24870785090E+03  0.00000000000E+00 0. -1.
         21   -1    0    0  501  503 -0.00000000000E+00 -0.00000000000E+00 -0.14204448456E+03  0.14204448456E+03  0.00000000000E+00 0. -1.
          6    1    1    2  501    0 -0.31686159519E+02 -0.58077230346E+02  0.86555943975E+02  0.20444536881E+03  0.17300000000E+03 0. -1.
         -6    1    1    2    0  502  0.31686159519E+02  0.58077230346E+02  0.20107422367E+02  0.18630696665E+03  0.17300000000E+03 0. -1.
<mgrwt>
<rscale>  2 0.18521873E+03</rscale>
<asrwt>0</asrwt>
<pdfrwt beam="1">  1       21 0.38262746E-01 0.18521873E+03</pdfrwt>
<pdfrwt beam="2">  1       21 0.21852998E-01 0.18521873E+03</pdfrwt>
<totfact> 0.12909056E+05</totfact>
</mgrwt>
</event>
<event>
 4    1  0.4056666E+000  0.2399765E+03  0.7546771E-02  0.1119808E+00
         21   -1    0    0  501  502  0.00000000000E+00  0.00000000000E+00  0.11812722215E+04  0.11812722215E+04  0.00000000000E+00 0.  1.
         21   -1    0    0  502  503 -0.00000000000E+00 -0.00000000000E+00 -0.57574437181E+02  0.57574437181E+02  0.00000000000E+00 0.  1.
          6    1    1    2  501    0 -0.16030845450E+03 -0.44282267156E+02  0.80433162652E+03  0.83936766985E+03  0.17300000000E+03 0.  1.
         -6    1    1    2    0  503  0.16030845450E+03  0.44282267156E+02  0.31936615779E+03  0.39947898882E+03  0.17300000000E+03 0.  1.
<mgrwt>
<rscale>  2 0.23997650E+03</rscale>
<asrwt>0</asrwt>
<pdfrwt beam="1">  1       21 0.18173417E+00 0.23997650E+03</pdfrwt>
<pdfrwt beam="2">  1       21 0.88576066E-02 0.23997650E+03</pdfrwt>
<totfact> 0.17220566E+04</totfact>
</mgrwt>
</event>
<event>
 4    1  0.4056666E+000  0.2049007E+03  0.7546771E-02  0.1145669E+00
         21   -1    0    0  501  502  0.00000000000E+00  0.00000000000E+00  0.11144306010E+04  0.11144306010E+04  0.00000000000E+00 0.  1.
         21   -1    0    0  502  503 -0.00000000000E+00 -0.00000000000E+00 -0.63106890805E+02  0.63106890805E+02  0.00000000000E+00 0.  1.
          6    1    1    2  501    0 -0.36400930117E+02  0.10358709470E+03  0.89943657412E+03  0.92248060401E+03  0.17300000000E+03 0.  1.
         -6    1    1    2    0  503  0.36400930117E+02 -0.10358709470E+03  0.15188713604E+03  0.25505688776E+03  0.17300000000E+03 0.  1.
<mgrwt>
<rscale>  2 0.20490074E+03</rscale>
<asrwt>0</asrwt>
<pdfrwt beam="1">  1       21 0.17145085E+00 0.20490074E+03</pdfrwt>
<pdfrwt beam="2">  1       21 0.97087532E-02 0.20490074E+03</pdfrwt>
<totfact> 0.17663662E+04</totfact>
</mgrwt>
</event>
<event>
 4    1  0.4056666E+000  0.1905454E+03  0.7546771E-02  0.1157970E+00
         21   -1    0    0  501  502  0.00000000000E+00  0.00000000000E+00  0.90499369491E+03  0.90499369491E+03  0.00000000000E+00 0. -1.
         21   -1    0    0  502  503 -0.00000000000E+00 -0.00000000000E+00 -0.40457604976E+02  0.40457604976E+02  0.00000000000E+00 0. -1.
          6    1    1    2  501    0 -0.29334612888E+02 -0.74283567566E+02  0.47550613811E+03  0.51226326758E+03  0.17300000000E+03 0. -1.
         -6    1    1    2    0  503  0.29334612888E+02  0.74283567566E+02  0.38902995182E+03  0.43318803231E+03  0.17300000000E+03 0. -1.
<mgrwt>
<rscale>  2 0.19054545E+03</rscale>
<asrwt>0</asrwt>
<pdfrwt beam="1">  1       21 0.13922978E+00 0.19054545E+03</pdfrwt>
<pdfrwt beam="2">  1       21 0.62242476E-02 0.19054545E+03</pdfrwt>
<totfact> 0.67280323E+04</totfact>
</mgrwt>
</event>
<event>
 4    1  0.4056666E+000  0.1996782E+03  0.7546771E-02  0.1150011E+00
         21   -1    0    0  503  502  0.00000000000E+00  0.00000000000E+00  0.14161135061E+04  0.14161135061E+04  0.00000000000E+00 0.  1.
         21   -1    0    0  501  503 -0.00000000000E+00 -0.00000000000E+00 -0.45195765682E+02  0.45195765682E+02  0.00000000000E+00 0.  1.
          6    1    1    2  501    0 -0.61071002176E+02 -0.78820847554E+02  0.23681538530E+03  0.30976268341E+03  0.17300000000E+03 0.  1.
         -6    1    1    2    0  502  0.61071002176E+02  0.78820847554E+02  0.11341023551E+04  0.11515465883E+04  0.17300000000E+03 0.  1.
<mgrwt>
<rscale>  2 0.19967822E+03</rscale>
<asrwt>0</asrwt>
<pdfrwt beam="1">  1       21 0.21786358E+00 0.19967822E+03</pdfrwt>
<pdfrwt beam="2">  1       21 0.69531958E-02 0.19967822E+03</pdfrwt>
<totfact> 0.15775629E+04</totfact>
</mgrwt>
</event>
<event>
 4    1  0.4056666E+000  0.2148623E+03  0.7546771E-02  0.1137772E+00
         21   -1    0    0  503  502  0.00000000000E+00  0.00000000000E+00  0.20810997622E+03  0.20810997622E+03  0.00000000000E+00 0.  1.
         21   -1    0    0  501  503 -0.00000000000E+00 -0.00000000000E+00 -0.34723819079E+03  0.34723819079E+03  0.00000000000E+00 0. -1.
          6    1    1    2  501    0 -0.86844256801E+02 -0.93246418445E+02 -0.23643401941E+03  0.31947905256E+03  0.17300000000E+03 0. -1.
         -6    1    1    2    0  502  0.86844256801E+02  0.93246418445E+02  0.97305804845E+02  0.23586911444E+03  0.17300000000E+03 0.  1.
<mgrwt>
<rscale>  2 0.21486233E+03</rscale>
<asrwt>0</asrwt>
<pdfrwt beam="1">  1       21 0.32016919E-01 0.21486233E+03</pdfrwt>
<pdfrwt beam="2">  1       21 0.53421260E-01 0.21486233E+03</pdfrwt>
<totfact> 0.30752068E+04</totfact>
</mgrwt>
</event>
<event>
 4    1  0.4056666E+000  0.1799649E+03  0.7546771E-02  0.1167837E+00
         21   -1    0    0  503  502  0.00000000000E+00  0.00000000000E+00  0.69560392768E+02  0.69560392768E+02  0.00000000000E+00 0. -1.
         21   -1    0    0  501  503 -0.00000000000E+00 -0.00000000000E+00 -0.51800436273E+03  0.51800436273E+03  0.00000000000E+00 0. -1.
          6    1    1    2  501    0  0.48992390218E+02  0.76236506364E+01 -0.31766340939E+03  0.36509918654E+03  0.17300000000E+03 0. -1.
         -6    1    1    2    0  502 -0.48992390218E+02 -0.76236506364E+01 -0.13078056058E+03  0.22246556896E+03  0.17300000000E+03 0. -1.
<mgrwt>
<rscale>  2 0.17996493E+03</rscale>
<asrwt>0</asrwt>
<pdfrwt beam="1">  1       21 0.10701599E-01 0.17996493E+03</pdfrwt>
<pdfrwt beam="2">  1       21 0.79692979E-01 0.17996493E+03</pdfrwt>
<totfact> 0.10034029E+05</totfact>
</mgrwt>
</event>
<event>
 4    1  0.4056666E+000  0.2188755E+03  0.7546771E-02  0.1134724E+00
         21   -1    0    0  503  502  0.00000000000E+00  0.00000000000E+00  0.19457678375E+03  0.19457678375E+03  0.00000000000E+00 0. -1.
         21   -1    0    0  501  503 -0.00000000000E+00 -0.00000000000E+00 -0.42640294670E+03  0.42640294670E+03  0.00000000000E+00 0.  1.
          6    1    1    2  501    0 -0.17208434706E+02  0.13297118096E+03 -0.31775342997E+03  0.38584155744E+03  0.17300000000E+03 0. -1.
         -6    1    1    2    0  502  0.17208434706E+02 -0.13297118096E+03  0.85927267008E+02  0.23513817301E+03  0.17300000000E+03 0.  1.
<mgrwt>
<rscale>  2 0.21887546E+03</rscale>
<asrwt>0</asrwt>
<pdfrwt beam="1">  1       21 0.29934890E-01 0.21887546E+03</pdfrwt>
<pdfrwt beam="2">  1       21 0.65600453E-01 0.21887546E+03</pdfrwt>
<totfact> 0.22520449E+04</totfact>
</mgrwt>
</event>
<event>
 4    1  0.4056666E+000  0.1919084E+03  0.7546771E-02  0.1156751E+00
         21   -1    0    0  501  502  0.00000000000E+00  0.00000000000E+00  0.50964890097E+03  0.50964890097E+03  0.00000000000E+00 0. -1.
         21   -1    0    0  502  503 -0.00000000000E+00 -0.00000000000E+00 -0.88760489020E+02  0.88760489020E+02  0.00000000000E+00 0. -1.
          6    1    1    2  501    0  0.69667669384E+02 -0.45235683906E+02  0.33943689315E+03  0.38993109095E+03  0.17300000000E+03 0. -1.
         -6    1    1    2    0  503 -0.69667669384E+02  0.45235683906E+02  0.81451518796E+02  0.20847829904E+03  0.17300000000E+03 0. -1.
<mgrwt>
<rscale>  2 0.19190844E+03</rscale>
<asrwt>0</asrwt>
<pdfrwt beam="1">  1       21 0.78407522E-01 0.19190844E+03</pdfrwt>
<pdfrwt beam="2">  1       21 0.13655460E-01 0.19190844E+03</pdfrwt>
<totfact> 0.66967705E+04</totfact>
</mgrwt>
</event>
<event>
 4    1  0.4056666E+000  0.2244431E+03  0.7546771E-02  0.1130613E+00
         21   -1    0    0  503  502  0.00000000000E+00  0.00000000000E+00  0.79271375848E+02  0.79271375848E+02  0.00000000000E+00 0. -1.
         21   -1    0    0  501  503 -0.00000000000E+00 -0.00000000000E+00 -0.63551473091E+03  0.63551473091E+03  0.00000000000E+00 0. -1.
          6    1    1    2  501    0 -0.13021649759E+03 -0.59070835849E+02 -0.28106945491E+03  0.35968700057E+03  0.17300000000E+03 0. -1.
         -6    1    1    2    0  502  0.13021649759E+03  0.59070835849E+02 -0.27517390015E+03  0.35509910619E+03  0.17300000000E+03 0. -1.
<mgrwt>
<rscale>  2 0.22444309E+03</rscale>
<asrwt>0</asrwt>
<pdfrwt beam="1">  1       21 0.12195596E-01 0.22444309E+03</pdfrwt>
<pdfrwt beam="2">  1       21 0.97771497E-01 0.22444309E+03</pdfrwt>
<totfact> 0.48588879E+04</totfact>
</mgrwt>
</event>
<event>
 4    1  0.4056666E+000  0.2040850E+03  0.7546771E-02  0.1146338E+00
         21   -1    0    0  503  502  0.00000000000E+00  0.00000000000E+00  0.69854224293E+03  0.69854224293E+03  0.00000000000E+00 0.  1.
         21   -1    0    0  501  503 -0.00000000000E+00 -0.00000000000E+00 -0.77447108971E+02  0.77447108971E+02  0.00000000000E+00 0.  1.
          6    1    1    2  501    0  0.59253903556E+02 -0.90612684541E+02  0.49667094297E+03  0.53696620869E+03  0.17300000000E+03 0.  1.
         -6    1    1    2    0  502 -0.59253903556E+02  0.90612684541E+02  0.12442419099E+03  0.23902314321E+03  0.17300000000E+03 0.  1.
<mgrwt>
<rscale>  2 0.20408499E+03</rscale>
<asrwt>0</asrwt>
<pdfrwt beam="1">  1       21 0.10746803E+00 0.20408499E+03</pdfrwt>
<pdfrwt beam="2">  1       21 0.11914940E-01 0.20408499E+03</pdfrwt>
<totfact> 0.40808105E+04</totfact>
</mgrwt>
</event>
<event>
 4    1  0.4056666E+000  0.2001900E+03  0.7546771E-02  0.1149579E+00
         21   -1    0    0  503  502  0.00000000000E+00  0.00000000000E+00  0.30686435303E+02  0.30686435303E+02  0.00000000000E+00 0. -1.
         21   -1    0    0  501  503 -0.00000000000E+00 -0.00000000000E+00 -0.15528089204E+04  0.15528089204E+04  0.00000000000E+00 0. -1.
          6    1    1    2  501    0 -0.10073066577E+03 -0.59160250285E+00 -0.44539974048E+03  0.48832053596E+03  0.17300000000E+03 0. -1.
         -6    1    1    2    0  502  0.10073066577E+03  0.59160250285E+00 -0.10767227446E+04  0.10951748197E+04  0.17300000000E+03 0. -1.
<mgrwt>
<rscale>  2 0.20018995E+03</rscale>
<asrwt>0</asrwt>
<pdfrwt beam="1">  1       21 0.47209892E-02 0.20018995E+03</pdfrwt>
<pdfrwt beam="2">  1       21 0.23889372E+00 0.20018995E+03</pdfrwt>
<totfact> 0.22788291E+04</totfact>
</mgrwt>
</event>
<event>
 4    1  0.4056666E+000  0.2141434E+03  0.7546771E-02  0.1138326E+00
         21   -1    0    0  503  502  0.00000000000E+00  0.00000000000E+00  0.23819240600E+03  0.23819240600E+03  0.00000000000E+00 0. -1.
         21   -1    0    0  501  503 -0.00000000000E+00 -0.00000000000E+00 -0.20378211599E+03  0.20378211599E+03  0.00000000000E+00 0. -1.
          6    1    1    2  501    0  0.11716078071E+03 -0.46922988275E+02  0.69150240281E+02  0.22503148912E+03  0.17300000000E+03 0. -1.
         -6    1    1    2    0  502 -0.11716078071E+03  0.46922988275E+02 -0.34739950272E+02  0.21694303287E+03  0.17300000000E+03 0. -1.
<mgrwt>
<rscale>  2 0.21414345E+03</rscale>
<asrwt>0</asrwt>
<pdfrwt beam="1">  1       21 0.36644985E-01 0.21414345E+03</pdfrwt>
<pdfrwt beam="2">  1       21 0.31351095E-01 0.21414345E+03</pdfrwt>
<totfact> 0.69559697E+04</totfact>
</mgrwt>
</event>
<event>
 4    1  0.4056666E+000  0.2112373E+03  0.7546771E-02  0.1140590E+00
         21   -1    0    0  501  502  0.00000000000E+00  0.00000000000E+00  0.60494505117E+03  0.60494505117E+03  0.00000000000E+00 0. -1.
         21   -1    0    0  502  503 -0.00000000000E+00 -0.00000000000E+00 -0.76386894300E+02  0.76386894300E+02  0.00000000000E+00 0. -1.
          6    1    1    2  501    0  0.10828786561E+03 -0.54460514745E+02  0.32744421174E+03  0.38966770626E+03  0.17300000000E+03 0. -1.
         -6    1    1    2    0  503 -0.10828786561E+03  0.54460514745E+02  0.20111394513E+03  0.29166423921E+03  0.17300000000E+03 0. -1.
<mgrwt>
<rscale>  2 0.21123733E+03</rscale>
<asrwt>0</asrwt>
<pdfrwt beam="1">  1       21 0.93068466E-01 0.21123733E+03</pdfrwt>
<pdfrwt beam="2">  1       21 0.11751830E-01 0.21123733E+03</pdfrwt>
<totfact> 0.58673184E+04</totfact>
</mgrwt>
</event>
<event>
 4    1  0.4056666E+000  0.2366694E+03  0.7546771E-02  0.1122032E+00
         21   -1    0    0  501  502  0.00000000000E+00  0.00000000000E+00  0.10569065178E+04  0.10569065178E+04  0.00000000000E+00 0. -1.
         21   -1    0    0  502  503 -0.00000000000E+00 -0.00000000000E+00 -0.31770268909E+03  0.31770268909E+03  0.00000000000E+00 0.  1.
          6    1    1    2  501    0  0.15754695109E+03  0.35529970113E+02  0.99696765297E+03  0.10246740563E+04  0.17300000000E+03 0. -1.
         -6    1    1    2    0  503 -0.15754695109E+03 -0.35529970113E+02 -0.25776382422E+03  0.34993515064E+03  0.17300000000E+03 0.  1.
<mgrwt>
<rscale>  2 0.23666943E+03</rscale>
<asrwt>0</asrwt>
<pdfrwt beam="1">  1       21 0.16260100E+00 0.23666943E+03</pdfrwt>
<pdfrwt beam="2">  1       21 0.48877337E-01 0.23666943E+03</pdfrwt>
<totfact> 0.92157538E+02</totfact>
</mgrwt>
</event>
<event>
 4    1  0.4056666E+000  0.1980999E+03  0.7546771E-02  0.1151352E+00
         21   -1    0    0  501  502  0.00000000000E+00  0.00000000000E+00  0.55791260803E+03  0.55791260803E+03  0.00000000000E+00 0.  1.
         21   -1    0    0  502  503 -0.00000000000E+00 -0.00000000000E+00 -0.70780295158E+02  0.70780295158E+02  0.00000000000E+00 0.  1.
          6    1    1    2  501    0 -0.14855868140E+02  0.95361766524E+02  0.21877294727E+03  0.29513584294E+03  0.17300000000E+03 0. -1.
         -6    1    1    2    0  503  0.14855868140E+02 -0.95361766524E+02  0.26835936560E+03  0.33355706025E+03  0.17300000000E+03 0. -1.
<mgrwt>
<rscale>  2 0.19809988E+03</rscale>
<asrwt>0</asrwt>
<pdfrwt beam="1">  1       21 0.85832706E-01 0.19809988E+03</pdfrwt>
<pdfrwt beam="2">  1       21 0.10889277E-01 0.19809988E+03</pdfrwt>
<totfact> 0.81566926E+04</totfact>
</mgrwt>
</event>
<event>
 4    1  0.4056666E+000  0.1781147E+03  0.7546771E-02  0.1169640E+00
         21   -1    0    0  501  502  0.00000000000E+00  0.00000000000E+00  0.14626161725E+03  0.14626161725E+03  0.00000000000E+00 0. -1.
         21   -1    0    0  502  503 -0.00000000000E+00 -0.00000000000E+00 -0.73403263147E+03  0.73403263147E+03  0.00000000000E+00 0. -1.
          6    1    1    2  501    0 -0.20679812055E+02 -0.36989059841E+02  0.75550435615E+02  0.19347535630E+03  0.17300000000E+03 0. -1.
         -6    1    1    2    0  503  0.20679812055E+02  0.36989059841E+02 -0.66332144984E+03  0.68681889242E+03  0.17300000000E+03 0. -1.
<mgrwt>
<rscale>  2 0.17811470E+03</rscale>
<asrwt>0</asrwt>
<pdfrwt beam="1">  1       21 0.22501787E-01 0.17811470E+03</pdfrwt>
<pdfrwt beam="2">  1       21 0.11292810E+00 0.17811470E+03</pdfrwt>
<totfact> 0.11453178E+04</totfact>
</mgrwt>
</event>
<event>
 4    1  0.4056666E+000  0.5169647E+03  0.7546771E-02  0.1009443E+00
         21   -1    0    0  501  502  0.00000000000E+00  0.00000000000E+00  0.67364844773E+03  0.67364844773E+03  0.00000000000E+00 0. -1.
         21   -1    0    0  502  503 -0.00000000000E+00 -0.00000000000E+00 -0.71309323970E+03  0.71309323970E+03  0.00000000000E+00 0.  1.
          6    1    1    2  501    0  0.39737688467E+03  0.28180684245E+03  0.44211549754E+03  0.68023422296E+03  0.17300000000E+03 0. -1.
         -6    1    1    2    0  503 -0.39737688467E+03 -0.28180684245E+03 -0.48156028951E+03  0.70650746447E+03  0.17300000000E+03 0.  1.
<mgrwt>
<rscale>  2 0.51696468E+03</rscale>
<asrwt>0</asrwt>
<pdfrwt beam="1">  1       21 0.10363822E+00 0.51696468E+03</pdfrwt>
<pdfrwt beam="2">  1       21 0.10970665E+00 0.51696468E+03</pdfrwt>
<totfact> 0.40095270E+02</totfact>
</mgrwt>
</event>
<event>
 4    1  0.4056666E+000  0.2017279E+03  0.7546771E-02  0.1148289E+00
         21   -1    0    0  501  502  0.00000000000E+00  0.00000000000E+00  0.13618427096E+03  0.13618427096E+03  0.00000000000E+00 0.  1.
         21   -1    0    0  502  503 -0.00000000000E+00 -0.00000000000E+00 -0.77269298180E+03  0.77269298180E+03  0.00000000000E+00 0. -1.
          6    1    1    2  501    0  0.86410056155E+02  0.57432023175E+02  0.37626182642E+02  0.20520688271E+03  0.17300000000E+03 0.  1.
         -6    1    1    2    0  503 -0.86410056155E+02 -0.57432023175E+02 -0.67413489348E+03  0.70367037006E+03  0.17300000000E+03 0. -1.
<mgrwt>
<rscale>  2 0.20172787E+03</rscale>
<asrwt>0</asrwt>
<pdfrwt beam="1">  1       21 0.20951427E-01 0.20172787E+03</pdfrwt>
<pdfrwt beam="2">  1       21 0.11887584E+00 0.20172787E+03</pdfrwt>
<totfact> 0.11365111E+04</totfact>
</mgrwt>
</event>
<event>
 4    1  0.4056666E+000  0.2263968E+03  0.7546771E-02  0.1129202E+00
         21   -1    0    0  501  502  0.00000000000E+00  0.00000000000E+00  0.30042581467E+03  0.30042581467E+03  0.00000000000E+00 0.  1.
         21   -1    0    0  502  503 -0.00000000000E+00 -0.00000000000E+00 -0.17124233880E+03  0.17124233880E+03  0.00000000000E+00 0.  1.
          6    1    1    2  501    0 -0.14523635383E+03  0.15260793617E+02  0.50254801465E+02  0.23190738532E+03  0.17300000000E+03 0.  1.
         -6    1    1    2    0  503  0.14523635383E+03 -0.15260793617E+02  0.78928674405E+02  0.23976076814E+03  0.17300000000E+03 0.  1.
<mgrwt>
<rscale>  2 0.22639675E+03</rscale>
<asrwt>0</asrwt>
<pdfrwt beam="1">  1       21 0.46219356E-01 0.22639675E+03</pdfrwt>
<pdfrwt beam="2">  1       21 0.26344975E-01 0.22639675E+03</pdfrwt>
<totfact> 0.60532468E+04</totfact>
</mgrwt>
</event>
<event>
 4    1  0.4056666E+000  0.1793234E+03  0.7546771E-02  0.1168459E+00
         21   -1    0    0  501  502  0.00000000000E+00  0.00000000000E+00  0.18620507430E+03  0.18620507430E+03  0.00000000000E+00 0. -1.
         21   -1    0    0  502  503 -0.00000000000E+00 -0.00000000000E+00 -0.19944581389E+03  0.19944581389E+03  0.00000000000E+00 0. -1.
          6    1    1    2  501    0  0.25267788629E+02 -0.39867522892E+02  0.63997053524E+02  0.19040090174E+03  0.17300000000E+03 0. -1.
         -6    1    1    2    0  503 -0.25267788629E+02  0.39867522892E+02 -0.77237793113E+02  0.19524998645E+03  0.17300000000E+03 0. -1.
<mgrwt>
<rscale>  2 0.17932340E+03</rscale>
<asrwt>0</asrwt>
<pdfrwt beam="1">  1       21 0.28646935E-01 0.17932340E+03</pdfrwt>
<pdfrwt beam="2">  1       21 0.30683971E-01 0.17932340E+03</pdfrwt>
<totfact> 0.11942515E+05</totfact>
</mgrwt>
</event>
<event>
 4    1  0.4056666E+000  0.2154852E+03  0.7546771E-02  0.1137294E+00
         21   -1    0    0  503  502  0.00000000000E+00  0.00000000000E+00  0.54409938462E+02  0.54409938462E+02  0.00000000000E+00 0.  1.
         21   -1    0    0  501  503 -0.00000000000E+00 -0.00000000000E+00 -0.85549588640E+03  0.85549588640E+03  0.00000000000E+00 0.  1.
          6    1    1    2  501    0  0.12691192044E+03  0.19956025689E+02 -0.42301838176E+03  0.47474038149E+03  0.17300000000E+03 0.  1.
         -6    1    1    2    0  502 -0.12691192044E+03 -0.19956025689E+02 -0.37806756618E+03  0.43516544337E+03  0.17300000000E+03 0.  1.
<mgrwt>
<rscale>  2 0.21548522E+03</rscale>
<asrwt>0</asrwt>
<pdfrwt beam="1">  1       21 0.83707603E-02 0.21548522E+03</pdfrwt>
<pdfrwt beam="2">  1       21 0.13161474E+00 0.21548522E+03</pdfrwt>
<totfact> 0.45888343E+04</totfact>
</mgrwt>
</event>
<event>
 4    1  0.4056666E+000  0.1886558E+03  0.7546771E-02  0.1159679E+00
         21   -1    0    0  501  502  0.00000000000E+00  0.00000000000E+00  0.16813450354E+03  0.16813450354E+03  0.00000000000E+00 0.  1.
         21   -1    0    0  502  503 -0.00000000000E+00 -0.00000000000E+00 -0.23133692732E+03  0.23133692732E+03  0.00000000000E+00 0.  1.
          6    1    1    2  501    0 -0.72389352824E+02 -0.20537897587E+02  0.26618569251E+02  0.19052446528E+03  0.17300000000E+03 0. -1.
         -6    1    1    2    0  503  0.72389352824E+02  0.20537897587E+02 -0.89820993034E+02  0.20894696559E+03  0.17300000000E+03 0. -1.
<mgrwt>
<rscale>  2 0.18865583E+03</rscale>
<asrwt>0</asrwt>
<pdfrwt beam="1">  1       21 0.25866847E-01 0.18865583E+03</pdfrwt>
<pdfrwt beam="2">  1       21 0.35590296E-01 0.18865583E+03</pdfrwt>
<totfact> 0.10818196E+05</totfact>
</mgrwt>
</event>
<event>
 4    1  0.4056666E+000  0.4687599E+03  0.7546771E-02  0.1022271E+00
         21   -1    0    0  503  502  0.00000000000E+00  0.00000000000E+00  0.93790946460E+03  0.93790946460E+03  0.00000000000E+00 0. -1.
         21   -1    0    0  501  503 -0.00000000000E+00 -0.00000000000E+00 -0.23660424466E+03  0.23660424466E+03  0.00000000000E+00 0. -1.
          6    1    1    2  501    0 -0.20147702686E+03  0.38628207345E+03  0.29248004357E+03  0.55252186247E+03  0.17300000000E+03 0. -1.
         -6    1    1    2    0  502  0.20147702686E+03 -0.38628207345E+03  0.40882517638E+03  0.62199184678E+03  0.17300000000E+03 0. -1.
<mgrwt>
<rscale>  2 0.46875989E+03</rscale>
<asrwt>0</asrwt>
<pdfrwt beam="1">  1       21 0.14429376E+00 0.46875989E+03</pdfrwt>
<pdfrwt beam="2">  1       21 0.36400653E-01 0.46875989E+03</pdfrwt>
<totfact> 0.20504306E+03</totfact>
</mgrwt>
</event>
<event>
 4    1  0.4056666E+000  0.1900876E+03  0.7546771E-02  0.1158382E+00
         21   -1    0    0  503  502  0.00000000000E+00  0.00000000000E+00  0.37670063574E+03  0.37670063574E+03  0.00000000000E+00 0. -1.
         21   -1    0    0  501  503 -0.00000000000E+00 -0.00000000000E+00 -0.97250368956E+02  0.97250368956E+02  0.00000000000E+00 0. -1.
          6    1    1    2  501    0 -0.23669801235E+02 -0.75126802595E+02  0.16743725508E+03  0.25331508117E+03  0.17300000000E+03 0. -1.
         -6    1    1    2    0  502  0.23669801235E+02  0.75126802595E+02  0.11201301170E+03  0.22063592352E+03  0.17300000000E+03 0. -1.
<mgrwt>
<rscale>  2 0.19008760E+03</rscale>
<asrwt>0</asrwt>
<pdfrwt beam="1">  1       21 0.57953943E-01 0.19008760E+03</pdfrwt>
<pdfrwt beam="2">  1       21 0.14961595E-01 0.19008760E+03</pdfrwt>
<totfact> 0.11010649E+05</totfact>
</mgrwt>
</event>
<event>
 4    1  0.4056666E+000  0.2267927E+03  0.7546771E-02  0.1128918E+00
         21   -1    0    0  501  502  0.00000000000E+00  0.00000000000E+00  0.15433935643E+04  0.15433935643E+04  0.00000000000E+00 0. -1.
         21   -1    0    0  502  503 -0.00000000000E+00 -0.00000000000E+00 -0.43373175309E+02  0.43373175309E+02  0.00000000000E+00 0.  1.
          6    1    1    2  501    0 -0.83787230020E+02  0.12035618482E+03  0.11318644140E+04  0.11543621455E+04  0.17300000000E+03 0. -1.
         -6    1    1    2    0  503  0.83787230020E+02 -0.12035618482E+03  0.36815597497E+03  0.43240459416E+03  0.17300000000E+03 0.  1.
<mgrwt>
<rscale>  2 0.22679266E+03</rscale>
<asrwt>0</asrwt>
<pdfrwt beam="1">  1       21 0.23744512E+00 0.22679266E+03</pdfrwt>
<pdfrwt beam="2">  1       21 0.66727974E-02 0.22679266E+03</pdfrwt>
<totfact> 0.12592926E+04</totfact>
</mgrwt>
</event>
<event>
 4    1  0.4056666E+000  0.2464855E+03  0.7546771E-02  0.1115546E+00
         21   -1    0    0  503  502  0.00000000000E+00  0.00000000000E+00  0.86570947025E+02  0.86570947025E+02  0.00000000000E+00 0.  1.
         21   -1    0    0  501  503 -0.00000000000E+00 -0.00000000000E+00 -0.93621200727E+03  0.93621200727E+03  0.00000000000E+00 0. -1.
          6    1    1    2  501    0 -0.14046314873E+03 -0.10533857945E+03 -0.68071467896E+03  0.72396656458E+03  0.17300000000E+03 0. -1.
         -6    1    1    2    0  502  0.14046314873E+03  0.10533857945E+03 -0.16892638128E+03  0.29881638972E+03  0.17300000000E+03 0.  1.
<mgrwt>
<rscale>  2 0.24648552E+03</rscale>
<asrwt>0</asrwt>
<pdfrwt beam="1">  1       21 0.13318607E-01 0.24648552E+03</pdfrwt>
<pdfrwt beam="2">  1       21 0.14403262E+00 0.24648552E+03</pdfrwt>
<totfact> 0.15632341E+04</totfact>
</mgrwt>
</event>
<event>
 4    1  0.4056666E+000  0.1764735E+03  0.7546771E-02  0.1171260E+00
         21   -1    0    0  501  502  0.00000000000E+00  0.00000000000E+00  0.38001972993E+02  0.38001972993E+02  0.00000000000E+00 0.  1.
         21   -1    0    0  502  503 -0.00000000000E+00 -0.00000000000E+00 -0.82638549311E+03  0.82638549311E+03  0.00000000000E+00 0.  1.
          6    1    1    2  501    0 -0.21636599172E+02  0.27308196120E+02 -0.43362261290E+03  0.46815750599E+03  0.17300000000E+03 0.  1.
         -6    1    1    2    0  503  0.21636599172E+02 -0.27308196120E+02 -0.35476090722E+03  0.39622996011E+03  0.17300000000E+03 0.  1.
<mgrwt>
<rscale>  2 0.17647345E+03</rscale>
<asrwt>0</asrwt>
<pdfrwt beam="1">  1       21 0.58464574E-02 0.17647345E+03</pdfrwt>
<pdfrwt beam="2">  1       21 0.12713623E+00 0.17647345E+03</pdfrwt>
<totfact> 0.94924956E+04</totfact>
</mgrwt>
</event>
<event>
 4    1  0.4056666E+000  0.1772700E+03  0.7546771E-02  0.1170472E+00
         21   -1    0    0  501  502  0.00000000000E+00  0.00000000000E+00  0.77872316844E+03  0.77872316844E+03  0.00000000000E+00 0. -1.
         21   -1    0    0  502  503 -0.00000000000E+00 -0.00000000000E+00 -0.40412817609E+02  0.40412817609E+02  0.00000000000E+00 0. -1.
          6    1    1    2  501    0  0.37578697426E+02  0.91374126569E+01  0.38477061216E+03  0.42364262627E+03  0.17300000000E+03 0. -1.
         -6    1    1    2    0  503 -0.37578697426E+02 -0.91374126569E+01  0.35353973868E+03  0.39549335978E+03  0.17300000000E+03 0. -1.
<mgrwt>
<rscale>  2 0.17726999E+03</rscale>
<asrwt>0</asrwt>
<pdfrwt beam="1">  1       21 0.11980355E+00 0.17726999E+03</pdfrwt>
<pdfrwt beam="2">  1       21 0.62173571E-02 0.17726999E+03</pdfrwt>
<totfact> 0.99031260E+04</totfact>
</mgrwt>
</event>
<event>
 4    1  0.4056666E+000  0.1787926E+03  0.7546771E-02  0.1168977E+00
         21   -1    0    0  503  502  0.00000000000E+00  0.00000000000E+00  0.33262921544E+03  0.33262921544E+03  0.00000000000E+00 0.  1.
         21   -1    0    0  501  503 -0.00000000000E+00 -0.00000000000E+00 -0.11277905198E+03  0.11277905198E+03  0.00000000000E+00 0.  1.
          6    1    1    2  501    0 -0.31660804520E+02  0.32177471394E+02  0.24289241891E+02  0.18043492866E+03  0.17300000000E+03 0.  1.
         -6    1    1    2    0  502  0.31660804520E+02 -0.32177471394E+02  0.19556092157E+03  0.26497333876E+03  0.17300000000E+03 0.  1.
<mgrwt>
<rscale>  2 0.17879261E+03</rscale>
<asrwt>0</asrwt>
<pdfrwt beam="1">  1       21 0.51173725E-01 0.17879261E+03</pdfrwt>
<pdfrwt beam="2">  1       21 0.17350624E-01 0.17879261E+03</pdfrwt>
<totfact> 0.10962930E+05</totfact>
</mgrwt>
</event>
<event>
 4    1  0.4056666E+000  0.1947376E+03  0.7546771E-02  0.1154256E+00
         21   -1    0    0  503  502  0.00000000000E+00  0.00000000000E+00  0.19657278079E+03  0.19657278079E+03  0.00000000000E+00 0.  1.
         21   -1    0    0  501  503 -0.00000000000E+00 -0.00000000000E+00 -0.20570140962E+03  0.20570140962E+03  0.00000000000E+00 0. -1.
          6    1    1    2  501    0 -0.30362628956E+02  0.84094302654E+02 -0.54702639459E+02  0.20227486186E+03  0.17300000000E+03 0. -1.
         -6    1    1    2    0  502  0.30362628956E+02 -0.84094302654E+02  0.45574010624E+02  0.19999932855E+03  0.17300000000E+03 0. -1.
<mgrwt>
<rscale>  2 0.19473762E+03</rscale>
<asrwt>0</asrwt>
<pdfrwt beam="1">  1       21 0.30241966E-01 0.19473762E+03</pdfrwt>
<pdfrwt beam="2">  1       21 0.31646371E-01 0.19473762E+03</pdfrwt>
<totfact> 0.10062394E+05</totfact>
</mgrwt>
</event>
<event>
 4    1  0.4056666E+000  0.1753746E+03  0.7546771E-02  0.1172356E+00
         21   -1    0    0  503  502  0.00000000000E+00  0.00000000000E+00  0.23995234874E+03  0.23995234874E+03  0.00000000000E+00 0. -1.
         21   -1    0    0  501  503 -0.00000000000E+00 -0.00000000000E+00 -0.27434407961E+03  0.27434407961E+03  0.00000000000E+00 0. -1.
          6    1    1    2  501    0  0.19689016513E+02 -0.20966675052E+02 -0.20489453886E+03  0.26969989041E+03  0.17300000000E+03 0. -1.
         -6    1    1    2    0  502 -0.19689016513E+02  0.20966675052E+02  0.17050280800E+03  0.24459653793E+03  0.17300000000E+03 0. -1.
<mgrwt>
<rscale>  2 0.17537462E+03</rscale>
<asrwt>0</asrwt>
<pdfrwt beam="1">  1       21 0.36915746E-01 0.17537462E+03</pdfrwt>
<pdfrwt beam="2">  1       21 0.42206782E-01 0.17537462E+03</pdfrwt>
<totfact> 0.38568633E+04</totfact>
</mgrwt>
</event>
<event>
 4    1  0.4056666E+000  0.2212031E+03  0.7546771E-02  0.1132989E+00
         21   -1    0    0  501  502  0.00000000000E+00  0.00000000000E+00  0.21778427154E+03  0.21778427154E+03  0.00000000000E+00 0. -1.
         21   -1    0    0  502  503 -0.00000000000E+00 -0.00000000000E+00 -0.29633842302E+03  0.29633842302E+03  0.00000000000E+00 0.  1.
          6    1    1    2  501    0 -0.69332259375E+02  0.11914219815E+03  0.87135290976E+02  0.23774647107E+03  0.17300000000E+03 0. -1.
         -6    1    1    2    0  503  0.69332259375E+02 -0.11914219815E+03 -0.16568944246E+03  0.27637622350E+03  0.17300000000E+03 0.  1.
<mgrwt>
<rscale>  2 0.22120313E+03</rscale>
<asrwt>0</asrwt>
<pdfrwt beam="1">  1       21 0.33505273E-01 0.22120313E+03</pdfrwt>
<pdfrwt beam="2">  1       21 0.45590527E-01 0.22120313E+03</pdfrwt>
<totfact> 0.39017696E+04</totfact>
</mgrwt>
</event>
<event>
 4    1  0.4056666E+000  0.2361846E+03  0.7546771E-02  0.1122361E+00
         21   -1    0    0  501  502  0.00000000000E+00  0.00000000000E+00  0.89456262604E+02  0.89456262604E+02  0.00000000000E+00 0.  1.
         21   -1    0    0  502  503 -0.00000000000E+00 -0.00000000000E+00 -0.65658179736E+03  0.65658179736E+03  0.00000000000E+00 0.  1.
          6    1    1    2  501    0 -0.94963506933E+02 -0.12975404003E+03 -0.36719087183E+03  0.43659170275E+03  0.17300000000E+03 0.  1.
         -6    1    1    2    0  503  0.94963506933E+02  0.12975404003E+03 -0.19993466293E+03  0.30944635722E+03  0.17300000000E+03 0.  1.
<mgrwt>
<rscale>  2 0.23618463E+03</rscale>
<asrwt>0</asrwt>
<pdfrwt beam="1">  1       21 0.13762502E-01 0.23618463E+03</pdfrwt>
<pdfrwt beam="2">  1       21 0.10101259E+00 0.23618463E+03</pdfrwt>
<totfact> 0.35938855E+04</totfact>
</mgrwt>
</event>
<event>
 4    1  0.4056666E+000  0.2647366E+03  0.7546771E-02  0.1104330E+00
         21   -1    0    0  501  502  0.00000000000E+00  0.00000000000E+00  0.80643889537E+03  0.80643889537E+03  0.00000000000E+00 0. -1.
         21   -1    0    0  502  503 -0.00000000000E+00 -0.00000000000E+00 -0.19913489548E+03  0.19913489548E+03  0.00000000000E+00 0.  1.
          6    1    1    2  501    0  0.61435373184E+02  0.19074102517E+03  0.68110254200E+03  0.73074353673E+03  0.17300000000E+03 0. -1.
         -6    1    1    2    0  503 -0.61435373184E+02 -0.19074102517E+03 -0.73798542106E+02  0.27483025412E+03  0.17300000000E+03 0.  1.
<mgrwt>
<rscale>  2 0.26473656E+03</rscale>
<asrwt>0</asrwt>
<pdfrwt beam="1">  1       21 0.12406752E+00 0.26473656E+03</pdfrwt>
<pdfrwt beam="2">  1       21 0.30636138E-01 0.26473656E+03</pdfrwt>
<totfact> 0.47223175E+03</totfact>
</mgrwt>
</event>
<event>
 4    1  0.4056666E+000  0.2492896E+03  0.7546771E-02  0.1113755E+00
         21   -1    0    0  501  502  0.00000000000E+00  0.00000000000E+00  0.23473771920E+04  0.23473771920E+04  0.00000000000E+00 0. -1.
         21   -1    0    0  502  503 -0.00000000000E+00 -0.00000000000E+00 -0.26754844300E+02  0.26754844300E+02  0.00000000000E+00 0. -1.
          6    1    1    2  501    0  0.17069503285E+03 -0.55493151987E+02  0.12818558878E+04  0.13058712805E+04  0.17300000000E+03 0. -1.
         -6    1    1    2    0  503 -0.17069503285E+03  0.55493151987E+02  0.10387664598E+04  0.10682607557E+04  0.17300000000E+03 0. -1.
<mgrwt>
<rscale>  2 0.24928956E+03</rscale>
<asrwt>0</asrwt>
<pdfrwt beam="1">  1       21 0.36113479E+00 0.24928956E+03</pdfrwt>
<pdfrwt beam="2">  1       21 0.41161317E-02 0.24928956E+03</pdfrwt>
<totfact> 0.52611718E+03</totfact>
</mgrwt>
</event>
<event>
 4    1  0.4056666E+000  0.2275264E+03  0.7546771E-02  0.1128393E+00
         21   -1    0    0  501  502  0.00000000000E+00  0.00000000000E+00  0.22772407227E+03  0.22772407227E+03  0.00000000000E+00 0.  1.
         21   -1    0    0  502  503 -0.00000000000E+00 -0.00000000000E+00 -0.28265226647E+03  0.28265226647E+03  0.00000000000E+00 0.  1.
          6    1    1    2  501    0  0.91725746359E+02  0.11586920391E+03  0.85434415165E+02  0.24303770130E+03  0.17300000000E+03 0.  1.
         -6    1    1    2    0  503 -0.91725746359E+02 -0.11586920391E+03 -0.14036260936E+03  0.26733863744E+03  0.17300000000E+03 0.  1.
<mgrwt>
<rscale>  2 0.22752645E+03</rscale>
<asrwt>0</asrwt>
<pdfrwt beam="1">  1       21 0.35034473E-01 0.22752645E+03</pdfrwt>
<pdfrwt beam="2">  1       21 0.43484964E-01 0.22752645E+03</pdfrwt>
<totfact> 0.39240676E+04</totfact>
</mgrwt>
</event>
<event>
 4    1  0.4056666E+000  0.3542226E+03  0.7546771E-02  0.1060895E+00
         21   -1    0    0  501  502  0.00000000000E+00  0.00000000000E+00  0.28432625313E+03  0.28432625313E+03  0.00000000000E+00 0. -1.
         21   -1    0    0  502  503 -0.00000000000E+00 -0.00000000000E+00 -0.63688908453E+03  0.63688908453E+03  0.00000000000E+00 0. -1.
          6    1    1    2  501    0  0.61293412946E+02  0.30296492457E+03  0.78970965183E+02  0.36291878063E+03  0.17300000000E+03 0. -1.
         -6    1    1    2    0  503 -0.61293412946E+02 -0.30296492457E+03 -0.43153379659E+03  0.55829655703E+03  0.17300000000E+03 0. -1.
<mgrwt>
<rscale>  2 0.35422257E+03</rscale>
<asrwt>0</asrwt>
<pdfrwt beam="1">  1       21 0.43742501E-01 0.35422257E+03</pdfrwt>
<pdfrwt beam="2">  1       21 0.97982936E-01 0.35422257E+03</pdfrwt>
<totfact> 0.39239882E+03</totfact>
</mgrwt>
</event>
<event>
 4    1  0.4056666E+000  0.1827438E+03  0.7546771E-02  0.1165174E+00
         21   -1    0    0  503  502  0.00000000000E+00  0.00000000000E+00  0.36627916198E+03  0.36627916198E+03  0.00000000000E+00 0.  1.
         21   -1    0    0  501  503 -0.00000000000E+00 -0.00000000000E+00 -0.21236042976E+03  0.21236042976E+03  0.00000000000E+00 0.  1.
          6    1    1    2  501    0 -0.58240676419E+02  0.86199778025E+01 -0.14159910442E+03  0.23118301577E+03  0.17300000000E+03 0.  1.
         -6    1    1    2    0  502  0.58240676419E+02 -0.86199778025E+01  0.29551783665E+03  0.34745657597E+03  0.17300000000E+03 0.  1.
<mgrwt>
<rscale>  2 0.18274376E+03</rscale>
<asrwt>0</asrwt>
<pdfrwt beam="1">  1       21 0.56350640E-01 0.18274376E+03</pdfrwt>
<pdfrwt beam="2">  1       21 0.32670835E-01 0.18274376E+03</pdfrwt>
<totfact> 0.26862634E+04</totfact>
</mgrwt>
</event>
<event>
 4    1  0.4056666E+000  0.2043406E+03  0.7546771E-02  0.1146128E+00
         21   -1    0    0  501  502  0.00000000000E+00  0.00000000000E+00  0.30206961623E+02  0.30206961623E+02  0.00000000000E+00 0. -1.
         21   -1    0    0  502  503 -0.00000000000E+00 -0.00000000000E+00 -0.17577382287E+04  0.17577382287E+04  0.00000000000E+00 0. -1.
          6    1    1    2  501    0  0.58655036083E+02  0.91573221612E+02 -0.45060718538E+03  0.49477459888E+03  0.17300000000E+03 0. -1.
         -6    1    1    2    0  503 -0.58655036083E+02 -0.91573221612E+02 -0.12769240817E+04  0.12931705914E+04  0.17300000000E+03 0. -1.
<mgrwt>
<rscale>  2 0.20434057E+03</rscale>
<asrwt>0</asrwt>
<pdfrwt beam="1">  1       21 0.46472242E-02 0.20434057E+03</pdfrwt>
<pdfrwt beam="2">  1       21 0.27042131E+00 0.20434057E+03</pdfrwt>
<totfact> 0.15221789E+04</totfact>
</mgrwt>
</event>
<event>
 4    1  0.4056666E+000  0.3318354E+03  0.7546771E-02  0.1070328E+00
         21   -1    0    0  501  502  0.00000000000E+00  0.00000000000E+00  0.50967205603E+03  0.50967205603E+03  0.00000000000E+00 0. -1.
         21   -1    0    0  502  503 -0.00000000000E+00 -0.00000000000E+00 -0.68457925947E+03  0.68457925947E+03  0.00000000000E+00 0. -1.
          6    1    1    2  501    0 -0.23435868445E+03  0.15893940932E+03  0.40654093859E+03  0.52477639387E+03  0.17300000000E+03 0. -1.
         -6    1    1    2    0  503  0.23435868445E+03 -0.15893940932E+03 -0.58144814204E+03  0.66947492163E+03  0.17300000000E+03 0. -1.
<mgrwt>
<rscale>  2 0.33183539E+03</rscale>
<asrwt>0</asrwt>
<pdfrwt beam="1">  1       21 0.78411086E-01 0.33183539E+03</pdfrwt>
<pdfrwt beam="2">  1       21 0.10531989E+00 0.33183539E+03</pdfrwt>
<totfact> 0.93771764E+02</totfact>
</mgrwt>
</event>
